<event>
12    6  0.1450532E-007  0.2671620E+04  0.7818608E-02  0.8344272E-01
          2   -1    0    0  501    0  0.00000000000E+00  0.00000000000E+00  0.32484173623E+04  0.32484173623E+04  0.00000000000E+00 0. -1.
         -1   -1    0    0    0  501 -0.00000000000E+00 -0.00000000000E+00 -0.54931016408E+03  0.54931016408E+03  0.00000000000E+00 0.  1.
         24    2    1    2    0    0  0.24705564933E+03  0.27796635755E+03 -0.39931344776E+03  0.55106773114E+03  0.76958592444E+02 0.  0.
        254    2    1    2    0    0 -0.24705564933E+03 -0.27796635755E+03  0.30984206460E+04  0.32466597952E+04  0.89570505008E+03 0.  0.
         23    2    4    4    0    0  0.28181020813E+03 -0.16658530827E+03  0.18819749063E+04  0.19123870300E+04  0.90702514108E+02 0.  0.
         23    2    4    4    0    0 -0.52886585746E+03 -0.11138104927E+03  0.12164457397E+04  0.13342727653E+04  0.91862621557E+02 0.  0.
          4    1    3    3  502    0  0.19770070940E+02 -0.73686187478E+00 -0.26466701842E+02  0.33043682858E+02  0.00000000000E+00 0. -1.
         -3    1    3    3    0  502  0.22728557839E+03  0.27870321942E+03 -0.37284674592E+03  0.51802404828E+03  0.00000000000E+00 0.  1.
         11    1    5    5    0    0  0.23935226417E+03 -0.17073865288E+03  0.17167308742E+04  0.17417250323E+04  0.00000000000E+00 0. -1.
        -11    1    5    5    0    0  0.42457943957E+02  0.41533446002E+01  0.16524403218E+03  0.17066199767E+03  0.00000000000E+00 0.  1.
          3    1    6    6  503    0 -0.44156747468E+03 -0.86081593330E+02  0.91826245119E+03  0.10225447690E+04  0.00000000000E+00 0. -1.
         -3    1    6    6    0  503 -0.87298382778E+02 -0.25299455940E+02  0.29818328848E+03  0.31172799623E+03  0.00000000000E+00 0.  1.
<mgrwt>
<rscale>  0 0.26716202E+04</rscale>
<asrwt>0</asrwt>
<pdfrwt beam="1">  1        2 0.49975651E+00 0.26716202E+04</pdfrwt>
<pdfrwt beam="2">  1       -1 0.84509258E-01 0.26716202E+04</pdfrwt>
<totfact> 0.16702808E+00</totfact>
</mgrwt>
</event>
<event>
12    6  0.1450532E-007  0.1884299E+04  0.7818608E-02  0.8662712E-01
         -1   -1    0    0    0  501 -0.00000000000E+00  0.00000000000E+00  0.83755190991E+03  0.83755190991E+03  0.00000000000E+00 0.  1.
          2   -1    0    0  501    0  0.00000000000E+00 -0.00000000000E+00 -0.10598093082E+04  0.10598093082E+04  0.00000000000E+00 0. -1.
         24    2    1    2    0    0  0.55249562249E+03 -0.35534170595E+03 -0.50042608076E+03  0.82965898890E+03  0.79928935245E+02 0.  0.
        254    2    1    2    0    0 -0.55249562249E+03  0.35534170595E+03  0.27816868248E+03  0.10677022292E+04  0.79441242028E+03 0.  0.
         23    2    4    4    0    0  0.14363175357E+03  0.27306285524E+03  0.11895886542E+03  0.34320594383E+03  0.91900515086E+02 0.  0.
         23    2    4    4    0    0 -0.69612737606E+03  0.82278850709E+02  0.15920981706E+03  0.72449628538E+03  0.90465290055E+02 0.  0.
          4    1    3    3  502    0  0.48232176379E+03 -0.29273475732E+03 -0.39707179527E+03  0.68992313526E+03  0.00000000000E+00 0. -1.
         -3    1    3    3    0  502  0.70173858702E+02 -0.62606948633E+02 -0.10335428549E+03  0.13973585364E+03  0.00000000000E+00 0.  1.
         11    1    5    5    0    0  0.12822912957E+03  0.23694597653E+03  0.13431895183E+03  0.30104432612E+03  0.00000000000E+00 0. -1.
        -11    1    5    5    0    0  0.15402623996E+02  0.36116878713E+02 -0.15360086412E+02  0.42161617717E+02  0.00000000000E+00 0.  1.
          2    1    6    6  503    0 -0.32785734033E+03  0.28601857255E+02  0.29681263994E+02  0.33043831388E+03  0.00000000000E+00 0. -1.
         -2    1    6    6    0  503 -0.36827003573E+03  0.53676993454E+02  0.12952855307E+03  0.39405797150E+03  0.00000000000E+00 0.  1.
<mgrwt>
<rscale>  0 0.18842986E+04</rscale>
<asrwt>0</asrwt>
<pdfrwt beam="1">  1        2 0.16304758E+00 0.18842986E+04</pdfrwt>
<pdfrwt beam="2">  1       -1 0.12885414E+00 0.18842986E+04</pdfrwt>
<totfact> 0.12803195E+01</totfact>
</mgrwt>
</event>
<event>
12    6  0.1450532E-007  0.1445347E+04  0.7818608E-02  0.8921633E-01
          4   -1    0    0  501    0  0.00000000000E+00  0.00000000000E+00  0.38054655123E+03  0.38054655123E+03  0.00000000000E+00 0. -1.
         -3   -1    0    0    0  501 -0.00000000000E+00 -0.00000000000E+00 -0.13723864738E+04  0.13723864738E+04  0.00000000000E+00 0.  1.
         24    2    1    2    0    0  0.23597889566E+03  0.33078577186E+03 -0.29265205908E+03  0.50797666905E+03  0.85380340522E+02 0.  0.
        254    2    1    2    0    0 -0.23597889566E+03 -0.33078577186E+03 -0.69918786351E+03  0.12449563560E+04  0.94654497717E+03 0.  0.
         23    2    4    4    0    0  0.70017446830E+02 -0.68240150615E+02 -0.80643032823E+03  0.81757218260E+03  0.92386354274E+02 0.  0.
         23    2    4    4    0    0 -0.30599634249E+03 -0.26254562125E+03  0.10724246472E+03  0.42738417340E+03  0.92694771039E+02 0.  0.
          2    1    3    3  502    0  0.21770172240E+02  0.53432926518E+02 -0.11828161197E+02  0.58897567292E+02  0.00000000000E+00 0. -1.
         -1    1    3    3    0  502  0.21420872342E+03  0.27735284535E+03 -0.28082389788E+03  0.44907910175E+03  0.00000000000E+00 0.  1.
         11    1    5    5    0    0  0.60901123491E+02 -0.50209151439E+02 -0.78153108025E+03  0.78550667414E+03  0.00000000000E+00 0. -1.
        -11    1    5    5    0    0  0.91163233387E+01 -0.18030999177E+02 -0.24899247983E+02  0.32065508457E+02  0.00000000000E+00 0.  1.
          3    1    6    6  503    0 -0.28416748176E+03 -0.24634728630E+03  0.12334158362E+03  0.39579197744E+03  0.00000000000E+00 0. -1.
         -3    1    6    6    0  503 -0.21828860726E+02 -0.16198334948E+02 -0.16099118902E+02  0.31592195953E+02  0.00000000000E+00 0.  1.
<mgrwt>
<rscale>  0 0.14453469E+04</rscale>
<asrwt>0</asrwt>
<pdfrwt beam="1">  1        4 0.58545624E-01 0.14453469E+04</pdfrwt>
<pdfrwt beam="2">  1       -3 0.21113638E+00 0.14453469E+04</pdfrwt>
<totfact> 0.76648088E-01</totfact>
</mgrwt>
</event>
<event>
12    6  0.1450532E-007  0.1546838E+04  0.7818608E-02  0.8853890E-01
         -1   -1    0    0    0  501 -0.00000000000E+00  0.00000000000E+00  0.55722079052E+03  0.55722079052E+03  0.00000000000E+00 0.  1.
          2   -1    0    0  501    0  0.00000000000E+00 -0.00000000000E+00 -0.10735012671E+04  0.10735012671E+04  0.00000000000E+00 0. -1.
         24    2    1    2    0    0 -0.54583292723E+02 -0.44317272152E+03 -0.41757431688E+03  0.61648503780E+03  0.79398329750E+02 0.  0.
        254    2    1    2    0    0  0.54583292723E+02  0.44317272152E+03 -0.98706159741E+02  0.10142370199E+04  0.90529135064E+03 0.  0.
         23    2    4    4    0    0 -0.32383854221E+03 -0.70660562957E+02 -0.13493426626E+03  0.36914051953E+03  0.90516022705E+02 0.  0.
         23    2    4    4    0    0  0.37842183494E+03  0.51383328447E+03  0.36228106522E+02  0.64509650033E+03  0.87231242402E+02 0.  0.
          2    1    3    3  502    0 -0.28548774781E+02 -0.39815186631E+03 -0.34764073468E+03  0.52933356364E+03  0.00000000000E+00 0. -1.
         -1    1    3    3    0  502 -0.26034517941E+02 -0.45020855206E+02 -0.69933582203E+02  0.87151474156E+02  0.00000000000E+00 0.  1.
         11    1    5    5    0    0 -0.60863896543E+02 -0.40037222068E+02 -0.58909738197E+02  0.93689648883E+02  0.00000000000E+00 0. -1.
        -11    1    5    5    0    0 -0.26297464567E+03 -0.30623340889E+02 -0.76024528066E+02  0.27545087065E+03  0.00000000000E+00 0.  1.
          1    1    6    6  503    0  0.42295477578E+02  0.11329565864E+03 -0.31668799983E+00  0.12093351058E+03  0.00000000000E+00 0. -1.
         -1    1    6    6    0  503  0.33612635736E+03  0.40053762583E+03  0.36544794522E+02  0.52416298975E+03  0.00000000000E+00 0.  1.
<mgrwt>
<rscale>  0 0.15468384E+04</rscale>
<asrwt>0</asrwt>
<pdfrwt beam="1">  1        2 0.16515404E+00 0.15468384E+04</pdfrwt>
<pdfrwt beam="2">  1       -1 0.85726276E-01 0.15468384E+04</pdfrwt>
<totfact> 0.33405237E+01</totfact>
</mgrwt>
</event>
<event>
12    6  0.1450532E-007  0.1326982E+04  0.7818608E-02  0.9008438E-01
         -1   -1    0    0    0  501 -0.00000000000E+00  0.00000000000E+00  0.28636942390E+03  0.28636942390E+03  0.00000000000E+00 0.  1.
          2   -1    0    0  501    0  0.00000000000E+00 -0.00000000000E+00 -0.15372463938E+04  0.15372463938E+04  0.00000000000E+00 0. -1.
         24    2    1    2    0    0 -0.19181170001E+03 -0.18404561540E+03 -0.20788850436E+02  0.27748191502E+03  0.76808333234E+02 0.  0.
        254    2    1    2    0    0  0.19181170001E+03  0.18404561540E+03 -0.12300881195E+04  0.15461339027E+04  0.89819193190E+03 0.  0.
         23    2    4    4    0    0 -0.52687640711E+01  0.34640982445E+03 -0.83021321786E+02  0.36743482601E+03  0.89934893913E+02 0.  0.
         23    2    4    4    0    0  0.19708046408E+03 -0.16236420905E+03 -0.11470667977E+04  0.11786990767E+04  0.91468187255E+02 0.  0.
          4    1    3    3  502    0 -0.15890612810E+02 -0.50927857313E+02  0.11350741848E+02  0.54543538265E+02  0.00000000000E+00 0. -1.
         -3    1    3    3    0  502 -0.17592108720E+03 -0.13311775809E+03 -0.32139592284E+02  0.22293837676E+03  0.00000000000E+00 0.  1.
         11    1    5    5    0    0 -0.31372925856E+02  0.88235915425E+02  0.40247880382E+01  0.93733858165E+02  0.00000000000E+00 0. -1.
        -11    1    5    5    0    0  0.26104161785E+02  0.25817390902E+03 -0.87046109824E+02  0.27370096784E+03  0.00000000000E+00 0.  1.
          4    1    6    6  503    0  0.56327616465E+02 -0.87112615622E+02 -0.59695000366E+03  0.60589662076E+03  0.00000000000E+00 0.  1.
         -4    1    6    6    0  503  0.14075284761E+03 -0.75251593430E+02 -0.55011679403E+03  0.57280245591E+03  0.00000000000E+00 0. -1.
<mgrwt>
<rscale>  0 0.13269821E+04</rscale>
<asrwt>0</asrwt>
<pdfrwt beam="1">  1        2 0.23649944E+00 0.13269821E+04</pdfrwt>
<pdfrwt beam="2">  1       -1 0.44056835E-01 0.13269821E+04</pdfrwt>
<totfact> 0.68675795E+01</totfact>
</mgrwt>
</event>
<event>
12    6  0.1450532E-007  0.1433189E+04  0.7818608E-02  0.8930139E-01
         -1   -1    0    0    0  501 -0.00000000000E+00  0.00000000000E+00  0.11524499878E+04  0.11524499878E+04  0.00000000000E+00 0.  1.
          2   -1    0    0  501    0  0.00000000000E+00 -0.00000000000E+00 -0.44557940118E+03  0.44557940118E+03  0.00000000000E+00 0. -1.
         24    2    1    2    0    0 -0.25033712643E+03  0.10350046883E+03  0.59833578377E+03  0.66159410465E+03  0.79498586483E+02 0.  0.
        254    2    1    2    0    0  0.25033712643E+03 -0.10350046883E+03  0.10853480282E+03  0.93643528431E+03  0.88980346951E+03 0.  0.
         23    2    4    4    0    0  0.84838905411E+02  0.37858476432E+02  0.47921045422E+03  0.49667993276E+03  0.91746346336E+02 0.  0.
         23    2    4    4    0    0  0.16549822101E+03 -0.14135894526E+03 -0.37067565139E+03  0.43975535155E+03  0.92802576006E+02 0.  0.
          4    1    3    3  502    0 -0.96978179860E+02  0.61497673615E+02  0.33320820908E+03  0.35244069264E+03  0.00000000000E+00 0. -1.
         -3    1    3    3    0  502 -0.15335894657E+03  0.42002795211E+02  0.26512757470E+03  0.30915341202E+03  0.00000000000E+00 0.  1.
         11    1    5    5    0    0  0.97533426944E+01 -0.25835751470E+02  0.59824734396E+02  0.65890914345E+02  0.00000000000E+00 0. -1.
        -11    1    5    5    0    0  0.75085562716E+02  0.63694227901E+02  0.41938571982E+03  0.43078901842E+03  0.00000000000E+00 0.  1.
          4    1    6    6  503    0  0.10905597700E+03 -0.14334988170E+03 -0.28006819515E+03  0.33298737008E+03  0.00000000000E+00 0.  1.
         -4    1    6    6    0  503  0.56442244019E+02  0.19909364454E+01 -0.90607456246E+02  0.10676798146E+03  0.00000000000E+00 0. -1.
<mgrwt>
<rscale>  0 0.14331894E+04</rscale>
<asrwt>0</asrwt>
<pdfrwt beam="1">  1        2 0.68550677E-01 0.14331894E+04</pdfrwt>
<pdfrwt beam="2">  1       -1 0.17730000E+00 0.14331894E+04</pdfrwt>
<totfact> 0.17000782E+01</totfact>
</mgrwt>
</event>
<event>
12    6  0.1450532E-007  0.1267653E+04  0.7818608E-02  0.9055617E-01
         -1   -1    0    0    0  501 -0.00000000000E+00  0.00000000000E+00  0.33844749076E+03  0.33844749076E+03  0.00000000000E+00 0.  1.
          2   -1    0    0  501    0  0.00000000000E+00 -0.00000000000E+00 -0.11869973902E+04  0.11869973902E+04  0.00000000000E+00 0. -1.
         24    2    1    2    0    0 -0.22160060878E+03 -0.29373928908E+03 -0.27721613375E+03  0.46817582842E+03  0.83367989941E+02 0.  0.
        254    2    1    2    0    0  0.22160060878E+03  0.29373928908E+03 -0.57133376572E+03  0.10572690526E+04  0.80994195960E+03 0.  0.
         23    2    4    4    0    0  0.42547806570E+03  0.13605115001E+03 -0.63083835381E+03  0.77813959523E+03  0.89457818093E+02 0.  0.
         23    2    4    4    0    0 -0.20387745693E+03  0.15768813906E+03  0.59504588087E+02  0.27912945734E+03  0.89111678848E+02 0.  0.
          2    1    3    3  502    0 -0.15337953631E+02 -0.13807574087E+02 -0.46516360414E+02  0.50888836791E+02  0.00000000000E+00 0. -1.
         -1    1    3    3    0  502 -0.20626265515E+03 -0.27993171499E+03 -0.23069977334E+03  0.41728699163E+03  0.00000000000E+00 0.  1.
         11    1    5    5    0    0  0.10656095937E+03 -0.23638731291E+01 -0.17414569092E+03  0.20417528652E+03  0.00000000000E+00 0.  1.
        -11    1    5    5    0    0  0.31891710633E+03  0.13841502314E+03 -0.45669266288E+03  0.57396430871E+03  0.00000000000E+00 0. -1.
          1    1    6    6  503    0 -0.14283484512E+03  0.80575938983E+02 -0.35709940511E+00  0.16399512933E+03  0.00000000000E+00 0. -1.
         -1    1    6    6    0  503 -0.61042611809E+02  0.77112200080E+02  0.59861687492E+02  0.11513432801E+03  0.00000000000E+00 0.  1.
<mgrwt>
<rscale>  0 0.12676534E+04</rscale>
<asrwt>0</asrwt>
<pdfrwt beam="1">  1        2 0.18261498E+00 0.12676534E+04</pdfrwt>
<pdfrwt beam="2">  1       -1 0.52068846E-01 0.12676534E+04</pdfrwt>
<totfact> 0.80199139E+01</totfact>
</mgrwt>
</event>
<event>
12    6  0.1450532E-007  0.1171875E+04  0.7818608E-02  0.9137837E-01
         -1   -1    0    0    0  501 -0.00000000000E+00  0.00000000000E+00  0.41440603696E+03  0.41440603696E+03  0.00000000000E+00 0.  1.
          2   -1    0    0  501    0  0.00000000000E+00 -0.00000000000E+00 -0.82846940984E+03  0.82846940984E+03  0.00000000000E+00 0. -1.
         24    2    1    2    0    0  0.78362882720E+02  0.20720010091E+03 -0.15305625969E+03  0.28088242941E+03  0.79975604490E+02 0.  0.
        254    2    1    2    0    0 -0.78362882720E+02 -0.20720010091E+03 -0.26100711320E+03  0.96199301740E+03  0.89901792483E+03 0.  0.
         23    2    4    4    0    0  0.27208842510E+03 -0.36738148627E+03 -0.31532330917E+03  0.56235880318E+03  0.88415873494E+02 0.  0.
         23    2    4    4    0    0 -0.35045130782E+03  0.16018138535E+03  0.54316195978E+02  0.39963421421E+03  0.91011321600E+02 0.  0.
          2    1    3    3  502    0 -0.94761099529E+01  0.30330957319E+02 -0.46975751575E+02  0.56714062345E+02  0.00000000000E+00 0. -1.
         -1    1    3    3    0  502  0.87838992673E+02  0.17686914359E+03 -0.10608050811E+03  0.22416836706E+03  0.00000000000E+00 0.  1.
         11    1    5    5    0    0  0.89085330719E+02 -0.74057772203E+02 -0.48282649362E+02  0.12550682851E+03  0.00000000000E+00 0.  1.
        -11    1    5    5    0    0  0.18300309438E+03 -0.29332371406E+03 -0.26704065981E+03  0.43685197467E+03  0.00000000000E+00 0. -1.
          2    1    6    6  503    0 -0.18562636830E+03  0.82700005191E+02  0.74390302704E+02  0.21640322688E+03  0.00000000000E+00 0. -1.
         -2    1    6    6    0  503 -0.16482493952E+03  0.77481380161E+02 -0.20074106727E+02  0.18323098734E+03  0.00000000000E+00 0.  1.
<mgrwt>
<rscale>  0 0.11718750E+04</rscale>
<asrwt>0</asrwt>
<pdfrwt beam="1">  1        2 0.12745683E+00 0.11718750E+04</pdfrwt>
<pdfrwt beam="2">  1       -1 0.63754776E-01 0.11718750E+04</pdfrwt>
<totfact> 0.92543084E+01</totfact>
</mgrwt>
</event>
<event>
12    6  0.1450532E-007  0.2379124E+04  0.7818608E-02  0.8447361E-01
          2   -1    0    0  501    0  0.00000000000E+00  0.00000000000E+00  0.92120438583E+03  0.92120438583E+03  0.00000000000E+00 0. -1.
         -1   -1    0    0    0  501 -0.00000000000E+00 -0.00000000000E+00 -0.15360955895E+04  0.15360955895E+04  0.00000000000E+00 0.  1.
         24    2    1    2    0    0 -0.40343345100E+03  0.78563252950E+03  0.25910685361E+03  0.92392518597E+03  0.80773553123E+02 0.  0.
        254    2    1    2    0    0  0.40343345100E+03 -0.78563252950E+03 -0.87399805729E+03  0.15333747894E+04  0.89854806202E+03 0.  0.
         23    2    4    4    0    0 -0.57554101679E+02  0.94338728837E+02  0.70266996183E+02  0.15984882380E+03  0.91662016888E+02 0.  0.
         23    2    4    4    0    0  0.46098755268E+03 -0.87997125834E+03 -0.94426505348E+03  0.13735259656E+04  0.89878516220E+02 0.  0.
          2    1    3    3  502    0 -0.95352068660E+02  0.22471189984E+03  0.10464835663E+03  0.26559129028E+03  0.00000000000E+00 0. -1.
         -1    1    3    3    0  502 -0.30808138234E+03  0.56092062966E+03  0.15445849698E+03  0.65833389569E+03  0.00000000000E+00 0.  1.
         11    1    5    5    0    0 -0.24265165261E+02  0.58558206189E+02  0.87483725837E+02  0.10803362460E+03  0.00000000000E+00 0.  1.
        -11    1    5    5    0    0 -0.33288936417E+02  0.35780522649E+02 -0.17216729654E+02  0.51815199206E+02  0.00000000000E+00 0. -1.
          2    1    6    6  503    0  0.23519370050E+03 -0.51372965129E+03 -0.58101074028E+03  0.81043674133E+03  0.00000000000E+00 0. -1.
         -2    1    6    6    0  503  0.22579385218E+03 -0.36624160705E+03 -0.36325431320E+03  0.56308922426E+03  0.00000000000E+00 0.  1.
<mgrwt>
<rscale>  0 0.23791242E+04</rscale>
<asrwt>0</asrwt>
<pdfrwt beam="1">  1        2 0.14172375E+00 0.23791242E+04</pdfrwt>
<pdfrwt beam="2">  1       -1 0.23632240E+00 0.23791242E+04</pdfrwt>
<totfact> 0.24983914E+00</totfact>
</mgrwt>
</event>
<event>
12    6  0.1450532E-007  0.1198932E+04  0.7818608E-02  0.9113792E-01
         -1   -1    0    0    0  501 -0.00000000000E+00  0.00000000000E+00  0.31703236650E+03  0.31703236650E+03  0.00000000000E+00 0.  1.
          2   -1    0    0  501    0  0.00000000000E+00 -0.00000000000E+00 -0.11335111285E+04  0.11335111285E+04  0.00000000000E+00 0. -1.
         24    2    1    2    0    0 -0.11159281857E+03  0.30246832649E+02  0.89412895284E+02  0.16596606430E+03  0.78627225647E+02 0.  0.
        254    2    1    2    0    0  0.11159281857E+03 -0.30246832649E+02 -0.90589165724E+03  0.12845774307E+04  0.90340005128E+03 0.  0.
         23    2    4    4    0    0 -0.51236133573E+02  0.38404609426E+03 -0.20226573494E+03  0.44660643598E+03  0.91811422109E+02 0.  0.
         23    2    4    4    0    0  0.16282895215E+03 -0.41429292691E+03 -0.70362592230E+03  0.83797099467E+03  0.94625854979E+02 0.  0.
          2    1    3    3  502    0 -0.97645196233E+02  0.27627131183E+02  0.31374357921E+02  0.10621766830E+03  0.00000000000E+00 0. -1.
         -1    1    3    3    0  502 -0.13947622341E+02  0.26197014659E+01  0.58038537363E+02  0.59748395995E+02  0.00000000000E+00 0.  1.
         11    1    5    5    0    0 -0.65762615234E+02  0.33617972853E+03 -0.19971500122E+03  0.39651937298E+03  0.00000000000E+00 0.  1.
        -11    1    5    5    0    0  0.14526481661E+02  0.47866365737E+02 -0.25507337241E+01  0.50087063009E+02  0.00000000000E+00 0. -1.
          1    1    6    6  503    0  0.71840582107E+02 -0.22848508810E+03 -0.45781089658E+03  0.51667912842E+03  0.00000000000E+00 0. -1.
         -1    1    6    6    0  503  0.90988370040E+02 -0.18580783881E+03 -0.24581502572E+03  0.32129186624E+03  0.00000000000E+00 0.  1.
<mgrwt>
<rscale>  0 0.11989324E+04</rscale>
<asrwt>0</asrwt>
<pdfrwt beam="1">  1        2 0.17438632E+00 0.11989324E+04</pdfrwt>
<pdfrwt beam="2">  1       -1 0.48774211E-01 0.11989324E+04</pdfrwt>
<totfact> 0.98339793E+01</totfact>
</mgrwt>
</event>
<event>
12    6  0.1450532E-007  0.2133580E+04  0.7818608E-02  0.8546594E-01
          2   -1    0    0  501    0  0.00000000000E+00  0.00000000000E+00  0.24213017200E+04  0.24213017200E+04  0.00000000000E+00 0. -1.
         -1   -1    0    0    0  501 -0.00000000000E+00 -0.00000000000E+00 -0.47001182176E+03  0.47001182176E+03  0.00000000000E+00 0.  1.
         24    2    1    2    0    0  0.17452575331E+03  0.13405348155E+03  0.19475504404E+04  0.19617813159E+04  0.84874252842E+02 0.  0.
        254    2    1    2    0    0 -0.17452575331E+03 -0.13405348155E+03  0.37394578313E+01  0.92953222591E+03  0.90309833406E+03 0.  0.
         23    2    4    4    0    0  0.78386429457E+02 -0.78467013325E+01  0.40871967427E+03  0.42690307668E+03  0.94807498131E+02 0.  0.
         23    2    4    4    0    0 -0.25291218277E+03 -0.12620678022E+03 -0.40498021644E+03  0.50262914923E+03  0.93457810716E+02 0.  0.
          2    1    3    3  502    0  0.16430774227E+03  0.95290624828E+02  0.17446371331E+04  0.17549461711E+04  0.00000000000E+00 0. -1.
         -1    1    3    3    0  502  0.10218011044E+02  0.38762856721E+02  0.20291330730E+03  0.20683514472E+03  0.00000000000E+00 0.  1.
         11    1    5    5    0    0 -0.11975290770E+01 -0.33321159490E+02  0.18721307828E+03  0.19015906611E+03  0.00000000000E+00 0. -1.
        -11    1    5    5    0    0  0.79583958534E+02  0.25474458158E+02  0.22150659599E+03  0.23674401057E+03  0.00000000000E+00 0.  1.
          3    1    6    6  503    0  0.10730889940E+01  0.28857820846E+01 -0.37565887806E+02  0.37691845072E+02  0.00000000000E+00 0.  1.
         -3    1    6    6    0  503 -0.25398527176E+03 -0.12909256230E+03 -0.36741432863E+03  0.46493730416E+03  0.00000000000E+00 0. -1.
<mgrwt>
<rscale>  0 0.21335796E+04</rscale>
<asrwt>0</asrwt>
<pdfrwt beam="1">  1        2 0.37250795E+00 0.21335796E+04</pdfrwt>
<pdfrwt beam="2">  1       -1 0.72309512E-01 0.21335796E+04</pdfrwt>
<totfact> 0.78010283E+00</totfact>
</mgrwt>
</event>
<event>
12    6  0.1450532E-007  0.1775103E+04  0.7818608E-02  0.8719653E-01
          2   -1    0    0  501    0  0.00000000000E+00  0.00000000000E+00  0.26865559590E+04  0.26865559590E+04  0.00000000000E+00 0. -1.
         -1   -1    0    0    0  501 -0.00000000000E+00 -0.00000000000E+00 -0.29321845518E+03  0.29321845518E+03  0.00000000000E+00 0.  1.
         24    2    1    2    0    0 -0.48412334575E+03 -0.37383592559E+03  0.11949179261E+04  0.13447558452E+04  0.80066971127E+02 0.  0.
        254    2    1    2    0    0  0.48412334575E+03  0.37383592559E+03  0.11984195776E+04  0.16350185689E+04  0.92894968836E+03 0.  0.
         23    2    4    4    0    0 -0.13078242915E+03  0.25459316970E+02 -0.73232464567E+02  0.17733044712E+03  0.91273616204E+02 0.  0.
         23    2    4    4    0    0  0.61490577490E+03  0.34837660862E+03  0.12716520422E+04  0.14576881218E+04  0.90996541409E+02 0.  0.
          2    1    3    3  502    0 -0.17527554661E+03 -0.11914556856E+03  0.33812573492E+03  0.39905663303E+03  0.00000000000E+00 0. -1.
         -1    1    3    3    0  502 -0.30884779914E+03 -0.25469035703E+03  0.85679219123E+03  0.94569921220E+03  0.00000000000E+00 0.  1.
         11    1    5    5    0    0 -0.13302417822E+03  0.93298731858E+01 -0.38226007465E+02  0.13872168601E+03  0.00000000000E+00 0. -1.
        -11    1    5    5    0    0  0.22417490634E+01  0.16129443785E+02 -0.35006457102E+02  0.38608761110E+02  0.00000000000E+00 0.  1.
          1    1    6    6  503    0  0.52676790295E+03  0.29116649853E+03  0.10102009422E+04  0.11759116876E+04  0.00000000000E+00 0. -1.
         -1    1    6    6    0  503  0.88137871956E+02  0.57210110088E+02  0.26145110001E+03  0.28177643419E+03  0.00000000000E+00 0.  1.
<mgrwt>
<rscale>  0 0.17751031E+04</rscale>
<asrwt>0</asrwt>
<pdfrwt beam="1">  1        2 0.41331629E+00 0.17751031E+04</pdfrwt>
<pdfrwt beam="2">  1       -1 0.45110533E-01 0.17751031E+04</pdfrwt>
<totfact> 0.14232729E+01</totfact>
</mgrwt>
</event>
<event>
12    6  0.1450532E-007  0.1472544E+04  0.7818608E-02  0.8902919E-01
          2   -1    0    0  501    0  0.00000000000E+00  0.00000000000E+00  0.24146089943E+04  0.24146089943E+04  0.00000000000E+00 0. -1.
         -1   -1    0    0    0  501 -0.00000000000E+00 -0.00000000000E+00 -0.22450707949E+03  0.22450707949E+03  0.00000000000E+00 0.  1.
         24    2    1    2    0    0  0.24395097984E+03 -0.30976962704E+03  0.10693945425E+04  0.11425327575E+04  0.79417328818E+02 0.  0.
        254    2    1    2    0    0 -0.24395097984E+03  0.30976962704E+03  0.11207073723E+04  0.14965833163E+04  0.91011389712E+03 0.  0.
         23    2    4    4    0    0  0.11951083140E+03 -0.19515642057E+03  0.69364452921E+03  0.73617352584E+03  0.91868710333E+02 0.  0.
         23    2    4    4    0    0 -0.36346181124E+03  0.50492604761E+03  0.42706284311E+03  0.76040979041E+03  0.93731401391E+02 0.  0.
          2    1    3    3  502    0  0.14136356463E+03 -0.14277492063E+03  0.63365517332E+03  0.66474597708E+03  0.00000000000E+00 0. -1.
         -1    1    3    3    0  502  0.10258741521E+03 -0.16699470641E+03  0.43573936916E+03  0.47778678044E+03  0.00000000000E+00 0.  1.
         11    1    5    5    0    0  0.42237365596E+02 -0.72260838786E+02  0.13387879591E+03  0.15788969526E+03  0.00000000000E+00 0.  1.
        -11    1    5    5    0    0  0.77273465808E+02 -0.12289558179E+03  0.55976573330E+03  0.57828383058E+03  0.00000000000E+00 0. -1.
          1    1    6    6  503    0 -0.11733798260E+03  0.14932959273E+03  0.80738311292E+02  0.20636425159E+03  0.00000000000E+00 0. -1.
         -1    1    6    6    0  503 -0.24612382864E+03  0.35559645488E+03  0.34632453182E+03  0.55404553882E+03  0.00000000000E+00 0.  1.
<mgrwt>
<rscale>  0 0.14725445E+04</rscale>
<asrwt>0</asrwt>
<pdfrwt beam="1">  1        2 0.37147829E+00 0.14725445E+04</pdfrwt>
<pdfrwt beam="2">  1       -1 0.34539553E-01 0.14725445E+04</pdfrwt>
<totfact> 0.34250051E+01</totfact>
</mgrwt>
</event>
<event>
12    6  0.1450532E-007  0.1745337E+04  0.7818608E-02  0.8735921E-01
          2   -1    0    0  501    0  0.00000000000E+00  0.00000000000E+00  0.21012601104E+04  0.21012601104E+04  0.00000000000E+00 0. -1.
         -1   -1    0    0    0  501 -0.00000000000E+00 -0.00000000000E+00 -0.36242546766E+03  0.36242546766E+03  0.00000000000E+00 0.  1.
         24    2    1    2    0    0 -0.19612411912E+03  0.19190917622E+03  0.14421183289E+04  0.14701870359E+04  0.80317146617E+02 0.  0.
        254    2    1    2    0    0  0.19612411912E+03 -0.19190917622E+03  0.29671631382E+03  0.99349854212E+03  0.90758194136E+03 0.  0.
         23    2    4    4    0    0  0.23760292151E+03 -0.46428427966E+03 -0.61516842658E+02  0.53314643385E+03  0.91900801665E+02 0.  0.
         23    2    4    4    0    0 -0.41478802385E+02  0.27237510344E+03  0.35823315647E+03  0.46035210827E+03  0.87660602176E+02 0.  0.
          4    1    3    3  502    0 -0.18252932719E+03  0.17282729948E+03  0.13960851516E+04  0.14185344484E+04  0.00000000000E+00 0. -1.
         -3    1    3    3    0  502 -0.13594791928E+02  0.19081876740E+02  0.46033177278E+02  0.51652587523E+02  0.00000000000E+00 0.  1.
         11    1    5    5    0    0  0.17031423886E+03 -0.26644172248E+03 -0.33995581659E+01  0.31624308441E+03  0.00000000000E+00 0.  1.
        -11    1    5    5    0    0  0.67288682642E+02 -0.19784255717E+03 -0.58117284492E+02  0.21690334944E+03  0.00000000000E+00 0. -1.
          4    1    6    6  503    0  0.85314851361E+01  0.17076047490E+03  0.25560293630E+03  0.30751388111E+03  0.00000000000E+00 0. -1.
         -4    1    6    6    0  503 -0.50010287521E+02  0.10161462854E+03  0.10263022017E+03  0.15283822716E+03  0.00000000000E+00 0.  1.
<mgrwt>
<rscale>  0 0.17453368E+04</rscale>
<asrwt>0</asrwt>
<pdfrwt beam="1">  1        2 0.32327078E+00 0.17453368E+04</pdfrwt>
<pdfrwt beam="2">  1       -1 0.55757765E-01 0.17453368E+04</pdfrwt>
<totfact> 0.20612375E+01</totfact>
</mgrwt>
</event>
<event>
12    6  0.1450532E-007  0.5134111E+04  0.7818608E-02  0.7808146E-01
         -1   -1    0    0    0  501 -0.00000000000E+00  0.00000000000E+00  0.16006920656E+04  0.16006920656E+04  0.00000000000E+00 0.  1.
          2   -1    0    0  501    0  0.00000000000E+00 -0.00000000000E+00 -0.41168286323E+04  0.41168286323E+04  0.00000000000E+00 0. -1.
         24    2    1    2    0    0 -0.32333000341E+03 -0.69661135457E+03  0.14104494390E+04  0.16079522049E+04  0.79580165025E+02 0.  0.
        254    2    1    2    0    0  0.32333000341E+03  0.69661135457E+03 -0.39265860058E+04  0.41095684930E+04  0.93843799373E+03 0.  0.
         23    2    4    4    0    0 -0.28116662062E+03  0.40935428221E+03 -0.21586645180E+04  0.22170281377E+04  0.93571711799E+02 0.  0.
         23    2    4    4    0    0  0.60449662403E+03  0.28725707236E+03 -0.17679214878E+04  0.18925403553E+04  0.90718331217E+02 0.  0.
          4    1    3    3  502    0 -0.12126586445E+03 -0.20236479561E+03  0.37747114703E+03  0.44513075295E+03  0.00000000000E+00 0. -1.
         -3    1    3    3    0  502 -0.20206413895E+03 -0.49424655895E+03  0.10329782920E+04  0.11628214519E+04  0.00000000000E+00 0.  1.
         11    1    5    5    0    0 -0.24452710917E+03  0.30194791577E+03 -0.17694429028E+04  0.18115999109E+04  0.00000000000E+00 0. -1.
        -11    1    5    5    0    0 -0.36639511451E+02  0.10740636643E+03 -0.38922161521E+03  0.40542822681E+03  0.00000000000E+00 0.  1.
          2    1    6    6  503    0  0.34639558065E+03  0.20838234274E+03 -0.11163291772E+04  0.11872674218E+04  0.00000000000E+00 0. -1.
         -2    1    6    6    0  503  0.25810104338E+03  0.78874729615E+02 -0.65159231057E+03  0.70527293352E+03  0.00000000000E+00 0.  1.
<mgrwt>
<rscale>  0 0.51341114E+04</rscale>
<asrwt>0</asrwt>
<pdfrwt beam="1">  1        2 0.63335823E+00 0.51341114E+04</pdfrwt>
<pdfrwt beam="2">  1       -1 0.24626032E+00 0.51341114E+04</pdfrwt>
<totfact> 0.16422209E-02</totfact>
</mgrwt>
</event>
<event>
12    6  0.1450532E-007  0.1749814E+04  0.7818608E-02  0.8733453E-01
          2   -1    0    0  501    0  0.00000000000E+00  0.00000000000E+00  0.63123834860E+03  0.63123834860E+03  0.00000000000E+00 0. -1.
         -1   -1    0    0    0  501 -0.00000000000E+00 -0.00000000000E+00 -0.12126357954E+04  0.12126357954E+04  0.00000000000E+00 0.  1.
         24    2    1    2    0    0  0.62853654320E+03  0.76747062350E+02 -0.12644879702E+03  0.65072875474E+03  0.80686530815E+02 0.  0.
        254    2    1    2    0    0 -0.62853654320E+03 -0.76747062350E+02 -0.45494864981E+03  0.11931453893E+04  0.90314414592E+03 0.  0.
         23    2    4    4    0    0 -0.40538657008E+03 -0.28305516443E+03 -0.64909289301E+03  0.82111535525E+03  0.91925761085E+02 0.  0.
         23    2    4    4    0    0 -0.22314997312E+03  0.20630810208E+03  0.19414424321E+03  0.37203003405E+03  0.91407962321E+02 0.  0.
          4    1    3    3  502    0  0.31583423023E+03  0.24806338888E+01 -0.81596887206E+02  0.32621383559E+03  0.00000000000E+00 0. -1.
         -3    1    3    3    0  502  0.31270231297E+03  0.74266428461E+02 -0.44851909810E+02  0.32451491914E+03  0.00000000000E+00 0.  1.
         11    1    5    5    0    0 -0.19804792666E+03 -0.83374829044E+02 -0.28775961920E+03  0.35913777553E+03  0.00000000000E+00 0.  1.
        -11    1    5    5    0    0 -0.20733864342E+03 -0.19968033538E+03 -0.36133327382E+03  0.46197757972E+03  0.00000000000E+00 0. -1.
          2    1    6    6  503    0 -0.71096471430E+02  0.10421998527E+03  0.39131604269E+02  0.13209010573E+03  0.00000000000E+00 0. -1.
         -2    1    6    6    0  503 -0.15205350169E+03  0.10208811681E+03  0.15501263894E+03  0.23993992832E+03  0.00000000000E+00 0.  1.
<mgrwt>
<rscale>  0 0.17498140E+04</rscale>
<asrwt>0</asrwt>
<pdfrwt beam="1">  1        2 0.97113594E-01 0.17498140E+04</pdfrwt>
<pdfrwt beam="2">  1       -1 0.18655935E+00 0.17498140E+04</pdfrwt>
<totfact> 0.94289176E+00</totfact>
</mgrwt>
</event>
<event>
12    6  0.1450532E-007  0.1607182E+04  0.7818608E-02  0.8816148E-01
         -1   -1    0    0    0  501 -0.00000000000E+00  0.00000000000E+00  0.42987291111E+03  0.42987291111E+03  0.00000000000E+00 0.  1.
          2   -1    0    0  501    0  0.00000000000E+00 -0.00000000000E+00 -0.15022082588E+04  0.15022082588E+04  0.00000000000E+00 0. -1.
         24    2    1    2    0    0  0.53340646446E+03 -0.23167369975E+02 -0.23843856569E+03  0.59009479228E+03  0.79370844159E+02 0.  0.
        254    2    1    2    0    0 -0.53340646446E+03  0.23167369975E+02 -0.83389678201E+03  0.13419863777E+04  0.90580594577E+03 0.  0.
         23    2    4    4    0    0 -0.16470544600E+03  0.36664078685E+03 -0.63980490489E+02  0.41723497230E+03  0.91859503696E+02 0.  0.
         23    2    4    4    0    0 -0.36870101846E+03 -0.34347341688E+03 -0.76991629152E+03  0.92475140535E+03  0.92084942534E+02 0.  0.
          4    1    3    3  502    0  0.51319653470E+03 -0.29029245516E+02 -0.24300238034E+03  0.56856269414E+03  0.00000000000E+00 0. -1.
         -3    1    3    3    0  502  0.20209929761E+02  0.58618755406E+01  0.45638146476E+01  0.21532098132E+02  0.00000000000E+00 0.  1.
         11    1    5    5    0    0 -0.15058451589E+03  0.32107896099E+03 -0.85666033669E+02  0.36483703889E+03  0.00000000000E+00 0. -1.
        -11    1    5    5    0    0 -0.14120930109E+02  0.45561825860E+02  0.21685543180E+02  0.52397933412E+02  0.00000000000E+00 0.  1.
          3    1    6    6  503    0 -0.17547255311E+02 -0.54456618056E+02 -0.77495793136E+02  0.96327708230E+02  0.00000000000E+00 0. -1.
         -3    1    6    6    0  503 -0.35115376315E+03 -0.28901679882E+03 -0.69242049839E+03  0.82842369712E+03  0.00000000000E+00 0.  1.
<mgrwt>
<rscale>  0 0.16071822E+04</rscale>
<asrwt>0</asrwt>
<pdfrwt beam="1">  1        2 0.23110896E+00 0.16071822E+04</pdfrwt>
<pdfrwt beam="2">  1       -1 0.66134294E-01 0.16071822E+04</pdfrwt>
<totfact> 0.32029159E+01</totfact>
</mgrwt>
</event>
<event>
12    6  0.1450532E-007  0.1969558E+04  0.7818608E-02  0.8620987E-01
          2   -1    0    0  501    0  0.00000000000E+00  0.00000000000E+00  0.17598863381E+04  0.17598863381E+04  0.00000000000E+00 0. -1.
         -1   -1    0    0    0  501 -0.00000000000E+00 -0.00000000000E+00 -0.55105232338E+03  0.55105232338E+03  0.00000000000E+00 0.  1.
         24    2    1    2    0    0 -0.46431282194E+03 -0.53902044373E+03  0.12620133241E+03  0.72648204075E+03  0.75630310372E+02 0.  0.
        254    2    1    2    0    0  0.46431282194E+03  0.53902044373E+03  0.10826326823E+04  0.15844566208E+04  0.91229371522E+03 0.  0.
         23    2    4    4    0    0 -0.18676754499E+03 -0.91595913260E+02  0.11229809838E+03  0.25352156938E+03  0.91599105085E+02 0.  0.
         23    2    4    4    0    0  0.65108036694E+03  0.63061635699E+03  0.97033458396E+03  0.13309350514E+04  0.90864031688E+02 0.  0.
          4    1    3    3  502    0 -0.20013337175E+02 -0.53436000016E+02  0.54327947611E+01  0.57318888872E+02  0.00000000000E+00 0. -1.
         -3    1    3    3    0  502 -0.44429948477E+03 -0.48558444371E+03  0.12076853765E+03  0.66916315187E+03  0.00000000000E+00 0.  1.
         11    1    5    5    0    0 -0.42783197779E+02 -0.94687443884E+01 -0.13030461257E+02  0.45714899684E+02  0.00000000000E+00 0. -1.
        -11    1    5    5    0    0 -0.14398434722E+03 -0.82127168872E+02  0.12532855964E+03  0.20780666970E+03  0.00000000000E+00 0.  1.
          3    1    6    6  503    0  0.12852308352E+03  0.17659097673E+03  0.24745729521E+03  0.33005706932E+03  0.00000000000E+00 0. -1.
         -3    1    6    6    0  503  0.52255728342E+03  0.45402538026E+03  0.72287728875E+03  0.10008779821E+04  0.00000000000E+00 0.  1.
<mgrwt>
<rscale>  0 0.19695578E+04</rscale>
<asrwt>0</asrwt>
<pdfrwt beam="1">  1        2 0.27075174E+00 0.19695578E+04</pdfrwt>
<pdfrwt beam="2">  1       -1 0.84777281E-01 0.19695578E+04</pdfrwt>
<totfact> 0.13264870E+01</totfact>
</mgrwt>
</event>
<event>
12    6  0.1450532E-007  0.1113884E+04  0.7818608E-02  0.9191765E-01
         -1   -1    0    0    0  501 -0.00000000000E+00  0.00000000000E+00  0.63927912105E+03  0.63927912105E+03  0.00000000000E+00 0.  1.
          2   -1    0    0  501    0  0.00000000000E+00 -0.00000000000E+00 -0.48520936519E+03  0.48520936519E+03  0.00000000000E+00 0. -1.
         24    2    1    2    0    0 -0.89966666476E+02  0.16160225590E+03  0.12375031546E+03  0.23779236050E+03  0.83796037767E+02 0.  0.
        254    2    1    2    0    0  0.89966666476E+02 -0.16160225590E+03  0.30319440390E+02  0.88669612574E+03  0.86666109913E+03 0.  0.
         23    2    4    4    0    0  0.30900297873E+03  0.24558494618E+03  0.80238459990E+02  0.41279110929E+03  0.90351993852E+02 0.  0.
         23    2    4    4    0    0 -0.21903631226E+03 -0.40718720208E+03 -0.49919019600E+02  0.47390501645E+03  0.91190638061E+02 0.  0.
          4    1    3    3  502    0 -0.76243480699E+01 -0.10077200838E+02  0.83533045418E+01  0.15147882921E+02  0.00000000000E+00 0. -1.
         -3    1    3    3    0  502 -0.82342318406E+02  0.17167945674E+03  0.11539701092E+03  0.22264447758E+03  0.00000000000E+00 0.  1.
         11    1    5    5    0    0  0.85550367604E+01  0.35676060486E+02 -0.34405912389E+01  0.36848441132E+02  0.00000000000E+00 0. -1.
        -11    1    5    5    0    0  0.30044794197E+03  0.20990888569E+03  0.83679051229E+02  0.37594266816E+03  0.00000000000E+00 0.  1.
          1    1    6    6  503    0 -0.14888393288E+02 -0.84320777185E+02 -0.32269269693E+02  0.91503898750E+02  0.00000000000E+00 0. -1.
         -1    1    6    6    0  503 -0.20414791897E+03 -0.32286642490E+03 -0.17649749906E+02  0.38240111770E+03  0.00000000000E+00 0.  1.
<mgrwt>
<rscale>  0 0.11138837E+04</rscale>
<asrwt>0</asrwt>
<pdfrwt beam="1">  1        2 0.74647594E-01 0.11138837E+04</pdfrwt>
<pdfrwt beam="2">  1       -1 0.98350635E-01 0.11138837E+04</pdfrwt>
<totfact> 0.71671285E+01</totfact>
</mgrwt>
</event>
<event>
12    6  0.1450532E-007  0.1153174E+04  0.7818608E-02  0.9154861E-01
          2   -1    0    0  501    0  0.00000000000E+00  0.00000000000E+00  0.31349351256E+04  0.31349351256E+04  0.00000000000E+00 0. -1.
         -1   -1    0    0    0  501 -0.00000000000E+00 -0.00000000000E+00 -0.10604762976E+03  0.10604762976E+03  0.00000000000E+00 0.  1.
         24    2    1    2    0    0 -0.18067855399E+03  0.11219773467E+03  0.65934100535E+03  0.69752909362E+03  0.81136943282E+02 0.  0.
        254    2    1    2    0    0  0.18067855399E+03 -0.11219773467E+03  0.23695464905E+04  0.25434536618E+04  0.89954037561E+03 0.  0.
         23    2    4    4    0    0  0.17840065940E+03  0.30538057431E+03  0.46406481143E+03  0.59062176420E+03  0.91617840519E+02 0.  0.
         23    2    4    4    0    0  0.22778945929E+01 -0.41757830898E+03  0.19054816791E+04  0.19528318976E+04  0.91187487860E+02 0.  0.
          4    1    3    3  502    0 -0.10470530531E+03  0.10875628821E+03  0.46203762373E+03  0.48607601970E+03  0.00000000000E+00 0. -1.
         -3    1    3    3    0  502 -0.75973248679E+02  0.34414464544E+01  0.19730338162E+03  0.21145307391E+03  0.00000000000E+00 0.  1.
         11    1    5    5    0    0  0.12298910770E+03  0.16461831828E+03  0.20272812260E+03  0.28865931999E+03  0.00000000000E+00 0. -1.
        -11    1    5    5    0    0  0.55411551702E+02  0.14076225603E+03  0.26133668883E+03  0.30196244421E+03  0.00000000000E+00 0.  1.
          1    1    6    6  503    0 -0.44240885470E+02 -0.22399085444E+03  0.10117236404E+04  0.10371662756E+04  0.00000000000E+00 0. -1.
         -1    1    6    6    0  503  0.46518780063E+02 -0.19358745454E+03  0.89375803867E+03  0.91566562190E+03  0.00000000000E+00 0.  1.
<mgrwt>
<rscale>  0 0.11531738E+04</rscale>
<asrwt>0</asrwt>
<pdfrwt beam="1">  1        2 0.48229764E+00 0.11531738E+04</pdfrwt>
<pdfrwt beam="2">  1       -1 0.16315022E-01 0.11531738E+04</pdfrwt>
<totfact> 0.47097408E+01</totfact>
</mgrwt>
</event>
<event>
12    6  0.1450532E-007  0.3949169E+04  0.7818608E-02  0.8014880E-01
         -1   -1    0    0    0  501 -0.00000000000E+00  0.00000000000E+00  0.12435212485E+04  0.12435212485E+04  0.00000000000E+00 0.  1.
          2   -1    0    0  501    0  0.00000000000E+00 -0.00000000000E+00 -0.31354374118E+04  0.31354374118E+04  0.00000000000E+00 0. -1.
         24    2    1    2    0    0 -0.15254130079E+04  0.87569390184E+03 -0.20598837580E+03  0.17726700763E+04  0.78761246522E+02 0.  0.
        254    2    1    2    0    0  0.15254130079E+04 -0.87569390184E+03 -0.16859277875E+04  0.26062885840E+04  0.92556092404E+03 0.  0.
         23    2    4    4    0    0  0.15708327898E+04 -0.95756511723E+03 -0.14820754795E+04  0.23642922821E+04  0.94253176002E+02 0.  0.
         23    2    4    4    0    0 -0.45419781876E+02  0.81871215387E+02 -0.20385230803E+03  0.24199630191E+03  0.90777718383E+02 0.  0.
          2    1    3    3  502    0 -0.58676628161E+03  0.32633943437E+03 -0.11608934131E+03  0.68137275468E+03  0.00000000000E+00 0. -1.
         -1    1    3    3    0  502 -0.93864672630E+03  0.54935446747E+03 -0.89899034499E+02  0.10912973216E+04  0.00000000000E+00 0.  1.
         11    1    5    5    0    0  0.14609027869E+04 -0.90788553674E+03 -0.13607680741E+04  0.21932129063E+04  0.00000000000E+00 0. -1.
        -11    1    5    5    0    0  0.10993000285E+03 -0.49679580483E+02 -0.12130740531E+03  0.17107937581E+03  0.00000000000E+00 0.  1.
          2    1    6    6  503    0 -0.18793930414E+02  0.97540924954E+02 -0.14994787480E+03  0.17986608634E+03  0.00000000000E+00 0. -1.
         -2    1    6    6    0  503 -0.26625851462E+02 -0.15669709567E+02 -0.53904433238E+02  0.62130215569E+02  0.00000000000E+00 0.  1.
<mgrwt>
<rscale>  0 0.39491685E+04</rscale>
<asrwt>0</asrwt>
<pdfrwt beam="1">  1        2 0.48237498E+00 0.39491685E+04</pdfrwt>
<pdfrwt beam="2">  1       -1 0.19131097E+00 0.39491685E+04</pdfrwt>
<totfact> 0.22199254E-01</totfact>
</mgrwt>
</event>
<event>
12    6  0.1450532E-007  0.2280601E+04  0.7818608E-02  0.8485610E-01
          2   -1    0    0  501    0  0.00000000000E+00  0.00000000000E+00  0.24615842559E+04  0.24615842559E+04  0.00000000000E+00 0. -1.
         -1   -1    0    0    0  501 -0.00000000000E+00 -0.00000000000E+00 -0.52823082574E+03  0.52823082574E+03  0.00000000000E+00 0.  1.
         24    2    1    2    0    0  0.14189492604E+02  0.33142519900E+03  0.20035067765E+04  0.20323520498E+04  0.79821341942E+02 0.  0.
        254    2    1    2    0    0 -0.14189492604E+02 -0.33142519900E+03 -0.70153346358E+02  0.95746303182E+03  0.89541608264E+03 0.  0.
         23    2    4    4    0    0 -0.21189735198E+03 -0.37558881909E+03  0.29465156664E+03  0.52990762752E+03  0.89527086328E+02 0.  0.
         23    2    4    4    0    0  0.19770785938E+03  0.44163620083E+02 -0.36480491300E+03  0.42755540429E+03  0.93178195930E+02 0.  0.
          4    1    3    3  502    0  0.19778892754E+02  0.18152132238E+03  0.13206110862E+04  0.13331747208E+04  0.00000000000E+00 0. -1.
         -3    1    3    3    0  502 -0.55894001502E+01  0.14990387662E+03  0.68289569029E+03  0.69917732903E+03  0.00000000000E+00 0.  1.
         11    1    5    5    0    0 -0.87414384049E+02 -0.16365905115E+03  0.18069222904E+03  0.25898888238E+03  0.00000000000E+00 0. -1.
        -11    1    5    5    0    0 -0.12448296793E+03 -0.21192976794E+03  0.11395933759E+03  0.27091874514E+03  0.00000000000E+00 0.  1.
          1    1    6    6  503    0  0.10691505969E+03 -0.15981003774E+02 -0.23090793698E+03  0.25496018871E+03  0.00000000000E+00 0. -1.
         -1    1    6    6    0  503  0.90792799689E+02  0.60144623857E+02 -0.13389697602E+03  0.17259521558E+03  0.00000000000E+00 0.  1.
<mgrwt>
<rscale>  0 0.22806005E+04</rscale>
<asrwt>0</asrwt>
<pdfrwt beam="1">  1        2 0.37870526E+00 0.22806005E+04</pdfrwt>
<pdfrwt beam="2">  1       -1 0.81266282E-01 0.22806005E+04</pdfrwt>
<totfact> 0.57100047E+00</totfact>
</mgrwt>
</event>
<event>
12    6  0.1450532E-007  0.2307124E+04  0.7818608E-02  0.8475117E-01
         -1   -1    0    0    0  501 -0.00000000000E+00  0.00000000000E+00  0.10791957709E+04  0.10791957709E+04  0.00000000000E+00 0.  1.
          2   -1    0    0  501    0  0.00000000000E+00 -0.00000000000E+00 -0.12330532250E+04  0.12330532250E+04  0.00000000000E+00 0. -1.
         24    2    1    2    0    0  0.92449624375E+03 -0.20208589735E+03 -0.30863526649E+03  0.99807567472E+03  0.73261928245E+02 0.  0.
        254    2    1    2    0    0 -0.92449624375E+03  0.20208589735E+03  0.15477781241E+03  0.13141733212E+04  0.89864527620E+03 0.  0.
         23    2    4    4    0    0 -0.99275263373E+03 -0.61283653484E+02  0.24081016448E+02  0.99951054204E+03  0.95540307346E+02 0.  0.
         23    2    4    4    0    0  0.68256389980E+02  0.26336955083E+03  0.13069679596E+03  0.31466277920E+03  0.88930068377E+02 0.  0.
          4    1    3    3  502    0  0.82423215046E+03 -0.19944779863E+03 -0.26286144459E+03  0.88782554665E+03  0.00000000000E+00 0. -1.
         -3    1    3    3    0  502  0.10026409329E+03 -0.26380987151E+01 -0.45773821900E+02  0.11025012807E+03  0.00000000000E+00 0.  1.
         11    1    5    5    0    0 -0.47309501867E+03 -0.32160572046E+02 -0.36156100402E+02  0.47556331091E+03  0.00000000000E+00 0. -1.
        -11    1    5    5    0    0 -0.51965761507E+03 -0.29123081438E+02  0.60237116850E+02  0.52394723114E+03  0.00000000000E+00 0.  1.
          1    1    6    6  503    0  0.44826047125E+02  0.45179629890E+02  0.10651042690E+02  0.64529203995E+02  0.00000000000E+00 0. -1.
         -1    1    6    6    0  503  0.23430342855E+02  0.21818992094E+03  0.12004575327E+03  0.25013357521E+03  0.00000000000E+00 0.  1.
<mgrwt>
<rscale>  0 0.23071245E+04</rscale>
<asrwt>0</asrwt>
<pdfrwt beam="1">  1        2 0.18970050E+00 0.23071245E+04</pdfrwt>
<pdfrwt beam="2">  1       -1 0.16603012E+00 0.23071245E+04</pdfrwt>
<totfact> 0.49221420E+00</totfact>
</mgrwt>
</event>
<event>
12    6  0.1450532E-007  0.1550543E+04  0.7818608E-02  0.8851521E-01
          2   -1    0    0  501    0  0.00000000000E+00  0.00000000000E+00  0.18222459597E+04  0.18222459597E+04  0.00000000000E+00 0. -1.
         -1   -1    0    0    0  501 -0.00000000000E+00 -0.00000000000E+00 -0.32983775836E+03  0.32983775836E+03  0.00000000000E+00 0.  1.
         24    2    1    2    0    0 -0.18131068875E+03 -0.32979822159E+03  0.20733630804E+02  0.38514042204E+03  0.79138033986E+02 0.  0.
        254    2    1    2    0    0  0.18131068875E+03  0.32979822159E+03  0.14716745705E+04  0.17669432960E+04  0.90256420103E+03 0.  0.
         23    2    4    4    0    0  0.51312489264E+03  0.26237857646E+03  0.65254002087E+03  0.87585636857E+03  0.95792623370E+02 0.  0.
         23    2    4    4    0    0 -0.33181420389E+03  0.67419645134E+02  0.81913454965E+03  0.89108692744E+03  0.91697477486E+02 0.  0.
          2    1    3    3  502    0 -0.25128884075E+02 -0.83331087090E+01 -0.44980044867E+01  0.26853930065E+02  0.00000000000E+00 0. -1.
         -1    1    3    3    0  502 -0.15618180467E+03 -0.32146511288E+03  0.25231635290E+02  0.35828649198E+03  0.00000000000E+00 0.  1.
         11    1    5    5    0    0  0.29505513738E+03  0.18815248022E+03  0.44221139730E+03  0.56392358508E+03  0.00000000000E+00 0.  1.
        -11    1    5    5    0    0  0.21806975526E+03  0.74226096242E+02  0.21032862357E+03  0.31193278349E+03  0.00000000000E+00 0. -1.
          4    1    6    6  503    0  0.25404454680E+01 -0.18775193723E+01 -0.47399810643E+00  0.31943099997E+01  0.00000000000E+00 0. -1.
         -4    1    6    6    0  503 -0.33435464936E+03  0.69297164506E+02  0.81960854776E+03  0.88789261744E+03  0.00000000000E+00 0.  1.
<mgrwt>
<rscale>  0 0.15505425E+04</rscale>
<asrwt>0</asrwt>
<pdfrwt beam="1">  1        2 0.28034553E+00 0.15505425E+04</pdfrwt>
<pdfrwt beam="2">  1       -1 0.50744272E-01 0.15505425E+04</pdfrwt>
<totfact> 0.35885385E+01</totfact>
</mgrwt>
</event>
<event>
12    6  0.1450532E-007  0.2812116E+04  0.7818608E-02  0.8299517E-01
          2   -1    0    0  501    0  0.00000000000E+00  0.00000000000E+00  0.14993385333E+04  0.14993385333E+04  0.00000000000E+00 0. -1.
         -1   -1    0    0    0  501 -0.00000000000E+00 -0.00000000000E+00 -0.13185811012E+04  0.13185811012E+04  0.00000000000E+00 0.  1.
         24    2    1    2    0    0  0.35663981114E+03  0.84916126441E+03  0.94306932723E+03  0.13206496350E+04  0.80429439102E+02 0.  0.
        254    2    1    2    0    0 -0.35663981114E+03 -0.84916126441E+03 -0.76231189510E+03  0.14972699994E+04  0.90134966461E+03 0.  0.
         23    2    4    4    0    0 -0.52582742411E+03 -0.93511049255E+03 -0.62693486178E+03  0.12459069812E+04  0.91163433987E+02 0.  0.
         23    2    4    4    0    0  0.16918761297E+03  0.85949228143E+02 -0.13537703331E+03  0.25136301820E+03  0.94046305462E+02 0.  0.
          2    1    3    3  502    0  0.35199231696E+03  0.78848602648E+03  0.88728643511E+03  0.12380977438E+04  0.00000000000E+00 0. -1.
         -1    1    3    3    0  502  0.46474941791E+01  0.60675237929E+02  0.55782892116E+02  0.82551891273E+02  0.00000000000E+00 0.  1.
         11    1    5    5    0    0 -0.49100633149E+03 -0.86621708767E+03 -0.55271448836E+03  0.11388206910E+04  0.00000000000E+00 0. -1.
        -11    1    5    5    0    0 -0.34821092617E+02 -0.68893404876E+02 -0.74220373427E+02  0.10708629024E+03  0.00000000000E+00 0.  1.
          1    1    6    6  503    0  0.16924398384E+03  0.54152018195E+02 -0.12720047688E+03  0.21853129858E+03  0.00000000000E+00 0. -1.
         -1    1    6    6    0  503 -0.56370876134E-01  0.31797209948E+02 -0.81765564378E+01  0.32831719622E+02  0.00000000000E+00 0.  1.
<mgrwt>
<rscale>  0 0.28121163E+04</rscale>
<asrwt>0</asrwt>
<pdfrwt beam="1">  1        2 0.23066747E+00 0.28121163E+04</pdfrwt>
<pdfrwt beam="2">  1       -1 0.20285863E+00 0.28121163E+04</pdfrwt>
<totfact> 0.18090165E+00</totfact>
</mgrwt>
</event>
<event>
12    6  0.1450532E-007  0.1555307E+04  0.7818608E-02  0.8848485E-01
          2   -1    0    0  501    0  0.00000000000E+00  0.00000000000E+00  0.16828675338E+04  0.16828675338E+04  0.00000000000E+00 0. -1.
         -1   -1    0    0    0  501 -0.00000000000E+00 -0.00000000000E+00 -0.35935402148E+03  0.35935402148E+03  0.00000000000E+00 0.  1.
         24    2    1    2    0    0  0.28949623484E+03  0.18971076935E+03  0.95475601602E+03  0.10186360652E+04  0.79133666154E+02 0.  0.
        254    2    1    2    0    0 -0.28949623484E+03 -0.18971076935E+03  0.36875749630E+03  0.10235854901E+04  0.88991399500E+03 0.  0.
         23    2    4    4    0    0 -0.41787876682E+03  0.20340378692E+03  0.20368934564E+02  0.47398822002E+03  0.90852489943E+02 0.  0.
         23    2    4    4    0    0  0.12838253198E+03 -0.39311455628E+03  0.34838856174E+03  0.54959727009E+03  0.98292626748E+02 0.  0.
          4    1    3    3  502    0  0.25828299720E+03  0.19203108173E+03  0.83567397487E+03  0.89550937196E+03  0.00000000000E+00 0. -1.
         -3    1    3    3    0  502  0.31213237635E+02 -0.23203123739E+01  0.11908204116E+03  0.12312669320E+03  0.00000000000E+00 0.  1.
         11    1    5    5    0    0 -0.19000364288E+02  0.35886609888E+02 -0.31071367032E+01  0.40724893012E+02  0.00000000000E+00 0. -1.
        -11    1    5    5    0    0 -0.39887840253E+03  0.16751717704E+03  0.23476071267E+02  0.43326332701E+03  0.00000000000E+00 0.  1.
          3    1    6    6  503    0  0.14315993007E+02 -0.61691857971E+02  0.10589128650E+03  0.12338475413E+03  0.00000000000E+00 0. -1.
         -3    1    6    6    0  503  0.11406653897E+03 -0.33142269831E+03  0.24249727523E+03  0.42621251596E+03  0.00000000000E+00 0.  1.
<mgrwt>
<rscale>  0 0.15553073E+04</rscale>
<asrwt>0</asrwt>
<pdfrwt beam="1">  1        2 0.25890269E+00 0.15553073E+04</pdfrwt>
<pdfrwt beam="2">  1       -1 0.55285235E-01 0.15553073E+04</pdfrwt>
<totfact> 0.36345500E+01</totfact>
</mgrwt>
</event>
<event>
12    6  0.1450532E-007  0.3704697E+04  0.7818608E-02  0.8066922E-01
          2   -1    0    0  501    0  0.00000000000E+00  0.00000000000E+00  0.66807014324E+03  0.66807014324E+03  0.00000000000E+00 0. -1.
         -1   -1    0    0    0  501 -0.00000000000E+00 -0.00000000000E+00 -0.51359793598E+04  0.51359793598E+04  0.00000000000E+00 0.  1.
         24    2    1    2    0    0 -0.16639605635E+04  0.18675653634E+03 -0.13306993385E+04  0.21402628653E+04  0.79508755335E+02 0.  0.
        254    2    1    2    0    0  0.16639605635E+04 -0.18675653634E+03 -0.31372098781E+04  0.36637866378E+04  0.88181854572E+03 0.  0.
         23    2    4    4    0    0  0.22843025044E+03  0.82678027029E+02 -0.81329583004E+02  0.27558172482E+03  0.10156156020E+03 0.  0.
         23    2    4    4    0    0  0.14355303131E+04 -0.26943456337E+03 -0.30558802951E+04  0.33882049130E+04  0.90475913938E+02 0.  0.
          2    1    3    3  502    0 -0.13312419250E+04  0.15251463481E+03 -0.10235725459E+04  0.16861691888E+04  0.00000000000E+00 0. -1.
         -1    1    3    3    0  502 -0.33271863854E+03  0.34241901531E+02 -0.30712679257E+03  0.45409367643E+03  0.00000000000E+00 0.  1.
         11    1    5    5    0    0  0.47154410602E+02  0.16570706236E+02 -0.64920423002E+02  0.81931606033E+02  0.00000000000E+00 0. -1.
        -11    1    5    5    0    0  0.18127583984E+03  0.66107320793E+02 -0.16409160002E+02  0.19365011878E+03  0.00000000000E+00 0.  1.
          4    1    6    6  503    0  0.42655702178E+03 -0.96132781005E+02 -0.10052920325E+04  0.10962684320E+04  0.00000000000E+00 0. -1.
         -4    1    6    6    0  503  0.10089732913E+04 -0.17330178237E+03 -0.20505882626E+04  0.22919364810E+04  0.00000000000E+00 0.  1.
<mgrwt>
<rscale>  0 0.37046967E+04</rscale>
<asrwt>0</asrwt>
<pdfrwt beam="1">  1        2 0.10278002E+00 0.37046967E+04</pdfrwt>
<pdfrwt beam="2">  1       -1 0.79015067E+00 0.37046967E+04</pdfrwt>
<totfact> 0.32095064E-03</totfact>
</mgrwt>
</event>
<event>
12    6  0.1450532E-007  0.1795528E+04  0.7818608E-02  0.8708681E-01
         -1   -1    0    0    0  501 -0.00000000000E+00  0.00000000000E+00  0.46918212492E+03  0.46918212492E+03  0.00000000000E+00 0.  1.
          2   -1    0    0  501    0  0.00000000000E+00 -0.00000000000E+00 -0.17178412893E+04  0.17178412893E+04  0.00000000000E+00 0. -1.
         24    2    1    2    0    0  0.40779378973E+03  0.92939479255E+02 -0.11058927968E+04  0.11846931737E+04  0.74602386968E+02 0.  0.
        254    2    1    2    0    0 -0.40779378973E+03 -0.92939479255E+02 -0.14276636759E+03  0.10023302405E+04  0.89963890176E+03 0.  0.
         23    2    4    4    0    0 -0.51944678674E+03 -0.16220173584E+02 -0.42398129118E+03  0.67675387557E+03  0.90264137624E+02 0.  0.
         23    2    4    4    0    0  0.11165299702E+03 -0.76719305671E+02  0.28121492360E+03  0.32557636493E+03  0.92552107161E+02 0.  0.
          2    1    3    3  502    0  0.37729865540E+03  0.99045740382E+02 -0.97458372692E+03  0.10497512919E+04  0.00000000000E+00 0. -1.
         -1    1    3    3    0  502  0.30495134321E+02 -0.61062611274E+01 -0.13130906988E+03  0.13494188185E+03  0.00000000000E+00 0.  1.
         11    1    5    5    0    0 -0.45095378148E+03 -0.44286259421E+02 -0.37266220803E+03  0.58668365164E+03  0.00000000000E+00 0.  1.
        -11    1    5    5    0    0 -0.68493005266E+02  0.28066085837E+02 -0.51319083154E+02  0.90070223938E+02  0.00000000000E+00 0. -1.
          3    1    6    6  503    0  0.32903771727E+02  0.23347146988E+01  0.13692109872E+02  0.35715304273E+02  0.00000000000E+00 0. -1.
         -3    1    6    6    0  503  0.78749225292E+02 -0.79054020370E+02  0.26752281372E+03  0.28986106065E+03  0.00000000000E+00 0.  1.
<mgrwt>
<rscale>  0 0.17955283E+04</rscale>
<asrwt>0</asrwt>
<pdfrwt beam="1">  1        2 0.26428327E+00 0.17955283E+04</pdfrwt>
<pdfrwt beam="2">  1       -1 0.72181866E-01 0.17955283E+04</pdfrwt>
<totfact> 0.19966785E+01</totfact>
</mgrwt>
</event>
<event>
12    6  0.1450532E-007  0.1565983E+04  0.7818608E-02  0.8841723E-01
          2   -1    0    0  501    0  0.00000000000E+00  0.00000000000E+00  0.12866871884E+04  0.12866871884E+04  0.00000000000E+00 0. -1.
         -1   -1    0    0    0  501 -0.00000000000E+00 -0.00000000000E+00 -0.47647608966E+03  0.47647608966E+03  0.00000000000E+00 0.  1.
         24    2    1    2    0    0 -0.23429185973E+03 -0.11125762179E+03 -0.23478878827E+03  0.35887019981E+03  0.79944426174E+02 0.  0.
        254    2    1    2    0    0  0.23429185973E+03  0.11125762179E+03  0.10449998870E+04  0.14042930782E+04  0.90152279605E+03 0.  0.
         23    2    4    4    0    0  0.51736352431E+03 -0.12875068618E+03  0.72687634342E+03  0.90620492115E+03  0.92824485031E+02 0.  0.
         23    2    4    4    0    0 -0.28307166458E+03  0.24000830797E+03  0.31812354358E+03  0.49808815708E+03  0.95685255168E+02 0.  0.
          2    1    3    3  502    0 -0.19430172376E+03 -0.77286030220E+02 -0.14361719647E+03  0.25367733333E+03  0.00000000000E+00 0. -1.
         -1    1    3    3    0  502 -0.39990135974E+02 -0.33971591570E+02 -0.91171591796E+02  0.10519286649E+03  0.00000000000E+00 0.  1.
         11    1    5    5    0    0  0.90528572171E+02  0.10490048953E+02  0.10235285518E+03  0.13704586995E+03  0.00000000000E+00 0. -1.
        -11    1    5    5    0    0  0.42683495214E+03 -0.13924073513E+03  0.62452348824E+03  0.76915905121E+03  0.00000000000E+00 0.  1.
          2    1    6    6  503    0 -0.26278275527E+02  0.19135075491E+02  0.73215745360E+02  0.80107704044E+02  0.00000000000E+00 0. -1.
         -2    1    6    6    0  503 -0.25679338906E+03  0.22087323248E+03  0.24490779822E+03  0.41798045303E+03  0.00000000000E+00 0.  1.
<mgrwt>
<rscale>  0 0.15659830E+04</rscale>
<asrwt>0</asrwt>
<pdfrwt beam="1">  1        2 0.19795187E+00 0.15659830E+04</pdfrwt>
<pdfrwt beam="2">  1       -1 0.73304014E-01 0.15659830E+04</pdfrwt>
<totfact> 0.34596482E+01</totfact>
</mgrwt>
</event>
<event>
12    6  0.1450532E-007  0.1440258E+04  0.7818608E-02  0.8925183E-01
         -1   -1    0    0    0  501 -0.00000000000E+00  0.00000000000E+00  0.55130236505E+03  0.55130236505E+03  0.00000000000E+00 0.  1.
          2   -1    0    0  501    0  0.00000000000E+00 -0.00000000000E+00 -0.94065562171E+03  0.94065562171E+03  0.00000000000E+00 0. -1.
         24    2    1    2    0    0 -0.88587494096E+02  0.17151408094E+03 -0.51675001217E+03  0.55737592966E+03  0.79828114230E+02 0.  0.
        254    2    1    2    0    0  0.88587494096E+02 -0.17151408094E+03  0.12739675551E+03  0.93458205710E+03  0.90551027828E+03 0.  0.
         23    2    4    4    0    0  0.24738602547E+03  0.23041176874E+03 -0.18285830642E+03  0.39512188964E+03  0.91622697373E+02 0.  0.
         23    2    4    4    0    0 -0.15879853138E+03 -0.40192584968E+03  0.31025506193E+03  0.53946016746E+03  0.89429897786E+02 0.  0.
          2    1    3    3  502    0  0.30596445677E+01  0.66233698070E+02 -0.12490864828E+03  0.14141582160E+03  0.00000000000E+00 0. -1.
         -1    1    3    3    0  502 -0.91647138664E+02  0.10528038287E+03 -0.39184136389E+03  0.41596010806E+03  0.00000000000E+00 0.  1.
         11    1    5    5    0    0  0.87544028967E+02  0.33149340054E+02 -0.71926237718E+02  0.11805176587E+03  0.00000000000E+00 0.  1.
        -11    1    5    5    0    0  0.15984199651E+03  0.19726242868E+03 -0.11093206870E+03  0.27707012376E+03  0.00000000000E+00 0. -1.
          4    1    6    6  503    0 -0.76184190149E+02 -0.11739964700E+03  0.13899256528E+03  0.19724512959E+03  0.00000000000E+00 0.  1.
         -4    1    6    6    0  503 -0.82614341228E+02 -0.28452620267E+03  0.17126249665E+03  0.34221503787E+03  0.00000000000E+00 0. -1.
<mgrwt>
<rscale>  0 0.14402579E+04</rscale>
<asrwt>0</asrwt>
<pdfrwt beam="1">  1        2 0.14471625E+00 0.14402579E+04</pdfrwt>
<pdfrwt beam="2">  1       -1 0.84815748E-01 0.14402579E+04</pdfrwt>
<totfact> 0.41963369E+01</totfact>
</mgrwt>
</event>
<event>
12    6  0.1450532E-007  0.1618529E+04  0.7818608E-02  0.8809245E-01
         -1   -1    0    0    0  501 -0.00000000000E+00  0.00000000000E+00  0.69055936034E+03  0.69055936034E+03  0.00000000000E+00 0.  1.
          2   -1    0    0  501    0  0.00000000000E+00 -0.00000000000E+00 -0.94837477467E+03  0.94837477467E+03  0.00000000000E+00 0. -1.
         24    2    1    2    0    0 -0.38559429338E+03 -0.24517875620E+03  0.19814101221E+03  0.50438242682E+03  0.79662978767E+02 0.  0.
        254    2    1    2    0    0  0.38559429338E+03  0.24517875620E+03 -0.45595642654E+03  0.11345517082E+04  0.93301432685E+03 0.  0.
         23    2    4    4    0    0  0.26845110324E+03  0.38534485995E+03  0.14469978115E+03  0.50005995204E+03  0.92548760350E+02 0.  0.
         23    2    4    4    0    0  0.11714319014E+03 -0.14016610376E+03 -0.60065620769E+03  0.63449175616E+03  0.91776059856E+02 0.  0.
          2    1    3    3  502    0 -0.96273029770E+02 -0.84583478763E+02  0.23738499634E+02  0.13033179775E+03  0.00000000000E+00 0. -1.
         -1    1    3    3    0  502 -0.28932126361E+03 -0.16059527744E+03  0.17440251258E+03  0.37405062906E+03  0.00000000000E+00 0.  1.
         11    1    5    5    0    0  0.27495333459E+03  0.36291938821E+03  0.13812432423E+03  0.47580263501E+03  0.00000000000E+00 0. -1.
        -11    1    5    5    0    0 -0.65022313507E+01  0.22425471746E+02  0.65754569267E+01  0.24257317027E+02  0.00000000000E+00 0.  1.
          3    1    6    6  503    0  0.23748814522E+02 -0.73378371650E+02 -0.35564346482E+03  0.36391024400E+03  0.00000000000E+00 0. -1.
         -3    1    6    6    0  503  0.93394375615E+02 -0.66787732106E+02 -0.24501274288E+03  0.27058151217E+03  0.00000000000E+00 0.  1.
<mgrwt>
<rscale>  0 0.16185291E+04</rscale>
<asrwt>0</asrwt>
<pdfrwt beam="1">  1        2 0.14590381E+00 0.16185291E+04</pdfrwt>
<pdfrwt beam="2">  1       -1 0.10623990E+00 0.16185291E+04</pdfrwt>
<totfact> 0.24639859E+01</totfact>
</mgrwt>
</event>
<event>
12    6  0.1450532E-007  0.1403707E+04  0.7818608E-02  0.8951140E-01
         -1   -1    0    0    0  501 -0.00000000000E+00  0.00000000000E+00  0.25235690981E+04  0.25235690981E+04  0.00000000000E+00 0.  1.
          2   -1    0    0  501    0  0.00000000000E+00 -0.00000000000E+00 -0.19519903529E+03  0.19519903529E+03  0.00000000000E+00 0. -1.
         24    2    1    2    0    0  0.31704626161E+02  0.22216038987E+03  0.13509312085E+04  0.13713702451E+04  0.72669092726E+02 0.  0.
        254    2    1    2    0    0 -0.31704626161E+02 -0.22216038987E+03  0.97743885437E+03  0.13473978883E+04  0.89985217297E+03 0.  0.
         23    2    4    4    0    0  0.16185429277E+03  0.30564262203E+03  0.35654246164E+03  0.50493633316E+03  0.90685991781E+02 0.  0.
         23    2    4    4    0    0 -0.19355891893E+03 -0.52780301190E+03  0.62089639273E+03  0.84246155513E+03  0.90487937916E+02 0.  0.
          4    1    3    3  502    0  0.13061183553E-01  0.15062781728E+03  0.71859125761E+03  0.73420850923E+03  0.00000000000E+00 0. -1.
         -1    1    3    3    0  502  0.31691564977E+02  0.71532572586E+02  0.63233995086E+03  0.63716173589E+03  0.00000000000E+00 0.  1.
         11    1    5    5    0    0  0.27219736731E+02  0.45927735103E+01  0.31659089826E+02  0.42003637995E+02  0.00000000000E+00 0.  1.
        -11    1    5    5    0    0  0.13463455604E+03  0.30104984851E+03  0.32488337181E+03  0.46293269517E+03  0.00000000000E+00 0. -1.
          1    1    6    6  503    0 -0.12197884297E+03 -0.43448536284E+03  0.50677636427E+03  0.67858577353E+03  0.00000000000E+00 0. -1.
         -1    1    6    6    0  503 -0.71580075968E+02 -0.93317649059E+02  0.11412002846E+03  0.16387578161E+03  0.00000000000E+00 0.  1.
<mgrwt>
<rscale>  0 0.14037069E+04</rscale>
<asrwt>0</asrwt>
<pdfrwt beam="1">  1        2 0.30030623E-01 0.14037069E+04</pdfrwt>
<pdfrwt beam="2">  1       -1 0.38824138E+00 0.14037069E+04</pdfrwt>
<totfact> 0.17222850E+00</totfact>
</mgrwt>
</event>
<event>
12    6  0.1450532E-007  0.1462035E+04  0.7818608E-02  0.8910099E-01
          2   -1    0    0  501    0  0.00000000000E+00  0.00000000000E+00  0.51471922967E+03  0.51471922967E+03  0.00000000000E+00 0. -1.
         -1   -1    0    0    0  501 -0.00000000000E+00 -0.00000000000E+00 -0.10382098399E+04  0.10382098399E+04  0.00000000000E+00 0.  1.
         24    2    1    2    0    0  0.19284217760E+02  0.23620429526E+03 -0.55085240927E+03  0.60497098353E+03  0.79919734497E+02 0.  0.
        254    2    1    2    0    0 -0.19284217760E+02 -0.23620429526E+03  0.27361799009E+02  0.94795808608E+03  0.91744837171E+03 0.  0.
         23    2    4    4    0    0  0.41003838304E+03 -0.99372914258E+02 -0.14778331763E+03  0.45592368049E+03  0.89554686126E+02 0.  0.
         23    2    4    4    0    0 -0.42932260080E+03 -0.13683138100E+03  0.17514511664E+03  0.49203440559E+03  0.91549560415E+02 0.  0.
          4    1    3    3  502    0  0.16031860082E+02  0.32500310625E+01 -0.25766799566E+02  0.30520668398E+02  0.00000000000E+00 0. -1.
         -3    1    3    3    0  502  0.32523576781E+01  0.23295426420E+03 -0.52508560970E+03  0.57445031513E+03  0.00000000000E+00 0.  1.
         11    1    5    5    0    0  0.33034055932E+02 -0.18010719528E+02 -0.41176008831E+02  0.55777222703E+02  0.00000000000E+00 0.  1.
        -11    1    5    5    0    0  0.37700432711E+03 -0.81362194729E+02 -0.10660730880E+03  0.40014645779E+03  0.00000000000E+00 0. -1.
          3    1    6    6  503    0 -0.30108374565E+03 -0.50952674528E+02  0.12125717676E+03  0.32855882251E+03  0.00000000000E+00 0. -1.
         -3    1    6    6    0  503 -0.12823885515E+03 -0.85878706475E+02  0.53887939883E+02  0.16347558307E+03  0.00000000000E+00 0.  1.
<mgrwt>
<rscale>  0 0.14620350E+04</rscale>
<asrwt>0</asrwt>
<pdfrwt beam="1">  1        2 0.79187574E-01 0.14620350E+04</pdfrwt>
<pdfrwt beam="2">  1       -1 0.15972459E+00 0.14620350E+04</pdfrwt>
<totfact> 0.19362860E+01</totfact>
</mgrwt>
</event>
<event>
12    6  0.1450532E-007  0.1918745E+04  0.7818608E-02  0.8645582E-01
         -3   -1    0    0    0  501 -0.00000000000E+00  0.00000000000E+00  0.62823412284E+03  0.62823412284E+03  0.00000000000E+00 0.  1.
          2   -1    0    0  501    0  0.00000000000E+00 -0.00000000000E+00 -0.14650523658E+04  0.14650523658E+04  0.00000000000E+00 0. -1.
         24    2    1    2    0    0  0.30325538917E+03 -0.22672920850E+03  0.36930029564E+03  0.53487250075E+03  0.79598483957E+02 0.  0.
        254    2    1    2    0    0 -0.30325538917E+03  0.22672920850E+03 -0.12061185386E+04  0.15584139879E+04  0.91135188784E+03 0.  0.
         23    2    4    4    0    0 -0.25699802041E+03  0.46113322127E+03 -0.29528181704E+03  0.61242509510E+03  0.95819180684E+02 0.  0.
         23    2    4    4    0    0 -0.46257368762E+02 -0.23440401276E+03 -0.91083672152E+03  0.94598889276E+03  0.90479094793E+02 0.  0.
          4    1    3    3  502    0  0.48529919834E+02 -0.46749654736E+02  0.29280795206E+02  0.73471411480E+02  0.00000000000E+00 0. -1.
         -3    1    3    3    0  502  0.25472546934E+03 -0.17997955377E+03  0.34001950043E+03  0.46140108927E+03  0.00000000000E+00 0.  1.
         11    1    5    5    0    0 -0.65071048423E+01  0.38873216608E+02  0.17037158710E+00  0.39414444172E+02  0.00000000000E+00 0. -1.
        -11    1    5    5    0    0 -0.25049091557E+03  0.42226000466E+03 -0.29545218863E+03  0.57301065093E+03  0.00000000000E+00 0.  1.
          4    1    6    6  503    0 -0.35865301015E+02 -0.21270170262E+02 -0.16937803271E+03  0.17443525425E+03  0.00000000000E+00 0. -1.
         -4    1    6    6    0  503 -0.10392067747E+02 -0.21313384250E+03 -0.74145868881E+03  0.77155363851E+03  0.00000000000E+00 0.  1.
<mgrwt>
<rscale>  0 0.19187453E+04</rscale>
<asrwt>0</asrwt>
<pdfrwt beam="1">  1        2 0.22539267E+00 0.19187453E+04</pdfrwt>
<pdfrwt beam="2">  1       -3 0.96651403E-01 0.19187453E+04</pdfrwt>
<totfact> 0.74792732E+00</totfact>
</mgrwt>
</event>
<event>
12    6  0.1450532E-007  0.2037979E+04  0.7818608E-02  0.8589067E-01
         -1   -1    0    0    0  501 -0.00000000000E+00  0.00000000000E+00  0.88730628227E+03  0.88730628227E+03  0.00000000000E+00 0.  1.
          2   -1    0    0  501    0  0.00000000000E+00 -0.00000000000E+00 -0.11702156810E+04  0.11702156810E+04  0.00000000000E+00 0. -1.
         24    2    1    2    0    0 -0.36999200128E+03 -0.53428478699E+03  0.38188673631E+03  0.75831844890E+03  0.82795386097E+02 0.  0.
        254    2    1    2    0    0  0.36999200128E+03  0.53428478699E+03 -0.66479613504E+03  0.12992035144E+04  0.90753598055E+03 0.  0.
         23    2    4    4    0    0 -0.16858363167E+02 -0.48318154138E+02  0.17450811872E+03  0.20288643170E+03  0.89949831807E+02 0.  0.
         23    2    4    4    0    0  0.38685036445E+03  0.58260294112E+03 -0.83930425377E+03  0.10963170827E+04  0.91652189842E+02 0.  0.
          4    1    3    3  502    0 -0.28489608505E+02 -0.84933470582E+02  0.68359965818E+02  0.11268734243E+03  0.00000000000E+00 0. -1.
         -3    1    3    3    0  502 -0.34150239278E+03 -0.44935131640E+03  0.31352677049E+03  0.64563110647E+03  0.00000000000E+00 0.  1.
         11    1    5    5    0    0 -0.13776715872E+02 -0.16108661567E+02  0.16868319570E+03  0.17000972734E+03  0.00000000000E+00 0. -1.
        -11    1    5    5    0    0 -0.30816472953E+01 -0.32209492571E+02  0.58249230194E+01  0.32876704365E+02  0.00000000000E+00 0.  1.
          2    1    6    6  503    0  0.28046707467E+03  0.38611812413E+03 -0.62832430097E+03  0.78901230215E+03  0.00000000000E+00 0. -1.
         -2    1    6    6    0  503  0.10638328978E+03  0.19648481699E+03 -0.21097995279E+03  0.30730478053E+03  0.00000000000E+00 0.  1.
<mgrwt>
<rscale>  0 0.20379791E+04</rscale>
<asrwt>0</asrwt>
<pdfrwt beam="1">  1        2 0.18003318E+00 0.20379791E+04</pdfrwt>
<pdfrwt beam="2">  1       -1 0.13650866E+00 0.20379791E+04</pdfrwt>
<totfact> 0.93320033E+00</totfact>
</mgrwt>
</event>
<event>
12    6  0.1450532E-007  0.1744787E+04  0.7818608E-02  0.8736225E-01
         -1   -1    0    0    0  501 -0.00000000000E+00  0.00000000000E+00  0.75646803541E+03  0.75646803541E+03  0.00000000000E+00 0.  1.
          2   -1    0    0  501    0  0.00000000000E+00 -0.00000000000E+00 -0.10060838740E+04  0.10060838740E+04  0.00000000000E+00 0. -1.
         24    2    1    2    0    0  0.52141144806E+03  0.30168978143E+03  0.11357270058E+03  0.61796172734E+03  0.78046881709E+02 0.  0.
        254    2    1    2    0    0 -0.52141144806E+03 -0.30168978143E+03 -0.36318853920E+03  0.11445901821E+04  0.90293640284E+03 0.  0.
         23    2    4    4    0    0 -0.38478027624E+03  0.26053749518E+02 -0.59282586430E+03  0.71316190904E+03  0.91775510217E+02 0.  0.
         23    2    4    4    0    0 -0.13663117182E+03 -0.32774353095E+03  0.22963732510E+03  0.43142827307E+03  0.85516983857E+02 0.  0.
          4    1    3    3  502    0  0.15068056936E+03  0.56135371470E+02  0.84054161434E+01  0.16101697095E+03  0.00000000000E+00 0. -1.
         -3    1    3    3    0  502  0.37073087870E+03  0.24555440996E+03  0.10516728444E+03  0.45694475639E+03  0.00000000000E+00 0.  1.
         11    1    5    5    0    0 -0.36046624799E+03  0.48999651963E+01 -0.51230961129E+03  0.62643520289E+03  0.00000000000E+00 0. -1.
        -11    1    5    5    0    0 -0.24314028249E+02  0.21153784322E+02 -0.80516253015E+02  0.86726706155E+02  0.00000000000E+00 0.  1.
          3    1    6    6  503    0 -0.13889788026E+03 -0.33084437671E+03  0.23164435794E+03  0.42709452268E+03  0.00000000000E+00 0. -1.
         -3    1    6    6    0  503  0.22667084380E+01  0.31008457598E+01 -0.20070328374E+01  0.43337503827E+01  0.00000000000E+00 0.  1.
<mgrwt>
<rscale>  0 0.17447869E+04</rscale>
<asrwt>0</asrwt>
<pdfrwt beam="1">  1        2 0.15478213E+00 0.17447869E+04</pdfrwt>
<pdfrwt beam="2">  1       -1 0.11637970E+00 0.17447869E+04</pdfrwt>
<totfact> 0.18013981E+01</totfact>
</mgrwt>
</event>
<event>
12    6  0.1450532E-007  0.1749277E+04  0.7818608E-02  0.8733748E-01
         -1   -1    0    0    0  501 -0.00000000000E+00  0.00000000000E+00  0.37706592892E+03  0.37706592892E+03  0.00000000000E+00 0.  1.
          2   -1    0    0  501    0  0.00000000000E+00 -0.00000000000E+00 -0.20288041032E+04  0.20288041032E+04  0.00000000000E+00 0. -1.
         24    2    1    2    0    0  0.14655256795E+03 -0.25413160110E+02 -0.14678970607E+04  0.14776351773E+04  0.80996620293E+02 0.  0.
        254    2    1    2    0    0 -0.14655256795E+03  0.25413160110E+02 -0.18384111362E+03  0.92823485487E+03  0.89760732331E+03 0.  0.
         23    2    4    4    0    0 -0.36904183740E+03 -0.28818872978E+03  0.32871628226E+02  0.47831813269E+03  0.91994947644E+02 0.  0.
         23    2    4    4    0    0  0.22248926945E+03  0.31360188989E+03 -0.21671274185E+03  0.44991672218E+03  0.87252645008E+02 0.  0.
          4    1    3    3  502    0  0.15636425059E+03 -0.28719495624E+02 -0.13712837071E+04  0.13804686138E+04  0.00000000000E+00 0. -1.
         -3    1    3    3    0  502 -0.98116826436E+01  0.33063355150E+01 -0.96613353587E+02  0.97166563499E+02  0.00000000000E+00 0.  1.
         11    1    5    5    0    0 -0.23676785587E+03 -0.18869848489E+03 -0.22980548381E+02  0.30363504636E+03  0.00000000000E+00 0. -1.
        -11    1    5    5    0    0 -0.13227398153E+03 -0.99490244894E+02  0.55852176606E+02  0.17468308633E+03  0.00000000000E+00 0.  1.
          2    1    6    6  503    0  0.23028950344E+03  0.30835454403E+03 -0.21231864977E+03  0.43953951957E+03  0.00000000000E+00 0. -1.
         -2    1    6    6    0  503 -0.78002339974E+01  0.52473458590E+01 -0.43940920744E+01  0.10377202616E+02  0.00000000000E+00 0.  1.
<mgrwt>
<rscale>  0 0.17492775E+04</rscale>
<asrwt>0</asrwt>
<pdfrwt beam="1">  1        2 0.31212371E+00 0.17492775E+04</pdfrwt>
<pdfrwt beam="2">  1       -1 0.58010143E-01 0.17492775E+04</pdfrwt>
<totfact> 0.20928035E+01</totfact>
</mgrwt>
</event>
<event>
12    6  0.1450532E-007  0.1645088E+04  0.7818608E-02  0.8793318E-01
         -1   -1    0    0    0  501 -0.00000000000E+00  0.00000000000E+00  0.11556717576E+04  0.11556717576E+04  0.00000000000E+00 0.  1.
          2   -1    0    0  501    0  0.00000000000E+00 -0.00000000000E+00 -0.58544169221E+03  0.58544169221E+03  0.00000000000E+00 0. -1.
         24    2    1    2    0    0  0.49973370361E+02 -0.30732192880E+03  0.73088279587E+03  0.79846401013E+03  0.80068773600E+02 0.  0.
        254    2    1    2    0    0 -0.49973370361E+02  0.30732192880E+03 -0.16065273051E+03  0.94264943965E+03  0.87511974071E+03 0.  0.
         23    2    4    4    0    0 -0.37485454386E+02  0.42646866582E+03 -0.44389647117E+03  0.62334155089E+03  0.90718960115E+02 0.  0.
         23    2    4    4    0    0 -0.12487915975E+02 -0.11914673702E+03  0.28324374066E+03  0.31930788877E+03  0.85898883667E+02 0.  0.
          4    1    3    3  502    0  0.14229283370E+02 -0.25076582913E+01  0.28298268421E+02  0.31773461426E+02  0.00000000000E+00 0. -1.
         -3    1    3    3    0  502  0.35744086992E+02 -0.30481427051E+03  0.70258452745E+03  0.76669054870E+03  0.00000000000E+00 0.  1.
         11    1    5    5    0    0 -0.49070259834E+02  0.36888318877E+03 -0.41649450669E+03  0.55852517532E+03  0.00000000000E+00 0. -1.
        -11    1    5    5    0    0  0.11584805447E+02  0.57585477052E+02 -0.27401964475E+02  0.64816375567E+02  0.00000000000E+00 0.  1.
          3    1    6    6  503    0 -0.26853784972E+01 -0.13017162648E+03  0.26874624746E+03  0.29862419380E+03  0.00000000000E+00 0. -1.
         -3    1    6    6    0  503 -0.98025374777E+01  0.11024889452E+02  0.14497493203E+02  0.20683694970E+02  0.00000000000E+00 0.  1.
<mgrwt>
<rscale>  0 0.16450878E+04</rscale>
<asrwt>0</asrwt>
<pdfrwt beam="1">  1        2 0.90067953E-01 0.16450878E+04</pdfrwt>
<pdfrwt beam="2">  1       -1 0.17779566E+00 0.16450878E+04</pdfrwt>
<totfact> 0.12040446E+01</totfact>
</mgrwt>
</event>
<event>
12    6  0.1450532E-007  0.1552251E+04  0.7818608E-02  0.8850431E-01
          2   -1    0    0  501    0  0.00000000000E+00  0.00000000000E+00  0.12189610695E+04  0.12189610695E+04  0.00000000000E+00 0. -1.
         -3   -1    0    0    0  501 -0.00000000000E+00 -0.00000000000E+00 -0.49416741015E+03  0.49416741015E+03  0.00000000000E+00 0.  1.
         24    2    1    2    0    0  0.20220773576E+03  0.35703298056E+03 -0.10449020891E+03  0.43091099335E+03  0.80034760053E+02 0.  0.
        254    2    1    2    0    0 -0.20220773576E+03 -0.35703298056E+03  0.82928386828E+03  0.12822174863E+04  0.88769895258E+03 0.  0.
         23    2    4    4    0    0 -0.91201370363E+02 -0.34236239280E+03 -0.69053048738E+02  0.37234834322E+03  0.91352434034E+02 0.  0.
         23    2    4    4    0    0 -0.11100636540E+03 -0.14670587767E+02  0.89833691701E+03  0.90986914309E+03  0.91186631562E+02 0.  0.
          2    1    3    3  502    0  0.72470412374E+02  0.11981553538E+03  0.27194464843E+01  0.14005398451E+03  0.00000000000E+00 0. -1.
         -3    1    3    3    0  502  0.12973732339E+03  0.23721744519E+03 -0.10720965540E+03  0.29085700884E+03  0.00000000000E+00 0.  1.
         11    1    5    5    0    0 -0.98267285713E+02 -0.33258653877E+03 -0.50845110485E+02  0.35050747563E+03  0.00000000000E+00 0.  1.
        -11    1    5    5    0    0  0.70659153501E+01 -0.97758540220E+01 -0.18207938254E+02  0.21840867589E+02  0.00000000000E+00 0. -1.
          1    1    6    6  503    0 -0.10747034106E+02 -0.38806534161E+02  0.30347059875E+03  0.30613044628E+03  0.00000000000E+00 0. -1.
         -1    1    6    6    0  503 -0.10025933129E+03  0.24135946394E+02  0.59486631827E+03  0.60373869681E+03  0.00000000000E+00 0.  1.
<mgrwt>
<rscale>  0 0.15522511E+04</rscale>
<asrwt>0</asrwt>
<pdfrwt beam="1">  1        2 0.18753247E+00 0.15522511E+04</pdfrwt>
<pdfrwt beam="2">  1       -3 0.76025755E-01 0.15522511E+04</pdfrwt>
<totfact> 0.18409750E+01</totfact>
</mgrwt>
</event>
<event>
12    6  0.1450532E-007  0.2444127E+04  0.7818608E-02  0.8423166E-01
         -1   -1    0    0    0  501 -0.00000000000E+00  0.00000000000E+00  0.48532105812E+03  0.48532105812E+03  0.00000000000E+00 0.  1.
          2   -1    0    0  501    0  0.00000000000E+00 -0.00000000000E+00 -0.30772178131E+04  0.30772178131E+04  0.00000000000E+00 0. -1.
         24    2    1    2    0    0  0.66310939366E+03 -0.52139296867E+02 -0.23111264033E+04  0.24062631927E+04  0.79779234319E+02 0.  0.
        254    2    1    2    0    0 -0.66310939366E+03  0.52139296867E+02 -0.28077035172E+03  0.11562756786E+04  0.90316603136E+03 0.  0.
         23    2    4    4    0    0 -0.62098440804E+03  0.38587525041E+03 -0.32187430494E+03  0.80459976952E+03  0.96210067124E+02 0.  0.
         23    2    4    4    0    0 -0.42124985616E+02 -0.33373595355E+03  0.41103953221E+02  0.35167590905E+03  0.93979832582E+02 0.  0.
          2    1    3    3  502    0  0.54740954093E+03 -0.66106430550E+02 -0.18327909606E+04  0.19139357280E+04  0.00000000000E+00 0. -1.
         -1    1    3    3    0  502  0.11569985273E+03  0.13967133684E+02 -0.47833544267E+03  0.49232746466E+03  0.00000000000E+00 0.  1.
         11    1    5    5    0    0 -0.54691839881E+03  0.34855458335E+03 -0.25071330665E+03  0.69531805288E+03  0.00000000000E+00 0. -1.
        -11    1    5    5    0    0 -0.74066009238E+02  0.37320667064E+02 -0.71160998292E+02  0.10928171664E+03  0.00000000000E+00 0.  1.
          3    1    6    6  503    0 -0.57158218802E+02 -0.17728569103E+03 -0.96265213425E+01  0.18652063729E+03  0.00000000000E+00 0. -1.
         -3    1    6    6    0  503  0.15033233185E+02 -0.15645026252E+03  0.50730474564E+02  0.16515527176E+03  0.00000000000E+00 0.  1.
<mgrwt>
<rscale>  0 0.24441265E+04</rscale>
<asrwt>0</asrwt>
<pdfrwt beam="1">  1        2 0.47341812E+00 0.24441265E+04</pdfrwt>
<pdfrwt beam="2">  1       -1 0.74664779E-01 0.24441265E+04</pdfrwt>
<totfact> 0.28632033E+00</totfact>
</mgrwt>
</event>
<event>
12    6  0.1450532E-007  0.1920703E+04  0.7818608E-02  0.8644619E-01
          2   -1    0    0  501    0  0.00000000000E+00  0.00000000000E+00  0.24459692745E+04  0.24459692745E+04  0.00000000000E+00 0. -1.
         -1   -1    0    0    0  501 -0.00000000000E+00 -0.00000000000E+00 -0.37705919549E+03  0.37705919549E+03  0.00000000000E+00 0.  1.
         24    2    1    2    0    0 -0.61241010218E+03 -0.41162100575E+03  0.10185013981E+04  0.12602293815E+04  0.79718319292E+02 0.  0.
        254    2    1    2    0    0  0.61241010218E+03  0.41162100575E+03  0.10504086809E+04  0.15627990885E+04  0.89134987994E+03 0.  0.
         23    2    4    4    0    0  0.21678897437E+03  0.61568894075E+03  0.82295261454E+03  0.10544863765E+04  0.92844930900E+02 0.  0.
         23    2    4    4    0    0  0.39562112781E+03 -0.20406793500E+03  0.22745606635E+03  0.50831271203E+03  0.92118142784E+02 0.  0.
          4    1    3    3  502    0 -0.53912455132E+03 -0.34915361529E+03  0.92393077017E+03  0.11252606796E+04  0.00000000000E+00 0. -1.
         -3    1    3    3    0  502 -0.73285550857E+02 -0.62467390454E+02  0.94570627964E+02  0.13496870196E+03  0.00000000000E+00 0.  1.
         11    1    5    5    0    0  0.16129125398E+03  0.55077433724E+03  0.71572282135E+03  0.91740198178E+03  0.00000000000E+00 0. -1.
        -11    1    5    5    0    0  0.55497720395E+02  0.64914603513E+02  0.10722979319E+03  0.13708439468E+03  0.00000000000E+00 0.  1.
          4    1    6    6  503    0  0.26657340292E+03 -0.17647042814E+03  0.13417605759E+03  0.34670795431E+03  0.00000000000E+00 0. -1.
         -4    1    6    6    0  503  0.12904772489E+03 -0.27597506865E+02  0.93280008767E+02  0.16160475773E+03  0.00000000000E+00 0.  1.
<mgrwt>
<rscale>  0 0.19207032E+04</rscale>
<asrwt>0</asrwt>
<pdfrwt beam="1">  1        2 0.37630296E+00 0.19207032E+04</pdfrwt>
<pdfrwt beam="2">  1       -1 0.58009108E-01 0.19207032E+04</pdfrwt>
<totfact> 0.11995680E+01</totfact>
</mgrwt>
</event>
<event>
12    6  0.1450532E-007  0.1616278E+04  0.7818608E-02  0.8810610E-01
          2   -1    0    0  501    0  0.00000000000E+00  0.00000000000E+00  0.98467664675E+03  0.98467664675E+03  0.00000000000E+00 0. -1.
         -1   -1    0    0    0  501 -0.00000000000E+00 -0.00000000000E+00 -0.66325149472E+03  0.66325149472E+03  0.00000000000E+00 0.  1.
         24    2    1    2    0    0  0.11077516390E+03  0.33681862642E+03  0.55470418434E+03  0.66330541927E+03  0.80990265264E+02 0.  0.
        254    2    1    2    0    0 -0.11077516390E+03 -0.33681862642E+03 -0.23327903231E+03  0.98462272221E+03  0.88845082820E+03 0.  0.
         23    2    4    4    0    0  0.48373012684E+02 -0.16141381002E+03 -0.54827175125E+03  0.58038395742E+03  0.88596040491E+02 0.  0.
         23    2    4    4    0    0 -0.15914817658E+03 -0.17540481641E+03  0.31499271894E+03  0.40423876479E+03  0.89964294294E+02 0.  0.
          4    1    3    3  502    0  0.77624232528E+02  0.22621680948E+03  0.43855614643E+03  0.49953083982E+03  0.00000000000E+00 0. -1.
         -3    1    3    3    0  502  0.33150931370E+02  0.11060181694E+03  0.11614803791E+03  0.16377457944E+03  0.00000000000E+00 0.  1.
         11    1    5    5    0    0  0.46962402322E+02 -0.15243259488E+03 -0.38331050627E+03  0.41517238279E+03  0.00000000000E+00 0.  1.
        -11    1    5    5    0    0  0.14106103628E+01 -0.89812151390E+01 -0.16496124497E+03  0.16521157462E+03  0.00000000000E+00 0. -1.
          4    1    6    6  503    0 -0.11065424038E+03 -0.16962401113E+03  0.27239299902E+03  0.33943277976E+03  0.00000000000E+00 0. -1.
         -4    1    6    6    0  503 -0.48493936203E+02 -0.57808052806E+01  0.42599719924E+02  0.64805985030E+02  0.00000000000E+00 0.  1.
<mgrwt>
<rscale>  0 0.16162775E+04</rscale>
<asrwt>0</asrwt>
<pdfrwt beam="1">  1        2 0.15148872E+00 0.16162775E+04</pdfrwt>
<pdfrwt beam="2">  1       -1 0.10203869E+00 0.16162775E+04</pdfrwt>
<totfact> 0.25626193E+01</totfact>
</mgrwt>
</event>
<event>
12    6  0.1450532E-007  0.1667000E+04  0.7818608E-02  0.8780413E-01
         -1   -1    0    0    0  501 -0.00000000000E+00  0.00000000000E+00  0.18354591840E+04  0.18354591840E+04  0.00000000000E+00 0.  1.
          4   -1    0    0  501    0  0.00000000000E+00 -0.00000000000E+00 -0.37850040197E+03  0.37850040197E+03  0.00000000000E+00 0. -1.
         24    2    1    2    0    0  0.40306850886E+02 -0.24464581740E+03 -0.18944294775E+03  0.32258567929E+03  0.81833195171E+02 0.  0.
        254    2    1    2    0    0 -0.40306850886E+02  0.24464581740E+03  0.16464017298E+04  0.18913739067E+04  0.89731843894E+03 0.  0.
         23    2    4    4    0    0 -0.26542859421E+03  0.33641292491E+03  0.15571068258E+04  0.16175873554E+04  0.91548842368E+02 0.  0.
         23    2    4    4    0    0  0.22512174333E+03 -0.91767107510E+02  0.89294903952E+02  0.27378655131E+03  0.88794675904E+02 0.  0.
          4    1    3    3  502    0  0.20487143606E+02 -0.17358239540E+03 -0.17514082559E+03  0.24743661781E+03  0.00000000000E+00 0. -1.
         -3    1    3    3    0  502  0.19819707280E+02 -0.71063421997E+02 -0.14302122159E+02  0.75149061476E+02  0.00000000000E+00 0.  1.
         11    1    5    5    0    0 -0.61937270595E+02  0.12797146997E+03  0.40519797407E+03  0.42941625587E+03  0.00000000000E+00 0. -1.
        -11    1    5    5    0    0 -0.20349132362E+03  0.20844145493E+03  0.11519088518E+04  0.11881710995E+04  0.00000000000E+00 0.  1.
          2    1    6    6  503    0  0.21653625379E+03 -0.10615388901E+03  0.88921868598E+02  0.25702858999E+03  0.00000000000E+00 0. -1.
         -2    1    6    6    0  503  0.85854895391E+01  0.14386781496E+02  0.37303535417E+00  0.16757961327E+02  0.00000000000E+00 0.  1.
<mgrwt>
<rscale>  0 0.16669997E+04</rscale>
<asrwt>0</asrwt>
<pdfrwt beam="1">  1        4 0.58230832E-01 0.16669997E+04</pdfrwt>
<pdfrwt beam="2">  1       -1 0.28237833E+00 0.16669997E+04</pdfrwt>
<totfact> 0.48344852E-01</totfact>
</mgrwt>
</event>
<event>
12    6  0.1450532E-007  0.1817174E+04  0.7818608E-02  0.8697220E-01
          2   -1    0    0  501    0  0.00000000000E+00  0.00000000000E+00  0.13034788078E+04  0.13034788078E+04  0.00000000000E+00 0. -1.
         -1   -1    0    0    0  501 -0.00000000000E+00 -0.00000000000E+00 -0.63332826605E+03  0.63332826605E+03  0.00000000000E+00 0.  1.
         24    2    1    2    0    0  0.20975954292E+03  0.16483234240E+03  0.91100953602E+03  0.95263855428E+03  0.80081667271E+02 0.  0.
        254    2    1    2    0    0 -0.20975954292E+03 -0.16483234240E+03 -0.24085899425E+03  0.98416851959E+03  0.91619094784E+03 0.  0.
         23    2    4    4    0    0  0.61193872204E+02 -0.39865249290E+03 -0.40640007321E+03  0.57970667121E+03  0.90721028754E+02 0.  0.
         23    2    4    4    0    0 -0.27095341513E+03  0.23382015050E+03  0.16554107895E+03  0.40446184838E+03  0.89988454957E+02 0.  0.
          4    1    3    3  502    0  0.19197077220E+03  0.16209695742E+03  0.89089794363E+03  0.92564968911E+03  0.00000000000E+00 0. -1.
         -3    1    3    3    0  502  0.17788770720E+02  0.27353849828E+01  0.20111592390E+02  0.26988865171E+02  0.00000000000E+00 0.  1.
         11    1    5    5    0    0 -0.90310308996E+01 -0.40460466114E+02 -0.13927764804E+02  0.43733184994E+02  0.00000000000E+00 0. -1.
        -11    1    5    5    0    0  0.70224903104E+02 -0.35819202678E+03 -0.39247230840E+03  0.53597348622E+03  0.00000000000E+00 0.  1.
          3    1    6    6  503    0 -0.14521018826E+03  0.79086616338E+02  0.44577447162E+02  0.17125373121E+03  0.00000000000E+00 0. -1.
         -3    1    6    6    0  503 -0.12574322686E+03  0.15473353416E+03  0.12096363179E+03  0.23320811717E+03  0.00000000000E+00 0.  1.
<mgrwt>
<rscale>  0 0.18171736E+04</rscale>
<asrwt>0</asrwt>
<pdfrwt beam="1">  1        2 0.20053520E+00 0.18171736E+04</pdfrwt>
<pdfrwt beam="2">  1       -1 0.97435118E-01 0.18171736E+04</pdfrwt>
<totfact> 0.17884228E+01</totfact>
</mgrwt>
</event>
<event>
12    6  0.1450532E-007  0.2146597E+04  0.7818608E-02  0.8540990E-01
         -1   -1    0    0    0  501 -0.00000000000E+00  0.00000000000E+00  0.11839027033E+04  0.11839027033E+04  0.00000000000E+00 0.  1.
          2   -1    0    0  501    0  0.00000000000E+00 -0.00000000000E+00 -0.97302774400E+03  0.97302774400E+03  0.00000000000E+00 0. -1.
         24    2    1    2    0    0 -0.53614654600E+03  0.67478397955E+03 -0.10737992922E+03  0.87267178461E+03  0.85082645728E+02 0.  0.
        254    2    1    2    0    0  0.53614654600E+03 -0.67478397955E+03  0.31825488856E+03  0.12842586627E+04  0.89735589420E+03 0.  0.
         23    2    4    4    0    0  0.49478045609E+03 -0.23707356446E+03 -0.20705438875E+03  0.59363290454E+03  0.92287218818E+02 0.  0.
         23    2    4    4    0    0  0.41366089913E+02 -0.43771041510E+03  0.52530927731E+03  0.69062575819E+03  0.87821069031E+02 0.  0.
          4    1    3    3  502    0 -0.47686221672E+03  0.56604616011E+03 -0.70714536888E+02  0.74350949882E+03  0.00000000000E+00 0. -1.
         -3    1    3    3    0  502 -0.59284329284E+02  0.10873781944E+03 -0.36665392328E+02  0.12916228579E+03  0.00000000000E+00 0.  1.
         11    1    5    5    0    0  0.95267423215E+02 -0.59964428706E+02 -0.63774446213E+01  0.11274877576E+03  0.00000000000E+00 0.  1.
        -11    1    5    5    0    0  0.39951303287E+03 -0.17710913575E+03 -0.20067694413E+03  0.48088412878E+03  0.00000000000E+00 0. -1.
          1    1    6    6  503    0  0.30887123500E+02 -0.19869251643E+03  0.17591057547E+03  0.26716523173E+03  0.00000000000E+00 0. -1.
         -1    1    6    6    0  503  0.10478966414E+02 -0.23901789867E+03  0.34939870184E+03  0.42346052646E+03  0.00000000000E+00 0.  1.
<mgrwt>
<rscale>  0 0.21465975E+04</rscale>
<asrwt>0</asrwt>
<pdfrwt beam="1">  1        2 0.14969658E+00 0.21465975E+04</pdfrwt>
<pdfrwt beam="2">  1       -1 0.18213888E+00 0.21465975E+04</pdfrwt>
<totfact> 0.55159237E+00</totfact>
</mgrwt>
</event>
<event>
12    6  0.1450532E-007  0.2661995E+04  0.7818608E-02  0.8347443E-01
         -1   -1    0    0    0  501 -0.00000000000E+00  0.00000000000E+00  0.58740843825E+03  0.58740843825E+03  0.00000000000E+00 0.  1.
          2   -1    0    0  501    0  0.00000000000E+00 -0.00000000000E+00 -0.30158817033E+04  0.30158817033E+04  0.00000000000E+00 0. -1.
         24    2    1    2    0    0 -0.91133275312E+03  0.51442758368E+03 -0.37623108559E+03  0.11147896686E+04  0.77737054354E+02 0.  0.
        254    2    1    2    0    0  0.91133275312E+03 -0.51442758368E+03 -0.20522421794E+04  0.24885004730E+04  0.94115541496E+03 0.  0.
         23    2    4    4    0    0  0.73848746337E+03  0.99652876209E+02 -0.12600697873E+04  0.14673244304E+04  0.99853322617E+02 0.  0.
         23    2    4    4    0    0  0.17284528975E+03 -0.61408045989E+03 -0.79217239218E+03  0.10211760425E+04  0.91066489623E+02 0.  0.
          2    1    3    3  502    0 -0.25483703414E+03  0.17089818179E+03 -0.13845646179E+03  0.33662782761E+03  0.00000000000E+00 0. -1.
         -1    1    3    3    0  502 -0.65649571898E+03  0.34352940190E+03 -0.23777462380E+03  0.77816184097E+03  0.00000000000E+00 0.  1.
         11    1    5    5    0    0  0.37119803259E+03  0.99310544383E+02 -0.62358487386E+03  0.73246751364E+03  0.00000000000E+00 0. -1.
        -11    1    5    5    0    0  0.36728943078E+03  0.34233182615E+00 -0.63648491340E+03  0.73485691678E+03  0.00000000000E+00 0.  1.
          4    1    6    6  503    0  0.13846214571E+03 -0.40070469634E+03 -0.46704561640E+03  0.63076749065E+03  0.00000000000E+00 0. -1.
         -4    1    6    6    0  503  0.34383144043E+02 -0.21337576355E+03 -0.32512677578E+03  0.39040855190E+03  0.00000000000E+00 0.  1.
<mgrwt>
<rscale>  0 0.26619950E+04</rscale>
<asrwt>0</asrwt>
<pdfrwt beam="1">  1        2 0.46398181E+00 0.26619950E+04</pdfrwt>
<pdfrwt beam="2">  1       -1 0.90370528E-01 0.26619950E+04</pdfrwt>
<totfact> 0.20373965E+00</totfact>
</mgrwt>
</event>
<event>
12    6  0.1450532E-007  0.2140688E+04  0.7818608E-02  0.8543529E-01
         -1   -1    0    0    0  501 -0.00000000000E+00  0.00000000000E+00  0.15507935632E+04  0.15507935632E+04  0.00000000000E+00 0.  1.
          2   -1    0    0  501    0  0.00000000000E+00 -0.00000000000E+00 -0.73874162454E+03  0.73874162454E+03  0.00000000000E+00 0. -1.
         24    2    1    2    0    0 -0.78084566900E+03  0.21097925805E+03 -0.47240603581E+02  0.81415727265E+03  0.79926114939E+02 0.  0.
        254    2    1    2    0    0  0.78084566900E+03 -0.21097925805E+03  0.85929254220E+03  0.14753779151E+04  0.88550782776E+03 0.  0.
         23    2    4    4    0    0 -0.12368818606E+03 -0.18626834259E+03  0.27830790447E+02  0.24336944654E+03  0.91975386872E+02 0.  0.
         23    2    4    4    0    0  0.90453385506E+03 -0.24710915456E+02  0.83146175175E+03  0.12320084685E+04  0.87886845242E+02 0.  0.
          2    1    3    3  502    0 -0.66780791301E+03  0.15357753867E+03 -0.26975391815E+02  0.68577047241E+03  0.00000000000E+00 0. -1.
         -1    1    3    3    0  502 -0.11303775599E+03  0.57401719380E+02 -0.20265211766E+02  0.12838680024E+03  0.00000000000E+00 0.  1.
         11    1    5    5    0    0 -0.28630050873E+02  0.41651086530E+01  0.30745280605E+01  0.29094340788E+02  0.00000000000E+00 0. -1.
        -11    1    5    5    0    0 -0.95058135183E+02 -0.19043345125E+03  0.24756262386E+02  0.21427510575E+03  0.00000000000E+00 0.  1.
          3    1    6    6  503    0  0.10260115570E+03 -0.22823186989E+02  0.12459709183E+03  0.16301021534E+03  0.00000000000E+00 0. -1.
         -3    1    6    6    0  503  0.80193269936E+03 -0.18877284673E+01  0.70686465992E+03  0.10689982532E+04  0.00000000000E+00 0.  1.
<mgrwt>
<rscale>  0 0.21406875E+04</rscale>
<asrwt>0</asrwt>
<pdfrwt beam="1">  1        2 0.11365256E+00 0.21406875E+04</pdfrwt>
<pdfrwt beam="2">  1       -1 0.23858362E+00 0.21406875E+04</pdfrwt>
<totfact> 0.33201866E+00</totfact>
</mgrwt>
</event>
<event>
12    6  0.1843091E-007  0.2392889E+04  0.7818608E-02  0.8442171E-01
         -1   -1    0    0    0  501 -0.00000000000E+00  0.00000000000E+00  0.94883976307E+03  0.94883976307E+03  0.00000000000E+00 0.  1.
          2   -1    0    0  501    0  0.00000000000E+00 -0.00000000000E+00 -0.15086631281E+04  0.15086631281E+04  0.00000000000E+00 0. -1.
         24    2    1    2    0    0 -0.63148305234E+03  0.34391454101E+03  0.51346671762E+03  0.88708749238E+03  0.78918262283E+02 0.  0.
        254    2    1    2    0    0  0.63148305234E+03 -0.34391454101E+03 -0.10732900827E+04  0.15704153988E+04  0.89286329658E+03 0.  0.
         23    2    4    4    0    0  0.83176436807E+03 -0.38545878635E+03 -0.82816632959E+03  0.12383072230E+04  0.84468154779E+02 0.  0.
         23    2    4    4    0    0 -0.20028131573E+03  0.41544245346E+02 -0.24512375309E+03  0.33210817580E+03  0.91496755950E+02 0.  0.
          2    1    3    3  502    0 -0.11756108370E+03  0.10031228810E+03  0.11588894400E+03  0.19316679551E+03  0.00000000000E+00 0. -1.
         -1    1    3    3    0  502 -0.51392196863E+03  0.24360225291E+03  0.39757777362E+03  0.69392069687E+03  0.00000000000E+00 0.  1.
         11    1    5    5    0    0  0.46905824802E+03 -0.17795457755E+03 -0.48150455206E+03  0.69536329021E+03  0.00000000000E+00 0. -1.
        -11    1    5    5    0    0  0.36270612004E+03 -0.20750420880E+03 -0.34666177753E+03  0.54294393282E+03  0.00000000000E+00 0.  1.
          4    1    6    6  503    0 -0.12251070922E+03  0.33482799639E+01 -0.82175353231E+02  0.14755634019E+03  0.00000000000E+00 0. -1.
         -4    1    6    6    0  503 -0.77770606515E+02  0.38195965382E+02 -0.16294839986E+03  0.18455183561E+03  0.00000000000E+00 0.  1.
<mgrwt>
<rscale>  0 0.23928891E+04</rscale>
<asrwt>0</asrwt>
<pdfrwt beam="1">  1        2 0.23210202E+00 0.23928891E+04</pdfrwt>
<pdfrwt beam="2">  1       -1 0.14597535E+00 0.23928891E+04</pdfrwt>
<totfact> 0.48281946E+00</totfact>
</mgrwt>
</event>
<event>
12    6  0.1450532E-007  0.1291812E+04  0.7818608E-02  0.9036084E-01
         -1   -1    0    0    0  501 -0.00000000000E+00  0.00000000000E+00  0.36434451578E+03  0.36434451578E+03  0.00000000000E+00 0.  1.
          2   -1    0    0  501    0  0.00000000000E+00 -0.00000000000E+00 -0.11450544174E+04  0.11450544174E+04  0.00000000000E+00 0. -1.
         24    2    1    2    0    0 -0.16188007589E+02 -0.36066165721E+03 -0.20090542070E+03  0.42101172606E+03  0.80925909595E+02 0.  0.
        254    2    1    2    0    0  0.16188007589E+02  0.36066165721E+03 -0.57980448094E+03  0.10883872071E+04  0.84739282151E+03 0.  0.
         23    2    4    4    0    0  0.22298303292E+02 -0.14681900443E+03 -0.54369658032E+03  0.57156436239E+03  0.95009549590E+02 0.  0.
         23    2    4    4    0    0 -0.61102957028E+01  0.50748066164E+03 -0.36107900620E+02  0.51682284474E+03  0.90708956005E+02 0.  0.
          2    1    3    3  502    0 -0.41628983152E+01 -0.21879805354E+03 -0.16530820171E+03  0.27425666720E+03  0.00000000000E+00 0. -1.
         -1    1    3    3    0  502 -0.12025109274E+02 -0.14186360368E+03 -0.35597218988E+02  0.14675505886E+03  0.00000000000E+00 0.  1.
         11    1    5    5    0    0 -0.18291640258E+02 -0.95016044803E+02 -0.20703077109E+03  0.22852652593E+03  0.00000000000E+00 0. -1.
        -11    1    5    5    0    0  0.40589943550E+02 -0.51802959628E+02 -0.33666580922E+03  0.34303783646E+03  0.00000000000E+00 0.  1.
          2    1    6    6  503    0  0.25024392122E+02  0.48203568681E+02 -0.13353517501E+02  0.55929604542E+02  0.00000000000E+00 0. -1.
         -2    1    6    6    0  503 -0.31134687824E+02  0.45927709296E+03 -0.22754383119E+02  0.46089324020E+03  0.00000000000E+00 0.  1.
<mgrwt>
<rscale>  0 0.12918116E+04</rscale>
<asrwt>0</asrwt>
<pdfrwt beam="1">  1        2 0.17616222E+00 0.12918116E+04</pdfrwt>
<pdfrwt beam="2">  1       -1 0.56053003E-01 0.12918116E+04</pdfrwt>
<totfact> 0.73606377E+01</totfact>
</mgrwt>
</event>
<event>
12    6  0.1450532E-007  0.1484488E+04  0.7818608E-02  0.8894834E-01
          2   -1    0    0  501    0  0.00000000000E+00  0.00000000000E+00  0.29329180394E+04  0.29329180394E+04  0.00000000000E+00 0. -1.
         -1   -1    0    0    0  501 -0.00000000000E+00 -0.00000000000E+00 -0.18784224950E+03  0.18784224950E+03  0.00000000000E+00 0.  1.
         24    2    1    2    0    0  0.39155440094E+03  0.24908901364E+03  0.76766342218E+03  0.90064854959E+03  0.80625644254E+02 0.  0.
        254    2    1    2    0    0 -0.39155440094E+03 -0.24908901364E+03  0.19774123677E+04  0.22201117393E+04  0.89631260024E+03 0.  0.
         23    2    4    4    0    0  0.53581432978E+02 -0.27013244697E+03  0.13136809204E+03  0.31876185038E+03  0.92244418721E+02 0.  0.
         23    2    4    4    0    0 -0.44513583391E+03  0.21043433329E+02  0.18460442756E+04  0.19013498889E+04  0.93076289197E+02 0.  0.
          2    1    3    3  502    0  0.33120244035E+03  0.20619920901E+03  0.58101307569E+03  0.69984952984E+03  0.00000000000E+00 0. -1.
         -1    1    3    3    0  502  0.60351960587E+02  0.42889804630E+02  0.18665034649E+03  0.20079901975E+03  0.00000000000E+00 0.  1.
         11    1    5    5    0    0  0.37124472211E+02 -0.33464001803E+02  0.57313972576E+01  0.50308197822E+02  0.00000000000E+00 0.  1.
        -11    1    5    5    0    0  0.16456960768E+02 -0.23666844517E+03  0.12563669478E+03  0.26845365256E+03  0.00000000000E+00 0. -1.
          3    1    6    6  503    0 -0.35421177511E+03  0.36367761688E+02  0.15848595329E+04  0.16243670567E+04  0.00000000000E+00 0. -1.
         -3    1    6    6    0  503 -0.90924058803E+02 -0.15324328360E+02  0.26118474271E+03  0.27698283220E+03  0.00000000000E+00 0.  1.
<mgrwt>
<rscale>  0 0.14844877E+04</rscale>
<asrwt>0</asrwt>
<pdfrwt beam="1">  1        2 0.45121813E+00 0.14844877E+04</pdfrwt>
<pdfrwt beam="2">  1       -1 0.28898810E-01 0.14844877E+04</pdfrwt>
<totfact> 0.23167631E+01</totfact>
</mgrwt>
</event>
<event>
12    6  0.1450532E-007  0.2238769E+04  0.7818608E-02  0.8502463E-01
          2   -1    0    0  501    0  0.00000000000E+00  0.00000000000E+00  0.26153222270E+04  0.26153222270E+04  0.00000000000E+00 0. -1.
         -1   -1    0    0    0  501 -0.00000000000E+00 -0.00000000000E+00 -0.47910785740E+03  0.47910785740E+03  0.00000000000E+00 0.  1.
         24    2    1    2    0    0 -0.76689728721E+03 -0.91096229117E+02  0.16365936985E+04  0.18114028386E+04  0.79443927659E+02 0.  0.
        254    2    1    2    0    0  0.76689728721E+03  0.91096229117E+02  0.49962067108E+03  0.12830272458E+04  0.89448763342E+03 0.  0.
         23    2    4    4    0    0  0.51024836675E+03  0.46863223324E+03  0.19132663552E+03  0.72457846774E+03  0.91861355569E+02 0.  0.
         23    2    4    4    0    0  0.25664892046E+03 -0.37753600413E+03  0.30829403556E+03  0.55844877803E+03  0.91748147338E+02 0.  0.
          4    1    3    3  502    0 -0.48887425479E+03 -0.89808364267E+02  0.10987123300E+04  0.12059155706E+04  0.00000000000E+00 0. -1.
         -3    1    3    3    0  502 -0.27802303241E+03 -0.12878648495E+01  0.53788136851E+03  0.60548726802E+03  0.00000000000E+00 0.  1.
         11    1    5    5    0    0  0.31221569452E+02  0.48630189070E+01  0.29614898483E+01  0.31736505385E+02  0.00000000000E+00 0.  1.
        -11    1    5    5    0    0  0.47902679730E+03  0.46376921433E+03  0.18836514567E+03  0.69284196236E+03  0.00000000000E+00 0. -1.
          3    1    6    6  503    0  0.15651199720E+03 -0.26033354184E+03  0.15488592426E+03  0.34096804514E+03  0.00000000000E+00 0. -1.
         -3    1    6    6    0  503  0.10013692326E+03 -0.11720246229E+03  0.15340811130E+03  0.21748073289E+03  0.00000000000E+00 0.  1.
<mgrwt>
<rscale>  0 0.22387688E+04</rscale>
<asrwt>0</asrwt>
<pdfrwt beam="1">  1        2 0.40235726E+00 0.22387688E+04</pdfrwt>
<pdfrwt beam="2">  1       -1 0.73708903E-01 0.22387688E+04</pdfrwt>
<totfact> 0.57304070E+00</totfact>
</mgrwt>
</event>
<event>
12    6  0.1450532E-007  0.2379710E+04  0.7818608E-02  0.8447139E-01
          2   -1    0    0  501    0  0.00000000000E+00  0.00000000000E+00  0.99754770921E+03  0.99754770921E+03  0.00000000000E+00 0. -1.
         -1   -1    0    0    0  501 -0.00000000000E+00 -0.00000000000E+00 -0.14192356947E+04  0.14192356947E+04  0.00000000000E+00 0.  1.
         24    2    1    2    0    0  0.17259824228E+03  0.13455420878E+03 -0.11897973190E+04  0.12124768758E+04  0.81163573787E+02 0.  0.
        254    2    1    2    0    0 -0.17259824228E+03 -0.13455420878E+03  0.76810933344E+03  0.12043065282E+04  0.90136966742E+03 0.  0.
         23    2    4    4    0    0 -0.53625567235E+03 -0.66037431442E+02  0.46233586324E+03  0.71671933807E+03  0.89448704007E+02 0.  0.
         23    2    4    4    0    0  0.36365743007E+03 -0.68516777333E+02  0.30577347020E+03  0.48758719010E+03  0.85455120676E+02 0.  0.
          2    1    3    3  502    0  0.27047867701E+02  0.64788105860E+02 -0.29507466902E+03  0.30331196169E+03  0.00000000000E+00 0. -1.
         -3    1    3    3    0  502  0.14555037458E+03  0.69766102916E+02 -0.89472264994E+03  0.90916491407E+03  0.00000000000E+00 0.  1.
         11    1    5    5    0    0 -0.26915645815E+03 -0.72920206724E+02  0.26356052409E+03  0.38370132314E+03  0.00000000000E+00 0. -1.
        -11    1    5    5    0    0 -0.26709921419E+03  0.68827752821E+01  0.19877533915E+03  0.33301801494E+03  0.00000000000E+00 0.  1.
          1    1    6    6  503    0  0.12127815213E+03  0.11162837656E+02  0.71633476547E+02  0.14129527272E+03  0.00000000000E+00 0. -1.
         -1    1    6    6    0  503  0.24237927794E+03 -0.79679614989E+02  0.23413999365E+03  0.34629191738E+03  0.00000000000E+00 0.  1.
<mgrwt>
<rscale>  0 0.23797103E+04</rscale>
<asrwt>0</asrwt>
<pdfrwt beam="1">  1        2 0.15346888E+00 0.23797103E+04</pdfrwt>
<pdfrwt beam="2">  1       -1 0.21834395E+00 0.23797103E+04</pdfrwt>
<totfact> 0.29313158E+00</totfact>
</mgrwt>
</event>
<event>
12    6  0.1450532E-007  0.1863805E+04  0.7818608E-02  0.8673086E-01
         -1   -1    0    0    0  501 -0.00000000000E+00  0.00000000000E+00  0.64039716056E+03  0.64039716056E+03  0.00000000000E+00 0.  1.
          2   -1    0    0  501    0  0.00000000000E+00 -0.00000000000E+00 -0.13560999344E+04  0.13560999344E+04  0.00000000000E+00 0. -1.
         24    2    1    2    0    0 -0.12596899799E+03 -0.60641192867E+03  0.10995566093E+03  0.63402860151E+03  0.79362487863E+02 0.  0.
        254    2    1    2    0    0  0.12596899799E+03  0.60641192867E+03 -0.82565843476E+03  0.13624684934E+04  0.88938457882E+03 0.  0.
         23    2    4    4    0    0  0.41701658079E+03  0.37083300121E+02 -0.24481964519E+03  0.49374590902E+03  0.92576261542E+02 0.  0.
         23    2    4    4    0    0 -0.29104758280E+03  0.56932862855E+03 -0.58083878958E+03  0.86872258442E+03  0.91986121056E+02 0.  0.
          4    1    3    3  502    0 -0.35934021062E+01 -0.21687474078E+02 -0.10894037072E+02  0.24534447504E+02  0.00000000000E+00 0. -1.
         -3    1    3    3    0  502 -0.12237559588E+03 -0.58472445459E+03  0.12084969800E+03  0.60949415401E+03  0.00000000000E+00 0.  1.
         11    1    5    5    0    0  0.28834459764E+03  0.55903069905E+02 -0.13377286687E+03  0.32274283900E+03  0.00000000000E+00 0. -1.
        -11    1    5    5    0    0  0.12867198315E+03 -0.18819769784E+02 -0.11104677831E+03  0.17100307002E+03  0.00000000000E+00 0.  1.
          4    1    6    6  503    0 -0.45502100895E+02  0.14972107625E+03 -0.18088487127E+03  0.23917813134E+03  0.00000000000E+00 0. -1.
         -4    1    6    6    0  503 -0.24554548191E+03  0.41960755229E+03 -0.39995391831E+03  0.62954445307E+03  0.00000000000E+00 0.  1.
<mgrwt>
<rscale>  0 0.18638053E+04</rscale>
<asrwt>0</asrwt>
<pdfrwt beam="1">  1        2 0.20863076E+00 0.18638053E+04</pdfrwt>
<pdfrwt beam="2">  1       -1 0.98522641E-01 0.18638053E+04</pdfrwt>
<totfact> 0.16191598E+01</totfact>
</mgrwt>
</event>
<event>
12    6  0.1450532E-007  0.1650410E+04  0.7818608E-02  0.8790164E-01
         -1   -1    0    0    0  501 -0.00000000000E+00  0.00000000000E+00  0.96316588980E+03  0.96316588980E+03  0.00000000000E+00 0.  1.
          2   -1    0    0  501    0  0.00000000000E+00 -0.00000000000E+00 -0.70700545251E+03  0.70700545251E+03  0.00000000000E+00 0. -1.
         24    2    1    2    0    0 -0.33195793955E+03 -0.48261018874E+03  0.73876259429E+02  0.59589969281E+03  0.80808875023E+02 0.  0.
        254    2    1    2    0    0  0.33195793955E+03  0.48261018874E+03  0.18228417785E+03  0.10742716495E+04  0.88188626676E+03 0.  0.
         23    2    4    4    0    0  0.17089448230E+03 -0.11299844144E+03 -0.23229395985E+03  0.32559208762E+03  0.10038003731E+03 0.  0.
         23    2    4    4    0    0  0.16106345724E+03  0.59560863018E+03  0.41457813770E+03  0.74867956187E+03  0.89190674966E+02 0.  0.
          4    1    3    3  502    0 -0.28777266935E+03 -0.39013652489E+03  0.34175825004E+02  0.48599136237E+03  0.00000000000E+00 0. -1.
         -3    1    3    3    0  502 -0.44185270195E+02 -0.92473663848E+02  0.39700434425E+02  0.10990833045E+03  0.00000000000E+00 0.  1.
         11    1    5    5    0    0  0.27412495181E+02  0.18438636835E+02 -0.26308749797E+02  0.42232434648E+02  0.00000000000E+00 0.  1.
        -11    1    5    5    0    0  0.14348198712E+03 -0.13143707827E+03 -0.20598521005E+03  0.28335965298E+03  0.00000000000E+00 0. -1.
          1    1    6    6  503    0  0.71594023740E+02  0.37383011609E+03  0.21468778370E+03  0.43699600045E+03  0.00000000000E+00 0. -1.
         -1    1    6    6    0  503  0.89469433503E+02  0.22177851409E+03  0.19989035400E+03  0.31168356143E+03  0.00000000000E+00 0.  1.
<mgrwt>
<rscale>  0 0.16504103E+04</rscale>
<asrwt>0</asrwt>
<pdfrwt beam="1">  1        2 0.10877007E+00 0.16504103E+04</pdfrwt>
<pdfrwt beam="2">  1       -1 0.14817937E+00 0.16504103E+04</pdfrwt>
<totfact> 0.15914491E+01</totfact>
</mgrwt>
</event>
<event>
12    6  0.1450532E-007  0.1356244E+04  0.7818608E-02  0.8986115E-01
         -1   -1    0    0    0  501 -0.00000000000E+00  0.00000000000E+00  0.68994895466E+03  0.68994895466E+03  0.00000000000E+00 0.  1.
          2   -1    0    0  501    0  0.00000000000E+00 -0.00000000000E+00 -0.66649810696E+03  0.66649810696E+03  0.00000000000E+00 0. -1.
         24    2    1    2    0    0 -0.54190576971E+02  0.97886263540E+02 -0.33029790221E+03  0.35786127101E+03  0.80309687228E+02 0.  0.
        254    2    1    2    0    0  0.54190576971E+02 -0.97886263540E+02  0.35374874990E+03  0.99858579062E+03  0.92710143131E+03 0.  0.
         23    2    4    4    0    0  0.29184509800E+03 -0.32871550380E+03 -0.67827545762E+02  0.45489129232E+03  0.95383794224E+02 0.  0.
         23    2    4    4    0    0 -0.23765452103E+03  0.23082924026E+03  0.42157629566E+03  0.54369449830E+03  0.90085098037E+02 0.  0.
          4    1    3    3  502    0 -0.27234884422E+02  0.59621926603E+02 -0.28600582450E+03  0.29342093434E+03  0.00000000000E+00 0. -1.
         -3    1    3    3    0  502 -0.26955692549E+02  0.38264336937E+02 -0.44292077702E+02  0.64440336662E+02  0.00000000000E+00 0.  1.
         11    1    5    5    0    0  0.29404189634E+01 -0.11219254906E+02  0.13701256485E+02  0.17951105080E+02  0.00000000000E+00 0. -1.
        -11    1    5    5    0    0  0.28890467904E+03 -0.31749624889E+03 -0.81528802246E+02  0.43694018724E+03  0.00000000000E+00 0.  1.
          2    1    6    6  503    0 -0.11060821483E+03  0.51046098995E+02  0.17391529177E+03  0.21233560729E+03  0.00000000000E+00 0. -1.
         -2    1    6    6    0  503 -0.12704630620E+03  0.17978314126E+03  0.24766100389E+03  0.33135889101E+03  0.00000000000E+00 0.  1.
<mgrwt>
<rscale>  0 0.13562443E+04</rscale>
<asrwt>0</asrwt>
<pdfrwt beam="1">  1        2 0.10253817E+00 0.13562443E+04</pdfrwt>
<pdfrwt beam="2">  1       -1 0.10614599E+00 0.13562443E+04</pdfrwt>
<totfact> 0.40367157E+01</totfact>
</mgrwt>
</event>
<event>
12    6  0.1450532E-007  0.1677746E+04  0.7818608E-02  0.8774159E-01
         -1   -1    0    0    0  501 -0.00000000000E+00  0.00000000000E+00  0.55869703715E+03  0.55869703715E+03  0.00000000000E+00 0.  1.
          2   -1    0    0  501    0  0.00000000000E+00 -0.00000000000E+00 -0.12595526034E+04  0.12595526034E+04  0.00000000000E+00 0. -1.
         24    2    1    2    0    0 -0.71501633757E+02  0.10996912683E+03  0.37476121835E+03  0.40511834159E+03  0.80431383379E+02 0.  0.
        254    2    1    2    0    0  0.71501633757E+02 -0.10996912683E+03 -0.10756167846E+04  0.14131312990E+04  0.90707381634E+03 0.  0.
         23    2    4    4    0    0  0.11590374962E+03  0.29569739699E+03 -0.90209291490E+02  0.34228660570E+03  0.90287177457E+02 0.  0.
         23    2    4    4    0    0 -0.44402115861E+02 -0.40566652382E+03 -0.98540749311E+03  0.10708446933E+04  0.95621928137E+02 0.  0.
          2    1    3    3  502    0 -0.14640490100E+02 -0.11365415822E+02  0.65587109023E+02  0.68155597695E+02  0.00000000000E+00 0. -1.
         -1    1    3    3    0  502 -0.56861143657E+02  0.12133454265E+03  0.30917410932E+03  0.33696274390E+03  0.00000000000E+00 0.  1.
         11    1    5    5    0    0  0.93819348367E+02  0.26613611922E+03 -0.10693811418E+03  0.30177187467E+03  0.00000000000E+00 0.  1.
        -11    1    5    5    0    0  0.22084401251E+02  0.29561277769E+02  0.16728822688E+02  0.40514731031E+02  0.00000000000E+00 0. -1.
          4    1    6    6  503    0  0.19018911720E+01 -0.17902737260E+02 -0.11007772974E+02  0.21102043912E+02  0.00000000000E+00 0. -1.
         -4    1    6    6    0  503 -0.46304007033E+02 -0.38776378656E+03 -0.97439972014E+03  0.10497426493E+04  0.00000000000E+00 0.  1.
<mgrwt>
<rscale>  0 0.16777465E+04</rscale>
<asrwt>0</asrwt>
<pdfrwt beam="1">  1        2 0.19377732E+00 0.16777465E+04</pdfrwt>
<pdfrwt beam="2">  1       -1 0.85953391E-01 0.16777465E+04</pdfrwt>
<totfact> 0.25357030E+01</totfact>
</mgrwt>
</event>
<event>
12    6  0.1450532E-007  0.1984950E+04  0.7818608E-02  0.8613689E-01
         -1   -1    0    0    0  501 -0.00000000000E+00  0.00000000000E+00  0.21358327862E+04  0.21358327862E+04  0.00000000000E+00 0.  1.
          2   -1    0    0  501    0  0.00000000000E+00 -0.00000000000E+00 -0.46118153644E+03  0.46118153644E+03  0.00000000000E+00 0. -1.
         24    2    1    2    0    0  0.32971309278E+03 -0.65817570832E+03  0.10123749743E+04  0.12543186816E+04  0.80661514371E+02 0.  0.
        254    2    1    2    0    0 -0.32971309278E+03  0.65817570832E+03  0.66227627542E+03  0.13426956410E+04  0.90681626186E+03 0.  0.
         23    2    4    4    0    0 -0.58339873233E+03  0.36464222430E+03  0.17881260172E+03  0.71664282427E+03  0.91021746914E+02 0.  0.
         23    2    4    4    0    0  0.25368563955E+03  0.29353348402E+03  0.48346367370E+03  0.62605281672E+03  0.87673802114E+02 0.  0.
          4    1    3    3  502    0  0.71866038664E+02 -0.13879607393E+03  0.16246223676E+03  0.22543969488E+03  0.00000000000E+00 0. -1.
         -3    1    3    3    0  502  0.25784705412E+03 -0.51937963439E+03  0.84991273757E+03  0.10288789868E+04  0.00000000000E+00 0.  1.
         11    1    5    5    0    0 -0.46632745305E+03  0.31539680656E+03  0.17513134072E+03  0.58958241626E+03  0.00000000000E+00 0. -1.
        -11    1    5    5    0    0 -0.11707127928E+03  0.49245417738E+02  0.36812609977E+01  0.12706040801E+03  0.00000000000E+00 0.  1.
          2    1    6    6  503    0  0.22312316152E+03  0.27843400145E+03  0.46830960723E+03  0.58874725188E+03  0.00000000000E+00 0. -1.
         -2    1    6    6    0  503  0.30562478035E+02  0.15099482573E+02  0.15154066470E+02  0.37305564842E+02  0.00000000000E+00 0.  1.
<mgrwt>
<rscale>  0 0.19849500E+04</rscale>
<asrwt>0</asrwt>
<pdfrwt beam="1">  1        2 0.70951007E-01 0.19849500E+04</pdfrwt>
<pdfrwt beam="2">  1       -1 0.32858965E+00 0.19849500E+04</pdfrwt>
<totfact> 0.15473671E+00</totfact>
</mgrwt>
</event>
<event>
12    6  0.1450532E-007  0.1189459E+04  0.7818608E-02  0.9122133E-01
          2   -1    0    0  501    0  0.00000000000E+00  0.00000000000E+00  0.17920271363E+04  0.17920271363E+04  0.00000000000E+00 0. -1.
         -1   -1    0    0    0  501 -0.00000000000E+00 -0.00000000000E+00 -0.19737605134E+03  0.19737605134E+03  0.00000000000E+00 0.  1.
         24    2    1    2    0    0 -0.24454052887E+01  0.36192470624E+02  0.72778519472E+03  0.73361861600E+03  0.84906473008E+02 0.  0.
        254    2    1    2    0    0  0.24454052887E+01 -0.36192470624E+02  0.86686589027E+03  0.12557845717E+04  0.90786702978E+03 0.  0.
         23    2    4    4    0    0 -0.87412882654E+02  0.24077588499E+03 -0.61970941325E+02  0.27818506441E+03  0.89064547616E+02 0.  0.
         23    2    4    4    0    0  0.89858287943E+02 -0.27696835562E+03  0.92883683159E+03  0.97759950725E+03  0.90426516715E+02 0.  0.
          4    1    3    3  502    0  0.14456855510E+02  0.55180179297E+02  0.63021325721E+03  0.63278954039E+03  0.00000000000E+00 0. -1.
         -3    1    3    3    0  502 -0.16902260798E+02 -0.18987708673E+02  0.97571937508E+02  0.10082907562E+03  0.00000000000E+00 0.  1.
         11    1    5    5    0    0 -0.97365283336E+02  0.21306808305E+03 -0.75022968202E+02  0.24598059308E+03  0.00000000000E+00 0. -1.
        -11    1    5    5    0    0  0.99524006817E+01  0.27707801938E+02  0.13052026878E+02  0.32204471323E+02  0.00000000000E+00 0.  1.
          3    1    6    6  503    0  0.31930227841E+02 -0.12920021263E+03  0.56826107170E+03  0.58363762730E+03  0.00000000000E+00 0. -1.
         -3    1    6    6    0  503  0.57928060102E+02 -0.14776814298E+03  0.36057575989E+03  0.39396187994E+03  0.00000000000E+00 0.  1.
<mgrwt>
<rscale>  0 0.11894591E+04</rscale>
<asrwt>0</asrwt>
<pdfrwt beam="1">  1        2 0.27569647E+00 0.11894591E+04</pdfrwt>
<pdfrwt beam="2">  1       -1 0.30365548E-01 0.11894591E+04</pdfrwt>
<totfact> 0.97971933E+01</totfact>
</mgrwt>
</event>
<event>
12    6  0.1450532E-007  0.1513117E+04  0.7818608E-02  0.8875777E-01
          2   -1    0    0  501    0  0.00000000000E+00  0.00000000000E+00  0.81045755591E+03  0.81045755591E+03  0.00000000000E+00 0. -1.
         -1   -1    0    0    0  501 -0.00000000000E+00 -0.00000000000E+00 -0.70624356730E+03  0.70624356730E+03  0.00000000000E+00 0.  1.
         24    2    1    2    0    0  0.31285972597E+03 -0.46274554958E+02  0.41134953144E+03  0.52511700936E+03  0.80727281226E+02 0.  0.
        254    2    1    2    0    0 -0.31285972597E+03  0.46274554958E+02 -0.30713554284E+03  0.99158411385E+03  0.88819157314E+03 0.  0.
         23    2    4    4    0    0  0.20806737979E+03  0.77874267206E+02  0.15671120985E+03  0.28649811982E+03  0.90367767184E+02 0.  0.
         23    2    4    4    0    0 -0.52092710576E+03 -0.31599712248E+02 -0.46384675268E+03  0.70508599402E+03  0.98126742886E+02 0.  0.
          2    1    3    3  502    0  0.30869875218E+03 -0.39969197615E+02  0.41321218164E+03  0.51733621892E+03  0.00000000000E+00 0. -1.
         -1    1    3    3    0  502  0.41609737886E+01 -0.63053573435E+01 -0.18626501964E+01  0.77807904388E+01  0.00000000000E+00 0.  1.
         11    1    5    5    0    0  0.13765300415E+03  0.45741320115E+02  0.15022727724E+03  0.20882732758E+03  0.00000000000E+00 0.  1.
        -11    1    5    5    0    0  0.70414375640E+02  0.32132947092E+02  0.64839326040E+01  0.77670792242E+02  0.00000000000E+00 0. -1.
          1    1    6    6  503    0 -0.33320267584E+03 -0.17043946036E+02 -0.23180001653E+03  0.40625825154E+03  0.00000000000E+00 0. -1.
         -1    1    6    6    0  503 -0.18772442991E+03 -0.14555766212E+02 -0.23204673615E+03  0.29882774248E+03  0.00000000000E+00 0.  1.
<mgrwt>
<rscale>  0 0.15131166E+04</rscale>
<asrwt>0</asrwt>
<pdfrwt beam="1">  1        2 0.12468578E+00 0.15131166E+04</pdfrwt>
<pdfrwt beam="2">  1       -1 0.10865286E+00 0.15131166E+04</pdfrwt>
<totfact> 0.29322032E+01</totfact>
</mgrwt>
</event>
<event>
12    6  0.1450532E-007  0.1441228E+04  0.7818608E-02  0.8924504E-01
         -1   -1    0    0    0  501 -0.00000000000E+00  0.00000000000E+00  0.16548885772E+04  0.16548885772E+04  0.00000000000E+00 0.  1.
          2   -1    0    0  501    0  0.00000000000E+00 -0.00000000000E+00 -0.31378840180E+03  0.31378840180E+03  0.00000000000E+00 0. -1.
         24    2    1    2    0    0 -0.26638407823E+03  0.34248318236E+03  0.45291030359E+03  0.63224816551E+03  0.79716951513E+02 0.  0.
        254    2    1    2    0    0  0.26638407823E+03 -0.34248318236E+03  0.88818987179E+03  0.13364288135E+04  0.89939174878E+03 0.  0.
         23    2    4    4    0    0 -0.69451265853E+00 -0.14502975358E+02 -0.16961188758E+03  0.19327202769E+03  0.91515384706E+02 0.  0.
         23    2    4    4    0    0  0.26707859089E+03 -0.32798020700E+03  0.10578017594E+04  0.11431567858E+04  0.94661950231E+02 0.  0.
          2    1    3    3  502    0 -0.22750370427E+01  0.15911047999E+02  0.40698246689E+02  0.43757108285E+02  0.00000000000E+00 0. -1.
         -1    1    3    3    0  502 -0.26410904119E+03  0.32657213436E+03  0.41221205690E+03  0.58849105723E+03  0.00000000000E+00 0.  1.
         11    1    5    5    0    0  0.10961812304E+01 -0.31552575212E+02 -0.17294883554E+03  0.17580690069E+03  0.00000000000E+00 0. -1.
        -11    1    5    5    0    0 -0.17906938890E+01  0.17049599853E+02  0.33369479538E+01  0.17465127008E+02  0.00000000000E+00 0.  1.
          3    1    6    6  503    0  0.24489615397E+01  0.64687114352E+01  0.18789144986E+02  0.20021828328E+02  0.00000000000E+00 0. -1.
         -3    1    6    6    0  503  0.26462962935E+03 -0.33444891844E+03  0.10390126144E+04  0.11231349574E+04  0.00000000000E+00 0.  1.
<mgrwt>
<rscale>  0 0.14412284E+04</rscale>
<asrwt>0</asrwt>
<pdfrwt beam="1">  1        2 0.48275140E-01 0.14412284E+04</pdfrwt>
<pdfrwt beam="2">  1       -1 0.25459824E+00 0.14412284E+04</pdfrwt>
<totfact> 0.75565833E+00</totfact>
</mgrwt>
</event>
<event>
12    6  0.1450532E-007  0.1578359E+04  0.7818608E-02  0.8833954E-01
          2   -1    0    0  501    0  0.00000000000E+00  0.00000000000E+00  0.28681177763E+04  0.28681177763E+04  0.00000000000E+00 0. -1.
         -1   -1    0    0    0  501 -0.00000000000E+00 -0.00000000000E+00 -0.21714749084E+03  0.21714749084E+03  0.00000000000E+00 0.  1.
         24    2    1    2    0    0 -0.11198457976E+03  0.22656564469E+02 -0.11227769615E+03  0.17812682716E+03  0.77903911862E+02 0.  0.
        254    2    1    2    0    0  0.11198457976E+03 -0.22656564469E+02  0.27632479816E+04  0.29071384399E+04  0.89602490777E+03 0.  0.
         23    2    4    4    0    0  0.47676927356E+03  0.64363951002E+02  0.11800599906E+04  0.12776421231E+04  0.91521335516E+02 0.  0.
         23    2    4    4    0    0 -0.36478469380E+03 -0.87020515471E+02  0.15831879910E+04  0.16294963169E+04  0.90186412394E+02 0.  0.
          4    1    3    3  502    0 -0.29402513698E+02 -0.19493906738E+02 -0.65224161431E+02  0.74153296933E+02  0.00000000000E+00 0. -1.
         -3    1    3    3    0  502 -0.82582066060E+02  0.42150471207E+02 -0.47053534716E+02  0.10397353022E+03  0.00000000000E+00 0.  1.
         11    1    5    5    0    0  0.43131356965E+03  0.49563061333E+02  0.97849865188E+03  0.10704893760E+04  0.00000000000E+00 0.  1.
        -11    1    5    5    0    0  0.45455703908E+02  0.14800889669E+02  0.20156133873E+03  0.20715274708E+03  0.00000000000E+00 0. -1.
          3    1    6    6  503    0 -0.27847058260E+02 -0.83188371147E+01  0.50759705430E+02  0.58491105307E+02  0.00000000000E+00 0. -1.
         -3    1    6    6    0  503 -0.33693763554E+03 -0.78701678356E+02  0.15324282855E+04  0.15710052115E+04  0.00000000000E+00 0.  1.
<mgrwt>
<rscale>  0 0.15783594E+04</rscale>
<asrwt>0</asrwt>
<pdfrwt beam="1">  1        2 0.44124886E+00 0.15783594E+04</pdfrwt>
<pdfrwt beam="2">  1       -1 0.33407308E-01 0.15783594E+04</pdfrwt>
<totfact> 0.19485520E+01</totfact>
</mgrwt>
</event>
<event>
12    6  0.1450532E-007  0.3547662E+04  0.7818608E-02  0.8102587E-01
          2   -1    0    0  501    0  0.00000000000E+00  0.00000000000E+00  0.17081352879E+04  0.17081352879E+04  0.00000000000E+00 0. -1.
         -1   -1    0    0    0  501 -0.00000000000E+00 -0.00000000000E+00 -0.18420529470E+04  0.18420529470E+04  0.00000000000E+00 0.  1.
         24    2    1    2    0    0  0.10806405839E+04 -0.12079342969E+04  0.28985847947E+03  0.16483767064E+04  0.78984116952E+02 0.  0.
        254    2    1    2    0    0 -0.10806405839E+04  0.12079342969E+04 -0.42377613857E+03  0.19018115286E+04  0.90022860295E+03 0.  0.
         23    2    4    4    0    0 -0.26897624100E+03 -0.33821886571E+02 -0.29290394311E+03  0.40970421449E+03  0.92588796543E+02 0.  0.
         23    2    4    4    0    0 -0.81166434287E+03  0.12417561835E+04 -0.13087219546E+03  0.14921073141E+04  0.92191542951E+02 0.  0.
          4    1    3    3  502    0  0.68381196351E+03 -0.74654244029E+03  0.14402426357E+03  0.10225788014E+04  0.00000000000E+00 0. -1.
         -3    1    3    3    0  502  0.39682862036E+03 -0.46139185664E+03  0.14583421589E+03  0.62579790495E+03  0.00000000000E+00 0.  1.
         11    1    5    5    0    0 -0.51934171120E+02  0.11510196023E+02 -0.11032933644E+03  0.12248348959E+03  0.00000000000E+00 0. -1.
        -11    1    5    5    0    0 -0.21704206989E+03 -0.45332082594E+02 -0.18257460667E+03  0.28722072490E+03  0.00000000000E+00 0.  1.
          3    1    6    6  503    0 -0.16529263781E+03  0.21958258587E+03  0.66237259698E+01  0.27492188322E+03  0.00000000000E+00 0. -1.
         -3    1    6    6    0  503 -0.64637170506E+03  0.10221735976E+04 -0.13749592143E+03  0.12171854309E+04  0.00000000000E+00 0.  1.
<mgrwt>
<rscale>  0 0.35476616E+04</rscale>
<asrwt>0</asrwt>
<pdfrwt beam="1">  1        2 0.26279004E+00 0.35476616E+04</pdfrwt>
<pdfrwt beam="2">  1       -1 0.28339276E+00 0.35476616E+04</pdfrwt>
<totfact> 0.38252967E-01</totfact>
</mgrwt>
</event>
<event>
12    6  0.1450532E-007  0.1487161E+04  0.7818608E-02  0.8893036E-01
         -1   -1    0    0    0  501 -0.00000000000E+00  0.00000000000E+00  0.28821161669E+03  0.28821161669E+03  0.00000000000E+00 0.  1.
          2   -1    0    0  501    0  0.00000000000E+00 -0.00000000000E+00 -0.19184243362E+04  0.19184243362E+04  0.00000000000E+00 0. -1.
         24    2    1    2    0    0 -0.32473952441E+02 -0.68901685244E+02  0.16981104098E+03  0.19443763852E+03  0.56286817414E+02 0.  0.
        254    2    1    2    0    0  0.32473952441E+02  0.68901685244E+02 -0.18000237605E+04  0.20121983143E+04  0.89613309177E+03 0.  0.
         23    2    4    4    0    0 -0.19056844562E+02  0.16674450733E+03  0.14584412064E+02  0.19200150259E+03  0.92113939610E+02 0.  0.
         23    2    4    4    0    0  0.51530797003E+02 -0.97842822091E+02 -0.18146081725E+04  0.18201968117E+04  0.89916476863E+02 0.  0.
          4    1    3    3  502    0 -0.19484615328E+02 -0.10011473475E+02  0.99149937981E+02  0.10154107562E+03  0.00000000000E+00 0. -1.
         -3    1    3    3    0  502 -0.12989337113E+02 -0.58890211769E+02  0.70661103003E+02  0.92896562899E+02  0.00000000000E+00 0.  1.
         11    1    5    5    0    0  0.26982181775E+02  0.74146697107E+02  0.35457608199E+02  0.86504409161E+02  0.00000000000E+00 0.  1.
        -11    1    5    5    0    0 -0.46039026336E+02  0.92597810228E+02 -0.20873196135E+02  0.10549709343E+03  0.00000000000E+00 0. -1.
          3    1    6    6  503    0  0.65885458566E+02 -0.51105930855E+02 -0.14399215546E+04  0.14423338009E+04  0.00000000000E+00 0. -1.
         -3    1    6    6    0  503 -0.14354661563E+02 -0.46736891236E+02 -0.37468661793E+03  0.37786301085E+03  0.00000000000E+00 0.  1.
<mgrwt>
<rscale>  0 0.14871613E+04</rscale>
<asrwt>0</asrwt>
<pdfrwt beam="1">  1        2 0.29514220E+00 0.14871613E+04</pdfrwt>
<pdfrwt beam="2">  1       -1 0.44340250E-01 0.14871613E+04</pdfrwt>
<totfact> 0.41143705E+01</totfact>
</mgrwt>
</event>
<event>
12    6  0.1450532E-007  0.1662331E+04  0.7818608E-02  0.8783145E-01
          2   -1    0    0  501    0  0.00000000000E+00  0.00000000000E+00  0.30689026743E+04  0.30689026743E+04  0.00000000000E+00 0. -1.
         -1   -1    0    0    0  501 -0.00000000000E+00 -0.00000000000E+00 -0.22510862400E+03  0.22510862400E+03  0.00000000000E+00 0.  1.
         24    2    1    2    0    0  0.32113956193E+03  0.14191104587E+03  0.18901945998E+04  0.19241082535E+04  0.78022964244E+02 0.  0.
        254    2    1    2    0    0 -0.32113956193E+03 -0.14191104587E+03  0.95359945056E+03  0.13699030448E+04  0.91870184335E+03 0.  0.
         23    2    4    4    0    0  0.63705252999E+02 -0.27104469185E+03  0.90506980012E+03  0.95156186992E+03  0.93782007726E+02 0.  0.
         23    2    4    4    0    0 -0.38484481493E+03  0.12913364599E+03  0.48529650449E+02  0.41834117492E+03  0.88730950394E+02 0.  0.
          4    1    3    3  502    0  0.22318300221E+03  0.68519552984E+02  0.13664867793E+04  0.13862870192E+04  0.00000000000E+00 0. -1.
         -3    1    3    3    0  502  0.97956559718E+02  0.73391492881E+02  0.52370782052E+03  0.53782123432E+03  0.00000000000E+00 0.  1.
         11    1    5    5    0    0  0.15332900889E+02 -0.12334186971E+03  0.55162275796E+03  0.56545201545E+03  0.00000000000E+00 0. -1.
        -11    1    5    5    0    0  0.48372352109E+02 -0.14770282214E+03  0.35344704215E+03  0.38610985447E+03  0.00000000000E+00 0.  1.
          3    1    6    6  503    0 -0.23778730343E+03  0.79046087544E+02 -0.13774790006E+02  0.25095981844E+03  0.00000000000E+00 0. -1.
         -3    1    6    6    0  503 -0.14705751149E+03  0.50087558442E+02  0.62304440454E+02  0.16738135648E+03  0.00000000000E+00 0.  1.
<mgrwt>
<rscale>  0 0.16623314E+04</rscale>
<asrwt>0</asrwt>
<pdfrwt beam="1">  1        2 0.47213884E+00 0.16623314E+04</pdfrwt>
<pdfrwt beam="2">  1       -1 0.34632098E-01 0.16623314E+04</pdfrwt>
<totfact> 0.13615771E+01</totfact>
</mgrwt>
</event>
<event>
12    6  0.1450532E-007  0.2067181E+04  0.7818608E-02  0.8575840E-01
          2   -1    0    0  501    0  0.00000000000E+00  0.00000000000E+00  0.17598410392E+04  0.17598410392E+04  0.00000000000E+00 0. -1.
         -1   -1    0    0    0  501 -0.00000000000E+00 -0.00000000000E+00 -0.60704885905E+03  0.60704885905E+03  0.00000000000E+00 0.  1.
         24    2    1    2    0    0 -0.46869167607E+03 -0.28875441356E+03 -0.24942073284E+03  0.60985754830E+03  0.81636564625E+02 0.  0.
        254    2    1    2    0    0  0.46869167607E+03  0.28875441356E+03  0.14022129130E+04  0.17570323500E+04  0.90438411467E+03 0.  0.
         23    2    4    4    0    0  0.35874091750E+03  0.44500335819E+02  0.14250740302E+04  0.14728583228E+04  0.88319430368E+02 0.  0.
         23    2    4    4    0    0  0.10995075857E+03  0.24425407775E+03 -0.22861117173E+02  0.28417402716E+03  0.92103329101E+02 0.  0.
          2    1    3    3  502    0 -0.17264438738E+03 -0.66569107205E+02 -0.10325654197E+03  0.21189488900E+03  0.00000000000E+00 0. -1.
         -1    1    3    3    0  502 -0.29604728869E+03 -0.22218530636E+03 -0.14616419087E+03  0.39796265930E+03  0.00000000000E+00 0.  1.
         11    1    5    5    0    0  0.51726727386E+02 -0.18955988294E+02  0.29522953122E+03  0.30032558986E+03  0.00000000000E+00 0. -1.
        -11    1    5    5    0    0  0.30701419012E+03  0.63456324113E+02  0.11298444990E+04  0.11725327330E+04  0.00000000000E+00 0.  1.
          1    1    6    6  503    0  0.67970563507E+02  0.18002128408E+03  0.24532768830E+02  0.19398329045E+03  0.00000000000E+00 0. -1.
         -1    1    6    6    0  503  0.41980195059E+02  0.64232793662E+02 -0.47393886003E+02  0.90190736715E+02  0.00000000000E+00 0.  1.
<mgrwt>
<rscale>  0 0.20671812E+04</rscale>
<asrwt>0</asrwt>
<pdfrwt beam="1">  1        2 0.27074477E+00 0.20671812E+04</pdfrwt>
<pdfrwt beam="2">  1       -1 0.93392133E-01 0.20671812E+04</pdfrwt>
<totfact> 0.10633492E+01</totfact>
</mgrwt>
</event>
<event>
12    6  0.1450532E-007  0.2407714E+04  0.7818608E-02  0.8436621E-01
          2   -1    0    0  501    0  0.00000000000E+00  0.00000000000E+00  0.91347477220E+03  0.91347477220E+03  0.00000000000E+00 0. -1.
         -1   -1    0    0    0  501 -0.00000000000E+00 -0.00000000000E+00 -0.15865483322E+04  0.15865483322E+04  0.00000000000E+00 0.  1.
         24    2    1    2    0    0  0.31229115511E+03  0.98175227804E+03 -0.20117971927E+03  0.10526386111E+04  0.78812849387E+02 0.  0.
        254    2    1    2    0    0 -0.31229115511E+03 -0.98175227804E+03 -0.47189384076E+03  0.14473844933E+04  0.90048585409E+03 0.  0.
         23    2    4    4    0    0  0.46293469088E+01  0.14596009860E+03 -0.15195031239E+03  0.22867908791E+03  0.88766246825E+02 0.  0.
         23    2    4    4    0    0 -0.31692050202E+03 -0.11277123766E+04 -0.31994352836E+03  0.12187054054E+04  0.10346591076E+03 0.  0.
          4    1    3    3  502    0  0.14772726690E+03  0.38327830743E+03 -0.49901771895E+02  0.41378230166E+03  0.00000000000E+00 0. -1.
         -3    1    3    3    0  502  0.16456388822E+03  0.59847397062E+03 -0.15127794738E+03  0.63885630949E+03  0.00000000000E+00 0.  1.
         11    1    5    5    0    0  0.12302144125E+02  0.58434459602E+02 -0.12203954085E+03  0.13586603089E+03  0.00000000000E+00 0. -1.
        -11    1    5    5    0    0 -0.76727972166E+01  0.87525638994E+02 -0.29910771541E+02  0.92813057015E+02  0.00000000000E+00 0.  1.
          3    1    6    6  503    0 -0.31302190724E+03 -0.10968812786E+04 -0.29331250797E+03  0.11777790459E+04  0.00000000000E+00 0. -1.
         -3    1    6    6    0  503 -0.38985947809E+01 -0.30831098067E+02 -0.26631020395E+02  0.40926359435E+02  0.00000000000E+00 0.  1.
<mgrwt>
<rscale>  0 0.24077142E+04</rscale>
<asrwt>0</asrwt>
<pdfrwt beam="1">  1        2 0.14053458E+00 0.24077142E+04</pdfrwt>
<pdfrwt beam="2">  1       -1 0.24408436E+00 0.24077142E+04</pdfrwt>
<totfact> 0.22428230E+00</totfact>
</mgrwt>
</event>
<event>
12    6  0.1450532E-007  0.3893166E+04  0.7818608E-02  0.8026452E-01
          2   -1    0    0  501    0  0.00000000000E+00  0.00000000000E+00  0.21190900059E+04  0.21190900059E+04  0.00000000000E+00 0. -1.
         -1   -1    0    0    0  501 -0.00000000000E+00 -0.00000000000E+00 -0.17881195680E+04  0.17881195680E+04  0.00000000000E+00 0.  1.
         24    2    1    2    0    0  0.67270277195E+03  0.15403815904E+03 -0.15587462330E+04  0.17066101251E+04  0.81064951287E+02 0.  0.
        254    2    1    2    0    0 -0.67270277195E+03 -0.15403815904E+03  0.18897166709E+04  0.22005994488E+04  0.89182513077E+03 0.  0.
         23    2    4    4    0    0 -0.84485922086E+03  0.32365362196E+02  0.15385633064E+04  0.17579395830E+04  0.91323106536E+02 0.  0.
         23    2    4    4    0    0  0.17215644891E+03 -0.18640352124E+03  0.35115336446E+03  0.44265986579E+03  0.90856787181E+02 0.  0.
          2    1    3    3  502    0  0.24483141155E+03  0.95173729802E+02 -0.56625409415E+03  0.62421483327E+03  0.00000000000E+00 0. -1.
         -1    1    3    3    0  502  0.42787136039E+03  0.58864429241E+02 -0.99249213883E+03  0.10823952918E+04  0.00000000000E+00 0.  1.
         11    1    5    5    0    0 -0.75833455766E+03  0.56637302483E+02  0.13681760553E+04  0.15653066165E+04  0.00000000000E+00 0. -1.
        -11    1    5    5    0    0 -0.86524663197E+02 -0.24271940287E+02  0.17038725118E+03  0.19263296652E+03  0.00000000000E+00 0.  1.
          2    1    6    6  503    0  0.79784344114E+02 -0.13992573084E+03  0.25404486611E+03  0.30080482993E+03  0.00000000000E+00 0. -1.
         -2    1    6    6    0  503  0.92372104799E+02 -0.46477790402E+02  0.97108498359E+02  0.14185503586E+03  0.00000000000E+00 0.  1.
<mgrwt>
<rscale>  0 0.38931665E+04</rscale>
<asrwt>0</asrwt>
<pdfrwt beam="1">  1        2 0.32601385E+00 0.38931665E+04</pdfrwt>
<pdfrwt beam="2">  1       -1 0.27509532E+00 0.38931665E+04</pdfrwt>
<totfact> 0.24846421E-01</totfact>
</mgrwt>
</event>
<event>
12    6  0.1450532E-007  0.1104644E+04  0.7818608E-02  0.9200677E-01
          2   -1    0    0  501    0  0.00000000000E+00  0.00000000000E+00  0.15550625321E+04  0.15550625321E+04  0.00000000000E+00 0. -1.
         -1   -1    0    0    0  501 -0.00000000000E+00 -0.00000000000E+00 -0.19617204824E+03  0.19617204824E+03  0.00000000000E+00 0.  1.
         24    2    1    2    0    0  0.11844558198E+03  0.11577900573E+03  0.24938187182E+03  0.30974532688E+03  0.79477767157E+02 0.  0.
        254    2    1    2    0    0 -0.11844558198E+03 -0.11577900573E+03  0.11095086120E+04  0.14414892534E+04  0.90523354641E+03 0.  0.
         23    2    4    4    0    0 -0.44537547165E+03  0.80154430325E+02  0.86353737263E+03  0.97903248322E+03  0.89575475496E+02 0.  0.
         23    2    4    4    0    0  0.32692988967E+03 -0.19593343605E+03  0.24597123939E+03  0.46245677022E+03  0.89951929329E+02 0.  0.
          2    1    3    3  502    0 -0.11049560120E+02  0.47323715670E+01  0.91479294461E+01  0.15105387537E+02  0.00000000000E+00 0. -1.
         -1    1    3    3    0  502  0.12949514210E+03  0.11104663416E+03  0.24023394237E+03  0.29463993934E+03  0.00000000000E+00 0.  1.
         11    1    5    5    0    0 -0.35475836721E+03  0.96898177373E+02  0.65830737635E+03  0.75406323185E+03  0.00000000000E+00 0.  1.
        -11    1    5    5    0    0 -0.90617104443E+02 -0.16743747047E+02  0.20522999629E+03  0.22496925136E+03  0.00000000000E+00 0. -1.
          1    1    6    6  503    0  0.20248603694E+00 -0.17416334542E+02  0.21645768999E+02  0.27783250800E+02  0.00000000000E+00 0. -1.
         -1    1    6    6    0  503  0.32672740363E+03 -0.17851710151E+03  0.22432547039E+03  0.43467351942E+03  0.00000000000E+00 0.  1.
<mgrwt>
<rscale>  0 0.11046444E+04</rscale>
<asrwt>0</asrwt>
<pdfrwt beam="1">  1        2 0.23924038E+00 0.11046444E+04</pdfrwt>
<pdfrwt beam="2">  1       -1 0.30180316E-01 0.11046444E+04</pdfrwt>
<totfact> 0.13487353E+02</totfact>
</mgrwt>
</event>
<event>
12    6  0.1450532E-007  0.2270406E+04  0.7818608E-02  0.8489682E-01
          2   -1    0    0  501    0  0.00000000000E+00  0.00000000000E+00  0.30001782308E+04  0.30001782308E+04  0.00000000000E+00 0. -1.
         -1   -1    0    0    0  501 -0.00000000000E+00 -0.00000000000E+00 -0.42953628600E+03  0.42953628600E+03  0.00000000000E+00 0.  1.
         24    2    1    2    0    0  0.26206458138E+03 -0.77301284195E+03  0.18114679032E+04  0.19885248977E+04  0.81170227989E+02 0.  0.
        254    2    1    2    0    0 -0.26206458138E+03  0.77301284195E+03  0.75917404158E+03  0.14411896190E+04  0.91348540985E+03 0.  0.
         23    2    4    4    0    0  0.11439507020E+03  0.79995820789E+03  0.64054968251E+03  0.10352283258E+04  0.91511880407E+02 0.  0.
         23    2    4    4    0    0 -0.37645965158E+03 -0.26945365942E+02  0.11862435906E+03  0.40596129327E+03  0.91021486798E+02 0.  0.
          4    1    3    3  502    0  0.22018540414E+03 -0.68402933564E+03  0.15294367829E+04  0.16898386364E+04  0.00000000000E+00 0. -1.
         -3    1    3    3    0  502  0.41879177243E+02 -0.88983506303E+02  0.28203112025E+03  0.29868626127E+03  0.00000000000E+00 0.  1.
         11    1    5    5    0    0  0.94565447595E+02  0.75899863374E+03  0.58223734030E+03  0.96126056319E+03  0.00000000000E+00 0.  1.
        -11    1    5    5    0    0  0.19829622603E+02  0.40959574143E+02  0.58312342216E+02  0.73967762582E+02  0.00000000000E+00 0. -1.
          4    1    6    6  503    0 -0.32352445944E+03 -0.19560511393E+02  0.13342225637E+03  0.35050276455E+03  0.00000000000E+00 0.  1.
         -4    1    6    6    0  503 -0.52935192145E+02 -0.73848545495E+01 -0.14797897304E+02  0.55458528729E+02  0.00000000000E+00 0. -1.
<mgrwt>
<rscale>  0 0.22704056E+04</rscale>
<asrwt>0</asrwt>
<pdfrwt beam="1">  1        2 0.46156587E+00 0.22704056E+04</pdfrwt>
<pdfrwt beam="2">  1       -1 0.66082507E-01 0.22704056E+04</pdfrwt>
<totfact> 0.41809180E+00</totfact>
</mgrwt>
</event>
<event>
12    6  0.1450532E-007  0.1608327E+04  0.7818608E-02  0.8815449E-01
         -1   -1    0    0    0  501 -0.00000000000E+00  0.00000000000E+00  0.26124990235E+03  0.26124990235E+03  0.00000000000E+00 0.  1.
          2   -1    0    0  501    0  0.00000000000E+00 -0.00000000000E+00 -0.24753274113E+04  0.24753274113E+04  0.00000000000E+00 0. -1.
         24    2    1    2    0    0  0.34469619462E+03 -0.28890126901E+03 -0.21982951526E+03  0.50633904340E+03  0.75992113209E+02 0.  0.
        254    2    1    2    0    0 -0.34469619462E+03  0.28890126901E+03 -0.19942479937E+04  0.22302382703E+04  0.89143607284E+03 0.  0.
         23    2    4    4    0    0 -0.59559866602E+02 -0.30879258901E+03 -0.57738947147E+03  0.66347956382E+03  0.89029709160E+02 0.  0.
         23    2    4    4    0    0 -0.28513632801E+03  0.59769385802E+03 -0.14168585222E+04  0.15667587065E+04  0.93295759402E+02 0.  0.
          4    1    3    3  502    0  0.85675140763E+01  0.17026066962E+01 -0.14335931238E+02  0.16787498071E+02  0.00000000000E+00 0. -1.
         -3    1    3    3    0  502  0.33612868054E+03 -0.29060387571E+03 -0.20549358402E+03  0.48955154533E+03  0.00000000000E+00 0.  1.
         11    1    5    5    0    0 -0.75836927808E+02 -0.26807102351E+03 -0.45550575852E+03  0.53394644798E+03  0.00000000000E+00 0. -1.
        -11    1    5    5    0    0  0.16277061205E+02 -0.40721565494E+02 -0.12188371295E+03  0.12953311584E+03  0.00000000000E+00 0.  1.
          4    1    6    6  503    0 -0.22886399959E+03  0.46200646476E+03 -0.10059294997E+04  0.11303640396E+04  0.00000000000E+00 0. -1.
         -4    1    6    6    0  503 -0.56272328428E+02  0.13568739326E+03 -0.41092902258E+03  0.43639466682E+03  0.00000000000E+00 0.  1.
<mgrwt>
<rscale>  0 0.16083271E+04</rscale>
<asrwt>0</asrwt>
<pdfrwt beam="1">  1        2 0.38081960E+00 0.16083271E+04</pdfrwt>
<pdfrwt beam="2">  1       -1 0.40192293E-01 0.16083271E+04</pdfrwt>
<totfact> 0.23751232E+01</totfact>
</mgrwt>
</event>
<event>
12    6  0.1450532E-007  0.2906770E+04  0.7818608E-02  0.8270866E-01
          2   -1    0    0  501    0  0.00000000000E+00  0.00000000000E+00  0.21632784019E+04  0.21632784019E+04  0.00000000000E+00 0. -1.
         -1   -1    0    0    0  501 -0.00000000000E+00 -0.00000000000E+00 -0.97644740022E+03  0.97644740022E+03  0.00000000000E+00 0.  1.
         24    2    1    2    0    0  0.20486912830E+03  0.98204094495E+03 -0.37781753032E+03  0.10748749483E+04  0.78957526838E+02 0.  0.
        254    2    1    2    0    0 -0.20486912830E+03 -0.98204094495E+03  0.15646485320E+04  0.20648508538E+04  0.89950444270E+03 0.  0.
         23    2    4    4    0    0 -0.15497387224E+03 -0.90098987232E+03  0.61386625056E+03  0.11053563539E+04  0.95818810481E+02 0.  0.
         23    2    4    4    0    0 -0.49895256055E+02 -0.81051072631E+02  0.95078228143E+03  0.95949449988E+03  0.87085794896E+02 0.  0.
          4    1    3    3  502    0  0.50124072806E+02  0.43004607707E+03 -0.16802153679E+03  0.46441714859E+03  0.00000000000E+00 0. -1.
         -3    1    3    3    0  502  0.15474505549E+03  0.55199486788E+03 -0.20979599353E+03  0.61045779974E+03  0.00000000000E+00 0.  1.
         11    1    5    5    0    0 -0.11634555991E+03 -0.39667071459E+03  0.28186646884E+03  0.50033254079E+03  0.00000000000E+00 0. -1.
        -11    1    5    5    0    0 -0.38628312336E+02 -0.50431915773E+03  0.33199978173E+03  0.60502381311E+03  0.00000000000E+00 0.  1.
          2    1    6    6  503    0 -0.71397494581E+02 -0.44455357096E+02  0.53783037402E+03  0.54436696467E+03  0.00000000000E+00 0.  1.
         -2    1    6    6    0  503  0.21502238526E+02 -0.36595715535E+02  0.41295190741E+03  0.41512753521E+03  0.00000000000E+00 0. -1.
<mgrwt>
<rscale>  0 0.29067697E+04</rscale>
<asrwt>0</asrwt>
<pdfrwt beam="1">  1        2 0.33281206E+00 0.29067697E+04</pdfrwt>
<pdfrwt beam="2">  1       -1 0.15022268E+00 0.29067697E+04</pdfrwt>
<totfact> 0.18458794E+00</totfact>
</mgrwt>
</event>
<event>
12    6  0.1450532E-007  0.2781405E+04  0.7818608E-02  0.8309065E-01
          2   -1    0    0  501    0  0.00000000000E+00  0.00000000000E+00  0.34211457046E+04  0.34211457046E+04  0.00000000000E+00 0. -1.
         -1   -1    0    0    0  501 -0.00000000000E+00 -0.00000000000E+00 -0.56532314912E+03  0.56532314912E+03  0.00000000000E+00 0.  1.
         24    2    1    2    0    0  0.11377585101E+04 -0.48977151860E+03  0.14708551516E+04  0.19247461578E+04  0.82839164462E+02 0.  0.
        254    2    1    2    0    0 -0.11377585101E+04  0.48977151860E+03  0.13849674039E+04  0.20617226960E+04  0.89341770608E+03 0.  0.
         23    2    4    4    0    0 -0.42978265676E+03  0.33634509780E+03  0.71797692315E+02  0.55916001491E+03  0.98304917410E+02 0.  0.
         23    2    4    4    0    0 -0.70797585332E+03  0.15342642079E+03  0.13131697116E+04  0.15025626811E+04  0.92252065601E+02 0.  0.
          4    1    3    3  502    0  0.96985271378E+01  0.34461746348E+01  0.12167125598E+02  0.15936639972E+02  0.00000000000E+00 0. -1.
         -3    1    3    3    0  502  0.11280599829E+04 -0.49321769323E+03  0.14586880260E+04  0.19088095178E+04  0.00000000000E+00 0.  1.
         11    1    5    5    0    0 -0.84664659725E+01  0.36018993507E+02  0.78341931447E+01  0.37820940252E+02  0.00000000000E+00 0. -1.
        -11    1    5    5    0    0 -0.42131619079E+03  0.30032610429E+03  0.63963499170E+02  0.52133907466E+03  0.00000000000E+00 0.  1.
          1    1    6    6  503    0 -0.27389585800E+03  0.16081215739E+02  0.46449013678E+03  0.53947069772E+03  0.00000000000E+00 0. -1.
         -1    1    6    6    0  503 -0.43407999532E+03  0.13734520506E+03  0.84867957481E+03  0.96309198335E+03  0.00000000000E+00 0.  1.
<mgrwt>
<rscale>  0 0.27814046E+04</rscale>
<asrwt>0</asrwt>
<pdfrwt beam="1">  1        2 0.52633010E+00 0.27814046E+04</pdfrwt>
<pdfrwt beam="2">  1       -1 0.86972794E-01 0.27814046E+04</pdfrwt>
<totfact> 0.11892327E+00</totfact>
</mgrwt>
</event>
<event>
12    6  0.1450532E-007  0.1483510E+04  0.7818608E-02  0.8895493E-01
         -3   -1    0    0    0  501 -0.00000000000E+00  0.00000000000E+00  0.36241849761E+03  0.36241849761E+03  0.00000000000E+00 0.  1.
          2   -1    0    0  501    0  0.00000000000E+00 -0.00000000000E+00 -0.15181361374E+04  0.15181361374E+04  0.00000000000E+00 0. -1.
         24    2    1    2    0    0 -0.13628985549E+03 -0.43958047445E+03 -0.43093592725E+03  0.63607722540E+03  0.84157857972E+02 0.  0.
        254    2    1    2    0    0  0.13628985549E+03  0.43958047445E+03 -0.72478171255E+03  0.12444774096E+04  0.90089376396E+03 0.  0.
         23    2    4    4    0    0 -0.21363920801E+03  0.42873887606E+03 -0.73548260360E+03  0.88241987909E+03  0.90947500084E+02 0.  0.
         23    2    4    4    0    0  0.34992906350E+03  0.10841598392E+02  0.10700891051E+02  0.36205753051E+03  0.91669278347E+02 0.  0.
          2    1    3    3  502    0 -0.13212977722E+03 -0.34291492742E+03 -0.30703126502E+03  0.47887067479E+03  0.00000000000E+00 0. -1.
         -1    1    3    3    0  502 -0.41600782700E+01 -0.96665547031E+02 -0.12390466223E+03  0.15720655061E+03  0.00000000000E+00 0.  1.
         11    1    5    5    0    0 -0.50755920351E+01  0.14733403678E+02 -0.67917127226E+02  0.69681927277E+02  0.00000000000E+00 0. -1.
        -11    1    5    5    0    0 -0.20856361598E+03  0.41400547238E+03 -0.66756547638E+03  0.81273795182E+03  0.00000000000E+00 0.  1.
          3    1    6    6  503    0  0.31482170925E+03  0.38274041057E+02  0.13391003347E+02  0.31742232090E+03  0.00000000000E+00 0. -1.
         -3    1    6    6    0  503  0.35107354251E+02 -0.27432442665E+02 -0.26901122963E+01  0.44635209614E+02  0.00000000000E+00 0.  1.
<mgrwt>
<rscale>  0 0.14835102E+04</rscale>
<asrwt>0</asrwt>
<pdfrwt beam="1">  1        2 0.23355940E+00 0.14835102E+04</pdfrwt>
<pdfrwt beam="2">  1       -3 0.55756692E-01 0.14835102E+04</pdfrwt>
<totfact> 0.24303569E+01</totfact>
</mgrwt>
</event>
<event>
12    6  0.1450532E-007  0.2284587E+04  0.7818608E-02  0.8484023E-01
          2   -1    0    0  501    0  0.00000000000E+00  0.00000000000E+00  0.32927858236E+04  0.32927858236E+04  0.00000000000E+00 0. -1.
         -1   -1    0    0    0  501 -0.00000000000E+00 -0.00000000000E+00 -0.39627066525E+03  0.39627066525E+03  0.00000000000E+00 0.  1.
         24    2    1    2    0    0 -0.54261675800E+03 -0.31687779010E+03  0.86880662425E+02  0.63934364230E+03  0.79797014487E+02 0.  0.
        254    2    1    2    0    0  0.54261675800E+03  0.31687779010E+03  0.28096344959E+04  0.30497128466E+04  0.10059115099E+04 0.  0.
         23    2    4    4    0    0 -0.12298285917E+03  0.33154506605E+03  0.37327476226E+03  0.52247046899E+03  0.92706139780E+02 0.  0.
         23    2    4    4    0    0  0.66559961717E+03 -0.14667275949E+02  0.24363597337E+04  0.25272423776E+04  0.88697822880E+02 0.  0.
          4    1    3    3  502    0 -0.18730598531E+02 -0.18764662383E+02  0.19312671396E+02  0.32801328512E+02  0.00000000000E+00 0. -1.
         -3    1    3    3    0  502 -0.52388615947E+03 -0.29811312772E+03  0.67567991030E+02  0.60654231379E+03  0.00000000000E+00 0.  1.
         11    1    5    5    0    0 -0.44604815683E+02  0.12030504987E+03  0.74859278884E+02  0.14854900283E+03  0.00000000000E+00 0. -1.
        -11    1    5    5    0    0 -0.78378043484E+02  0.21124001618E+03  0.29841548338E+03  0.37392146616E+03  0.00000000000E+00 0.  1.
          3    1    6    6  503    0  0.10071795935E+03  0.17080830825E+02  0.47797878812E+03  0.48877355085E+03  0.00000000000E+00 0. -1.
         -3    1    6    6    0  503  0.56488165781E+03 -0.31748106774E+02  0.19583809455E+04  0.20384688267E+04  0.00000000000E+00 0.  1.
<mgrwt>
<rscale>  0 0.22845870E+04</rscale>
<asrwt>0</asrwt>
<pdfrwt beam="1">  1        2 0.50658242E+00 0.22845870E+04</pdfrwt>
<pdfrwt beam="2">  1       -1 0.60964720E-01 0.22845870E+04</pdfrwt>
<totfact> 0.31797764E+00</totfact>
</mgrwt>
</event>
<event>
12    6  0.1450532E-007  0.1922497E+04  0.7818608E-02  0.8643738E-01
         -1   -1    0    0    0  501 -0.00000000000E+00  0.00000000000E+00  0.55266105525E+03  0.55266105525E+03  0.00000000000E+00 0.  1.
          2   -1    0    0  501    0  0.00000000000E+00 -0.00000000000E+00 -0.16719088769E+04  0.16719088769E+04  0.00000000000E+00 0. -1.
         24    2    1    2    0    0  0.43300149945E+02  0.74070796176E+03 -0.36938712478E+03  0.83190445655E+03  0.71379193519E+02 0.  0.
        254    2    1    2    0    0 -0.43300149945E+02 -0.74070796176E+03 -0.74986069692E+03  0.13926654756E+04  0.90923202466E+03 0.  0.
         23    2    4    4    0    0 -0.28792458589E+02 -0.45055819711E+03  0.11592839033E+03  0.47494620508E+03  0.91119763910E+02 0.  0.
         23    2    4    4    0    0 -0.14507691356E+02 -0.29014976465E+03 -0.86578908725E+03  0.91771927057E+03  0.90667287071E+02 0.  0.
          4    1    3    3  502    0 -0.10593736354E+01  0.11296484761E+03 -0.84709371869E+02  0.14120147574E+03  0.00000000000E+00 0. -1.
         -3    1    3    3    0  502  0.44359523581E+02  0.62774311415E+03 -0.28467775291E+03  0.69070298081E+03  0.00000000000E+00 0.  1.
         11    1    5    5    0    0 -0.22581810234E+02 -0.39277356887E+03  0.13143342680E+03  0.41479604656E+03  0.00000000000E+00 0. -1.
        -11    1    5    5    0    0 -0.62106483543E+01 -0.57784628240E+02 -0.15505036474E+02  0.60150158519E+02  0.00000000000E+00 0.  1.
          1    1    6    6  503    0  0.10050768018E+02 -0.25792508268E+03 -0.79840105868E+03  0.83908915898E+03  0.00000000000E+00 0. -1.
         -1    1    6    6    0  503 -0.24558459374E+02 -0.32224681968E+02 -0.67388028570E+02  0.78630111594E+02  0.00000000000E+00 0.  1.
<mgrwt>
<rscale>  0 0.19224973E+04</rscale>
<asrwt>0</asrwt>
<pdfrwt beam="1">  1        2 0.25721675E+00 0.19224973E+04</pdfrwt>
<pdfrwt beam="2">  1       -1 0.85024778E-01 0.19224973E+04</pdfrwt>
<totfact> 0.14812381E+01</totfact>
</mgrwt>
</event>
<event>
12    6  0.1450532E-007  0.2675826E+04  0.7818608E-02  0.8342892E-01
         -1   -1    0    0    0  501 -0.00000000000E+00  0.00000000000E+00  0.16666046297E+04  0.16666046297E+04  0.00000000000E+00 0.  1.
          2   -1    0    0  501    0  0.00000000000E+00 -0.00000000000E+00 -0.10740464525E+04  0.10740464525E+04  0.00000000000E+00 0. -1.
         24    2    1    2    0    0  0.29949502314E+03 -0.34078093952E+03 -0.86253547919E+03  0.97790066052E+03  0.80581209678E+02 0.  0.
        254    2    1    2    0    0 -0.29949502314E+03  0.34078093952E+03  0.14550936564E+04  0.17627504216E+04  0.88552954911E+03 0.  0.
         23    2    4    4    0    0 -0.34975647796E+03 -0.17653551595E+03  0.95206185142E+03  0.10336704758E+04  0.92512168074E+02 0.  0.
         23    2    4    4    0    0  0.50261454812E+02  0.51731645547E+03  0.50303180501E+03  0.72907994588E+03  0.91509790129E+02 0.  0.
          2    1    3    3  502    0  0.15147691685E+03 -0.11435115017E+03 -0.33397272999E+03  0.38413438568E+03  0.00000000000E+00 0. -1.
         -1    1    3    3    0  502  0.14801810630E+03 -0.22642978935E+03 -0.52856274920E+03  0.59376627484E+03  0.00000000000E+00 0.  1.
         11    1    5    5    0    0 -0.23231714487E+02 -0.32393190393E+02  0.52748042548E+02  0.66116467953E+02  0.00000000000E+00 0. -1.
        -11    1    5    5    0    0 -0.32652476347E+03 -0.14414232556E+03  0.89931380887E+03  0.96755400780E+03  0.00000000000E+00 0.  1.
          1    1    6    6  503    0 -0.42455636805E+01  0.81071914954E+02  0.12613179388E+03  0.14999969877E+03  0.00000000000E+00 0. -1.
         -1    1    6    6    0  503  0.54507018492E+02  0.43624454052E+03  0.37690001113E+03  0.57908024711E+03  0.00000000000E+00 0.  1.
<mgrwt>
<rscale>  0 0.26758257E+04</rscale>
<asrwt>0</asrwt>
<pdfrwt beam="1">  1        2 0.16523792E+00 0.26758257E+04</pdfrwt>
<pdfrwt beam="2">  1       -1 0.25640071E+00 0.26758257E+04</pdfrwt>
<totfact> 0.14344484E+00</totfact>
</mgrwt>
</event>
<event>
12    6  0.1450532E-007  0.1503001E+04  0.7818608E-02  0.8882459E-01
         -1   -1    0    0    0  501 -0.00000000000E+00  0.00000000000E+00  0.74654760810E+03  0.74654760810E+03  0.00000000000E+00 0.  1.
          2   -1    0    0  501    0  0.00000000000E+00 -0.00000000000E+00 -0.75648673346E+03  0.75648673346E+03  0.00000000000E+00 0. -1.
         24    2    1    2    0    0  0.14475833167E+03 -0.35819405084E+03 -0.28813489968E+03  0.48856896524E+03  0.80124657519E+02 0.  0.
        254    2    1    2    0    0 -0.14475833167E+03  0.35819405084E+03  0.27819577432E+03  0.10144653763E+04  0.89581759206E+03 0.  0.
         23    2    4    4    0    0 -0.48258987219E+03  0.38399248490E+03  0.15467891574E+03  0.64247723911E+03  0.92240027094E+02 0.  0.
         23    2    4    4    0    0  0.33783154052E+03 -0.25798434064E+02  0.12351685858E+03  0.37198813721E+03  0.91230756342E+02 0.  0.
          2    1    3    3  502    0  0.70170692292E+02 -0.19481837571E+03 -0.20239934035E+03  0.28955762561E+03  0.00000000000E+00 0. -1.
         -1    1    3    3    0  502  0.74587639381E+02 -0.16337567512E+03 -0.85735559325E+02  0.19901133964E+03  0.00000000000E+00 0.  1.
         11    1    5    5    0    0 -0.16373625689E+03  0.18773941341E+03  0.57444122123E+02  0.25564717158E+03  0.00000000000E+00 0.  1.
        -11    1    5    5    0    0 -0.31885361529E+03  0.19625307149E+03  0.97234793621E+02  0.38683006753E+03  0.00000000000E+00 0. -1.
          3    1    6    6  503    0  0.33775707257E+03 -0.28658707840E+02  0.10733997700E+03  0.35556016688E+03  0.00000000000E+00 0. -1.
         -3    1    6    6    0  503  0.74467944399E-01  0.28602737764E+01  0.16176881580E+02  0.16427970331E+02  0.00000000000E+00 0.  1.
<mgrwt>
<rscale>  0 0.15030015E+04</rscale>
<asrwt>0</asrwt>
<pdfrwt beam="1">  1        2 0.11638257E+00 0.15030015E+04</pdfrwt>
<pdfrwt beam="2">  1       -1 0.11485348E+00 0.15030015E+04</pdfrwt>
<totfact> 0.28171325E+01</totfact>
</mgrwt>
</event>
<event>
12    6  0.1450532E-007  0.1332650E+04  0.7818608E-02  0.9004067E-01
          2   -1    0    0  501    0  0.00000000000E+00  0.00000000000E+00  0.93419965168E+03  0.93419965168E+03  0.00000000000E+00 0. -1.
         -1   -1    0    0    0  501 -0.00000000000E+00 -0.00000000000E+00 -0.47526124173E+03  0.47526124173E+03  0.00000000000E+00 0.  1.
         24    2    1    2    0    0 -0.34553244347E+03 -0.19089922774E+02  0.71655776071E+02  0.36230665185E+03  0.79840247282E+02 0.  0.
        254    2    1    2    0    0  0.34553244347E+03  0.19089922774E+02  0.38728263387E+03  0.10471542416E+04  0.90927832509E+03 0.  0.
         23    2    4    4    0    0  0.20857384320E+03 -0.15464705062E+03  0.63962276036E+03  0.69609587254E+03  0.89517762778E+02 0.  0.
         23    2    4    4    0    0  0.13695860027E+03  0.17373697340E+03 -0.25234012649E+03  0.35105836902E+03  0.10307397785E+03 0.  0.
          2    1    3    3  502    0 -0.11347901007E+03 -0.86320734421E+01  0.62495477205E+02  0.12983714064E+03  0.00000000000E+00 0. -1.
         -1    1    3    3    0  502 -0.23205343341E+03 -0.10457849332E+02  0.91602988662E+01  0.23246951121E+03  0.00000000000E+00 0.  1.
         11    1    5    5    0    0  0.61486920742E+02 -0.90009465268E+02  0.19594952925E+03  0.22422881900E+03  0.00000000000E+00 0. -1.
        -11    1    5    5    0    0  0.14708692246E+03 -0.64637585355E+02  0.44367323112E+03  0.47186705353E+03  0.00000000000E+00 0.  1.
          1    1    6    6  503    0  0.38021474405E+01  0.36003639971E+01 -0.64669663117E+02  0.64881309125E+02  0.00000000000E+00 0. -1.
         -1    1    6    6    0  503  0.13315645283E+03  0.17013660940E+03 -0.18767046338E+03  0.28617705990E+03  0.00000000000E+00 0.  1.
<mgrwt>
<rscale>  0 0.13326498E+04</rscale>
<asrwt>0</asrwt>
<pdfrwt beam="1">  1        2 0.14372302E+00 0.13326498E+04</pdfrwt>
<pdfrwt beam="2">  1       -1 0.73117114E-01 0.13326498E+04</pdfrwt>
<totfact> 0.58531538E+01</totfact>
</mgrwt>
</event>
<event>
12    6  0.1450532E-007  0.1989929E+04  0.7818608E-02  0.8611344E-01
         -1   -1    0    0    0  501 -0.00000000000E+00  0.00000000000E+00  0.18086740970E+04  0.18086740970E+04  0.00000000000E+00 0.  1.
          2   -1    0    0  501    0  0.00000000000E+00 -0.00000000000E+00 -0.54733701250E+03  0.54733701250E+03  0.00000000000E+00 0. -1.
         24    2    1    2    0    0 -0.50065950953E+03  0.59763317943E+03  0.70286485342E+03  0.10529402214E+04  0.82696710810E+02 0.  0.
        254    2    1    2    0    0  0.50065950953E+03 -0.59763317943E+03  0.55847223109E+03  0.13030708881E+04  0.88220017284E+03 0.  0.
         23    2    4    4    0    0  0.19940421974E+02 -0.63147968446E+03  0.12928199106E+03  0.65102379706E+03  0.89184857536E+02 0.  0.
         23    2    4    4    0    0  0.48071908756E+03  0.33846505026E+02  0.42919024004E+03  0.65204709108E+03  0.93406208543E+02 0.  0.
          4    1    3    3  502    0 -0.20526665640E+03  0.28207996829E+03  0.35922343421E+03  0.50074443025E+03  0.00000000000E+00 0. -1.
         -3    1    3    3    0  502 -0.29539285313E+03  0.31555321114E+03  0.34364141921E+03  0.55219579113E+03  0.00000000000E+00 0.  1.
         11    1    5    5    0    0  0.33362132279E+02 -0.60183536353E+03  0.13572428577E+03  0.61785104872E+03  0.00000000000E+00 0.  1.
        -11    1    5    5    0    0 -0.13421710305E+02 -0.29644320936E+02 -0.64422947118E+01  0.33172748339E+02  0.00000000000E+00 0. -1.
          1    1    6    6  503    0  0.18707583862E+03 -0.28757681307E+02  0.18985927873E+03  0.26808752181E+03  0.00000000000E+00 0. -1.
         -1    1    6    6    0  503  0.29364324894E+03  0.62604186333E+02  0.23933096131E+03  0.38395956927E+03  0.00000000000E+00 0.  1.
<mgrwt>
<rscale>  0 0.19899289E+04</rscale>
<asrwt>0</asrwt>
<pdfrwt beam="1">  1        2 0.84205695E-01 0.19899289E+04</pdfrwt>
<pdfrwt beam="2">  1       -1 0.27825755E+00 0.19899289E+04</pdfrwt>
<totfact> 0.26869855E+00</totfact>
</mgrwt>
</event>
<event>
12    6  0.1450532E-007  0.1838478E+04  0.7818608E-02  0.8686101E-01
          2   -1    0    0  501    0  0.00000000000E+00  0.00000000000E+00  0.74851993235E+03  0.74851993235E+03  0.00000000000E+00 0. -1.
         -1   -1    0    0    0  501 -0.00000000000E+00 -0.00000000000E+00 -0.11288950574E+04  0.11288950574E+04  0.00000000000E+00 0.  1.
         24    2    1    2    0    0  0.42967357531E+02 -0.68356576105E+03 -0.99541346454E+01  0.68962440673E+03  0.79839802571E+02 0.  0.
        254    2    1    2    0    0 -0.42967357531E+02  0.68356576105E+03 -0.37042099046E+03  0.11877905831E+04  0.89695396513E+03 0.  0.
         23    2    4    4    0    0 -0.17939886694E+03  0.55894646215E+03 -0.62363559367E+03  0.86141246993E+03  0.92222495349E+02 0.  0.
         23    2    4    4    0    0  0.13643150941E+03  0.12461929890E+03  0.25321460321E+03  0.32637811314E+03  0.90892854729E+02 0.  0.
          2    1    3    3  502    0  0.57955568893E+02 -0.49672439982E+03 -0.30716766715E+02  0.50103642293E+03  0.00000000000E+00 0. -1.
         -1    1    3    3    0  502 -0.14988211362E+02 -0.18684136122E+03  0.20762632070E+02  0.18858798380E+03  0.00000000000E+00 0.  1.
         11    1    5    5    0    0 -0.79070213829E+02  0.31114552966E+03 -0.39977964391E+03  0.51272546555E+03  0.00000000000E+00 0. -1.
        -11    1    5    5    0    0 -0.10032865311E+03  0.24780093249E+03 -0.22385594976E+03  0.34868700438E+03  0.00000000000E+00 0.  1.
          4    1    6    6  503    0  0.12102661162E+03  0.83569630173E+02  0.23836281364E+03  0.28008597740E+03  0.00000000000E+00 0. -1.
         -4    1    6    6    0  503  0.15404897785E+02  0.41049668727E+02  0.14851789572E+02  0.46292135745E+02  0.00000000000E+00 0.  1.
<mgrwt>
<rscale>  0 0.18384781E+04</rscale>
<asrwt>0</asrwt>
<pdfrwt beam="1">  1        2 0.11515691E+00 0.18384781E+04</pdfrwt>
<pdfrwt beam="2">  1       -1 0.17367616E+00 0.18384781E+04</pdfrwt>
<totfact> 0.93419108E+00</totfact>
</mgrwt>
</event>
<event>
12    6  0.1450532E-007  0.1472227E+04  0.7818608E-02  0.8903134E-01
         -1   -1    0    0    0  501 -0.00000000000E+00  0.00000000000E+00  0.36628548738E+03  0.36628548738E+03  0.00000000000E+00 0.  1.
          2   -1    0    0  501    0  0.00000000000E+00 -0.00000000000E+00 -0.14793471000E+04  0.14793471000E+04  0.00000000000E+00 0. -1.
         24    2    1    2    0    0  0.15260749966E+03  0.42640446912E+03 -0.28731543439E+03  0.54213272698E+03  0.79043751081E+02 0.  0.
        254    2    1    2    0    0 -0.15260749966E+03 -0.42640446912E+03 -0.82574617821E+03  0.13034998604E+04  0.90119105351E+03 0.  0.
         23    2    4    4    0    0 -0.10667345493E+03  0.22625232294E+03 -0.27332381183E+02  0.26725842796E+03  0.90059250653E+02 0.  0.
         23    2    4    4    0    0 -0.45934044730E+02 -0.65265679206E+03 -0.79841379703E+03  0.10362414324E+04  0.90889439904E+02 0.  0.
          2    1    3    3  502    0  0.16318532344E+01  0.10594786233E+02  0.50800850081E+01  0.11862533624E+02  0.00000000000E+00 0. -1.
         -1    1    3    3    0  502  0.15097564643E+03  0.41580968289E+03 -0.29239551940E+03  0.53027019335E+03  0.00000000000E+00 0.  1.
         11    1    5    5    0    0 -0.11042613311E+03  0.20910258607E+03 -0.20496722344E+01  0.23647837857E+03  0.00000000000E+00 0.  1.
        -11    1    5    5    0    0  0.37526781792E+01  0.17149736870E+02 -0.25282708948E+02  0.30780049382E+02  0.00000000000E+00 0. -1.
          2    1    6    6  503    0 -0.41091550692E+02 -0.15063639377E+03 -0.22826657174E+03  0.27656005937E+03  0.00000000000E+00 0.  1.
         -2    1    6    6    0  503 -0.48424940375E+01 -0.50202039829E+03 -0.57014722529E+03  0.75968137305E+03  0.00000000000E+00 0. -1.
<mgrwt>
<rscale>  0 0.14722274E+04</rscale>
<asrwt>0</asrwt>
<pdfrwt beam="1">  1        2 0.22759186E+00 0.14722274E+04</pdfrwt>
<pdfrwt beam="2">  1       -1 0.56351614E-01 0.14722274E+04</pdfrwt>
<totfact> 0.45843896E+01</totfact>
</mgrwt>
</event>
<event>
12    6  0.1450532E-007  0.2373974E+04  0.7818608E-02  0.8449312E-01
          2   -1    0    0  501    0  0.00000000000E+00  0.00000000000E+00  0.23744370465E+04  0.23744370465E+04  0.00000000000E+00 0. -1.
         -1   -1    0    0    0  501 -0.00000000000E+00 -0.00000000000E+00 -0.59337800698E+03  0.59337800698E+03  0.00000000000E+00 0.  1.
         24    2    1    2    0    0  0.12539655939E+02 -0.73173855371E+03 -0.12147873899E+03  0.74589267651E+03  0.77461260594E+02 0.  0.
        254    2    1    2    0    0 -0.12539655939E+02  0.73173855371E+03  0.19025377786E+04  0.22219223770E+04  0.88413262393E+03 0.  0.
         23    2    4    4    0    0  0.50576397435E+02  0.43284040766E+03  0.18440735176E+04  0.18974137584E+04  0.98300772046E+02 0.  0.
         23    2    4    4    0    0 -0.63116053373E+02  0.29889814604E+03  0.58464260999E+02  0.32450861865E+03  0.92542076180E+02 0.  0.
          2    1    3    3  502    0 -0.18465506700E+02 -0.54631066646E+03 -0.70868476082E+02  0.55119747834E+03  0.00000000000E+00 0. -1.
         -1    1    3    3    0  502  0.31005162638E+02 -0.18542788724E+03 -0.50610262908E+02  0.19469519817E+03  0.00000000000E+00 0.  1.
         11    1    5    5    0    0  0.70563143235E+02  0.18950177304E+03  0.87363518113E+03  0.89673212772E+03  0.00000000000E+00 0.  1.
        -11    1    5    5    0    0 -0.19986745800E+02  0.24333863462E+03  0.97043833643E+03  0.10006816306E+04  0.00000000000E+00 0. -1.
          2    1    6    6  503    0  0.22082859486E+02  0.33689084686E+02  0.12552922661E+02  0.42192214654E+02  0.00000000000E+00 0. -1.
         -2    1    6    6    0  503 -0.85198912860E+02  0.26520906136E+03  0.45911338338E+02  0.28231640400E+03  0.00000000000E+00 0.  1.
<mgrwt>
<rscale>  0 0.23739745E+04</rscale>
<asrwt>0</asrwt>
<pdfrwt beam="1">  1        2 0.36529800E+00 0.23739745E+04</pdfrwt>
<pdfrwt beam="2">  1       -1 0.91288925E-01 0.23739745E+04</pdfrwt>
<totfact> 0.49334945E+00</totfact>
</mgrwt>
</event>
<event>
12    6  0.1450532E-007  0.1275616E+04  0.7818608E-02  0.9049128E-01
         -1   -1    0    0    0  501 -0.00000000000E+00  0.00000000000E+00  0.11390016644E+04  0.11390016644E+04  0.00000000000E+00 0.  1.
          2   -1    0    0  501    0  0.00000000000E+00 -0.00000000000E+00 -0.35715421588E+03  0.35715421588E+03  0.00000000000E+00 0. -1.
         24    2    1    2    0    0  0.28403532420E+03 -0.70774941434E+02  0.32604072551E+03  0.44520542308E+03  0.78867967685E+02 0.  0.
        254    2    1    2    0    0 -0.28403532420E+03  0.70774941434E+02  0.45580672304E+03  0.10509504572E+04  0.90058421986E+03 0.  0.
         23    2    4    4    0    0 -0.32985504166E+03  0.30430283270E+03 -0.73135982537E+02  0.46357097674E+03  0.90247526493E+02 0.  0.
         23    2    4    4    0    0  0.45819717459E+02 -0.23352789126E+03  0.52894270557E+03  0.58737948049E+03  0.92733736106E+02 0.  0.
          2    1    3    3  502    0  0.27813097320E+02  0.21096911341E+01  0.55138973035E+01  0.28432767060E+02  0.00000000000E+00 0. -1.
         -1    1    3    3    0  502  0.25622222688E+03 -0.72884632568E+02  0.32052682820E+03  0.41677265602E+03  0.00000000000E+00 0.  1.
         11    1    5    5    0    0 -0.23034245797E+03  0.23482416970E+03 -0.90024055996E+02  0.34103426408E+03  0.00000000000E+00 0.  1.
        -11    1    5    5    0    0 -0.99512583685E+02  0.69478663004E+02  0.16888073460E+02  0.12253671266E+03  0.00000000000E+00 0. -1.
          1    1    6    6  503    0 -0.23568502377E+01 -0.12618085606E+03  0.36016742353E+03  0.38163822679E+03  0.00000000000E+00 0. -1.
         -1    1    6    6    0  503  0.48176567697E+02 -0.10734703520E+03  0.16877528204E+03  0.20574125369E+03  0.00000000000E+00 0.  1.
<mgrwt>
<rscale>  0 0.12756163E+04</rscale>
<asrwt>0</asrwt>
<pdfrwt beam="1">  1        2 0.54946803E-01 0.12756163E+04</pdfrwt>
<pdfrwt beam="2">  1       -1 0.17523102E+00 0.12756163E+04</pdfrwt>
<totfact> 0.22877886E+01</totfact>
</mgrwt>
</event>
<event>
12    6  0.1450532E-007  0.2587423E+04  0.7818608E-02  0.8372486E-01
          2   -1    0    0  501    0  0.00000000000E+00  0.00000000000E+00  0.15722084977E+04  0.15722084977E+04  0.00000000000E+00 0. -1.
         -1   -1    0    0    0  501 -0.00000000000E+00 -0.00000000000E+00 -0.10645467704E+04  0.10645467704E+04  0.00000000000E+00 0.  1.
         24    2    1    2    0    0 -0.58071693279E+03 -0.55751843778E+03 -0.59455823091E+03  0.10040458436E+04  0.80929608414E+02 0.  0.
        254    2    1    2    0    0  0.58071693279E+03  0.55751843778E+03  0.11022199583E+04  0.16327094246E+04  0.89598675448E+03 0.  0.
         23    2    4    4    0    0  0.56131929153E+03  0.20508726847E+03  0.11137159902E+04  0.12668401045E+04  0.85909304746E+02 0.  0.
         23    2    4    4    0    0  0.19397641259E+02  0.35243116930E+03 -0.11496031964E+02  0.36586932011E+03  0.95625326481E+02 0.  0.
          4    1    3    3  502    0 -0.75777863713E+02 -0.47545001431E+02 -0.45010356398E+02  0.10014361674E+03  0.00000000000E+00 0. -1.
         -3    1    3    3    0  502 -0.50493906908E+03 -0.50997343635E+03 -0.54954787452E+03  0.90390222682E+03  0.00000000000E+00 0.  1.
         11    1    5    5    0    0  0.27279417548E+02  0.28339096364E+02  0.10081805401E+03  0.10821991970E+03  0.00000000000E+00 0.  1.
        -11    1    5    5    0    0  0.53403987399E+03  0.17674817211E+03  0.10128979362E+04  0.11586201848E+04  0.00000000000E+00 0. -1.
          3    1    6    6  503    0  0.18078645977E+02  0.35838559839E+03 -0.81957999967E+01  0.35893487670E+03  0.00000000000E+00 0. -1.
         -3    1    6    6    0  503  0.13189952817E+01 -0.59544290899E+01 -0.33002319676E+01  0.69344434081E+01  0.00000000000E+00 0.  1.
<mgrwt>
<rscale>  0 0.25874230E+04</rscale>
<asrwt>0</asrwt>
<pdfrwt beam="1">  1        2 0.24187823E+00 0.25874230E+04</pdfrwt>
<pdfrwt beam="2">  1       -1 0.16377643E+00 0.25874230E+04</pdfrwt>
<totfact> 0.31902308E+00</totfact>
</mgrwt>
</event>
<event>
12    6  0.1450532E-007  0.3034976E+04  0.7818608E-02  0.8233813E-01
         -1   -1    0    0    0  501 -0.00000000000E+00  0.00000000000E+00  0.17254569300E+04  0.17254569300E+04  0.00000000000E+00 0.  1.
          2   -1    0    0  501    0  0.00000000000E+00 -0.00000000000E+00 -0.13345854067E+04  0.13345854067E+04  0.00000000000E+00 0. -1.
         24    2    1    2    0    0  0.55037356320E+03 -0.78298601132E+03 -0.83335816379E+03  0.12716535866E+04  0.81479213336E+02 0.  0.
        254    2    1    2    0    0 -0.55037356320E+03  0.78298601132E+03  0.12242296872E+04  0.17883887501E+04  0.88522191656E+03 0.  0.
         23    2    4    4    0    0  0.14865815160E+03  0.52470019365E+03  0.50126788165E+03  0.74618050062E+03  0.90035054709E+02 0.  0.
         23    2    4    4    0    0 -0.69903171481E+03  0.25828581767E+03  0.72296180552E+03  0.10422082495E+04  0.90373453746E+02 0.  0.
          4    1    3    3  502    0  0.46781908802E+03 -0.67703978019E+03 -0.75095019584E+03  0.11140752936E+04  0.00000000000E+00 0. -1.
         -3    1    3    3    0  502  0.82554475178E+02 -0.10594623112E+03 -0.82407967951E+02  0.15757829306E+03  0.00000000000E+00 0.  1.
         11    1    5    5    0    0  0.10712190303E+03  0.25431853289E+03  0.21148662080E+03  0.34767744974E+03  0.00000000000E+00 0. -1.
        -11    1    5    5    0    0  0.41536248574E+02  0.27038166076E+03  0.28978126085E+03  0.39850305088E+03  0.00000000000E+00 0.  1.
          2    1    6    6  503    0 -0.35511955036E+03  0.12009773811E+03  0.30246823702E+03  0.48168495530E+03  0.00000000000E+00 0.  1.
         -2    1    6    6    0  503 -0.34391216444E+03  0.13818807955E+03  0.42049356849E+03  0.56052329418E+03  0.00000000000E+00 0. -1.
<mgrwt>
<rscale>  0 0.30349759E+04</rscale>
<asrwt>0</asrwt>
<pdfrwt beam="1">  1        2 0.20532083E+00 0.30349759E+04</pdfrwt>
<pdfrwt beam="2">  1       -1 0.26545491E+00 0.30349759E+04</pdfrwt>
<totfact> 0.84849586E-01</totfact>
</mgrwt>
</event>
<event>
12    6  0.1450532E-007  0.1880667E+04  0.7818608E-02  0.8664540E-01
          2   -1    0    0  501    0  0.00000000000E+00  0.00000000000E+00  0.19861173829E+04  0.19861173829E+04  0.00000000000E+00 0. -1.
         -1   -1    0    0    0  501 -0.00000000000E+00 -0.00000000000E+00 -0.44520387512E+03  0.44520387512E+03  0.00000000000E+00 0.  1.
         24    2    1    2    0    0 -0.32345728408E+03 -0.28847871684E+02  0.14336596086E+04  0.14719645975E+04  0.76440097812E+02 0.  0.
        254    2    1    2    0    0  0.32345728408E+03  0.28847871684E+02  0.10725389913E+03  0.95935666050E+03  0.89632861655E+03 0.  0.
         23    2    4    4    0    0  0.18593433547E+03 -0.35282187022E+03 -0.18723856614E+03  0.44962052329E+03  0.89696628130E+02 0.  0.
         23    2    4    4    0    0  0.13752294861E+03  0.38166974191E+03  0.29449246527E+03  0.50973613721E+03  0.92307985569E+02 0.  0.
          2    1    3    3  502    0 -0.27866244421E+03 -0.51376637258E+02  0.12038624800E+04  0.12367607640E+04  0.00000000000E+00 0. -1.
         -1    1    3    3    0  502 -0.44794839870E+02  0.22528765574E+02  0.22979712859E+03  0.23520383344E+03  0.00000000000E+00 0.  1.
         11    1    5    5    0    0  0.14314735702E+03 -0.32318677362E+03 -0.18124556585E+03  0.39722891587E+03  0.00000000000E+00 0.  1.
        -11    1    5    5    0    0  0.42786978443E+02 -0.29635096607E+02 -0.59930002884E+01  0.52391607416E+02  0.00000000000E+00 0. -1.
          3    1    6    6  503    0  0.59969540527E+02  0.13471807381E+03  0.55893068587E+02  0.15770015954E+03  0.00000000000E+00 0. -1.
         -3    1    6    6    0  503  0.77553408082E+02  0.24695166809E+03  0.23859939668E+03  0.35203597767E+03  0.00000000000E+00 0.  1.
<mgrwt>
<rscale>  0 0.18806671E+04</rscale>
<asrwt>0</asrwt>
<pdfrwt beam="1">  1        2 0.30555651E+00 0.18806671E+04</pdfrwt>
<pdfrwt beam="2">  1       -1 0.68492905E-01 0.18806671E+04</pdfrwt>
<totfact> 0.15672621E+01</totfact>
</mgrwt>
</event>
<event>
12    6  0.1450532E-007  0.1163140E+04  0.7818608E-02  0.9145747E-01
         -1   -1    0    0    0  501 -0.00000000000E+00  0.00000000000E+00  0.38408239909E+03  0.38408239909E+03  0.00000000000E+00 0.  1.
          2   -1    0    0  501    0  0.00000000000E+00 -0.00000000000E+00 -0.88060123160E+03  0.88060123160E+03  0.00000000000E+00 0. -1.
         24    2    1    2    0    0 -0.14748733254E+02  0.11740839518E+03 -0.33505101415E+03  0.36413146254E+03  0.79563078969E+02 0.  0.
        254    2    1    2    0    0  0.14748733254E+02 -0.11740839518E+03 -0.16146781836E+03  0.90055216815E+03  0.87802055488E+03 0.  0.
         23    2    4    4    0    0  0.37909413708E+03  0.65239497334E+02 -0.25709900662E+03  0.47222788434E+03  0.94502480191E+02 0.  0.
         23    2    4    4    0    0 -0.36434540383E+03 -0.18264789251E+03  0.95631188262E+02  0.42832428380E+03  0.90601004404E+02 0.  0.
          2    1    3    3  502    0 -0.38197137597E+02  0.11210974087E+03 -0.27287747572E+03  0.29747223749E+03  0.00000000000E+00 0. -1.
         -1    1    3    3    0  502  0.23448404343E+02  0.52986543093E+01 -0.62173538426E+02  0.66659225049E+02  0.00000000000E+00 0.  1.
         11    1    5    5    0    0  0.22839747338E+03  0.84418013254E+02 -0.17181168348E+03  0.29801184773E+03  0.00000000000E+00 0. -1.
        -11    1    5    5    0    0  0.15069666370E+03 -0.19178515920E+02 -0.85287323146E+02  0.17421603661E+03  0.00000000000E+00 0.  1.
          1    1    6    6  503    0 -0.23285676019E+03 -0.14781068009E+03  0.96775953152E+02  0.29229412075E+03  0.00000000000E+00 0. -1.
         -1    1    6    6    0  503 -0.13148864364E+03 -0.34837212423E+02 -0.11447648896E+01  0.13603016306E+03  0.00000000000E+00 0.  1.
<mgrwt>
<rscale>  0 0.11631396E+04</rscale>
<asrwt>0</asrwt>
<pdfrwt beam="1">  1        2 0.13547711E+00 0.11631396E+04</pdfrwt>
<pdfrwt beam="2">  1       -1 0.59089601E-01 0.11631396E+04</pdfrwt>
<totfact> 0.99048537E+01</totfact>
</mgrwt>
</event>
<event>
12    6  0.1450532E-007  0.1060981E+04  0.7818608E-02  0.9244079E-01
         -1   -1    0    0    0  501 -0.00000000000E+00  0.00000000000E+00  0.32856329582E+03  0.32856329582E+03  0.00000000000E+00 0.  1.
          2   -1    0    0  501    0  0.00000000000E+00 -0.00000000000E+00 -0.85651814261E+03  0.85651814261E+03  0.00000000000E+00 0. -1.
         24    2    1    2    0    0  0.46180109373E+02  0.10838090634E+03 -0.85111032727E+02  0.16553888740E+03  0.79247788545E+02 0.  0.
        254    2    1    2    0    0 -0.46180109373E+02 -0.10838090634E+03 -0.44284381406E+03  0.10195425510E+04  0.91075646928E+03 0.  0.
         23    2    4    4    0    0 -0.13666591770E+03 -0.45501778585E+03 -0.43394016104E+03  0.64968337228E+03  0.89809032645E+02 0.  0.
         23    2    4    4    0    0  0.90485808331E+02  0.34663687951E+03 -0.89036530190E+01  0.36985917875E+03  0.91497154730E+02 0.  0.
          2    1    3    3  502    0  0.13133788044E+02  0.58796773245E+02 -0.87115124235E+02  0.10591790124E+03  0.00000000000E+00 0. -1.
         -1    1    3    3    0  502  0.33046321329E+02  0.49584133093E+02  0.20040915087E+01  0.59620986160E+02  0.00000000000E+00 0.  1.
         11    1    5    5    0    0 -0.88676436622E+02 -0.39737206000E+03 -0.38328492867E+03  0.55917385582E+03  0.00000000000E+00 0.  1.
        -11    1    5    5    0    0 -0.47989481082E+02 -0.57645725845E+02 -0.50655232370E+02  0.90509516456E+02  0.00000000000E+00 0. -1.
          2    1    6    6  503    0 -0.10304693010E+02  0.18410969357E+01  0.84169818562E+00  0.10501656621E+02  0.00000000000E+00 0. -1.
         -2    1    6    6    0  503  0.10079050134E+03  0.34479578257E+03 -0.97453512047E+01  0.35935752213E+03  0.00000000000E+00 0.  1.
<mgrwt>
<rscale>  0 0.10609815E+04</rscale>
<asrwt>0</asrwt>
<pdfrwt beam="1">  1        2 0.13177202E+00 0.10609815E+04</pdfrwt>
<pdfrwt beam="2">  1       -1 0.50548200E-01 0.10609815E+04</pdfrwt>
<totfact> 0.14015689E+02</totfact>
</mgrwt>
</event>
<event>
12    6  0.1450532E-007  0.1556927E+04  0.7818608E-02  0.8847455E-01
          2   -1    0    0  501    0  0.00000000000E+00  0.00000000000E+00  0.23097520683E+04  0.23097520683E+04  0.00000000000E+00 0. -1.
         -1   -1    0    0    0  501 -0.00000000000E+00 -0.00000000000E+00 -0.26236821947E+03  0.26236821947E+03  0.00000000000E+00 0.  1.
         24    2    1    2    0    0 -0.74163808679E+02 -0.39537515985E+03  0.11722893318E+04  0.12419152115E+04  0.79179085676E+02 0.  0.
        254    2    1    2    0    0  0.74163808679E+02  0.39537515985E+03  0.87509451708E+03  0.13302050763E+04  0.91751476481E+03 0.  0.
         23    2    4    4    0    0  0.40580420943E+03  0.13360755252E+03  0.10893246726E+03  0.44999591928E+03  0.90011168551E+02 0.  0.
         23    2    4    4    0    0 -0.33164040075E+03  0.26176760733E+03  0.76616204982E+03  0.88020915702E+03  0.96209343910E+02 0.  0.
          2    1    3    3  502    0 -0.39003766564E+02 -0.26211950847E+03  0.87470212571E+03  0.91396484574E+03  0.00000000000E+00 0. -1.
         -1    1    3    3    0  502 -0.35160042115E+02 -0.13325565138E+03  0.29758720606E+03  0.32795036575E+03  0.00000000000E+00 0.  1.
         11    1    5    5    0    0  0.12950687875E+03  0.73269238964E+02  0.56049548361E+01  0.14890207702E+03  0.00000000000E+00 0.  1.
        -11    1    5    5    0    0  0.27629733068E+03  0.60338313555E+02  0.10332751242E+03  0.30109384226E+03  0.00000000000E+00 0. -1.
          4    1    6    6  503    0 -0.31579073543E+03  0.26559676332E+03  0.70468650080E+03  0.81660791919E+03  0.00000000000E+00 0. -1.
         -4    1    6    6    0  503 -0.15849665321E+02 -0.38291559865E+01  0.61475549021E+02  0.63601237832E+02  0.00000000000E+00 0.  1.
<mgrwt>
<rscale>  0 0.15569271E+04</rscale>
<asrwt>0</asrwt>
<pdfrwt beam="1">  1        2 0.35534646E+00 0.15569271E+04</pdfrwt>
<pdfrwt beam="2">  1       -1 0.40364343E-01 0.15569271E+04</pdfrwt>
<totfact> 0.29420018E+01</totfact>
</mgrwt>
</event>
<event>
12    6  0.1450532E-007  0.1668220E+04  0.7818608E-02  0.8779700E-01
         -1   -1    0    0    0  501 -0.00000000000E+00  0.00000000000E+00  0.52284247950E+03  0.52284247950E+03  0.00000000000E+00 0.  1.
          2   -1    0    0  501    0  0.00000000000E+00 -0.00000000000E+00 -0.13306866009E+04  0.13306866009E+04  0.00000000000E+00 0. -1.
         24    2    1    2    0    0  0.27870658845E+03 -0.51415415920E+03 -0.23310302435E+03  0.63471779594E+03  0.80608924214E+02 0.  0.
        254    2    1    2    0    0 -0.27870658845E+03  0.51415415920E+03 -0.57474109706E+03  0.12188112845E+04  0.90174373113E+03 0.  0.
         23    2    4    4    0    0 -0.31812169700E+03 -0.16474967718E+03 -0.31306513565E+03  0.48440141973E+03  0.91055400967E+02 0.  0.
         23    2    4    4    0    0  0.39415108543E+02  0.67890383638E+03 -0.26167596142E+03  0.73440986475E+03  0.91758219355E+02 0.  0.
          2    1    3    3  502    0  0.40802385635E+01 -0.34938023393E+02 -0.29994478082E+02  0.46227508485E+02  0.00000000000E+00 0. -1.
         -1    1    3    3    0  502  0.27462634989E+03 -0.47921613580E+03 -0.20310854626E+03  0.58849028746E+03  0.00000000000E+00 0.  1.
         11    1    5    5    0    0 -0.24863957202E+03 -0.13066937637E+03 -0.28981341126E+03  0.40359377602E+03  0.00000000000E+00 0. -1.
        -11    1    5    5    0    0 -0.69482124976E+02 -0.34080300809E+02 -0.23251724385E+02  0.80807643706E+02  0.00000000000E+00 0.  1.
          1    1    6    6  503    0  0.34422675868E+02  0.45144693688E+03 -0.21895482975E+03  0.50292193719E+03  0.00000000000E+00 0. -1.
         -1    1    6    6    0  503  0.49924326752E+01  0.22745689950E+03 -0.42721131661E+02  0.23148792756E+03  0.00000000000E+00 0.  1.
<mgrwt>
<rscale>  0 0.16682200E+04</rscale>
<asrwt>0</asrwt>
<pdfrwt beam="1">  1        2 0.20472101E+00 0.16682200E+04</pdfrwt>
<pdfrwt beam="2">  1       -1 0.80437305E-01 0.16682200E+04</pdfrwt>
<totfact> 0.26600594E+01</totfact>
</mgrwt>
</event>
<event>
12    6  0.1450532E-007  0.1997488E+04  0.7818608E-02  0.8607796E-01
         -1   -1    0    0    0  501 -0.00000000000E+00  0.00000000000E+00  0.93964685809E+03  0.93964685809E+03  0.00000000000E+00 0.  1.
          2   -1    0    0  501    0  0.00000000000E+00 -0.00000000000E+00 -0.10615581439E+04  0.10615581439E+04  0.00000000000E+00 0. -1.
         24    2    1    2    0    0  0.69650881390E+03  0.38155707413E+03 -0.90708347412E+02  0.80364422061E+03  0.83100543797E+02 0.  0.
        254    2    1    2    0    0 -0.69650881390E+03 -0.38155707413E+03 -0.31202938372E+02  0.11975607814E+04  0.89580571165E+03 0.  0.
         23    2    4    4    0    0 -0.37375883504E+03  0.16118427493E+03  0.26510439765E+03  0.49380596225E+03  0.88814128628E+02 0.  0.
         23    2    4    4    0    0 -0.32274997886E+03 -0.54274134906E+03 -0.29630733603E+03  0.70375481910E+03  0.93472387359E+02 0.  0.
          4    1    3    3  502    0  0.55897574728E+03  0.33678586865E+03 -0.56624734863E+02  0.65504577547E+03  0.00000000000E+00 0. -1.
         -3    1    3    3    0  502  0.13753306662E+03  0.44771205483E+02 -0.34083612548E+02  0.14859844514E+03  0.00000000000E+00 0.  1.
         11    1    5    5    0    0 -0.25865234525E+03  0.15427571865E+03  0.19715916893E+03  0.35996356893E+03  0.00000000000E+00 0. -1.
        -11    1    5    5    0    0 -0.11510648980E+03  0.69085562797E+01  0.67945228726E+02  0.13384239332E+03  0.00000000000E+00 0.  1.
          4    1    6    6  503    0 -0.31040477744E+03 -0.46959710605E+03 -0.27548336202E+03  0.62670858508E+03  0.00000000000E+00 0. -1.
         -4    1    6    6    0  503 -0.12345201417E+02 -0.73144243006E+02 -0.20823974006E+02  0.77046234018E+02  0.00000000000E+00 0.  1.
<mgrwt>
<rscale>  0 0.19974882E+04</rscale>
<asrwt>0</asrwt>
<pdfrwt beam="1">  1        2 0.16331664E+00 0.19974882E+04</pdfrwt>
<pdfrwt beam="2">  1       -1 0.14456106E+00 0.19974882E+04</pdfrwt>
<totfact> 0.93979934E+00</totfact>
</mgrwt>
</event>
<event>
12    6  0.1450532E-007  0.1436944E+04  0.7818608E-02  0.8927503E-01
          2   -1    0    0  501    0  0.00000000000E+00  0.00000000000E+00  0.43419453713E+03  0.43419453713E+03  0.00000000000E+00 0. -1.
         -1   -1    0    0    0  501 -0.00000000000E+00 -0.00000000000E+00 -0.11888721965E+04  0.11888721965E+04  0.00000000000E+00 0.  1.
         24    2    1    2    0    0  0.34552254022E+03 -0.52615090281E+02 -0.51225135105E+03  0.62503459006E+03  0.78183237316E+02 0.  0.
        254    2    1    2    0    0 -0.34552254022E+03  0.52615090281E+02 -0.24242630832E+03  0.99803214356E+03  0.90285296205E+03 0.  0.
         23    2    4    4    0    0 -0.41242371262E+03  0.41288603617E+03 -0.15370250714E+03  0.61041415743E+03  0.91721236909E+02 0.  0.
         23    2    4    4    0    0  0.66901172403E+02 -0.36027094588E+03 -0.88723801188E+02  0.38761798613E+03  0.90027045689E+02 0.  0.
          2    1    3    3  502    0  0.14869006535E+03 -0.58095948971E+02 -0.20025977601E+03  0.25610125480E+03  0.00000000000E+00 0. -1.
         -1    1    3    3    0  502  0.19683247487E+03  0.54808586904E+01 -0.31199157503E+03  0.36893333526E+03  0.00000000000E+00 0.  1.
         11    1    5    5    0    0 -0.38736966082E+03  0.36733095987E+03 -0.16174184298E+03  0.55780615986E+03  0.00000000000E+00 0. -1.
        -11    1    5    5    0    0 -0.25054051803E+02  0.45555076294E+02  0.80393358479E+01  0.52607997574E+02  0.00000000000E+00 0.  1.
          3    1    6    6  503    0  0.59751721371E+02 -0.20177375824E+03 -0.10430561426E+02  0.21069341312E+03  0.00000000000E+00 0. -1.
         -3    1    6    6    0  503  0.71494510327E+01 -0.15849718765E+03 -0.78293239762E+02  0.17692457301E+03  0.00000000000E+00 0.  1.
<mgrwt>
<rscale>  0 0.14369437E+04</rscale>
<asrwt>0</asrwt>
<pdfrwt beam="1">  1        2 0.66799160E-01 0.14369437E+04</pdfrwt>
<pdfrwt beam="2">  1       -1 0.18290341E+00 0.14369437E+04</pdfrwt>
<totfact> 0.15956402E+01</totfact>
</mgrwt>
</event>
<event>
12    6  0.1450532E-007  0.1804754E+04  0.7818608E-02  0.8703775E-01
          2   -1    0    0  501    0  0.00000000000E+00  0.00000000000E+00  0.24818219278E+04  0.24818219278E+04  0.00000000000E+00 0. -1.
         -1   -1    0    0    0  501 -0.00000000000E+00 -0.00000000000E+00 -0.32809943744E+03  0.32809943744E+03  0.00000000000E+00 0.  1.
         24    2    1    2    0    0  0.28622170195E+03 -0.13588883189E+03 -0.11716014217E+03  0.34726416606E+03  0.80481456320E+02 0.  0.
        254    2    1    2    0    0 -0.28622170195E+03  0.13588883189E+03  0.22708826325E+04  0.24626571992E+04  0.89854544271E+03 0.  0.
         23    2    4    4    0    0 -0.46002794503E+03 -0.14240572453E+03  0.18875406759E+04  0.19500455704E+04  0.89234649557E+02 0.  0.
         23    2    4    4    0    0  0.17380624307E+03  0.27829455642E+03  0.38334195658E+03  0.51261162877E+03  0.90350185466E+02 0.  0.
          2    1    3    3  502    0  0.85700485076E+02 -0.66992429138E+02 -0.87490835719E+01  0.10912884663E+03  0.00000000000E+00 0. -1.
         -1    1    3    3    0  502  0.20052121688E+03 -0.68896402754E+02 -0.10841105860E+03  0.23813531942E+03  0.00000000000E+00 0.  1.
         11    1    5    5    0    0 -0.33606127662E+03 -0.11135573457E+03  0.15277104669E+04  0.15681953169E+04  0.00000000000E+00 0.  1.
        -11    1    5    5    0    0 -0.12396666841E+03 -0.31049989958E+02  0.35983020901E+03  0.38185025346E+03  0.00000000000E+00 0. -1.
          4    1    6    6  503    0  0.85469198289E+02  0.85888958772E+02  0.19316409960E+03  0.22802251307E+03  0.00000000000E+00 0. -1.
         -4    1    6    6    0  503  0.88337044784E+02  0.19240559765E+03  0.19017785698E+03  0.28458911570E+03  0.00000000000E+00 0.  1.
<mgrwt>
<rscale>  0 0.18047541E+04</rscale>
<asrwt>0</asrwt>
<pdfrwt beam="1">  1        2 0.38181875E+00 0.18047541E+04</pdfrwt>
<pdfrwt beam="2">  1       -1 0.50476838E-01 0.18047541E+04</pdfrwt>
<totfact> 0.15122870E+01</totfact>
</mgrwt>
</event>
<event>
12    6  0.1450532E-007  0.2078238E+04  0.7818608E-02  0.8570891E-01
          2   -1    0    0  501    0  0.00000000000E+00  0.00000000000E+00  0.11587735085E+04  0.11587735085E+04  0.00000000000E+00 0. -1.
         -1   -1    0    0    0  501 -0.00000000000E+00 -0.00000000000E+00 -0.93182032539E+03  0.93182032539E+03  0.00000000000E+00 0.  1.
         24    2    1    2    0    0  0.79235727003E+03  0.43611262779E+02 -0.18574371725E+03  0.81891610990E+03  0.79942985596E+02 0.  0.
        254    2    1    2    0    0 -0.79235727003E+03 -0.43611262779E+02  0.41269690037E+03  0.12716777240E+04  0.90394331486E+03 0.  0.
         23    2    4    4    0    0 -0.36379792527E+03  0.28516248913E+03 -0.14211101592E+03  0.49175878526E+03  0.89244531454E+02 0.  0.
         23    2    4    4    0    0 -0.42855934476E+03 -0.32877375191E+03  0.55480791629E+03  0.77991893872E+03  0.93308279727E+02 0.  0.
          2    1    3    3  502    0  0.19165667157E+03  0.16244722088E+02 -0.80227769095E+02  0.20840505197E+03  0.00000000000E+00 0. -1.
         -1    1    3    3    0  502  0.60070059846E+03  0.27366540690E+02 -0.10551594816E+03  0.61051105793E+03  0.00000000000E+00 0.  1.
         11    1    5    5    0    0 -0.30297124437E+03  0.27357375188E+03 -0.11451351526E+03  0.42396641118E+03  0.00000000000E+00 0.  1.
        -11    1    5    5    0    0 -0.60826680906E+02  0.11588737257E+02 -0.27597500667E+02  0.67792374087E+02  0.00000000000E+00 0. -1.
          1    1    6    6  503    0 -0.27410531693E+03 -0.17351077792E+03  0.38046830517E+03  0.49999584604E+03  0.00000000000E+00 0. -1.
         -1    1    6    6    0  503 -0.15445402783E+03 -0.15526297400E+03  0.17433961112E+03  0.27992309268E+03  0.00000000000E+00 0.  1.
<mgrwt>
<rscale>  0 0.20782384E+04</rscale>
<asrwt>0</asrwt>
<pdfrwt beam="1">  1        2 0.17827285E+00 0.20782384E+04</pdfrwt>
<pdfrwt beam="2">  1       -1 0.14335697E+00 0.20782384E+04</pdfrwt>
<totfact> 0.83140525E+00</totfact>
</mgrwt>
</event>
<event>
12    6  0.1450532E-007  0.2826684E+04  0.7818608E-02  0.8295032E-01
         -1   -1    0    0    0  501 -0.00000000000E+00  0.00000000000E+00  0.99198108105E+03  0.99198108105E+03  0.00000000000E+00 0.  1.
          2   -1    0    0  501    0  0.00000000000E+00 -0.00000000000E+00 -0.20136827346E+04  0.20136827346E+04  0.00000000000E+00 0. -1.
         24    2    1    2    0    0 -0.63192156699E+02 -0.35496463942E+03 -0.17529876054E+04  0.17913945731E+04  0.78331525217E+02 0.  0.
        254    2    1    2    0    0  0.63192156699E+02  0.35496463942E+03  0.73128595183E+03  0.12142692426E+04  0.89982081900E+03 0.  0.
         23    2    4    4    0    0  0.18448599552E+03  0.20412648935E+03  0.89772697984E+03  0.94320268688E+03  0.89525817513E+02 0.  0.
         23    2    4    4    0    0 -0.12129383882E+03  0.15083815007E+03 -0.16644102801E+03  0.27106655573E+03  0.91159853986E+02 0.  0.
          4    1    3    3  502    0 -0.29816541764E+02 -0.50084329764E+02 -0.38956184268E+03  0.39389833146E+03  0.00000000000E+00 0. -1.
         -3    1    3    3    0  502 -0.33375614935E+02 -0.30488030966E+03 -0.13634257627E+04  0.13974962416E+04  0.00000000000E+00 0.  1.
         11    1    5    5    0    0 -0.97971339267E+01  0.16673645311E+02  0.56713859267E+02  0.59920414836E+02  0.00000000000E+00 0. -1.
        -11    1    5    5    0    0  0.19428312944E+03  0.18745284404E+03  0.84101312057E+03  0.88328227204E+03  0.00000000000E+00 0.  1.
          3    1    6    6  503    0 -0.16058454895E+02  0.63472805592E+02 -0.15319818870E+02  0.67241117432E+02  0.00000000000E+00 0. -1.
         -3    1    6    6    0  503 -0.10523538392E+03  0.87365344477E+02 -0.15112120914E+03  0.20382543830E+03  0.00000000000E+00 0.  1.
<mgrwt>
<rscale>  0 0.28266837E+04</rscale>
<asrwt>0</asrwt>
<pdfrwt beam="1">  1        2 0.30979734E+00 0.28266837E+04</pdfrwt>
<pdfrwt beam="2">  1       -1 0.15261247E+00 0.28266837E+04</pdfrwt>
<totfact> 0.21589425E+00</totfact>
</mgrwt>
</event>
<event>
12    6  0.1450532E-007  0.1369915E+04  0.7818608E-02  0.8975888E-01
          2   -1    0    0  501    0  0.00000000000E+00  0.00000000000E+00  0.84580484931E+03  0.84580484931E+03  0.00000000000E+00 0. -1.
         -1   -1    0    0    0  501 -0.00000000000E+00 -0.00000000000E+00 -0.55469850691E+03  0.55469850691E+03  0.00000000000E+00 0.  1.
         24    2    1    2    0    0 -0.37311657910E+03 -0.45210104532E+02  0.26953110572E+03  0.46971239012E+03  0.81992544332E+02 0.  0.
        254    2    1    2    0    0  0.37311657910E+03  0.45210104532E+02  0.21575236676E+02  0.93079096610E+03  0.85126164989E+03 0.  0.
         23    2    4    4    0    0  0.62566591374E+03 -0.40536675042E+02  0.93701720461E+02  0.64005814615E+03  0.88280011356E+02 0.  0.
         23    2    4    4    0    0 -0.25254933464E+03  0.85746779573E+02 -0.72126483785E+02  0.29073281994E+03  0.90496775056E+02 0.  0.
          4    1    3    3  502    0 -0.37332339550E+03 -0.52436677261E+02  0.26095071830E+03  0.45849235559E+03  0.00000000000E+00 0. -1.
         -3    1    3    3    0  502  0.20681640471E+00  0.72265727298E+01  0.85803874246E+01  0.11220034528E+02  0.00000000000E+00 0.  1.
         11    1    5    5    0    0  0.11539627804E+03  0.15773132040E+02  0.43159882676E+02  0.12420896970E+03  0.00000000000E+00 0. -1.
        -11    1    5    5    0    0  0.51026963569E+03 -0.56309807082E+02  0.50541837785E+02  0.51584917646E+03  0.00000000000E+00 0.  1.
          3    1    6    6  503    0 -0.86602594493E+02  0.24888179627E+02 -0.69771715765E+02  0.11396281490E+03  0.00000000000E+00 0. -1.
         -3    1    6    6    0  503 -0.16594674015E+03  0.60858599947E+02 -0.23547680200E+01  0.17677000505E+03  0.00000000000E+00 0.  1.
<mgrwt>
<rscale>  0 0.13699149E+04</rscale>
<asrwt>0</asrwt>
<pdfrwt beam="1">  1        2 0.13012382E+00 0.13699149E+04</pdfrwt>
<pdfrwt beam="2">  1       -1 0.85338232E-01 0.13699149E+04</pdfrwt>
<totfact> 0.48310295E+01</totfact>
</mgrwt>
</event>
<event>
12    6  0.1450532E-007  0.2323787E+04  0.7818608E-02  0.8468601E-01
         -1   -1    0    0    0  501 -0.00000000000E+00  0.00000000000E+00  0.11583766133E+04  0.11583766133E+04  0.00000000000E+00 0.  1.
          2   -1    0    0  501    0  0.00000000000E+00 -0.00000000000E+00 -0.11654212757E+04  0.11654212757E+04  0.00000000000E+00 0. -1.
         24    2    1    2    0    0  0.19617768987E+03  0.95568986965E+03  0.36732758908E+03  0.10455315121E+04  0.79860955069E+02 0.  0.
        254    2    1    2    0    0 -0.19617768987E+03 -0.95568986965E+03 -0.37437225143E+03  0.12782663769E+04  0.73619395191E+03 0.  0.
         23    2    4    4    0    0  0.22042242256E+03 -0.42457540290E+03  0.26518899019E+02  0.48787329875E+03  0.92015142870E+02 0.  0.
         23    2    4    4    0    0 -0.41660011243E+03 -0.53111446675E+03 -0.40089115045E+03  0.79039307819E+03  0.91483731193E+02 0.  0.
          4    1    3    3  502    0  0.31323016597E+02  0.16597393579E+03  0.32161035852E+02  0.17193839291E+03  0.00000000000E+00 0. -1.
         -3    1    3    3    0  502  0.16485467328E+03  0.78971593386E+03  0.33516655323E+03  0.87359311919E+03  0.00000000000E+00 0.  1.
         11    1    5    5    0    0  0.98059418587E+01 -0.39590757722E+02 -0.22045082597E+02  0.46363458234E+02  0.00000000000E+00 0.  1.
        -11    1    5    5    0    0  0.21061648070E+03 -0.38498464518E+03  0.48563981616E+02  0.44150984052E+03  0.00000000000E+00 0. -1.
          1    1    6    6  503    0 -0.19650133934E+03 -0.27383895219E+03 -0.14962030300E+03  0.36876385827E+03  0.00000000000E+00 0. -1.
         -1    1    6    6    0  503 -0.22009877309E+03 -0.25727551456E+03 -0.25127084745E+03  0.42162921992E+03  0.00000000000E+00 0.  1.
<mgrwt>
<rscale>  0 0.23237872E+04</rscale>
<asrwt>0</asrwt>
<pdfrwt beam="1">  1        2 0.17929558E+00 0.23237872E+04</pdfrwt>
<pdfrwt beam="2">  1       -1 0.17821179E+00 0.23237872E+04</pdfrwt>
<totfact> 0.43939445E+00</totfact>
</mgrwt>
</event>
<event>
12    6  0.1450532E-007  0.1762413E+04  0.7818608E-02  0.8726547E-01
         -1   -1    0    0    0  501 -0.00000000000E+00  0.00000000000E+00  0.74709526187E+03  0.74709526187E+03  0.00000000000E+00 0.  1.
          2   -1    0    0  501    0  0.00000000000E+00 -0.00000000000E+00 -0.10393920946E+04  0.10393920946E+04  0.00000000000E+00 0. -1.
         24    2    1    2    0    0  0.37397517274E+03  0.51162935003E+03 -0.26913193030E+03  0.69303163414E+03  0.78986254267E+02 0.  0.
        254    2    1    2    0    0 -0.37397517274E+03 -0.51162935003E+03 -0.23164902386E+02  0.10934557223E+04  0.89077875045E+03 0.  0.
         23    2    4    4    0    0  0.27492408611E+03 -0.69748117732E+02 -0.50966124536E+02  0.30268952329E+03  0.92603178187E+02 0.  0.
         23    2    4    4    0    0 -0.64889925885E+03 -0.44188123230E+03  0.27801222150E+02  0.79076619899E+03  0.90603542476E+02 0.  0.
          2    1    3    3  502    0  0.89136046444E+02  0.10327570811E+03 -0.92152720279E+02  0.16463058803E+03  0.00000000000E+00 0. -1.
         -1    1    3    3    0  502  0.28483912630E+03  0.40835364193E+03 -0.17697921002E+03  0.52840104610E+03  0.00000000000E+00 0.  1.
         11    1    5    5    0    0  0.17874974728E+03 -0.89675943080E+02 -0.38937194861E+02  0.20373844032E+03  0.00000000000E+00 0. -1.
        -11    1    5    5    0    0  0.96174338835E+02  0.19927825348E+02 -0.12028929675E+02  0.98951082979E+02  0.00000000000E+00 0.  1.
          1    1    6    6  503    0 -0.38201456653E+03 -0.22980614340E+03 -0.21531252774E+02  0.44632901253E+03  0.00000000000E+00 0. -1.
         -1    1    6    6    0  503 -0.26688469233E+03 -0.21207508890E+03  0.49332474924E+02  0.34443718646E+03  0.00000000000E+00 0.  1.
<mgrwt>
<rscale>  0 0.17624130E+04</rscale>
<asrwt>0</asrwt>
<pdfrwt beam="1">  1        2 0.15990648E+00 0.17624130E+04</pdfrwt>
<pdfrwt beam="2">  1       -1 0.11493773E+00 0.17624130E+04</pdfrwt>
<totfact> 0.17651039E+01</totfact>
</mgrwt>
</event>
<event>
12    6  0.1450532E-007  0.1021417E+04  0.7818608E-02  0.9285363E-01
          2   -1    0    0  501    0  0.00000000000E+00  0.00000000000E+00  0.28353608715E+03  0.28353608715E+03  0.00000000000E+00 0. -1.
         -1   -1    0    0    0  501 -0.00000000000E+00 -0.00000000000E+00 -0.91989321187E+03  0.91989321187E+03  0.00000000000E+00 0.  1.
         24    2    1    2    0    0 -0.61319218687E+02  0.47990894075E+02  0.54623151148E+02  0.13041377980E+03  0.89223835521E+02 0.  0.
        254    2    1    2    0    0  0.61319218687E+02 -0.47990894075E+02 -0.69098027587E+03  0.10730155192E+04  0.81721808005E+03 0.  0.
         23    2    4    4    0    0  0.23212001570E+03 -0.17298439407E+03  0.40495803662E+02  0.30601015923E+03  0.90548358109E+02 0.  0.
         23    2    4    4    0    0 -0.17080079701E+03  0.12499349999E+03 -0.73147607953E+03  0.76700536000E+03  0.91889499069E+02 0.  0.
          2    1    3    3  502    0 -0.41895581212E+02  0.53983016272E+02 -0.39167536958E+01  0.68445209697E+02  0.00000000000E+00 0. -1.
         -1    1    3    3    0  502 -0.19423637475E+02 -0.59921221973E+01  0.58539904843E+02  0.61968570100E+02  0.00000000000E+00 0.  1.
         11    1    5    5    0    0  0.10896868201E+03 -0.13522025415E+03  0.34519884497E+02  0.17706019659E+03  0.00000000000E+00 0.  1.
        -11    1    5    5    0    0  0.12315133369E+03 -0.37764139917E+02  0.59759191658E+01  0.12894996263E+03  0.00000000000E+00 0. -1.
          3    1    6    6  503    0 -0.16079588746E+03  0.88982616812E+02 -0.67271252301E+03  0.69736314940E+03  0.00000000000E+00 0. -1.
         -3    1    6    6    0  503 -0.10004909548E+02  0.36010883183E+02 -0.58763556521E+02  0.69642210603E+02  0.00000000000E+00 0.  1.
<mgrwt>
<rscale>  0 0.10214165E+04</rscale>
<asrwt>0</asrwt>
<pdfrwt beam="1">  1        2 0.43620936E-01 0.10214165E+04</pdfrwt>
<pdfrwt beam="2">  1       -1 0.14152203E+00 0.10214165E+04</pdfrwt>
<totfact> 0.54476280E+01</totfact>
</mgrwt>
</event>
<event>
12    6  0.1450532E-007  0.1947719E+04  0.7818608E-02  0.8631461E-01
         -1   -1    0    0    0  501 -0.00000000000E+00  0.00000000000E+00  0.14159770031E+04  0.14159770031E+04  0.00000000000E+00 0.  1.
          2   -1    0    0  501    0  0.00000000000E+00 -0.00000000000E+00 -0.66978682368E+03  0.66978682368E+03  0.00000000000E+00 0. -1.
         24    2    1    2    0    0  0.56807210823E+03 -0.29148267159E+03 -0.15038343595E+03  0.66067048369E+03  0.78754315537E+02 0.  0.
        254    2    1    2    0    0 -0.56807210823E+03  0.29148267159E+03  0.89657361539E+03  0.14250933431E+04  0.90519540474E+03 0.  0.
         23    2    4    4    0    0 -0.25998321960E+03  0.28627822617E+03 -0.71843126502E+02  0.40457300324E+03  0.94717384200E+02 0.  0.
         23    2    4    4    0    0 -0.30808888863E+03  0.52044454215E+01  0.96841674189E+03  0.10205203399E+04  0.93192964108E+02 0.  0.
          2    1    3    3  502    0  0.50315413446E+03 -0.26453899388E+03 -0.10810167086E+03  0.57864577554E+03  0.00000000000E+00 0. -1.
         -1    1    3    3    0  502  0.64917973768E+02 -0.26943677715E+02 -0.42281765090E+02  0.82024708143E+02  0.00000000000E+00 0.  1.
         11    1    5    5    0    0 -0.20226260671E+03  0.27069079769E+03 -0.54152257414E+02  0.34222235025E+03  0.00000000000E+00 0. -1.
        -11    1    5    5    0    0 -0.57720612888E+02  0.15587428481E+02 -0.17690869088E+02  0.62350652987E+02  0.00000000000E+00 0.  1.
          3    1    6    6  503    0 -0.22819029631E+03 -0.22712316049E+02  0.79721125262E+03  0.82953748675E+03  0.00000000000E+00 0. -1.
         -3    1    6    6    0  503 -0.79898592328E+02  0.27916761470E+02  0.17120548928E+03  0.19098285312E+03  0.00000000000E+00 0.  1.
<mgrwt>
<rscale>  0 0.19477194E+04</rscale>
<asrwt>0</asrwt>
<pdfrwt beam="1">  1        2 0.10304413E+00 0.19477194E+04</pdfrwt>
<pdfrwt beam="2">  1       -1 0.21784262E+00 0.19477194E+04</pdfrwt>
<totfact> 0.52492914E+00</totfact>
</mgrwt>
</event>
<event>
12    6  0.1450532E-007  0.1266739E+04  0.7818608E-02  0.9056365E-01
          2   -1    0    0  501    0  0.00000000000E+00  0.00000000000E+00  0.95995075677E+03  0.95995075677E+03  0.00000000000E+00 0. -1.
         -1   -1    0    0    0  501 -0.00000000000E+00 -0.00000000000E+00 -0.41789339302E+03  0.41789339302E+03  0.00000000000E+00 0.  1.
         24    2    1    2    0    0 -0.23795609665E+03  0.16941480701E+03  0.53789527444E+02  0.30742949219E+03  0.79341657631E+02 0.  0.
        254    2    1    2    0    0  0.23795609665E+03 -0.16941480701E+03  0.48826783630E+03  0.10704146576E+04  0.90667390967E+03 0.  0.
         23    2    4    4    0    0  0.16548881097E+03  0.15385083577E+03  0.64704989387E+03  0.69167810958E+03  0.93211672494E+02 0.  0.
         23    2    4    4    0    0  0.72467285688E+02 -0.32326564278E+03 -0.15878205757E+03  0.37873654803E+03  0.92073056353E+02 0.  0.
          2    1    3    3  502    0 -0.60999490180E+02  0.67318689410E+02  0.48687100561E+02  0.10306879987E+03  0.00000000000E+00 0. -1.
         -1    1    3    3    0  502 -0.17695660647E+03  0.10209611760E+03  0.51024268828E+01  0.20436069232E+03  0.00000000000E+00 0.  1.
         11    1    5    5    0    0  0.98710314639E+02  0.75755338553E+02  0.47728828782E+03  0.49324102346E+03  0.00000000000E+00 0.  1.
        -11    1    5    5    0    0  0.66778496327E+02  0.78095497221E+02  0.16976160606E+03  0.19843708612E+03  0.00000000000E+00 0. -1.
          3    1    6    6  503    0  0.38622600883E+02 -0.19475530325E+03 -0.44524526383E+02  0.20347915591E+03  0.00000000000E+00 0. -1.
         -3    1    6    6    0  503  0.33844684805E+02 -0.12851033954E+03 -0.11425753119E+03  0.17525739211E+03  0.00000000000E+00 0.  1.
<mgrwt>
<rscale>  0 0.12667392E+04</rscale>
<asrwt>0</asrwt>
<pdfrwt beam="1">  1        2 0.14768473E+00 0.12667392E+04</pdfrwt>
<pdfrwt beam="2">  1       -1 0.64291291E-01 0.12667392E+04</pdfrwt>
<totfact> 0.73549796E+01</totfact>
</mgrwt>
</event>
<event>
12    6  0.1450532E-007  0.2171833E+04  0.7818608E-02  0.8530244E-01
         -1   -1    0    0    0  501 -0.00000000000E+00  0.00000000000E+00  0.62044698791E+03  0.62044698791E+03  0.00000000000E+00 0.  1.
          2   -1    0    0  501    0  0.00000000000E+00 -0.00000000000E+00 -0.19005888126E+04  0.19005888126E+04  0.00000000000E+00 0. -1.
         24    2    1    2    0    0  0.24783484641E+03  0.39152082016E+03 -0.14227813307E+04  0.14985143150E+04  0.80794637250E+02 0.  0.
        254    2    1    2    0    0 -0.24783484641E+03 -0.39152082016E+03  0.14263950605E+03  0.10225214855E+04  0.90027412267E+03 0.  0.
         23    2    4    4    0    0  0.30555970182E+03 -0.30857062216E+03  0.46295059046E+02  0.44733439366E+03  0.96862103151E+02 0.  0.
         23    2    4    4    0    0 -0.55339454822E+03 -0.82950197997E+02  0.96344447005E+02  0.57518709186E+03  0.91824162501E+02 0.  0.
          4    1    3    3  502    0  0.24239569166E+03  0.38023682094E+03 -0.13183630767E+04  0.13933473771E+04  0.00000000000E+00 0. -1.
         -3    1    3    3    0  502  0.54391547439E+01  0.11283999219E+02 -0.10441825403E+03  0.10516693785E+03  0.00000000000E+00 0.  1.
         11    1    5    5    0    0  0.18054613915E+03 -0.11360679421E+03  0.24063507341E+02  0.21466826602E+03  0.00000000000E+00 0. -1.
        -11    1    5    5    0    0  0.12501356267E+03 -0.19496382795E+03  0.22231551705E+02  0.23266612764E+03  0.00000000000E+00 0.  1.
          3    1    6    6  503    0 -0.61869051757E+02 -0.38506862441E+02  0.21756328381E+02  0.76051928608E+02  0.00000000000E+00 0. -1.
         -3    1    6    6    0  503 -0.49152549647E+03 -0.44443335556E+02  0.74588118624E+02  0.49913516325E+03  0.00000000000E+00 0.  1.
<mgrwt>
<rscale>  0 0.21718330E+04</rscale>
<asrwt>0</asrwt>
<pdfrwt beam="1">  1        2 0.29239827E+00 0.21718330E+04</pdfrwt>
<pdfrwt beam="2">  1       -1 0.95453384E-01 0.21718330E+04</pdfrwt>
<totfact> 0.83829732E+00</totfact>
</mgrwt>
</event>
<event>
12    6  0.1450532E-007  0.1791084E+04  0.7818608E-02  0.8711055E-01
         -1   -1    0    0    0  501 -0.00000000000E+00  0.00000000000E+00  0.51842345902E+03  0.51842345902E+03  0.00000000000E+00 0.  1.
          2   -1    0    0  501    0  0.00000000000E+00 -0.00000000000E+00 -0.15469897566E+04  0.15469897566E+04  0.00000000000E+00 0. -1.
         24    2    1    2    0    0 -0.22130492973E+03  0.59634052207E+03 -0.13642767721E+03  0.65526578145E+03  0.78503777330E+02 0.  0.
        254    2    1    2    0    0  0.22130492973E+03 -0.59634052207E+03 -0.89213862033E+03  0.14101474341E+04  0.88769734591E+03 0.  0.
         23    2    4    4    0    0 -0.21857938260E+02 -0.69021779569E+03 -0.30300695901E+03  0.75966589161E+03  0.91655194713E+02 0.  0.
         23    2    4    4    0    0  0.24316286799E+03  0.93877273627E+02 -0.58913166132E+03  0.65048154252E+03  0.90049985655E+02 0.  0.
          2    1    3    3  502    0 -0.28474669165E+02  0.13037632335E+03 -0.55479054509E+02  0.14452237876E+03  0.00000000000E+00 0. -1.
         -1    1    3    3    0  502 -0.19283026056E+03  0.46596419872E+03 -0.80948622704E+02  0.51074340269E+03  0.00000000000E+00 0.  1.
         11    1    5    5    0    0 -0.54563457536E+02 -0.37267419193E+03 -0.14643019983E+03  0.40411016771E+03  0.00000000000E+00 0.  1.
        -11    1    5    5    0    0  0.32705519276E+02 -0.31754360377E+03 -0.15657675918E+03  0.35555572390E+03  0.00000000000E+00 0. -1.
          1    1    6    6  503    0  0.21275750536E+03  0.11010485899E+03 -0.53668735516E+03  0.58772625707E+03  0.00000000000E+00 0. -1.
         -1    1    6    6    0  503  0.30405362629E+02 -0.16227585364E+02 -0.52444306166E+02  0.62755285455E+02  0.00000000000E+00 0.  1.
<mgrwt>
<rscale>  0 0.17910843E+04</rscale>
<asrwt>0</asrwt>
<pdfrwt beam="1">  1        2 0.23799843E+00 0.17910843E+04</pdfrwt>
<pdfrwt beam="2">  1       -1 0.79757454E-01 0.17910843E+04</pdfrwt>
<totfact> 0.20182561E+01</totfact>
</mgrwt>
</event>
<event>
12    6  0.1450532E-007  0.1807372E+04  0.7818608E-02  0.8702389E-01
         -1   -1    0    0    0  501 -0.00000000000E+00  0.00000000000E+00  0.80064794708E+03  0.80064794708E+03  0.00000000000E+00 0.  1.
          2   -1    0    0  501    0  0.00000000000E+00 -0.00000000000E+00 -0.10199842509E+04  0.10199842509E+04  0.00000000000E+00 0. -1.
         24    2    1    2    0    0 -0.32875629043E+03 -0.12503821312E+03 -0.66448082357E+03  0.75605354867E+03  0.79793172162E+02 0.  0.
        254    2    1    2    0    0  0.32875629043E+03  0.12503821312E+03  0.44514451971E+03  0.10645786494E+04  0.90081008209E+03 0.  0.
         23    2    4    4    0    0 -0.21200946814E+03  0.28950462448E+03  0.61530660084E+02  0.37482319386E+03  0.89137322992E+02 0.  0.
         23    2    4    4    0    0  0.54076575857E+03 -0.16446641136E+03  0.38361385962E+03  0.68975545550E+03  0.95531089112E+02 0.  0.
          2    1    3    3  502    0 -0.18929868709E+03 -0.68922735777E+02 -0.46074949594E+03  0.50286621924E+03  0.00000000000E+00 0. -1.
         -1    1    3    3    0  502 -0.13945760334E+03 -0.56115477340E+02 -0.20373132763E+03  0.25318732943E+03  0.00000000000E+00 0.  1.
         11    1    5    5    0    0 -0.13412660384E+03  0.11016023695E+03  0.40002111810E+02  0.17811623343E+03  0.00000000000E+00 0. -1.
        -11    1    5    5    0    0 -0.77882864293E+02  0.17934438753E+03  0.21528548275E+02  0.19670696043E+03  0.00000000000E+00 0.  1.
          1    1    6    6  503    0  0.28649356686E+02 -0.15572932492E+02  0.53129693911E+02  0.62338320799E+02  0.00000000000E+00 0. -1.
         -1    1    6    6    0  503  0.51211640188E+03 -0.14889347887E+03  0.33048416571E+03  0.62741713470E+03  0.00000000000E+00 0.  1.
<mgrwt>
<rscale>  0 0.18073719E+04</rscale>
<asrwt>0</asrwt>
<pdfrwt beam="1">  1        2 0.15692065E+00 0.18073719E+04</pdfrwt>
<pdfrwt beam="2">  1       -1 0.12317661E+00 0.18073719E+04</pdfrwt>
<totfact> 0.15281679E+01</totfact>
</mgrwt>
</event>
<event>
12    6  0.1450532E-007  0.1648007E+04  0.7818608E-02  0.8791586E-01
          2   -1    0    0  501    0  0.00000000000E+00  0.00000000000E+00  0.29956921772E+04  0.29956921772E+04  0.00000000000E+00 0. -1.
         -1   -1    0    0    0  501 -0.00000000000E+00 -0.00000000000E+00 -0.22665283892E+03  0.22665283892E+03  0.00000000000E+00 0.  1.
         24    2    1    2    0    0  0.14472036024E+02  0.53929834821E+03  0.59228465675E+03  0.80522880431E+03  0.80871283200E+02 0.  0.
        254    2    1    2    0    0 -0.14472036024E+02 -0.53929834821E+03  0.21767546815E+04  0.24171162118E+04  0.90174147606E+03 0.  0.
         23    2    4    4    0    0  0.22767878697E+03 -0.47862296201E+03  0.55061940829E+03  0.76939833566E+03  0.88738358868E+02 0.  0.
         23    2    4    4    0    0 -0.24215082299E+03 -0.60675386206E+02  0.16261352732E+04  0.16477178762E+04  0.91322225968E+02 0.  0.
          2    1    3    3  502    0  0.48628016174E+01  0.11427025620E+03  0.17828154931E+03  0.21181512958E+03  0.00000000000E+00 0. -1.
         -1    1    3    3    0  502  0.96092344070E+01  0.42502809202E+03  0.41400310744E+03  0.59341367473E+03  0.00000000000E+00 0.  1.
         11    1    5    5    0    0  0.36888137497E+02 -0.50649248228E+02  0.31677382742E+02  0.70210665938E+02  0.00000000000E+00 0.  1.
        -11    1    5    5    0    0  0.19079064947E+03 -0.42797371378E+03  0.51894202555E+03  0.69918766972E+03  0.00000000000E+00 0. -1.
          4    1    6    6  503    0 -0.19314794475E+03 -0.62775095273E+02  0.10474348928E+04  0.10669426863E+04  0.00000000000E+00 0. -1.
         -4    1    6    6    0  503 -0.49002878237E+02  0.20997090672E+01  0.57870038041E+03  0.58077518984E+03  0.00000000000E+00 0.  1.
<mgrwt>
<rscale>  0 0.16480074E+04</rscale>
<asrwt>0</asrwt>
<pdfrwt beam="1">  1        2 0.46087569E+00 0.16480074E+04</pdfrwt>
<pdfrwt beam="2">  1       -1 0.34869670E-01 0.16480074E+04</pdfrwt>
<totfact> 0.14969382E+01</totfact>
</mgrwt>
</event>
<event>
12    6  0.1450532E-007  0.1933253E+04  0.7818608E-02  0.8638479E-01
         -1   -1    0    0    0  501 -0.00000000000E+00  0.00000000000E+00  0.49445615128E+03  0.49445615128E+03  0.00000000000E+00 0.  1.
          2   -1    0    0  501    0  0.00000000000E+00 -0.00000000000E+00 -0.18896854546E+04  0.18896854546E+04  0.00000000000E+00 0. -1.
         24    2    1    2    0    0  0.45425128121E+03  0.40105056155E+03 -0.11210100619E+04  0.12768546809E+04  0.80675510391E+02 0.  0.
        254    2    1    2    0    0 -0.45425128121E+03 -0.40105056155E+03 -0.27421924144E+03  0.11072869249E+04  0.88526965518E+03 0.  0.
         23    2    4    4    0    0 -0.36516984799E+02  0.26166007529E+03 -0.11709077777E+03  0.30278353386E+03  0.90377723801E+02 0.  0.
         23    2    4    4    0    0 -0.41773429641E+03 -0.66271063684E+03 -0.15712846367E+03  0.80450339109E+03  0.94069238322E+02 0.  0.
          2    1    3    3  502    0  0.30931591228E+03  0.28908433275E+03 -0.70574283565E+03  0.82299394597E+03  0.00000000000E+00 0. -1.
         -1    1    3    3    0  502  0.14493536893E+03  0.11196622880E+03 -0.41526722623E+03  0.45386073496E+03  0.00000000000E+00 0.  1.
         11    1    5    5    0    0 -0.37893721573E+02  0.10466627104E+03 -0.79962970809E+01  0.11160153760E+03  0.00000000000E+00 0. -1.
        -11    1    5    5    0    0  0.13767367741E+01  0.15699380425E+03 -0.10909448069E+03  0.19118199626E+03  0.00000000000E+00 0.  1.
          3    1    6    6  503    0 -0.10535944217E+03 -0.25069575426E+03 -0.50807986364E+02  0.27664132868E+03  0.00000000000E+00 0. -1.
         -3    1    6    6    0  503 -0.31237485424E+03 -0.41201488258E+03 -0.10632047730E+03  0.52786206240E+03  0.00000000000E+00 0.  1.
<mgrwt>
<rscale>  0 0.19332528E+04</rscale>
<asrwt>0</asrwt>
<pdfrwt beam="1">  1        2 0.29072084E+00 0.19332528E+04</pdfrwt>
<pdfrwt beam="2">  1       -1 0.76070177E-01 0.19332528E+04</pdfrwt>
<totfact> 0.14202928E+01</totfact>
</mgrwt>
</event>
<event>
12    6  0.1450532E-007  0.1681277E+04  0.7818608E-02  0.8772115E-01
          2   -1    0    0  501    0  0.00000000000E+00  0.00000000000E+00  0.88484001765E+03  0.88484001765E+03  0.00000000000E+00 0. -1.
         -1   -1    0    0    0  501 -0.00000000000E+00 -0.00000000000E+00 -0.79864503626E+03  0.79864503626E+03  0.00000000000E+00 0.  1.
         24    2    1    2    0    0  0.81032638338E+01 -0.16113351711E+03 -0.52805042080E+03  0.55729555557E+03  0.75573911696E+02 0.  0.
        254    2    1    2    0    0 -0.81032638338E+01  0.16113351711E+03  0.61424540220E+03  0.11261894983E+04  0.93004069740E+03 0.  0.
         23    2    4    4    0    0  0.39245404928E+03  0.33843849620E+02  0.56238015541E+03  0.69261784100E+03  0.91007953069E+02 0.  0.
         23    2    4    4    0    0 -0.40055731311E+03  0.12728966749E+03  0.51865246795E+02  0.43357165734E+03  0.92981491093E+02 0.  0.
          4    1    3    3  502    0 -0.18030568089E+02 -0.11693668974E+02 -0.31854149093E+02  0.38425643705E+02  0.00000000000E+00 0. -1.
         -3    1    3    3    0  502  0.26133831923E+02 -0.14943984813E+03 -0.49619627171E+03  0.51886991186E+03  0.00000000000E+00 0.  1.
         11    1    5    5    0    0  0.28581496112E+03  0.23432391207E+02  0.47272939935E+03  0.55291260970E+03  0.00000000000E+00 0. -1.
        -11    1    5    5    0    0  0.10663908816E+03  0.10411458413E+02  0.89650756054E+02  0.13970523130E+03  0.00000000000E+00 0.  1.
          1    1    6    6  503    0 -0.39057707936E+03  0.12319472730E+03  0.31784729276E+02  0.41077690389E+03  0.00000000000E+00 0. -1.
         -1    1    6    6    0  503 -0.99802337510E+01  0.40949401914E+01  0.20080517519E+02  0.22794753447E+02  0.00000000000E+00 0.  1.
<mgrwt>
<rscale>  0 0.16812770E+04</rscale>
<asrwt>0</asrwt>
<pdfrwt beam="1">  1        2 0.13612923E+00 0.16812770E+04</pdfrwt>
<pdfrwt beam="2">  1       -1 0.12286847E+00 0.16812770E+04</pdfrwt>
<totfact> 0.19077212E+01</totfact>
</mgrwt>
</event>
<event>
12    6  0.1450532E-007  0.1684810E+04  0.7818608E-02  0.8770076E-01
         -1   -1    0    0    0  501 -0.00000000000E+00  0.00000000000E+00  0.77423657863E+03  0.77423657863E+03  0.00000000000E+00 0.  1.
          2   -1    0    0  501    0  0.00000000000E+00 -0.00000000000E+00 -0.91657500128E+03  0.91657500128E+03  0.00000000000E+00 0. -1.
         24    2    1    2    0    0 -0.40952999005E+03  0.43331820048E+03 -0.86641337619E+02  0.60756068880E+03  0.78382354974E+02 0.  0.
        254    2    1    2    0    0  0.40952999005E+03 -0.43331820048E+03 -0.55697085034E+02  0.10832508911E+04  0.90269089515E+03 0.  0.
         23    2    4    4    0    0  0.59023985888E+03 -0.13901645260E+03 -0.26790604202E+03  0.66797910522E+03  0.81937613807E+02 0.  0.
         23    2    4    4    0    0 -0.18070986883E+03 -0.29430174788E+03  0.21220895698E+03  0.41527178589E+03  0.90268705733E+02 0.  0.
          4    1    3    3  502    0 -0.25260560653E+03  0.25127512754E+03 -0.88839105006E+02  0.36720725584E+03  0.00000000000E+00 0. -1.
         -3    1    3    3    0  502 -0.15692438352E+03  0.18204307295E+03  0.21977673864E+01  0.24035343296E+03  0.00000000000E+00 0.  1.
         11    1    5    5    0    0  0.21823146808E+03 -0.67555788477E+02 -0.61483020816E+02  0.23657751387E+03  0.00000000000E+00 0. -1.
        -11    1    5    5    0    0  0.37200839079E+03 -0.71460664123E+02 -0.20642302120E+03  0.43140159135E+03  0.00000000000E+00 0.  1.
          1    1    6    6  503    0 -0.13662389204E+03 -0.15840762244E+03  0.91846238582E+02  0.22846180045E+03  0.00000000000E+00 0. -1.
         -1    1    6    6    0  503 -0.44085976786E+02 -0.13589412545E+03  0.12036271840E+03  0.18680998544E+03  0.00000000000E+00 0.  1.
<mgrwt>
<rscale>  0 0.16848097E+04</rscale>
<asrwt>0</asrwt>
<pdfrwt beam="1">  1        2 0.14101154E+00 0.16848097E+04</pdfrwt>
<pdfrwt beam="2">  1       -1 0.11911332E+00 0.16848097E+04</pdfrwt>
<totfact> 0.19590161E+01</totfact>
</mgrwt>
</event>
<event>
12    6  0.1450532E-007  0.2323517E+04  0.7818608E-02  0.8468706E-01
         -1   -1    0    0    0  501 -0.00000000000E+00  0.00000000000E+00  0.33055111048E+03  0.33055111048E+03  0.00000000000E+00 0.  1.
          2   -1    0    0  501    0  0.00000000000E+00 -0.00000000000E+00 -0.40831301150E+04  0.40831301150E+04  0.00000000000E+00 0. -1.
         24    2    1    2    0    0  0.66688778726E+03 -0.69447021124E+03 -0.11925759897E+04  0.15347707808E+04  0.79092752307E+02 0.  0.
        254    2    1    2    0    0 -0.66688778726E+03  0.69447021124E+03 -0.25600030149E+04  0.28789104447E+04  0.89859986487E+03 0.  0.
         23    2    4    4    0    0  0.12829219695E+03 -0.85814376911E+02 -0.55388734863E+03  0.58219743572E+03  0.91321761411E+02 0.  0.
         23    2    4    4    0    0 -0.79517998421E+03  0.78028458816E+03 -0.20061156662E+04  0.22967130089E+04  0.96100641444E+02 0.  0.
          2    1    3    3  502    0  0.45490336990E+03 -0.50891879865E+03 -0.80125921499E+03  0.10525928696E+04  0.00000000000E+00 0. -1.
         -1    1    3    3    0  502  0.21198441736E+03 -0.18555141259E+03 -0.39131677468E+03  0.48217791122E+03  0.00000000000E+00 0.  1.
         11    1    5    5    0    0  0.79754828830E+02 -0.10048210722E+03 -0.41284784467E+03  0.43232028572E+03  0.00000000000E+00 0.  1.
        -11    1    5    5    0    0  0.48537368124E+02  0.14667730312E+02 -0.14103950395E+03  0.14987715000E+03  0.00000000000E+00 0. -1.
          4    1    6    6  503    0 -0.26834932940E+03  0.22576701330E+03 -0.70566927201E+03  0.78800458650E+03  0.00000000000E+00 0. -1.
         -4    1    6    6    0  503 -0.52683065481E+03  0.55451757486E+03 -0.13004463942E+04  0.15087084224E+04  0.00000000000E+00 0.  1.
<mgrwt>
<rscale>  0 0.23235173E+04</rscale>
<asrwt>0</asrwt>
<pdfrwt beam="1">  1        2 0.62817383E+00 0.23235173E+04</pdfrwt>
<pdfrwt beam="2">  1       -1 0.50854020E-01 0.23235173E+04</pdfrwt>
<totfact> 0.11766247E+00</totfact>
</mgrwt>
</event>
<event>
12    6  0.1450532E-007  0.1422668E+04  0.7818608E-02  0.8937572E-01
         -1   -1    0    0    0  501 -0.00000000000E+00  0.00000000000E+00  0.62201384242E+03  0.62201384242E+03  0.00000000000E+00 0.  1.
          2   -1    0    0  501    0  0.00000000000E+00 -0.00000000000E+00 -0.81348029112E+03  0.81348029112E+03  0.00000000000E+00 0. -1.
         24    2    1    2    0    0 -0.32450469594E+03 -0.18785692072E+03  0.15163306742E+03  0.41224047618E+03  0.79725169908E+02 0.  0.
        254    2    1    2    0    0  0.32450469594E+03  0.18785692072E+03 -0.34309951612E+03  0.10232536574E+04  0.88810880471E+03 0.  0.
         23    2    4    4    0    0 -0.20434758808E+03  0.33410378687E+03 -0.90883151426E+02  0.41237401999E+03  0.91702279100E+02 0.  0.
         23    2    4    4    0    0  0.52885228402E+03 -0.14624686614E+03 -0.25221636469E+03  0.61087963738E+03  0.92130085061E+02 0.  0.
          4    1    3    3  502    0 -0.18333811301E+02  0.62878176308E+01  0.29517323461E+00  0.19384334257E+02  0.00000000000E+00 0. -1.
         -3    1    3    3    0  502 -0.30617088464E+03 -0.19414473836E+03  0.15133789419E+03  0.39285614192E+03  0.00000000000E+00 0.  1.
         11    1    5    5    0    0 -0.11283960947E+03  0.10344666903E+03 -0.20561912792E+02  0.15445641151E+03  0.00000000000E+00 0.  1.
        -11    1    5    5    0    0 -0.91507978612E+02  0.23065711784E+03 -0.70321238634E+02  0.25791760848E+03  0.00000000000E+00 0. -1.
          1    1    6    6  503    0  0.24550942155E+03 -0.10022349584E+03 -0.83991689210E+02  0.27816223511E+03  0.00000000000E+00 0. -1.
         -1    1    6    6    0  503  0.28334286247E+03 -0.46023370306E+02 -0.16822467548E+03  0.33271740226E+03  0.00000000000E+00 0.  1.
<mgrwt>
<rscale>  0 0.14226679E+04</rscale>
<asrwt>0</asrwt>
<pdfrwt beam="1">  1        2 0.12515081E+00 0.14226679E+04</pdfrwt>
<pdfrwt beam="2">  1       -1 0.95694437E-01 0.14226679E+04</pdfrwt>
<totfact> 0.39377561E+01</totfact>
</mgrwt>
</event>
<event>
12    6  0.1450532E-007  0.1988348E+04  0.7818608E-02  0.8612088E-01
          2   -1    0    0  501    0  0.00000000000E+00  0.00000000000E+00  0.37495670211E+03  0.37495670211E+03  0.00000000000E+00 0. -1.
         -1   -1    0    0    0  501 -0.00000000000E+00 -0.00000000000E+00 -0.26359908187E+04  0.26359908187E+04  0.00000000000E+00 0.  1.
         24    2    1    2    0    0 -0.25264032414E+03  0.26176619166E+02  0.23087660711E+03  0.35236187312E+03  0.79640022295E+02 0.  0.
        254    2    1    2    0    0  0.25264032414E+03 -0.26176619166E+02 -0.24919107237E+04  0.26585856477E+04  0.89103661114E+03 0.  0.
         23    2    4    4    0    0  0.50024461310E+03  0.22053920737E+03 -0.13119103791E+04  0.14245148442E+04  0.96184632661E+02 0.  0.
         23    2    4    4    0    0 -0.24760428896E+03 -0.24671582654E+03 -0.11800003446E+04  0.12340708035E+04  0.91396672996E+02 0.  0.
          4    1    3    3  502    0 -0.16406584696E+03  0.50933253918E+02  0.12709616947E+03  0.21369425539E+03  0.00000000000E+00 0. -1.
         -3    1    3    3    0  502 -0.88574477179E+02 -0.24756634753E+02  0.10378043764E+03  0.13866761773E+03  0.00000000000E+00 0.  1.
         11    1    5    5    0    0  0.10926301637E+01 -0.30669405633E+01 -0.38173654916E+02  0.38312242100E+02  0.00000000000E+00 0. -1.
        -11    1    5    5    0    0  0.49915198294E+03  0.22360614794E+03 -0.12737367242E+04  0.13862026021E+04  0.00000000000E+00 0.  1.
          4    1    6    6  503    0 -0.18819558347E+02  0.40850760980E+01 -0.10469981830E+03  0.10645616738E+03  0.00000000000E+00 0. -1.
         -4    1    6    6    0  503 -0.22878473062E+03 -0.25080090264E+03 -0.10753005263E+04  0.11276146361E+04  0.00000000000E+00 0.  1.
<mgrwt>
<rscale>  0 0.19883485E+04</rscale>
<asrwt>0</asrwt>
<pdfrwt beam="1">  1        2 0.57685646E-01 0.19883485E+04</pdfrwt>
<pdfrwt beam="2">  1       -1 0.40553705E+00 0.19883485E+04</pdfrwt>
<totfact> 0.59715524E-01</totfact>
</mgrwt>
</event>
<event>
12    6  0.1450532E-007  0.1429504E+04  0.7818608E-02  0.8932735E-01
         -1   -1    0    0    0  501 -0.00000000000E+00  0.00000000000E+00  0.27492942289E+03  0.27492942289E+03  0.00000000000E+00 0.  1.
          2   -1    0    0  501    0  0.00000000000E+00 -0.00000000000E+00 -0.18581868243E+04  0.18581868243E+04  0.00000000000E+00 0. -1.
         24    2    1    2    0    0  0.98257414000E+02  0.36416413847E+03 -0.16936491718E+03  0.42122111479E+03  0.80453174063E+02 0.  0.
        254    2    1    2    0    0 -0.98257414000E+02 -0.36416413847E+03 -0.14138924842E+04  0.17118951324E+04  0.88838220844E+03 0.  0.
         23    2    4    4    0    0 -0.33835411431E+02 -0.61517258270E+03 -0.12387050538E+04  0.13866399790E+04  0.93798079135E+02 0.  0.
         23    2    4    4    0    0 -0.64422002569E+02  0.25100844423E+03 -0.17518743044E+03  0.32525515337E+03  0.89133862918E+02 0.  0.
          4    1    3    3  502    0  0.59887807435E+02  0.22446857746E+03 -0.14624601423E+03  0.27451883073E+03  0.00000000000E+00 0. -1.
         -3    1    3    3    0  502  0.38369606565E+02  0.13969556101E+03 -0.23118902949E+02  0.14670228406E+03  0.00000000000E+00 0.  1.
         11    1    5    5    0    0 -0.43515110773E+01 -0.45117859310E+03 -0.81886629795E+03  0.93494549169E+03  0.00000000000E+00 0. -1.
        -11    1    5    5    0    0 -0.29483900354E+02 -0.16399398960E+03 -0.41983875584E+03  0.45169448736E+03  0.00000000000E+00 0.  1.
          1    1    6    6  503    0 -0.23539680981E+02  0.14766347437E+03 -0.14896334147E+03  0.21106561858E+03  0.00000000000E+00 0. -1.
         -1    1    6    6    0  503 -0.40882321588E+02  0.10334496985E+03 -0.26224088972E+02  0.11418953478E+03  0.00000000000E+00 0.  1.
<mgrwt>
<rscale>  0 0.14295037E+04</rscale>
<asrwt>0</asrwt>
<pdfrwt beam="1">  1        2 0.28587489E+00 0.14295037E+04</pdfrwt>
<pdfrwt beam="2">  1       -1 0.42296835E-01 0.14295037E+04</pdfrwt>
<totfact> 0.48714307E+01</totfact>
</mgrwt>
</event>
<event>
12    6  0.1450532E-007  0.3353538E+04  0.7818608E-02  0.8149405E-01
         -3   -1    0    0    0  501 -0.00000000000E+00  0.00000000000E+00  0.15130242687E+04  0.15130242687E+04  0.00000000000E+00 0.  1.
          4   -1    0    0  501    0  0.00000000000E+00 -0.00000000000E+00 -0.18582344055E+04  0.18582344055E+04  0.00000000000E+00 0. -1.
         24    2    1    2    0    0 -0.14883756133E+04  0.43285085809E+03 -0.28606706876E+03  0.15779351854E+04  0.73642717557E+02 0.  0.
        254    2    1    2    0    0  0.14883756133E+04 -0.43285085809E+03 -0.59143068023E+02  0.17933234888E+04  0.89993855429E+03 0.  0.
         23    2    4    4    0    0  0.27353159909E+03 -0.22361646417E+03 -0.36896832651E+03  0.51898112637E+03  0.91541929285E+02 0.  0.
         23    2    4    4    0    0  0.12148440142E+04 -0.20923439391E+03  0.30982525849E+03  0.12743423625E+04  0.91278450376E+02 0.  0.
          4    1    3    3  502    0 -0.11246317672E+03  0.25489873887E+02 -0.39906307913E+02  0.12202546128E+03  0.00000000000E+00 0. -1.
         -3    1    3    3    0  502 -0.13759124366E+04  0.40736098420E+03 -0.24616076085E+03  0.14559097241E+04  0.00000000000E+00 0.  1.
         11    1    5    5    0    0  0.63944330817E+02 -0.10305886268E+03 -0.98935388449E+02  0.15651906500E+03  0.00000000000E+00 0.  1.
        -11    1    5    5    0    0  0.20958726827E+03 -0.12055760149E+03 -0.27003293806E+03  0.36246206137E+03  0.00000000000E+00 0. -1.
          4    1    6    6  503    0  0.11224094365E+04 -0.16981490087E+03  0.29377105074E+03  0.11725789841E+04  0.00000000000E+00 0. -1.
         -4    1    6    6    0  503  0.92434577665E+02 -0.39419493040E+02  0.16054207746E+02  0.10176337831E+03  0.00000000000E+00 0.  1.
<mgrwt>
<rscale>  0 0.33535377E+04</rscale>
<asrwt>0</asrwt>
<pdfrwt beam="1">  1        4 0.28588221E+00 0.33535377E+04</pdfrwt>
<pdfrwt beam="2">  1       -3 0.23277297E+00 0.33535377E+04</pdfrwt>
<totfact> 0.65499212E-03</totfact>
</mgrwt>
</event>
<event>
12    6  0.1450532E-007  0.3084493E+04  0.7818608E-02  0.8220007E-01
         -1   -1    0    0    0  501 -0.00000000000E+00  0.00000000000E+00  0.12990645927E+04  0.12990645927E+04  0.00000000000E+00 0.  1.
          2   -1    0    0  501    0  0.00000000000E+00 -0.00000000000E+00 -0.18309517609E+04  0.18309517609E+04  0.00000000000E+00 0. -1.
         24    2    1    2    0    0 -0.10619615265E+04  0.15717160519E+03  0.68627851330E+03  0.12767077121E+04  0.80865239861E+02 0.  0.
        254    2    1    2    0    0  0.10619615265E+04 -0.15717160519E+03 -0.12181656815E+04  0.18533086415E+04  0.89350998635E+03 0.  0.
         23    2    4    4    0    0  0.10049141054E+04  0.18506178222E+03 -0.10063090027E+04  0.14369831807E+04  0.90347275541E+02 0.  0.
         23    2    4    4    0    0  0.57047421082E+02 -0.34223338741E+03 -0.21185667884E+03  0.41632546079E+03  0.89808336053E+02 0.  0.
          4    1    3    3  502    0 -0.30651400811E+03  0.23463496094E+02  0.16194904861E+03  0.34746059800E+03  0.00000000000E+00 0. -1.
         -3    1    3    3    0  502 -0.75544751838E+03  0.13370810910E+03  0.52432946470E+03  0.92924711408E+03  0.00000000000E+00 0.  1.
         11    1    5    5    0    0  0.88070194025E+03  0.15642285742E+03 -0.83671165639E+03  0.12248226050E+04  0.00000000000E+00 0. -1.
        -11    1    5    5    0    0  0.12421216516E+03  0.28638924800E+02 -0.16959734628E+03  0.21216057563E+03  0.00000000000E+00 0.  1.
          2    1    6    6  503    0  0.11370720372E+02 -0.19002551248E+03 -0.68529142765E+02  0.20232457113E+03  0.00000000000E+00 0. -1.
         -2    1    6    6    0  503  0.45676700710E+02 -0.15220787493E+03 -0.14332753607E+03  0.21400088966E+03  0.00000000000E+00 0.  1.
<mgrwt>
<rscale>  0 0.30844932E+04</rscale>
<asrwt>0</asrwt>
<pdfrwt beam="1">  1        2 0.28168488E+00 0.30844932E+04</pdfrwt>
<pdfrwt beam="2">  1       -1 0.19985609E+00 0.30844932E+04</pdfrwt>
<totfact> 0.12102860E+00</totfact>
</mgrwt>
</event>
<event>
12    6  0.1450532E-007  0.2780044E+04  0.7818608E-02  0.8309491E-01
          2   -1    0    0  501    0  0.00000000000E+00  0.00000000000E+00  0.11968634394E+04  0.11968634394E+04  0.00000000000E+00 0. -1.
         -1   -1    0    0    0  501 -0.00000000000E+00 -0.00000000000E+00 -0.16143538783E+04  0.16143538783E+04  0.00000000000E+00 0.  1.
         24    2    1    2    0    0 -0.71700166809E+03  0.17879630578E+03  0.81694592681E+03  0.11045473059E+04  0.81022173558E+02 0.  0.
        254    2    1    2    0    0  0.71700166809E+03 -0.17879630578E+03 -0.12344363657E+04  0.17066700119E+04  0.91805766557E+03 0.  0.
         23    2    4    4    0    0  0.45091327008E+03 -0.54712695366E+03 -0.75648947369E+03  0.10409359999E+04  0.92740236972E+02 0.  0.
         23    2    4    4    0    0  0.26608839800E+03  0.36833064789E+03 -0.47794689204E+03  0.66573401194E+03  0.91093585473E+02 0.  0.
          2    1    3    3  502    0 -0.59644633528E+03  0.11662112853E+03  0.66686943656E+03  0.90225471121E+03  0.00000000000E+00 0. -1.
         -1    1    3    3    0  502 -0.12055533281E+03  0.62175177243E+02  0.15007649025E+03  0.20229259467E+03  0.00000000000E+00 0.  1.
         11    1    5    5    0    0  0.17802582882E+03 -0.27692836701E+03 -0.38605015106E+03  0.50736302124E+03  0.00000000000E+00 0. -1.
        -11    1    5    5    0    0  0.27288744126E+03 -0.27019858665E+03 -0.37043932263E+03  0.53357297868E+03  0.00000000000E+00 0.  1.
          4    1    6    6  503    0  0.21139820104E+03  0.21951628657E+03 -0.30689630163E+03  0.43250657733E+03  0.00000000000E+00 0. -1.
         -4    1    6    6    0  503  0.54690196965E+02  0.14881436131E+03 -0.17105059040E+03  0.23322743461E+03  0.00000000000E+00 0.  1.
<mgrwt>
<rscale>  0 0.27800440E+04</rscale>
<asrwt>0</asrwt>
<pdfrwt beam="1">  1        2 0.18413284E+00 0.27800440E+04</pdfrwt>
<pdfrwt beam="2">  1       -1 0.24836213E+00 0.27800440E+04</pdfrwt>
<totfact> 0.13499623E+00</totfact>
</mgrwt>
</event>
<event>
12    6  0.1450532E-007  0.2058091E+04  0.7818608E-02  0.8579933E-01
          2   -1    0    0  501    0  0.00000000000E+00  0.00000000000E+00  0.64286221475E+03  0.64286221475E+03  0.00000000000E+00 0. -1.
         -1   -1    0    0    0  501 -0.00000000000E+00 -0.00000000000E+00 -0.16472190058E+04  0.16472190058E+04  0.00000000000E+00 0.  1.
         24    2    1    2    0    0 -0.82368830139E+03  0.12878735673E+03 -0.40979055183E+03  0.93239331455E+03  0.79877378184E+02 0.  0.
        254    2    1    2    0    0  0.82368830139E+03 -0.12878735673E+03 -0.59456623920E+03  0.13576879060E+04  0.89149247676E+03 0.  0.
         23    2    4    4    0    0 -0.37156870367E+02 -0.19752634285E+02 -0.46574293876E+03  0.47571189120E+03  0.87261210422E+02 0.  0.
         23    2    4    4    0    0  0.86084517176E+03 -0.10903472244E+03 -0.12882330043E+03  0.88197601477E+03  0.91341488128E+02 0.  0.
          2    1    3    3  502    0 -0.76641579286E+03  0.11188305501E+03 -0.40050497697E+03  0.87196056225E+03  0.00000000000E+00 0. -1.
         -1    1    3    3    0  502 -0.57272508534E+02  0.16904301717E+02 -0.92855748651E+01  0.60432752303E+02  0.00000000000E+00 0.  1.
         11    1    5    5    0    0  0.18409528655E+02  0.19663699008E+02 -0.17718605769E+03  0.17922184812E+03  0.00000000000E+00 0. -1.
        -11    1    5    5    0    0 -0.55566399021E+02 -0.39416333293E+02 -0.28855688107E+03  0.29649004308E+03  0.00000000000E+00 0.  1.
          3    1    6    6  503    0  0.21634665263E+03 -0.47869369302E+02  0.15501019095E+01  0.22158464170E+03  0.00000000000E+00 0. -1.
         -3    1    6    6    0  503  0.64449851913E+03 -0.61165353140E+02 -0.13037340234E+03  0.66039137307E+03  0.00000000000E+00 0.  1.
<mgrwt>
<rscale>  0 0.20580912E+04</rscale>
<asrwt>0</asrwt>
<pdfrwt beam="1">  1        2 0.98901881E-01 0.20580912E+04</pdfrwt>
<pdfrwt beam="2">  1       -1 0.25341830E+00 0.20580912E+04</pdfrwt>
<totfact> 0.31868569E+00</totfact>
</mgrwt>
</event>
<event>
12    6  0.1450532E-007  0.1163780E+04  0.7818608E-02  0.9145164E-01
          2   -1    0    0  501    0  0.00000000000E+00  0.00000000000E+00  0.66792968386E+03  0.66792968386E+03  0.00000000000E+00 0. -1.
         -1   -1    0    0    0  501 -0.00000000000E+00 -0.00000000000E+00 -0.50693390329E+03  0.50693390329E+03  0.00000000000E+00 0.  1.
         24    2    1    2    0    0  0.39910356791E+02  0.14441791889E+03 -0.12429540061E+03  0.20890349486E+03  0.75775666790E+02 0.  0.
        254    2    1    2    0    0 -0.39910356791E+02 -0.14441791889E+03  0.28529118118E+03  0.96596009228E+03  0.91062531809E+03 0.  0.
         23    2    4    4    0    0 -0.11850842980E+02 -0.51332514604E+03  0.61140111727E+02  0.52521697802E+03  0.92041364085E+02 0.  0.
         23    2    4    4    0    0 -0.28059513812E+02  0.36890722715E+03  0.22415106945E+03  0.44074311426E+03  0.84444729084E+02 0.  0.
          4    1    3    3  502    0  0.21874998069E+02  0.39202911817E+01 -0.34990290653E+02  0.41451232351E+02  0.00000000000E+00 0. -1.
         -3    1    3    3    0  502  0.18035358722E+02  0.14049762771E+03 -0.89305109957E+02  0.16745226251E+03  0.00000000000E+00 0.  1.
         11    1    5    5    0    0 -0.44083162274E+02 -0.21701940446E+03  0.25885339662E+01  0.22146658352E+03  0.00000000000E+00 0.  1.
        -11    1    5    5    0    0  0.32232319295E+02 -0.29630574158E+03  0.58551577760E+02  0.30375039450E+03  0.00000000000E+00 0. -1.
          1    1    6    6  503    0 -0.22770312689E+02  0.76795482033E+02  0.15141734065E+02  0.81518742085E+02  0.00000000000E+00 0. -1.
         -1    1    6    6    0  503 -0.52892011226E+01  0.29211174512E+03  0.20900933539E+03  0.35922437217E+03  0.00000000000E+00 0.  1.
<mgrwt>
<rscale>  0 0.11637804E+04</rscale>
<asrwt>0</asrwt>
<pdfrwt beam="1">  1        2 0.10275841E+00 0.11637804E+04</pdfrwt>
<pdfrwt beam="2">  1       -1 0.77989832E-01 0.11637804E+04</pdfrwt>
<totfact> 0.80900599E+01</totfact>
</mgrwt>
</event>
<event>
12    6  0.1450532E-007  0.2183579E+04  0.7818608E-02  0.8525294E-01
          2   -1    0    0  501    0  0.00000000000E+00  0.00000000000E+00  0.12869245850E+04  0.12869245850E+04  0.00000000000E+00 0. -1.
         -1   -1    0    0    0  501 -0.00000000000E+00 -0.00000000000E+00 -0.92624244429E+03  0.92624244429E+03  0.00000000000E+00 0.  1.
         24    2    1    2    0    0  0.83033578336E+03 -0.71662785575E+02 -0.21150762832E+03  0.86360550434E+03  0.80535224050E+02 0.  0.
        254    2    1    2    0    0 -0.83033578336E+03  0.71662785575E+02  0.57218976901E+03  0.13495615249E+04  0.89404815858E+03 0.  0.
         23    2    4    4    0    0 -0.47472082171E+03 -0.21976384035E+03  0.68618454275E+03  0.86689303131E+03  0.83655824257E+02 0.  0.
         23    2    4    4    0    0 -0.35561496165E+03  0.29142662593E+03 -0.11399477374E+03  0.48266849363E+03  0.92642253073E+02 0.  0.
          4    1    3    3  502    0  0.21700458630E+02  0.10237091652E+02 -0.99856401900E+00  0.24014684682E+02  0.00000000000E+00 0. -1.
         -3    1    3    3    0  502  0.80863532473E+03 -0.81899877227E+02 -0.21050906430E+03  0.83959081965E+03  0.00000000000E+00 0.  1.
         11    1    5    5    0    0 -0.17801466816E+02 -0.29072184082E+02  0.54688481926E+02  0.64443107960E+02  0.00000000000E+00 0.  1.
        -11    1    5    5    0    0 -0.45691935489E+03 -0.19069165627E+03  0.63149606082E+03  0.80244992335E+03  0.00000000000E+00 0. -1.
          3    1    6    6  503    0 -0.33157199253E+03  0.29011921849E+03 -0.12223259941E+03  0.45721981094E+03  0.00000000000E+00 0. -1.
         -3    1    6    6    0  503 -0.24042969126E+02  0.13074074402E+01  0.82378256718E+01  0.25448682685E+02  0.00000000000E+00 0.  1.
<mgrwt>
<rscale>  0 0.21835789E+04</rscale>
<asrwt>0</asrwt>
<pdfrwt beam="1">  1        2 0.19798840E+00 0.21835789E+04</pdfrwt>
<pdfrwt beam="2">  1       -1 0.14249884E+00 0.21835789E+04</pdfrwt>
<totfact> 0.70231687E+00</totfact>
</mgrwt>
</event>
<event>
12    6  0.1450532E-007  0.1875645E+04  0.7818608E-02  0.8667075E-01
          2   -1    0    0  501    0  0.00000000000E+00  0.00000000000E+00  0.27548272620E+04  0.27548272620E+04  0.00000000000E+00 0. -1.
         -1   -1    0    0    0  501 -0.00000000000E+00 -0.00000000000E+00 -0.31926168646E+03  0.31926168646E+03  0.00000000000E+00 0.  1.
         24    2    1    2    0    0 -0.30114130326E+03 -0.60368332390E+03  0.13835666015E+04  0.15413794238E+04  0.80463328797E+02 0.  0.
        254    2    1    2    0    0  0.30114130326E+03  0.60368332390E+03  0.10519989741E+04  0.15327095247E+04  0.88734266521E+03 0.  0.
         23    2    4    4    0    0  0.42752214206E+02  0.51012743608E+03  0.11204726994E+04  0.12352785327E+04  0.91630947545E+02 0.  0.
         23    2    4    4    0    0  0.25838908906E+03  0.93555887823E+02 -0.68473725285E+02  0.29743099195E+03  0.90878591700E+02 0.  0.
          4    1    3    3  502    0 -0.53011120709E+02 -0.15607702374E+03  0.27995709558E+03  0.32487873372E+03  0.00000000000E+00 0. -1.
         -3    1    3    3    0  502 -0.24813018256E+03 -0.44760630016E+03  0.11036095059E+04  0.12165006901E+04  0.00000000000E+00 0.  1.
         11    1    5    5    0    0  0.89715038916E+01  0.45682583651E+03  0.98901522223E+03  0.10894592432E+04  0.00000000000E+00 0. -1.
        -11    1    5    5    0    0  0.33780710315E+02  0.53301599573E+02  0.13145747712E+03  0.14581928953E+03  0.00000000000E+00 0.  1.
          3    1    6    6  503    0  0.24782259096E+03  0.68165033293E+02 -0.44301656731E+02  0.26081630537E+03  0.00000000000E+00 0. -1.
         -3    1    6    6    0  503  0.10566498096E+02  0.25390854529E+02 -0.24172068555E+02  0.36614686588E+02  0.00000000000E+00 0.  1.
<mgrwt>
<rscale>  0 0.18756447E+04</rscale>
<asrwt>0</asrwt>
<pdfrwt beam="1">  1        2 0.42381956E+00 0.18756447E+04</pdfrwt>
<pdfrwt beam="2">  1       -1 0.49117185E-01 0.18756447E+04</pdfrwt>
<totfact> 0.10943007E+01</totfact>
</mgrwt>
</event>
<event>
12    6  0.1450532E-007  0.1707229E+04  0.7818608E-02  0.8757252E-01
          2   -1    0    0  501    0  0.00000000000E+00  0.00000000000E+00  0.60767697591E+03  0.60767697591E+03  0.00000000000E+00 0. -1.
         -1   -1    0    0    0  501 -0.00000000000E+00 -0.00000000000E+00 -0.11990867379E+04  0.11990867379E+04  0.00000000000E+00 0.  1.
         24    2    1    2    0    0 -0.17478762389E+03 -0.20181956027E+03  0.36787972001E+03  0.46165762835E+03  0.80687229738E+02 0.  0.
        254    2    1    2    0    0  0.17478762389E+03  0.20181956027E+03 -0.95928948195E+03  0.13451060854E+04  0.90431865096E+03 0.  0.
         23    2    4    4    0    0  0.19700239174E+02  0.51827187127E+03 -0.77538752276E+03  0.93725628918E+03  0.90717744566E+02 0.  0.
         23    2    4    4    0    0  0.15508738472E+03 -0.31645231100E+03 -0.18390195920E+03  0.40784979624E+03  0.91254389831E+02 0.  0.
          4    1    3    3  502    0 -0.17998411772E+03 -0.18493966275E+03  0.32302819849E+03  0.41345396178E+03  0.00000000000E+00 0. -1.
         -3    1    3    3    0  502  0.51964938218E+01 -0.16879897521E+02  0.44851521523E+02  0.48203666575E+02  0.00000000000E+00 0.  1.
         11    1    5    5    0    0  0.67387456856E+01  0.19656086969E+02 -0.72208974445E+02  0.75139260302E+02  0.00000000000E+00 0.  1.
        -11    1    5    5    0    0  0.12961493488E+02  0.49861578430E+03 -0.70317854831E+03  0.86211702887E+03  0.00000000000E+00 0. -1.
          2    1    6    6  503    0  0.57500321686E+02 -0.13441180900E+03 -0.12688073136E+03  0.19357567353E+03  0.00000000000E+00 0. -1.
         -2    1    6    6    0  503  0.97587063034E+02 -0.18204050200E+03 -0.57021227834E+02  0.21427412271E+03  0.00000000000E+00 0.  1.
<mgrwt>
<rscale>  0 0.17072286E+04</rscale>
<asrwt>0</asrwt>
<pdfrwt beam="1">  1        2 0.93488765E-01 0.17072286E+04</pdfrwt>
<pdfrwt beam="2">  1       -1 0.18447488E+00 0.17072286E+04</pdfrwt>
<totfact> 0.10255799E+01</totfact>
</mgrwt>
</event>
<event>
12    6  0.1450532E-007  0.1954486E+04  0.7818608E-02  0.8628200E-01
          4   -1    0    0  501    0  0.00000000000E+00  0.00000000000E+00  0.71190934859E+03  0.71190934859E+03  0.00000000000E+00 0. -1.
         -3   -1    0    0    0  501 -0.00000000000E+00 -0.00000000000E+00 -0.13414689933E+04  0.13414689933E+04  0.00000000000E+00 0.  1.
         24    2    1    2    0    0 -0.39544080453E+03  0.60122608542E+03 -0.19758396198E+03  0.75208795569E+03  0.93544830817E+02 0.  0.
        254    2    1    2    0    0  0.39544080453E+03 -0.60122608542E+03 -0.43197568267E+03  0.13012903862E+04  0.99443825500E+03 0.  0.
         23    2    4    4    0    0  0.59825531099E+03 -0.24925317798E+02 -0.26845581875E+03  0.66244558480E+03  0.90746557051E+02 0.  0.
         23    2    4    4    0    0 -0.20281450645E+03 -0.57630076762E+03 -0.16351986392E+03  0.63884480135E+03  0.90153399981E+02 0.  0.
          2    1    3    3  502    0 -0.31372668976E+03  0.45405231261E+03 -0.11161012130E+03  0.56306727630E+03  0.00000000000E+00 0. -1.
         -1    1    3    3    0  502 -0.81714114773E+02  0.14717377281E+03 -0.85973840680E+02  0.18902067939E+03  0.00000000000E+00 0.  1.
         11    1    5    5    0    0  0.25755051727E+03  0.28336203947E+02 -0.90984899095E+02  0.27461511477E+03  0.00000000000E+00 0.  1.
        -11    1    5    5    0    0  0.34070479372E+03 -0.53261521746E+02 -0.17747091965E+03  0.38783047003E+03  0.00000000000E+00 0. -1.
          4    1    6    6  503    0 -0.75350453687E+02 -0.10760812115E+03 -0.24566955932E+02  0.13364405686E+03  0.00000000000E+00 0. -1.
         -4    1    6    6    0  503 -0.12746405277E+03 -0.46869264647E+03 -0.13895290799E+03  0.50520074450E+03  0.00000000000E+00 0.  1.
<mgrwt>
<rscale>  0 0.19544864E+04</rscale>
<asrwt>0</asrwt>
<pdfrwt beam="1">  1        4 0.10952452E+00 0.19544864E+04</pdfrwt>
<pdfrwt beam="2">  1       -3 0.20637984E+00 0.19544864E+04</pdfrwt>
<totfact> 0.18877342E-01</totfact>
</mgrwt>
</event>
<event>
12    6  0.1450532E-007  0.1867679E+04  0.7818608E-02  0.8671114E-01
          2   -1    0    0  501    0  0.00000000000E+00  0.00000000000E+00  0.19854177028E+04  0.19854177028E+04  0.00000000000E+00 0. -1.
         -1   -1    0    0    0  501 -0.00000000000E+00 -0.00000000000E+00 -0.43923044074E+03  0.43923044074E+03  0.00000000000E+00 0.  1.
         24    2    1    2    0    0  0.70573779447E+03  0.12942028860E+03  0.69394388980E+03  0.10005982143E+04  0.69449396651E+02 0.  0.
        254    2    1    2    0    0 -0.70573779447E+03 -0.12942028860E+03  0.85224337225E+03  0.14240499292E+04  0.88700844958E+03 0.  0.
         23    2    4    4    0    0 -0.85147069368E+03 -0.18510287497E+02  0.87048574580E+03  0.12213307736E+04  0.92511901140E+02 0.  0.
         23    2    4    4    0    0  0.14573289921E+03 -0.11091000110E+03 -0.18242373555E+02  0.20271915563E+03  0.84989208775E+02 0.  0.
          4    1    3    3  502    0  0.37763642780E+03  0.99821182719E+02  0.40014238841E+03  0.55918464850E+03  0.00000000000E+00 0. -1.
         -3    1    3    3    0  502  0.32810136668E+03  0.29599105880E+02  0.29380150139E+03  0.44141356583E+03  0.00000000000E+00 0.  1.
         11    1    5    5    0    0 -0.13693038655E+03 -0.31274485294E+02  0.17148456936E+03  0.22166411915E+03  0.00000000000E+00 0. -1.
        -11    1    5    5    0    0 -0.71454030714E+03  0.12764197796E+02  0.69900117644E+03  0.99966665441E+03  0.00000000000E+00 0.  1.
          4    1    6    6  503    0  0.86428013664E+02 -0.11295129277E+03 -0.18159511272E+02  0.14337909169E+03  0.00000000000E+00 0. -1.
         -4    1    6    6    0  503  0.59304885546E+02  0.20412916728E+01 -0.82862283322E-01  0.59340063932E+02  0.00000000000E+00 0.  1.
<mgrwt>
<rscale>  0 0.18676787E+04</rscale>
<asrwt>0</asrwt>
<pdfrwt beam="1">  1        2 0.30544887E+00 0.18676787E+04</pdfrwt>
<pdfrwt beam="2">  1       -1 0.67573915E-01 0.18676787E+04</pdfrwt>
<totfact> 0.16142530E+01</totfact>
</mgrwt>
</event>
<event>
12    6  0.1450532E-007  0.3056633E+04  0.7818608E-02  0.8227741E-01
         -1   -1    0    0    0  501 -0.00000000000E+00  0.00000000000E+00  0.14682741351E+04  0.14682741351E+04  0.00000000000E+00 0.  1.
          2   -1    0    0  501    0  0.00000000000E+00 -0.00000000000E+00 -0.15908141439E+04  0.15908141439E+04  0.00000000000E+00 0. -1.
         24    2    1    2    0    0  0.71230488659E+03  0.79242775834E+02 -0.12745853144E+04  0.14644293336E+04  0.79547975951E+02 0.  0.
        254    2    1    2    0    0 -0.71230488659E+03 -0.79242775834E+02  0.11520453056E+04  0.15946589454E+04  0.83789682952E+03 0.  0.
         23    2    4    4    0    0  0.12484167164E+03  0.86040614434E+02  0.26212519730E+02  0.17958510650E+03  0.92602829198E+02 0.  0.
         23    2    4    4    0    0 -0.83714655822E+03 -0.16528339027E+03  0.11258327859E+04  0.14150738389E+04  0.82471502317E+02 0.  0.
          4    1    3    3  502    0  0.42442683921E+03  0.80270801163E+02 -0.72184189364E+03  0.84121178236E+03  0.00000000000E+00 0. -1.
         -3    1    3    3    0  502  0.28787804738E+03 -0.10280253290E+01 -0.55274342080E+03  0.62321755129E+03  0.00000000000E+00 0.  1.
         11    1    5    5    0    0 -0.14701012622E+02  0.12815477321E+02  0.74773404845E+01  0.20887001982E+02  0.00000000000E+00 0. -1.
        -11    1    5    5    0    0  0.13954268426E+03  0.73225137113E+02  0.18735179246E+02  0.15869810451E+03  0.00000000000E+00 0.  1.
          3    1    6    6  503    0 -0.56879674637E+03 -0.14919289014E+03  0.75201446783E+03  0.95462768500E+03  0.00000000000E+00 0. -1.
         -3    1    6    6    0  503 -0.26834981185E+03 -0.16090500126E+02  0.37381831802E+03  0.46044615386E+03  0.00000000000E+00 0.  1.
<mgrwt>
<rscale>  0 0.30566330E+04</rscale>
<asrwt>0</asrwt>
<pdfrwt beam="1">  1        2 0.24474064E+00 0.30566330E+04</pdfrwt>
<pdfrwt beam="2">  1       -1 0.22588833E+00 0.30566330E+04</pdfrwt>
<totfact> 0.11003403E+00</totfact>
</mgrwt>
</event>
<event>
12    6  0.1450532E-007  0.1746119E+04  0.7818608E-02  0.8735489E-01
          2   -1    0    0  501    0  0.00000000000E+00  0.00000000000E+00  0.69902749676E+03  0.69902749676E+03  0.00000000000E+00 0. -1.
         -1   -1    0    0    0  501 -0.00000000000E+00 -0.00000000000E+00 -0.10904189799E+04  0.10904189799E+04  0.00000000000E+00 0.  1.
         24    2    1    2    0    0  0.20898494170E+03 -0.44550797395E+03 -0.55731435690E+03  0.74791507789E+03  0.81397853841E+02 0.  0.
        254    2    1    2    0    0 -0.20898494170E+03  0.44550797395E+03  0.16592287379E+03  0.10415313987E+04  0.90283176384E+03 0.  0.
         23    2    4    4    0    0 -0.23784688471E+03 -0.14130564560E+03  0.31452932533E+03  0.42870592713E+03  0.91223075029E+02 0.  0.
         23    2    4    4    0    0  0.28861943009E+02  0.58681361955E+03 -0.14860645154E+03  0.61282547162E+03  0.91038153410E+02 0.  0.
          4    1    3    3  502    0  0.47582865392E+01 -0.69231568938E+02 -0.97160934795E+02  0.11939806815E+03  0.00000000000E+00 0. -1.
         -3    1    3    3    0  502  0.20422665516E+03 -0.37627640502E+03 -0.46015342210E+03  0.62851700973E+03  0.00000000000E+00 0.  1.
         11    1    5    5    0    0 -0.24100581942E+03 -0.12150732934E+03  0.28090400234E+03  0.38955730593E+03  0.00000000000E+00 0. -1.
        -11    1    5    5    0    0  0.31589347064E+01 -0.19798316260E+02  0.33625322990E+02  0.39148621194E+02  0.00000000000E+00 0.  1.
          3    1    6    6  503    0  0.28173570872E+02  0.45984617588E+03 -0.77130696538E+02  0.46712032702E+03  0.00000000000E+00 0. -1.
         -3    1    6    6    0  503  0.68837213708E+00  0.12696744368E+03 -0.71475755000E+02  0.14570514460E+03  0.00000000000E+00 0.  1.
<mgrwt>
<rscale>  0 0.17461190E+04</rscale>
<asrwt>0</asrwt>
<pdfrwt beam="1">  1        2 0.10754269E+00 0.17461190E+04</pdfrwt>
<pdfrwt beam="2">  1       -1 0.16775677E+00 0.17461190E+04</pdfrwt>
<totfact> 0.11359308E+01</totfact>
</mgrwt>
</event>
<event>
12    6  0.1450532E-007  0.3812296E+04  0.7818608E-02  0.8043521E-01
         -1   -1    0    0    0  501 -0.00000000000E+00  0.00000000000E+00  0.17957863247E+04  0.17957863247E+04  0.00000000000E+00 0.  1.
          2   -1    0    0  501    0  0.00000000000E+00 -0.00000000000E+00 -0.20232917418E+04  0.20232917418E+04  0.00000000000E+00 0. -1.
         24    2    1    2    0    0  0.14563597531E+04 -0.10501302452E+04 -0.11277100093E+03  0.18007812353E+04  0.79614675620E+02 0.  0.
        254    2    1    2    0    0 -0.14563597531E+04  0.10501302452E+04 -0.11473441610E+03  0.20182968312E+04  0.91465887091E+03 0.  0.
         23    2    4    4    0    0 -0.74001436235E+02  0.26589929229E+03  0.25197960363E+03  0.38462470365E+03  0.90905422324E+02 0.  0.
         23    2    4    4    0    0 -0.13823583169E+04  0.78423095288E+03 -0.36671401973E+03  0.16336721275E+04  0.92047510777E+02 0.  0.
          4    1    3    3  502    0  0.14029395534E+04 -0.10034143904E+04 -0.94130828471E+02  0.17274085916E+04  0.00000000000E+00 0. -1.
         -3    1    3    3    0  502  0.53420199719E+02 -0.46715854751E+02 -0.18640172455E+02  0.73372643760E+02  0.00000000000E+00 0.  1.
         11    1    5    5    0    0 -0.35243215114E+02  0.23420749979E+03  0.22931659305E+03  0.32966852597E+03  0.00000000000E+00 0.  1.
        -11    1    5    5    0    0 -0.38758221121E+02  0.31691792500E+02  0.22663010579E+02  0.54956177677E+02  0.00000000000E+00 0. -1.
          1    1    6    6  503    0 -0.35221955912E+03  0.21220733382E+03 -0.55265140906E+02  0.41490336966E+03  0.00000000000E+00 0. -1.
         -1    1    6    6    0  503 -0.10301387577E+04  0.57202361907E+03 -0.31144887883E+03  0.12187687578E+04  0.00000000000E+00 0.  1.
<mgrwt>
<rscale>  0 0.38122957E+04</rscale>
<asrwt>0</asrwt>
<pdfrwt beam="1">  1        2 0.31127565E+00 0.38122957E+04</pdfrwt>
<pdfrwt beam="2">  1       -1 0.27627482E+00 0.38122957E+04</pdfrwt>
<totfact> 0.27800303E-01</totfact>
</mgrwt>
</event>
<event>
12    6  0.1450532E-007  0.2493962E+04  0.7818608E-02  0.8405140E-01
         -1   -1    0    0    0  501 -0.00000000000E+00  0.00000000000E+00  0.79289999261E+03  0.79289999261E+03  0.00000000000E+00 0.  1.
          2   -1    0    0  501    0  0.00000000000E+00 -0.00000000000E+00 -0.19611062201E+04  0.19611062201E+04  0.00000000000E+00 0. -1.
         24    2    1    2    0    0  0.88358172333E+02  0.10761399680E+04 -0.56523959896E+03  0.12213945401E+04  0.80152487192E+02 0.  0.
        254    2    1    2    0    0 -0.88358172333E+02 -0.10761399680E+04 -0.60296662852E+03  0.15326116726E+04  0.90523222796E+03 0.  0.
         23    2    4    4    0    0 -0.42659674843E+02 -0.13050260737E+03  0.22034431960E+03  0.27465375276E+03  0.89623023487E+02 0.  0.
         23    2    4    4    0    0 -0.45698497490E+02 -0.94563736059E+03 -0.82331094812E+03  0.12579579198E+04  0.91097970979E+02 0.  0.
          2    1    3    3  502    0 -0.11439579254E+02  0.10545765955E+03 -0.41312681120E+02  0.11383725029E+03  0.00000000000E+00 0. -1.
         -1    1    3    3    0  502  0.99797751586E+02  0.97068230840E+03 -0.52392691784E+03  0.11075572899E+04  0.00000000000E+00 0.  1.
         11    1    5    5    0    0 -0.66106244980E+02 -0.75616562317E+02  0.10830483014E+03  0.14770861976E+03  0.00000000000E+00 0.  1.
        -11    1    5    5    0    0  0.23446570137E+02 -0.54886045050E+02  0.11203948946E+03  0.12694513299E+03  0.00000000000E+00 0. -1.
          3    1    6    6  503    0 -0.16942470577E+02 -0.22537164461E+03 -0.14762449941E+03  0.26994891800E+03  0.00000000000E+00 0. -1.
         -3    1    6    6    0  503 -0.28756026913E+02 -0.72026571598E+03 -0.67568644870E+03  0.98800900181E+03  0.00000000000E+00 0.  1.
<mgrwt>
<rscale>  0 0.24939616E+04</rscale>
<asrwt>0</asrwt>
<pdfrwt beam="1">  1        2 0.30170864E+00 0.24939616E+04</pdfrwt>
<pdfrwt beam="2">  1       -1 0.12198462E+00 0.24939616E+04</pdfrwt>
<totfact> 0.42396696E+00</totfact>
</mgrwt>
</event>
<event>
12    6  0.1450532E-007  0.1460850E+04  0.7818608E-02  0.8910913E-01
          2   -1    0    0  501    0  0.00000000000E+00  0.00000000000E+00  0.12164119828E+04  0.12164119828E+04  0.00000000000E+00 0. -1.
         -1   -1    0    0    0  501 -0.00000000000E+00 -0.00000000000E+00 -0.43860224371E+03  0.43860224371E+03  0.00000000000E+00 0.  1.
         24    2    1    2    0    0  0.48402362980E+02  0.46882432124E+03  0.28528779897E+03  0.55669724219E+03  0.79897799007E+02 0.  0.
        254    2    1    2    0    0 -0.48402362980E+02 -0.46882432124E+03  0.49252194013E+03  0.10983169843E+04  0.86115231151E+03 0.  0.
         23    2    4    4    0    0 -0.28559464313E+03 -0.81926740935E+02  0.55037659711E+03  0.63200873998E+03  0.90798445445E+02 0.  0.
         23    2    4    4    0    0  0.23719228015E+03 -0.38689758031E+03 -0.57854656974E+02  0.46630824435E+03  0.90256866792E+02 0.  0.
          4    1    3    3  502    0  0.31360947278E+02  0.14990449020E+03  0.13314687386E+03  0.20293584015E+03  0.00000000000E+00 0. -1.
         -3    1    3    3    0  502  0.17041415701E+02  0.31891983104E+03  0.15214092511E+03  0.35376140204E+03  0.00000000000E+00 0.  1.
         11    1    5    5    0    0 -0.26560628234E+03 -0.53929082684E+02  0.51873040446E+03  0.58526598712E+03  0.00000000000E+00 0. -1.
        -11    1    5    5    0    0 -0.19988360798E+02 -0.27997658251E+02  0.31646192649E+02  0.46742752852E+02  0.00000000000E+00 0.  1.
          1    1    6    6  503    0  0.22258898449E+03 -0.38374426363E+03 -0.67196697704E+02  0.44868798966E+03  0.00000000000E+00 0. -1.
         -1    1    6    6    0  503  0.14603295661E+02 -0.31533166791E+01  0.93420407304E+01  0.17620254688E+02  0.00000000000E+00 0.  1.
<mgrwt>
<rscale>  0 0.14608505E+04</rscale>
<asrwt>0</asrwt>
<pdfrwt beam="1">  1        2 0.18714030E+00 0.14608505E+04</pdfrwt>
<pdfrwt beam="2">  1       -1 0.67477269E-01 0.14608505E+04</pdfrwt>
<totfact> 0.45510744E+01</totfact>
</mgrwt>
</event>
<event>
12    6  0.1450532E-007  0.1222661E+04  0.7818608E-02  0.9093250E-01
          2   -1    0    0  501    0  0.00000000000E+00  0.00000000000E+00  0.69546123036E+03  0.69546123036E+03  0.00000000000E+00 0. -1.
         -1   -1    0    0    0  501 -0.00000000000E+00 -0.00000000000E+00 -0.53737693900E+03  0.53737693900E+03  0.00000000000E+00 0.  1.
         24    2    1    2    0    0 -0.12162034259E+02  0.25047566883E+03  0.14816044587E+03  0.30135098261E+03  0.77297614733E+02 0.  0.
        254    2    1    2    0    0  0.12162034259E+02 -0.25047566883E+03  0.99238454871E+01  0.93148718675E+03  0.89704176080E+03 0.  0.
         23    2    4    4    0    0 -0.41681948945E+03 -0.24846799426E+01  0.97059232077E+01  0.42778132757E+03  0.95697433873E+02 0.  0.
         23    2    4    4    0    0  0.42898152371E+03 -0.24799098889E+03  0.21792227940E+00  0.50370585918E+03  0.90525503767E+02 0.  0.
          2    1    3    3  502    0 -0.42764921410E+02  0.18797784390E+03  0.10640390966E+03  0.22019604967E+03  0.00000000000E+00 0. -1.
         -1    1    3    3    0  502  0.30602887151E+02  0.62497824928E+02  0.41756536215E+02  0.81154932934E+02  0.00000000000E+00 0.  1.
         11    1    5    5    0    0 -0.43021905317E+02 -0.29675295234E+02 -0.63754748690E+01  0.52651250356E+02  0.00000000000E+00 0.  1.
        -11    1    5    5    0    0 -0.37379758413E+03  0.27190615291E+02  0.16081398077E+02  0.37513007721E+03  0.00000000000E+00 0. -1.
          3    1    6    6  503    0  0.31549750462E+03 -0.20460247545E+03  0.34095062384E+02  0.37757558404E+03  0.00000000000E+00 0. -1.
         -3    1    6    6    0  503  0.11348401908E+03 -0.43388513438E+02 -0.33877140105E+02  0.12613027514E+03  0.00000000000E+00 0.  1.
<mgrwt>
<rscale>  0 0.12226607E+04</rscale>
<asrwt>0</asrwt>
<pdfrwt beam="1">  1        2 0.10699404E+00 0.12226607E+04</pdfrwt>
<pdfrwt beam="2">  1       -1 0.82673375E-01 0.12226607E+04</pdfrwt>
<totfact> 0.67625709E+01</totfact>
</mgrwt>
</event>
<event>
12    6  0.1450532E-007  0.2769075E+04  0.7818608E-02  0.8312934E-01
          2   -1    0    0  501    0  0.00000000000E+00  0.00000000000E+00  0.10242622182E+04  0.10242622182E+04  0.00000000000E+00 0. -1.
         -1   -1    0    0    0  501 -0.00000000000E+00 -0.00000000000E+00 -0.18715361569E+04  0.18715361569E+04  0.00000000000E+00 0.  1.
         24    2    1    2    0    0 -0.73957157974E+03  0.38229006636E+02 -0.14138040844E+04  0.15979976883E+04  0.79542718941E+02 0.  0.
        254    2    1    2    0    0  0.73957157974E+03 -0.38229006636E+02  0.56653014575E+03  0.12978006868E+04  0.90271957890E+03 0.  0.
         23    2    4    4    0    0  0.11235482197E+03  0.37643831068E+03  0.13073519621E+03  0.42403729694E+03  0.91577999018E+02 0.  0.
         23    2    4    4    0    0  0.62721675777E+03 -0.41466731732E+03  0.43579494954E+03  0.87376338986E+03  0.90528327847E+02 0.  0.
          4    1    3    3  502    0 -0.19448763241E+03  0.12442769121E+01 -0.44754951460E+03  0.48798315074E+03  0.00000000000E+00 0. -1.
         -3    1    3    3    0  502 -0.54508394733E+03  0.36984729724E+02 -0.96625456982E+03  0.11100145375E+04  0.00000000000E+00 0.  1.
         11    1    5    5    0    0  0.22626123771E+02  0.14851571128E+03  0.89812304952E+01  0.15049757631E+03  0.00000000000E+00 0.  1.
        -11    1    5    5    0    0  0.89728698200E+02  0.22792259940E+03  0.12175396571E+03  0.27353972064E+03  0.00000000000E+00 0. -1.
          3    1    6    6  503    0  0.22809572967E+03 -0.16330740543E+03  0.11419639269E+03  0.30288246345E+03  0.00000000000E+00 0. -1.
         -3    1    6    6    0  503  0.39912102810E+03 -0.25135991189E+03  0.32159855685E+03  0.57088092642E+03  0.00000000000E+00 0.  1.
<mgrwt>
<rscale>  0 0.27690748E+04</rscale>
<asrwt>0</asrwt>
<pdfrwt beam="1">  1        2 0.15757880E+00 0.27690748E+04</pdfrwt>
<pdfrwt beam="2">  1       -1 0.28792864E+00 0.27690748E+04</pdfrwt>
<totfact> 0.95552671E-01</totfact>
</mgrwt>
</event>
<event>
12    6  0.1450532E-007  0.1478592E+04  0.7818608E-02  0.8898815E-01
          2   -1    0    0  501    0  0.00000000000E+00  0.00000000000E+00  0.70851468452E+03  0.70851468452E+03  0.00000000000E+00 0. -1.
         -1   -1    0    0    0  501 -0.00000000000E+00 -0.00000000000E+00 -0.77141500855E+03  0.77141500855E+03  0.00000000000E+00 0.  1.
         24    2    1    2    0    0 -0.30943836742E+03  0.11122250737E+03  0.30350000316E+03  0.45655405907E+03  0.90591432082E+02 0.  0.
        254    2    1    2    0    0  0.30943836742E+03 -0.11122250737E+03 -0.36640032718E+03  0.10233756340E+04  0.89717664878E+03 0.  0.
         23    2    4    4    0    0  0.91809813831E+02  0.32830319543E+03 -0.38910651387E+03  0.52522450159E+03  0.90801254883E+02 0.  0.
         23    2    4    4    0    0  0.21762855358E+03 -0.43952570280E+03  0.22706186685E+02  0.49815113240E+03  0.84225584265E+02 0.  0.
          2    1    3    3  502    0 -0.29012509566E+03  0.77590482741E+02  0.25173073236E+03  0.39186887572E+03  0.00000000000E+00 0. -1.
         -1    1    3    3    0  502 -0.19313271751E+02  0.33632024626E+02  0.51769270801E+02  0.64685183353E+02  0.00000000000E+00 0.  1.
         11    1    5    5    0    0  0.21930068726E+02  0.18367796934E+03 -0.26029847494E+03  0.31933340005E+03  0.00000000000E+00 0.  1.
        -11    1    5    5    0    0  0.69879745105E+02  0.14462522609E+03 -0.12880803893E+03  0.20589110154E+03  0.00000000000E+00 0. -1.
          4    1    6    6  503    0  0.13680233285E+03 -0.35488254265E+03  0.10520630954E+02  0.38048282620E+03  0.00000000000E+00 0. -1.
         -4    1    6    6    0  503  0.80826220733E+02 -0.84643160144E+02  0.12185555731E+02  0.11766830621E+03  0.00000000000E+00 0.  1.
<mgrwt>
<rscale>  0 0.14785924E+04</rscale>
<asrwt>0</asrwt>
<pdfrwt beam="1">  1        2 0.10900226E+00 0.14785924E+04</pdfrwt>
<pdfrwt beam="2">  1       -1 0.11867923E+00 0.14785924E+04</pdfrwt>
<totfact> 0.28376292E+01</totfact>
</mgrwt>
</event>
<event>
12    6  0.1450532E-007  0.1547367E+04  0.7818608E-02  0.8853551E-01
          2   -1    0    0  501    0  0.00000000000E+00  0.00000000000E+00  0.12241054029E+04  0.12241054029E+04  0.00000000000E+00 0. -1.
         -1   -1    0    0    0  501 -0.00000000000E+00 -0.00000000000E+00 -0.48899912087E+03  0.48899912087E+03  0.00000000000E+00 0.  1.
         24    2    1    2    0    0 -0.50221675240E+03 -0.72863517886E+02  0.26897408269E+03  0.58067091850E+03  0.85445302981E+02 0.  0.
        254    2    1    2    0    0  0.50221675240E+03  0.72863517886E+02  0.46613219937E+03  0.11324336053E+04  0.89866338776E+03 0.  0.
         23    2    4    4    0    0  0.61307183524E+03 -0.29029824639E+02  0.63440085696E+03  0.88746667508E+03  0.91830529762E+02 0.  0.
         23    2    4    4    0    0 -0.11085508283E+03  0.10189334252E+03 -0.16826865759E+03  0.24496693022E+03  0.94991331901E+02 0.  0.
          2    1    3    3  502    0 -0.37095056696E+03 -0.57669489738E+02  0.15492657975E+03  0.40611862588E+03  0.00000000000E+00 0. -1.
         -1    1    3    3    0  502 -0.13126618545E+03 -0.15194028148E+02  0.11404750294E+03  0.17455229262E+03  0.00000000000E+00 0.  1.
         11    1    5    5    0    0  0.45195169699E+03 -0.60270588642E+02  0.45025904194E+03  0.64080112758E+03  0.00000000000E+00 0. -1.
        -11    1    5    5    0    0  0.16112013825E+03  0.31240764003E+02  0.18414181502E+03  0.24666554750E+03  0.00000000000E+00 0.  1.
          2    1    6    6  503    0 -0.53858838841E+02  0.10775086224E+03 -0.12025857806E+03  0.17021500649E+03  0.00000000000E+00 0. -1.
         -2    1    6    6    0  503 -0.56996243992E+02 -0.58575197195E+01 -0.48010079526E+02  0.74751923738E+02  0.00000000000E+00 0.  1.
<mgrwt>
<rscale>  0 0.15473674E+04</rscale>
<asrwt>0</asrwt>
<pdfrwt beam="1">  1        2 0.18832391E+00 0.15473674E+04</pdfrwt>
<pdfrwt beam="2">  1       -1 0.75230634E-01 0.15473674E+04</pdfrwt>
<totfact> 0.35735802E+01</totfact>
</mgrwt>
</event>
<event>
12    6  0.1450532E-007  0.1467039E+04  0.7818608E-02  0.8906672E-01
          2   -1    0    0  501    0  0.00000000000E+00  0.00000000000E+00  0.15213287991E+04  0.15213287991E+04  0.00000000000E+00 0. -1.
         -1   -1    0    0    0  501 -0.00000000000E+00 -0.00000000000E+00 -0.35367174280E+03  0.35367174280E+03  0.00000000000E+00 0.  1.
         24    2    1    2    0    0 -0.97640734175E+02  0.44129808357E+03  0.40667006803E+03  0.61336778899E+03  0.81004869035E+02 0.  0.
        254    2    1    2    0    0  0.97640734175E+02 -0.44129808357E+03  0.76098698828E+03  0.12616327529E+04  0.89907635681E+03 0.  0.
         23    2    4    4    0    0  0.31893088558E+03 -0.62061130732E+03  0.57269788406E+03  0.90803757902E+03  0.98356870339E+02 0.  0.
         23    2    4    4    0    0 -0.22129015141E+03  0.17931322375E+03  0.18828910421E+03  0.35359517390E+03  0.91946706963E+02 0.  0.
          4    1    3    3  502    0 -0.37122539551E+01  0.23017449472E+02  0.12818187261E+01  0.23350093552E+02  0.00000000000E+00 0. -1.
         -3    1    3    3    0  502 -0.93928480220E+02  0.41828063410E+03  0.40538824930E+03  0.59001769544E+03  0.00000000000E+00 0.  1.
         11    1    5    5    0    0  0.32320607533E+03 -0.62111307844E+03  0.56741663976E+03  0.90122431526E+03  0.00000000000E+00 0. -1.
        -11    1    5    5    0    0 -0.42751897442E+01  0.50177112248E+00  0.52812443047E+01  0.68132637564E+01  0.00000000000E+00 0.  1.
          4    1    6    6  503    0 -0.10213556051E+03  0.12357045344E+03  0.14193363561E+03  0.21411792686E+03  0.00000000000E+00 0. -1.
         -4    1    6    6    0  503 -0.11915459090E+03  0.55742770310E+02  0.46355468597E+02  0.13947724705E+03  0.00000000000E+00 0.  1.
<mgrwt>
<rscale>  0 0.14670392E+04</rscale>
<asrwt>0</asrwt>
<pdfrwt beam="1">  1        2 0.23405058E+00 0.14670392E+04</pdfrwt>
<pdfrwt beam="2">  1       -1 0.54411038E-01 0.14670392E+04</pdfrwt>
<totfact> 0.46484462E+01</totfact>
</mgrwt>
</event>
<event>
12    6  0.1450532E-007  0.2922913E+04  0.7818608E-02  0.8266093E-01
          2   -1    0    0  501    0  0.00000000000E+00  0.00000000000E+00  0.14515636233E+04  0.14515636233E+04  0.00000000000E+00 0. -1.
         -1   -1    0    0    0  501 -0.00000000000E+00 -0.00000000000E+00 -0.14714165221E+04  0.14714165221E+04  0.00000000000E+00 0.  1.
         24    2    1    2    0    0 -0.10801130319E+04 -0.71634163509E+03  0.24364096685E+03  0.13212158048E+04  0.80378992764E+02 0.  0.
        254    2    1    2    0    0  0.10801130319E+04  0.71634163509E+03 -0.26349386571E+03  0.16017643405E+04  0.90356542962E+03 0.  0.
         23    2    4    4    0    0  0.10565240822E+04  0.23116180547E+03 -0.17081746544E+03  0.10986775124E+04  0.90745540712E+02 0.  0.
         23    2    4    4    0    0  0.23588949614E+02  0.48517982962E+03 -0.92676400263E+02  0.50308682811E+03  0.92474514496E+02 0.  0.
          4    1    3    3  502    0 -0.43361117457E+02 -0.49721660910E+02  0.11194580438E+02  0.66915982411E+02  0.00000000000E+00 0. -1.
         -3    1    3    3    0  502 -0.10367519144E+04 -0.66661997418E+03  0.23244638641E+03  0.12542998224E+04  0.00000000000E+00 0.  1.
         11    1    5    5    0    0  0.80356283790E+01 -0.55728311295E+01  0.20281382123E+01  0.99870473540E+01  0.00000000000E+00 0. -1.
        -11    1    5    5    0    0  0.10484884539E+04  0.23673463660E+03 -0.17284560366E+03  0.10886904651E+04  0.00000000000E+00 0.  1.
          1    1    6    6  503    0  0.49044491035E+02  0.18755361348E+03 -0.58102093684E+02  0.20237977498E+03  0.00000000000E+00 0. -1.
         -1    1    6    6    0  503 -0.25455541421E+02  0.29762621614E+03 -0.34574306579E+02  0.30070705313E+03  0.00000000000E+00 0.  1.
<mgrwt>
<rscale>  0 0.29229127E+04</rscale>
<asrwt>0</asrwt>
<pdfrwt beam="1">  1        2 0.22331748E+00 0.29229127E+04</pdfrwt>
<pdfrwt beam="2">  1       -1 0.22637177E+00 0.29229127E+04</pdfrwt>
<totfact> 0.13236474E+00</totfact>
</mgrwt>
</event>
<event>
12    6  0.1450532E-007  0.1519629E+04  0.7818608E-02  0.8871504E-01
         -1   -1    0    0    0  501 -0.00000000000E+00  0.00000000000E+00  0.44437565544E+03  0.44437565544E+03  0.00000000000E+00 0.  1.
          2   -1    0    0  501    0  0.00000000000E+00 -0.00000000000E+00 -0.12991668634E+04  0.12991668634E+04  0.00000000000E+00 0. -1.
         24    2    1    2    0    0  0.25595527886E+03  0.41110147978E+03 -0.33108581878E+03  0.59213562720E+03  0.80555882100E+02 0.  0.
        254    2    1    2    0    0 -0.25595527886E+03 -0.41110147978E+03 -0.52370538922E+03  0.11514068917E+04  0.90385450382E+03 0.  0.
         23    2    4    4    0    0  0.30812095713E+03 -0.48733225999E+02 -0.28890620099E+03  0.43501097238E+03  0.91947276117E+02 0.  0.
         23    2    4    4    0    0 -0.56407623599E+03 -0.36236825379E+03 -0.23479918824E+03  0.71639591931E+03  0.92734583881E+02 0.  0.
          2    1    3    3  502    0  0.69140690988E+02  0.14781137096E+03 -0.15173720970E+03  0.22282912139E+03  0.00000000000E+00 0. -1.
         -1    1    3    3    0  502  0.18681458787E+03  0.26329010883E+03 -0.17934860909E+03  0.36930650581E+03  0.00000000000E+00 0.  1.
         11    1    5    5    0    0  0.11215568489E+03 -0.87385376923E+01 -0.16511582329E+03  0.19979613309E+03  0.00000000000E+00 0. -1.
        -11    1    5    5    0    0  0.19596527223E+03 -0.39994688307E+02 -0.12379037770E+03  0.23521483930E+03  0.00000000000E+00 0.  1.
          4    1    6    6  503    0 -0.84494526941E+02 -0.60604988953E+02 -0.25202029896E+01  0.10401269726E+03  0.00000000000E+00 0. -1.
         -4    1    6    6    0  503 -0.47958170905E+03 -0.30176326483E+03 -0.23227898525E+03  0.61238322205E+03  0.00000000000E+00 0.  1.
<mgrwt>
<rscale>  0 0.15196291E+04</rscale>
<asrwt>0</asrwt>
<pdfrwt beam="1">  1        2 0.19987182E+00 0.15196291E+04</pdfrwt>
<pdfrwt beam="2">  1       -1 0.68365486E-01 0.15196291E+04</pdfrwt>
<totfact> 0.39420487E+01</totfact>
</mgrwt>
</event>
<event>
12    6  0.1450532E-007  0.1343859E+04  0.7818608E-02  0.8995490E-01
          2   -1    0    0  501    0  0.00000000000E+00  0.00000000000E+00  0.23116902966E+04  0.23116902966E+04  0.00000000000E+00 0. -1.
         -1   -1    0    0    0  501 -0.00000000000E+00 -0.00000000000E+00 -0.19530694462E+03  0.19530694462E+03  0.00000000000E+00 0.  1.
         24    2    1    2    0    0 -0.14433053054E+03 -0.33278176145E+03  0.60624390798E+03  0.71171155193E+03  0.86178038930E+02 0.  0.
        254    2    1    2    0    0  0.14433053054E+03  0.33278176145E+03  0.15101394440E+04  0.17952856893E+04  0.90053015665E+03 0.  0.
         23    2    4    4    0    0  0.67583906899E+02 -0.18689171906E+03  0.25228222869E+02  0.21761780292E+03  0.84999681125E+02 0.  0.
         23    2    4    4    0    0  0.76746623637E+02  0.51967348051E+03  0.14849112212E+04  0.15776678864E+04  0.90133536699E+02 0.  0.
          4    1    3    3  502    0 -0.11420497351E+03 -0.28057083682E+03  0.43430640537E+03  0.52951376205E+03  0.00000000000E+00 0. -1.
         -3    1    3    3    0  502 -0.30125557022E+02 -0.52210924628E+02  0.17193750260E+03  0.18219778988E+03  0.00000000000E+00 0.  1.
         11    1    5    5    0    0  0.48045172696E+02 -0.65578725401E+02  0.45374591628E+02  0.93100813154E+02  0.00000000000E+00 0. -1.
        -11    1    5    5    0    0  0.19538734203E+02 -0.12131299366E+03 -0.20146368759E+02  0.12451698976E+03  0.00000000000E+00 0.  1.
          3    1    6    6  503    0  0.12271076352E+02  0.36724433458E+03  0.10318385712E+04  0.10953126575E+04  0.00000000000E+00 0. -1.
         -3    1    6    6    0  503  0.64475547285E+02  0.15242914593E+03  0.45307264994E+03  0.48235522891E+03  0.00000000000E+00 0.  1.
<mgrwt>
<rscale>  0 0.13438589E+04</rscale>
<asrwt>0</asrwt>
<pdfrwt beam="1">  1        2 0.35564464E+00 0.13438589E+04</pdfrwt>
<pdfrwt beam="2">  1       -1 0.30047224E-01 0.13438589E+04</pdfrwt>
<totfact> 0.50700603E+01</totfact>
</mgrwt>
</event>
<event>
12    6  0.1450532E-007  0.1687173E+04  0.7818608E-02  0.8768714E-01
         -1   -1    0    0    0  501 -0.00000000000E+00  0.00000000000E+00  0.11191720517E+04  0.11191720517E+04  0.00000000000E+00 0.  1.
          2   -1    0    0  501    0  0.00000000000E+00 -0.00000000000E+00 -0.63586132265E+03  0.63586132265E+03  0.00000000000E+00 0. -1.
         24    2    1    2    0    0  0.82239515317E+02  0.40628811791E+03 -0.26286079914E+03  0.49739301730E+03  0.80440296540E+02 0.  0.
        254    2    1    2    0    0 -0.82239515317E+02 -0.40628811791E+03  0.74617152822E+03  0.12576403571E+04  0.92360919527E+03 0.  0.
         23    2    4    4    0    0 -0.41280051712E+03 -0.45257741571E+03  0.28788213807E+03  0.68269274960E+03  0.89233854574E+02 0.  0.
         23    2    4    4    0    0  0.33056100180E+03  0.46289297800E+02  0.45828939015E+03  0.57494760747E+03  0.95510791045E+02 0.  0.
          2    1    3    3  502    0  0.85219585228E+02  0.34531309029E+03 -0.19316813955E+03  0.40474366970E+03  0.00000000000E+00 0. -1.
         -1    1    3    3    0  502 -0.29800699117E+01  0.60975027621E+02 -0.69692659587E+02  0.92649347599E+02  0.00000000000E+00 0.  1.
         11    1    5    5    0    0 -0.22906430204E+03 -0.22930938631E+03  0.10562540887E+03  0.34089584350E+03  0.00000000000E+00 0. -1.
        -11    1    5    5    0    0 -0.18373621508E+03 -0.22326802940E+03  0.18225672920E+03  0.34179690610E+03  0.00000000000E+00 0.  1.
          4    1    6    6  503    0  0.15357737634E+03  0.13149435843E+02  0.29034036121E+03  0.32871939938E+03  0.00000000000E+00 0. -1.
         -4    1    6    6    0  503  0.17698362547E+03  0.33139861956E+02  0.16794902895E+03  0.24622820809E+03  0.00000000000E+00 0.  1.
<mgrwt>
<rscale>  0 0.16871730E+04</rscale>
<asrwt>0</asrwt>
<pdfrwt beam="1">  1        2 0.97824819E-01 0.16871730E+04</pdfrwt>
<pdfrwt beam="2">  1       -1 0.17218032E+00 0.16871730E+04</pdfrwt>
<totfact> 0.11920628E+01</totfact>
</mgrwt>
</event>
<event>
12    6  0.1450532E-007  0.1726656E+04  0.7818608E-02  0.8746306E-01
          2   -1    0    0  501    0  0.00000000000E+00  0.00000000000E+00  0.11131071557E+04  0.11131071557E+04  0.00000000000E+00 0. -1.
         -1   -1    0    0    0  501 -0.00000000000E+00 -0.00000000000E+00 -0.66959872845E+03  0.66959872845E+03  0.00000000000E+00 0.  1.
         24    2    1    2    0    0  0.37519979175E+03 -0.13340607086E+03 -0.33350030975E+03  0.52556815206E+03  0.80170832487E+02 0.  0.
        254    2    1    2    0    0 -0.37519979175E+03  0.13340607086E+03  0.77700873699E+03  0.12571377321E+04  0.90447810177E+03 0.  0.
         23    2    4    4    0    0  0.11040146937E+03 -0.24344843928E+03  0.50581216255E+03  0.57939352187E+03  0.91625773495E+02 0.  0.
         23    2    4    4    0    0 -0.48560126112E+03  0.37685451014E+03  0.27119657444E+03  0.67774421021E+03  0.89228503710E+02 0.  0.
          2    1    3    3  502    0  0.10990411325E+03 -0.61448100495E+02 -0.14615756795E+03  0.19291660849E+03  0.00000000000E+00 0. -1.
         -1    1    3    3    0  502  0.26529567850E+03 -0.71957970363E+02 -0.18734274180E+03  0.33265154356E+03  0.00000000000E+00 0.  1.
         11    1    5    5    0    0 -0.52402427768E+01 -0.83566805810E+02  0.17934448683E+03  0.19792755274E+03  0.00000000000E+00 0.  1.
        -11    1    5    5    0    0  0.11564171215E+03 -0.15988163347E+03  0.32646767571E+03  0.38146596912E+03  0.00000000000E+00 0. -1.
          2    1    6    6  503    0 -0.42531353054E+03  0.31349141828E+03  0.19993456040E+03  0.56492680680E+03  0.00000000000E+00 0. -1.
         -2    1    6    6    0  503 -0.60287730576E+02  0.63363091856E+02  0.71262014034E+02  0.11281740341E+03  0.00000000000E+00 0.  1.
<mgrwt>
<rscale>  0 0.17266559E+04</rscale>
<asrwt>0</asrwt>
<pdfrwt beam="1">  1        2 0.17124725E+00 0.17266559E+04</pdfrwt>
<pdfrwt beam="2">  1       -1 0.10301519E+00 0.17266559E+04</pdfrwt>
<totfact> 0.20615134E+01</totfact>
</mgrwt>
</event>
<event>
12    6  0.1450532E-007  0.2036872E+04  0.7818608E-02  0.8589573E-01
         -1   -1    0    0    0  501 -0.00000000000E+00  0.00000000000E+00  0.82179676491E+03  0.82179676491E+03  0.00000000000E+00 0.  1.
          2   -1    0    0  501    0  0.00000000000E+00 -0.00000000000E+00 -0.12621265830E+04  0.12621265830E+04  0.00000000000E+00 0. -1.
         24    2    1    2    0    0  0.13448864448E+03  0.66702914865E+03 -0.65408338873E+03  0.94726621887E+03  0.80455760222E+02 0.  0.
        254    2    1    2    0    0 -0.13448864448E+03 -0.66702914865E+03  0.21375357059E+03  0.11366571291E+04  0.88503319685E+03 0.  0.
         23    2    4    4    0    0  0.32835517184E+03 -0.51646131467E+03  0.16310981816E+03  0.63913606863E+03  0.85677844404E+02 0.  0.
         23    2    4    4    0    0 -0.46284381632E+03 -0.15056783398E+03  0.50643752433E+02  0.49752106046E+03  0.89818400180E+02 0.  0.
          2    1    3    3  502    0  0.12409442762E+03  0.66130808984E+03 -0.64696495656E+03  0.93342995006E+03  0.00000000000E+00 0. -1.
         -1    1    3    3    0  502  0.10394216855E+02  0.57210588110E+01 -0.71184321726E+01  0.13836268809E+02  0.00000000000E+00 0.  1.
         11    1    5    5    0    0  0.31029448381E+02 -0.91518577214E+02  0.47926661246E+02  0.10786770369E+03  0.00000000000E+00 0. -1.
        -11    1    5    5    0    0  0.29732572346E+03 -0.42494273745E+03  0.11518315691E+03  0.53126836493E+03  0.00000000000E+00 0.  1.
          1    1    6    6  503    0 -0.12464125847E+03 -0.78836245958E+01  0.36766286083E+02  0.13018968715E+03  0.00000000000E+00 0. -1.
         -1    1    6    6    0  503 -0.33820255785E+03 -0.14268420939E+03  0.13877466349E+02  0.36733137331E+03  0.00000000000E+00 0.  1.
<mgrwt>
<rscale>  0 0.20368717E+04</rscale>
<asrwt>0</asrwt>
<pdfrwt beam="1">  1        2 0.19417332E+00 0.20368717E+04</pdfrwt>
<pdfrwt beam="2">  1       -1 0.12643027E+00 0.20368717E+04</pdfrwt>
<totfact> 0.99942415E+00</totfact>
</mgrwt>
</event>
<event>
12    6  0.1450532E-007  0.2339006E+04  0.7818608E-02  0.8462698E-01
         -1   -1    0    0    0  501 -0.00000000000E+00  0.00000000000E+00  0.63841763908E+03  0.63841763908E+03  0.00000000000E+00 0.  1.
          2   -1    0    0  501    0  0.00000000000E+00 -0.00000000000E+00 -0.21423866621E+04  0.21423866621E+04  0.00000000000E+00 0. -1.
         24    2    1    2    0    0  0.93144133547E+02 -0.98959124040E+03 -0.65347121711E+03  0.11921456864E+04  0.78867314664E+02 0.  0.
        254    2    1    2    0    0 -0.93144133547E+02  0.98959124040E+03 -0.85049780596E+03  0.15886586148E+04  0.90140059008E+03 0.  0.
         23    2    4    4    0    0  0.29243163985E+03  0.39306654384E+02 -0.24574872423E+03  0.39455226842E+03  0.90651971777E+02 0.  0.
         23    2    4    4    0    0 -0.38557577340E+03  0.95028458602E+03 -0.60474908173E+03  0.11941063464E+04  0.91973056951E+02 0.  0.
          2    1    3    3  502    0  0.60172762981E+02 -0.48887426263E+03 -0.27968602872E+03  0.56643011990E+03  0.00000000000E+00 0. -1.
         -1    1    3    3    0  502  0.32971370566E+02 -0.50071697777E+03 -0.37378518839E+03  0.62571556650E+03  0.00000000000E+00 0.  1.
         11    1    5    5    0    0  0.18122299802E+02  0.98176347495E+01  0.55750311961E+01  0.21351456040E+02  0.00000000000E+00 0. -1.
        -11    1    5    5    0    0  0.27430934005E+03  0.29489019634E+02 -0.25132375542E+03  0.37320081238E+03  0.00000000000E+00 0.  1.
          1    1    6    6  503    0 -0.28807642504E+03  0.64352402097E+03 -0.45472419619E+03  0.83897871655E+03  0.00000000000E+00 0. -1.
         -1    1    6    6    0  503 -0.97499348360E+02  0.30676056505E+03 -0.15002488554E+03  0.35512762985E+03  0.00000000000E+00 0.  1.
<mgrwt>
<rscale>  0 0.23390061E+04</rscale>
<asrwt>0</asrwt>
<pdfrwt beam="1">  1        2 0.32959796E+00 0.23390061E+04</pdfrwt>
<pdfrwt beam="2">  1       -1 0.98218096E-01 0.23390061E+04</pdfrwt>
<totfact> 0.56806891E+00</totfact>
</mgrwt>
</event>
<event>
12    6  0.1450532E-007  0.1457871E+04  0.7818608E-02  0.8912962E-01
         -1   -1    0    0    0  501 -0.00000000000E+00  0.00000000000E+00  0.55555379671E+03  0.55555379671E+03  0.00000000000E+00 0.  1.
          2   -1    0    0  501    0  0.00000000000E+00 -0.00000000000E+00 -0.95642792918E+03  0.95642792918E+03  0.00000000000E+00 0. -1.
         24    2    1    2    0    0  0.15646553161E+03  0.23885587402E+03  0.23248649153E+03  0.37692857021E+03  0.80570386364E+02 0.  0.
        254    2    1    2    0    0 -0.15646553161E+03 -0.23885587402E+03 -0.63336062399E+03  0.11350531557E+04  0.89758921287E+03 0.  0.
         23    2    4    4    0    0  0.34740900039E+03 -0.23265165139E+02 -0.38219076538E+03  0.52539124049E+03  0.93444598444E+02 0.  0.
         23    2    4    4    0    0 -0.50387453200E+03 -0.21559070888E+03 -0.25116985861E+03  0.60966191520E+03  0.90732878355E+02 0.  0.
          4    1    3    3  502    0  0.18420519187E+02  0.18357368276E+02  0.58341178443E+02  0.63874890209E+02  0.00000000000E+00 0. -1.
         -3    1    3    3    0  502  0.13804501242E+03  0.22049850574E+03  0.17414531309E+03  0.31305368000E+03  0.00000000000E+00 0.  1.
         11    1    5    5    0    0  0.30310374852E+03  0.78320230230E+01 -0.29681568569E+03  0.42430269175E+03  0.00000000000E+00 0. -1.
        -11    1    5    5    0    0  0.44305251872E+02 -0.31097188162E+02 -0.85375079685E+02  0.10108854874E+03  0.00000000000E+00 0.  1.
          3    1    6    6  503    0 -0.19685415549E+03 -0.13161134625E+03 -0.11893513905E+03  0.26498806067E+03  0.00000000000E+00 0. -1.
         -3    1    6    6    0  503 -0.30702037651E+03 -0.83979362632E+02 -0.13223471957E+03  0.34467385453E+03  0.00000000000E+00 0.  1.
<mgrwt>
<rscale>  0 0.14578713E+04</rscale>
<asrwt>0</asrwt>
<pdfrwt beam="1">  1        2 0.14714276E+00 0.14578713E+04</pdfrwt>
<pdfrwt beam="2">  1       -1 0.85469816E-01 0.14578713E+04</pdfrwt>
<totfact> 0.40236777E+01</totfact>
</mgrwt>
</event>
<event>
12    6  0.1450532E-007  0.4436081E+04  0.7818608E-02  0.7921924E-01
          2   -1    0    0  501    0  0.00000000000E+00  0.00000000000E+00  0.21953325701E+04  0.21953325701E+04  0.00000000000E+00 0. -1.
         -1   -1    0    0    0  501 -0.00000000000E+00 -0.00000000000E+00 -0.22409834537E+04  0.22409834537E+04  0.00000000000E+00 0.  1.
         24    2    1    2    0    0 -0.70790072899E+03 -0.38425655957E+03  0.19458057229E+04  0.21074521440E+04  0.80112933206E+02 0.  0.
        254    2    1    2    0    0  0.70790072899E+03  0.38425655957E+03 -0.19914566066E+04  0.23288638798E+04  0.89940592013E+03 0.  0.
         23    2    4    4    0    0  0.34014883499E+03  0.35736956647E+03 -0.27914782410E+03  0.57462248010E+03  0.94091710291E+02 0.  0.
         23    2    4    4    0    0  0.36775189400E+03  0.26886993092E+02 -0.17123087825E+04  0.17542413997E+04  0.96938929293E+02 0.  0.
          2    1    3    3  502    0 -0.56474625966E+03 -0.27658629877E+03  0.15653355929E+04  0.16869243720E+04  0.00000000000E+00 0. -1.
         -1    1    3    3    0  502 -0.14315446933E+03 -0.10767026080E+03  0.38047013003E+03  0.42052777197E+03  0.00000000000E+00 0.  1.
         11    1    5    5    0    0  0.13502002560E+01  0.54024833920E+01  0.66168605913E+01  0.86482779568E+01  0.00000000000E+00 0.  1.
        -11    1    5    5    0    0  0.33879863474E+03  0.35196708308E+03 -0.28576468469E+03  0.56597420214E+03  0.00000000000E+00 0. -1.
          1    1    6    6  503    0  0.33945511440E+03  0.37338062391E+02 -0.14248188761E+04  0.14651732782E+04  0.00000000000E+00 0. -1.
         -1    1    6    6    0  503  0.28296779601E+02 -0.10451069298E+02 -0.28748990636E+03  0.28906812146E+03  0.00000000000E+00 0.  1.
<mgrwt>
<rscale>  0 0.44360811E+04</rscale>
<asrwt>0</asrwt>
<pdfrwt beam="1">  1        2 0.33774347E+00 0.44360811E+04</pdfrwt>
<pdfrwt beam="2">  1       -1 0.34476668E+00 0.44360811E+04</pdfrwt>
<totfact> 0.75750835E-02</totfact>
</mgrwt>
</event>
<event>
12    6  0.1450532E-007  0.1299796E+04  0.7818608E-02  0.9029727E-01
         -1   -1    0    0    0  501 -0.00000000000E+00  0.00000000000E+00  0.31229202039E+03  0.31229202039E+03  0.00000000000E+00 0.  1.
          2   -1    0    0  501    0  0.00000000000E+00 -0.00000000000E+00 -0.13524754591E+04  0.13524754591E+04  0.00000000000E+00 0. -1.
         24    2    1    2    0    0  0.29633659127E+03  0.12620104840E+03 -0.38091029661E+03  0.50555634141E+03  0.82173477039E+02 0.  0.
        254    2    1    2    0    0 -0.29633659127E+03 -0.12620104840E+03 -0.65927314205E+03  0.11592111380E+04  0.89743373393E+03 0.  0.
         23    2    4    4    0    0 -0.39343578354E+03  0.29801202869E+03 -0.41781121636E+03  0.65303782327E+03  0.91045598965E+02 0.  0.
         23    2    4    4    0    0  0.97099192269E+02 -0.42421307709E+03 -0.24146192569E+03  0.50617331477E+03  0.92317794127E+02 0.  0.
          4    1    3    3  502    0  0.28403441301E+03  0.13528073766E+03 -0.37414557460E+03  0.48883671788E+03  0.00000000000E+00 0. -1.
         -3    1    3    3    0  502  0.12302178260E+02 -0.90796892609E+01 -0.67647220184E+01  0.16719623530E+02  0.00000000000E+00 0.  1.
         11    1    5    5    0    0 -0.14139219591E+03  0.55789865583E+02 -0.13744152563E+03  0.20492543798E+03  0.00000000000E+00 0.  1.
        -11    1    5    5    0    0 -0.25204358764E+03  0.24222216311E+03 -0.28036969073E+03  0.44811238529E+03  0.00000000000E+00 0. -1.
          3    1    6    6  503    0 -0.99241554653E+01 -0.11123904964E+03 -0.84542738062E+02  0.14007173014E+03  0.00000000000E+00 0. -1.
         -3    1    6    6    0  503  0.10702334773E+03 -0.31297402746E+03 -0.15691918763E+03  0.36610158463E+03  0.00000000000E+00 0.  1.
<mgrwt>
<rscale>  0 0.12997958E+04</rscale>
<asrwt>0</asrwt>
<pdfrwt beam="1">  1        2 0.20807315E+00 0.12997958E+04</pdfrwt>
<pdfrwt beam="2">  1       -1 0.48044926E-01 0.12997958E+04</pdfrwt>
<totfact> 0.74524256E+01</totfact>
</mgrwt>
</event>
<event>
12    6  0.1450532E-007  0.1304961E+04  0.7818608E-02  0.9025640E-01
         -1   -1    0    0    0  501 -0.00000000000E+00  0.00000000000E+00  0.25374726261E+03  0.25374726261E+03  0.00000000000E+00 0.  1.
          2   -1    0    0  501    0  0.00000000000E+00 -0.00000000000E+00 -0.16777762103E+04  0.16777762103E+04  0.00000000000E+00 0. -1.
         24    2    1    2    0    0 -0.22117306767E+03  0.20109900434E+03 -0.14830367463E+03  0.34310892177E+03  0.79821155579E+02 0.  0.
        254    2    1    2    0    0  0.22117306767E+03 -0.20109900434E+03 -0.12757252730E+04  0.15884145511E+04  0.89790170872E+03 0.  0.
         23    2    4    4    0    0 -0.19770529603E+03  0.16808418186E+03 -0.11663264091E+03  0.29900124987E+03  0.91972268823E+02 0.  0.
         23    2    4    4    0    0  0.41887836369E+03 -0.36918318620E+03 -0.11590926321E+04  0.12894133012E+04  0.85648251807E+02 0.  0.
          4    1    3    3  502    0 -0.71704339533E+02  0.83400112502E+02 -0.95521090077E+02  0.14567556323E+03  0.00000000000E+00 0. -1.
         -3    1    3    3    0  502 -0.14946872813E+03  0.11769889184E+03 -0.52782584556E+02  0.19743335854E+03  0.00000000000E+00 0.  1.
         11    1    5    5    0    0 -0.18091891106E+03  0.11244388799E+03 -0.11209129618E+03  0.24070674898E+03  0.00000000000E+00 0.  1.
        -11    1    5    5    0    0 -0.16786384963E+02  0.55640293870E+02 -0.45413447288E+01  0.58294500890E+02  0.00000000000E+00 0. -1.
          4    1    6    6  503    0  0.57396347332E+02 -0.25987813105E+02 -0.18066783607E+03  0.19133889858E+03  0.00000000000E+00 0. -1.
         -4    1    6    6    0  503  0.36148201636E+03 -0.34319537310E+03 -0.97842479605E+03  0.10980744027E+04  0.00000000000E+00 0.  1.
<mgrwt>
<rscale>  0 0.13049615E+04</rscale>
<asrwt>0</asrwt>
<pdfrwt beam="1">  1        2 0.25811942E+00 0.13049615E+04</pdfrwt>
<pdfrwt beam="2">  1       -1 0.39038040E-01 0.13049615E+04</pdfrwt>
<totfact> 0.71724540E+01</totfact>
</mgrwt>
</event>
<event>
12    6  0.1450532E-007  0.2091631E+04  0.7818608E-02  0.8564939E-01
          2   -1    0    0  501    0  0.00000000000E+00  0.00000000000E+00  0.11085650500E+04  0.11085650500E+04  0.00000000000E+00 0. -1.
         -1   -1    0    0    0  501 -0.00000000000E+00 -0.00000000000E+00 -0.98661790494E+03  0.98661790494E+03  0.00000000000E+00 0.  1.
         24    2    1    2    0    0  0.67507494589E+03 -0.45904772741E+03  0.24016649425E+03  0.85623247876E+03  0.94884741245E+02 0.  0.
        254    2    1    2    0    0 -0.67507494589E+03  0.45904772741E+03 -0.11821934916E+03  0.12389504762E+04  0.92443034857E+03 0.  0.
         23    2    4    4    0    0  0.11902808033E+03  0.33094852105E+03  0.13891543870E+03  0.38952760157E+03  0.93486072667E+02 0.  0.
         23    2    4    4    0    0 -0.79410302623E+03  0.12809920636E+03 -0.25713478786E+03  0.84942287464E+03  0.91607302645E+02 0.  0.
          4    1    3    3  502    0  0.59632130924E+03 -0.38141214523E+03  0.23374185462E+03  0.74545931008E+03  0.00000000000E+00 0. -1.
         -3    1    3    3    0  502  0.78753636648E+02 -0.77635582176E+02  0.64246396269E+01  0.11077316868E+03  0.00000000000E+00 0.  1.
         11    1    5    5    0    0  0.51110642381E+02  0.12149852202E+03  0.51878023548E+01  0.13191323630E+03  0.00000000000E+00 0.  1.
        -11    1    5    5    0    0  0.67917437953E+02  0.20944999903E+03  0.13372763634E+03  0.25761436527E+03  0.00000000000E+00 0. -1.
          3    1    6    6  503    0 -0.79528546992E+03  0.12902248078E+03 -0.25965435575E+03  0.84649049828E+03  0.00000000000E+00 0. -1.
         -3    1    6    6    0  503  0.11824436983E+01 -0.92327442288E+00  0.25195678875E+01  0.29323763570E+01  0.00000000000E+00 0.  1.
<mgrwt>
<rscale>  0 0.20916311E+04</rscale>
<asrwt>0</asrwt>
<pdfrwt beam="1">  1        2 0.17054847E+00 0.20916311E+04</pdfrwt>
<pdfrwt beam="2">  1       -1 0.15178737E+00 0.20916311E+04</pdfrwt>
<totfact> 0.76478514E+00</totfact>
</mgrwt>
</event>
<event>
12    6  0.1450532E-007  0.1938113E+04  0.7818608E-02  0.8636114E-01
          2   -1    0    0  501    0  0.00000000000E+00  0.00000000000E+00  0.26971612520E+04  0.26971612520E+04  0.00000000000E+00 0. -1.
         -1   -1    0    0    0  501 -0.00000000000E+00 -0.00000000000E+00 -0.34816986004E+03  0.34816986004E+03  0.00000000000E+00 0.  1.
         24    2    1    2    0    0 -0.26239321026E+03 -0.23920893252E+03  0.19668754387E+04  0.20001277175E+04  0.76425027209E+02 0.  0.
        254    2    1    2    0    0  0.26239321026E+03  0.23920893252E+03  0.38211595326E+03  0.10452033945E+04  0.90574081504E+03 0.  0.
         23    2    4    4    0    0 -0.28455754609E+03  0.66035313393E+02  0.34721984670E+03  0.46283872570E+03  0.91238174087E+02 0.  0.
         23    2    4    4    0    0  0.54695075635E+03  0.17317361913E+03  0.34896106558E+02  0.58236466884E+03  0.93737063271E+02 0.  0.
          4    1    3    3  502    0 -0.19949597294E+03 -0.14715020173E+03  0.14827688653E+04  0.15033480412E+04  0.00000000000E+00 0. -1.
         -3    1    3    3    0  502 -0.62897237315E+02 -0.92058730788E+02  0.48410657339E+03  0.49677967629E+03  0.00000000000E+00 0.  1.
         11    1    5    5    0    0 -0.25393919179E+03  0.54271798378E+02  0.25088569367E+03  0.36107363863E+03  0.00000000000E+00 0.  1.
        -11    1    5    5    0    0 -0.30618354300E+02  0.11763515015E+02  0.96334153029E+02  0.10176508707E+03  0.00000000000E+00 0. -1.
          1    1    6    6  503    0  0.57410047579E+01 -0.39454924701E+01  0.10228729884E+02  0.12375498434E+02  0.00000000000E+00 0. -1.
         -1    1    6    6    0  503  0.54120975159E+03  0.17711911160E+03  0.24667376674E+02  0.56998917041E+03  0.00000000000E+00 0.  1.
<mgrwt>
<rscale>  0 0.19381127E+04</rscale>
<asrwt>0</asrwt>
<pdfrwt beam="1">  1        2 0.41494787E+00 0.19381127E+04</pdfrwt>
<pdfrwt beam="2">  1       -1 0.53564596E-01 0.19381127E+04</pdfrwt>
<totfact> 0.99788000E+00</totfact>
</mgrwt>
</event>
<event>
12    6  0.1450532E-007  0.1645291E+04  0.7818608E-02  0.8793197E-01
         -1   -1    0    0    0  501 -0.00000000000E+00  0.00000000000E+00  0.29455255214E+03  0.29455255214E+03  0.00000000000E+00 0.  1.
          2   -1    0    0  501    0  0.00000000000E+00 -0.00000000000E+00 -0.22975378719E+04  0.22975378719E+04  0.00000000000E+00 0. -1.
         24    2    1    2    0    0 -0.21896444172E+03 -0.31076644853E+03 -0.50557891306E+02  0.39152867760E+03  0.78850445409E+02 0.  0.
        254    2    1    2    0    0  0.21896444172E+03  0.31076644853E+03 -0.19524274285E+04  0.22005617465E+04  0.94126400350E+03 0.  0.
         23    2    4    4    0    0 -0.16216337016E+02  0.61268825657E+03 -0.11923677204E+04  0.13445590076E+04  0.10221680386E+03 0.  0.
         23    2    4    4    0    0  0.23518077873E+03 -0.30192180804E+03 -0.76005970804E+03  0.85600273882E+03  0.92645303289E+02 0.  0.
          2    1    3    3  502    0 -0.22247369282E+02 -0.84324976048E+02  0.76694144154E+00  0.87213733005E+02  0.00000000000E+00 0. -1.
         -1    1    3    3    0  502 -0.19671707243E+03 -0.22644147248E+03 -0.51324832748E+02  0.30431494459E+03  0.00000000000E+00 0.  1.
         11    1    5    5    0    0 -0.52855628025E+02  0.50191773067E+03 -0.96982224879E+03  0.10932841900E+04  0.00000000000E+00 0. -1.
        -11    1    5    5    0    0  0.36639291008E+02  0.11077052590E+03 -0.22254547163E+03  0.25127481767E+03  0.00000000000E+00 0.  1.
          3    1    6    6  503    0  0.20811729548E+03 -0.23381105991E+03 -0.67277346162E+03  0.74202732502E+03  0.00000000000E+00 0. -1.
         -3    1    6    6    0  503  0.27063483255E+02 -0.68110748130E+02 -0.87286246422E+02  0.11397541380E+03  0.00000000000E+00 0.  1.
<mgrwt>
<rscale>  0 0.16452910E+04</rscale>
<asrwt>0</asrwt>
<pdfrwt beam="1">  1        2 0.35346736E+00 0.16452910E+04</pdfrwt>
<pdfrwt beam="2">  1       -1 0.45315778E-01 0.16452910E+04</pdfrwt>
<totfact> 0.23949369E+01</totfact>
</mgrwt>
</event>
<event>
12    6  0.1450532E-007  0.2066711E+04  0.7818608E-02  0.8576051E-01
         -1   -1    0    0    0  501 -0.00000000000E+00  0.00000000000E+00  0.12313205007E+04  0.12313205007E+04  0.00000000000E+00 0.  1.
          2   -1    0    0  501    0  0.00000000000E+00 -0.00000000000E+00 -0.86721808181E+03  0.86721808181E+03  0.00000000000E+00 0. -1.
         24    2    1    2    0    0 -0.79923522407E+03 -0.61079044050E+02  0.36688887094E+03  0.88512664512E+03  0.79587318528E+02 0.  0.
        254    2    1    2    0    0  0.79923522407E+03  0.61079044050E+02 -0.27864520165E+01  0.12134119374E+04  0.91096277232E+03 0.  0.
         23    2    4    4    0    0  0.76767399709E+03 -0.29033489364E+03  0.10613593659E+03  0.83297251945E+03  0.94660788364E+02 0.  0.
         23    2    4    4    0    0  0.31561226981E+02  0.35141393769E+03 -0.10892238861E+03  0.38043941797E+03  0.91554340994E+02 0.  0.
          4    1    3    3  502    0 -0.36387819354E+03 -0.32722740609E+02  0.12414512991E+03  0.38586283932E+03  0.00000000000E+00 0. -1.
         -3    1    3    3    0  502 -0.43535703053E+03 -0.28356303440E+02  0.24274374103E+03  0.49926380581E+03  0.00000000000E+00 0.  1.
         11    1    5    5    0    0  0.15729844043E+03 -0.44835137740E+02  0.57126914192E+02  0.17325262845E+03  0.00000000000E+00 0. -1.
        -11    1    5    5    0    0  0.61037555666E+03 -0.24549975590E+03  0.49009022402E+02  0.65971989101E+03  0.00000000000E+00 0.  1.
          1    1    6    6  503    0  0.43592824299E+02  0.14274871669E+03 -0.80272124278E+02  0.16947313765E+03  0.00000000000E+00 0. -1.
         -1    1    6    6    0  503 -0.12031597318E+02  0.20866522100E+03 -0.28650264332E+02  0.21096628032E+03  0.00000000000E+00 0.  1.
<mgrwt>
<rscale>  0 0.20667108E+04</rscale>
<asrwt>0</asrwt>
<pdfrwt beam="1">  1        2 0.13341817E+00 0.20667108E+04</pdfrwt>
<pdfrwt beam="2">  1       -1 0.18943392E+00 0.20667108E+04</pdfrwt>
<totfact> 0.58047342E+00</totfact>
</mgrwt>
</event>
<event>
12    6  0.1450532E-007  0.2072057E+04  0.7818608E-02  0.8573653E-01
          2   -1    0    0  501    0  0.00000000000E+00  0.00000000000E+00  0.15777983461E+04  0.15777983461E+04  0.00000000000E+00 0. -1.
         -1   -1    0    0    0  501 -0.00000000000E+00 -0.00000000000E+00 -0.68028670262E+03  0.68028670262E+03  0.00000000000E+00 0.  1.
         24    2    1    2    0    0  0.43537012441E+03  0.51590409473E+03  0.91745830089E+03  0.11419456010E+04  0.81276328123E+02 0.  0.
        254    2    1    2    0    0 -0.43537012441E+03 -0.51590409473E+03 -0.19946657449E+02  0.11161394477E+04  0.88863109185E+03 0.  0.
         23    2    4    4    0    0  0.24154805737E+03 -0.11358221176E+02  0.52723919203E+02  0.26389473017E+03  0.91575890639E+02 0.  0.
         23    2    4    4    0    0 -0.67691818178E+03 -0.50454587356E+03 -0.72670576651E+02  0.85224471754E+03  0.90858585221E+02 0.  0.
          2    1    3    3  502    0  0.43051027918E+03  0.50702939497E+03  0.87970171867E+03  0.11028567548E+04  0.00000000000E+00 0. -1.
         -1    1    3    3    0  502  0.48598452277E+01  0.88746997608E+01  0.37756582223E+02  0.39088846141E+02  0.00000000000E+00 0.  1.
         11    1    5    5    0    0  0.37010055748E+02  0.32470163401E+02  0.13693854245E+02  0.51103594608E+02  0.00000000000E+00 0. -1.
        -11    1    5    5    0    0  0.20453800163E+03 -0.43828384577E+02  0.39030064958E+02  0.21279113556E+03  0.00000000000E+00 0.  1.
          1    1    6    6  503    0 -0.38400014150E+03 -0.34029732883E+03 -0.34252018215E+02  0.51422911375E+03  0.00000000000E+00 0. -1.
         -1    1    6    6    0  503 -0.29291804029E+03 -0.16424854472E+03 -0.38418558436E+02  0.33801560379E+03  0.00000000000E+00 0.  1.
<mgrwt>
<rscale>  0 0.20720572E+04</rscale>
<asrwt>0</asrwt>
<pdfrwt beam="1">  1        2 0.24273821E+00 0.20720572E+04</pdfrwt>
<pdfrwt beam="2">  1       -1 0.10465949E+00 0.20720572E+04</pdfrwt>
<totfact> 0.10358098E+01</totfact>
</mgrwt>
</event>
<event>
12    6  0.1450532E-007  0.1425528E+04  0.7818608E-02  0.8935545E-01
          2   -1    0    0  501    0  0.00000000000E+00  0.00000000000E+00  0.17044566035E+04  0.17044566035E+04  0.00000000000E+00 0. -1.
         -1   -1    0    0    0  501 -0.00000000000E+00 -0.00000000000E+00 -0.29806121336E+03  0.29806121336E+03  0.00000000000E+00 0.  1.
         24    2    1    2    0    0 -0.43370308170E+03 -0.14992610961E+02  0.54072213500E+03  0.69806886698E+03  0.81219297640E+02 0.  0.
        254    2    1    2    0    0  0.43370308170E+03  0.14992610961E+02  0.86567325512E+03  0.13044489499E+04  0.87399870520E+03 0.  0.
         23    2    4    4    0    0 -0.23551499079E+03 -0.90891059816E+02  0.38337762173E+03  0.46789442880E+03  0.90654840012E+02 0.  0.
         23    2    4    4    0    0  0.66921807249E+03  0.10588367078E+03  0.48229563339E+03  0.83655452106E+03  0.90278504793E+02 0.  0.
          2    1    3    3  502    0 -0.39977078524E+03 -0.36111378251E+02  0.49651160487E+03  0.63847042699E+03  0.00000000000E+00 0. -1.
         -1    1    3    3    0  502 -0.33932296460E+02  0.21118767290E+02  0.44210530128E+02  0.59598439989E+02  0.00000000000E+00 0.  1.
         11    1    5    5    0    0 -0.10438394025E+03 -0.68080953959E+01  0.21134492552E+03  0.23581567948E+03  0.00000000000E+00 0. -1.
        -11    1    5    5    0    0 -0.13113105054E+03 -0.84082964420E+02  0.17203269621E+03  0.23207874932E+03  0.00000000000E+00 0.  1.
          3    1    6    6  503    0  0.64450464032E+03  0.97440478414E+02  0.43861302276E+03  0.78566039862E+03  0.00000000000E+00 0. -1.
         -3    1    6    6    0  503  0.24713432173E+02  0.84431923628E+01  0.43682610634E+02  0.50894122439E+02  0.00000000000E+00 0.  1.
<mgrwt>
<rscale>  0 0.14255278E+04</rscale>
<asrwt>0</asrwt>
<pdfrwt beam="1">  1        2 0.26222409E+00 0.14255278E+04</pdfrwt>
<pdfrwt beam="2">  1       -1 0.45855572E-01 0.14255278E+04</pdfrwt>
<totfact> 0.51021060E+01</totfact>
</mgrwt>
</event>
<event>
12    6  0.1450532E-007  0.1465943E+04  0.7818608E-02  0.8907421E-01
         -1   -1    0    0    0  501 -0.00000000000E+00  0.00000000000E+00  0.44890467898E+03  0.44890467898E+03  0.00000000000E+00 0.  1.
          2   -1    0    0  501    0  0.00000000000E+00 -0.00000000000E+00 -0.11967962603E+04  0.11967962603E+04  0.00000000000E+00 0. -1.
         24    2    1    2    0    0  0.30354571639E+03 -0.13909726107E+03 -0.57524361219E+03  0.67007991320E+03  0.81325437185E+02 0.  0.
        254    2    1    2    0    0 -0.30354571639E+03  0.13909726107E+03 -0.17264796914E+03  0.97562102609E+03  0.90030051390E+03 0.  0.
         23    2    4    4    0    0 -0.47803956212E+03  0.31879992737E+03  0.10453549052E+03  0.59119158265E+03  0.91785630554E+02 0.  0.
         23    2    4    4    0    0  0.17449384573E+03 -0.17970266630E+03 -0.27718345966E+03  0.38442944344E+03  0.90632092540E+02 0.  0.
          2    1    3    3  502    0  0.24603056249E+03 -0.14175155404E+03 -0.50397821632E+03  0.57846225743E+03  0.00000000000E+00 0. -1.
         -1    1    3    3    0  502  0.57515153902E+02  0.26542929721E+01 -0.71265395876E+02  0.91617655771E+02  0.00000000000E+00 0.  1.
         11    1    5    5    0    0 -0.23219131806E+03  0.17135043512E+03  0.96927502013E+02  0.30441537485E+03  0.00000000000E+00 0. -1.
        -11    1    5    5    0    0 -0.24584824406E+03  0.14744949225E+03  0.76079885101E+01  0.28677620780E+03  0.00000000000E+00 0.  1.
          4    1    6    6  503    0  0.14216215894E+03 -0.11066801992E+03 -0.23863811819E+03  0.29900776164E+03  0.00000000000E+00 0. -1.
         -4    1    6    6    0  503  0.32331686792E+02 -0.69034646383E+02 -0.38545341467E+02  0.85421681796E+02  0.00000000000E+00 0.  1.
<mgrwt>
<rscale>  0 0.14659433E+04</rscale>
<asrwt>0</asrwt>
<pdfrwt beam="1">  1        2 0.18412250E+00 0.14659433E+04</pdfrwt>
<pdfrwt beam="2">  1       -1 0.69062259E-01 0.14659433E+04</pdfrwt>
<totfact> 0.44574667E+01</totfact>
</mgrwt>
</event>
<event>
12    6  0.1450532E-007  0.1506846E+04  0.7818608E-02  0.8879913E-01
         -1   -1    0    0    0  501 -0.00000000000E+00  0.00000000000E+00  0.21800715017E+03  0.21800715017E+03  0.00000000000E+00 0.  1.
          2   -1    0    0  501    0  0.00000000000E+00 -0.00000000000E+00 -0.26037977665E+04  0.26037977665E+04  0.00000000000E+00 0. -1.
         24    2    1    2    0    0  0.17525869828E+03  0.81314740595E+02 -0.16042528150E+04  0.16178252926E+04  0.80024273779E+02 0.  0.
        254    2    1    2    0    0 -0.17525869828E+03 -0.81314740595E+02 -0.78153780126E+03  0.12039796241E+04  0.89523064178E+03 0.  0.
         23    2    4    4    0    0 -0.30683746470E+02 -0.44702251778E+03 -0.61637830257E+03  0.76748814100E+03  0.91352126422E+02 0.  0.
         23    2    4    4    0    0 -0.14457495181E+03  0.36570777719E+03 -0.16515949869E+03  0.43649148306E+03  0.92752680742E+02 0.  0.
          4    1    3    3  502    0  0.95980657254E+02  0.13590450834E+02 -0.99539975813E+03  0.10001088268E+04  0.00000000000E+00 0. -1.
         -3    1    3    3    0  502  0.79278041030E+02  0.67724289760E+02 -0.60885305690E+03  0.61771646579E+03  0.00000000000E+00 0.  1.
         11    1    5    5    0    0 -0.15241907847E+02 -0.12852090213E+03 -0.11408822791E+03  0.17252843762E+03  0.00000000000E+00 0. -1.
        -11    1    5    5    0    0 -0.15441838622E+02 -0.31850161565E+03 -0.50229007466E+03  0.59495970339E+03  0.00000000000E+00 0.  1.
          1    1    6    6  503    0 -0.40623361320E+01  0.93659753496E+02 -0.65972867025E+02  0.11463451131E+03  0.00000000000E+00 0. -1.
         -1    1    6    6    0  503 -0.14051261568E+03  0.27204802369E+03 -0.99186631670E+02  0.32185697175E+03  0.00000000000E+00 0.  1.
<mgrwt>
<rscale>  0 0.15068464E+04</rscale>
<asrwt>0</asrwt>
<pdfrwt beam="1">  1        2 0.40058424E+00 0.15068464E+04</pdfrwt>
<pdfrwt beam="2">  1       -1 0.33539565E-01 0.15068464E+04</pdfrwt>
<totfact> 0.27983501E+01</totfact>
</mgrwt>
</event>
<event>
12    6  0.1450532E-007  0.1677347E+04  0.7818608E-02  0.8774391E-01
          2   -1    0    0  501    0  0.00000000000E+00  0.00000000000E+00  0.13391176499E+04  0.13391176499E+04  0.00000000000E+00 0. -1.
         -1   -1    0    0    0  501 -0.00000000000E+00 -0.00000000000E+00 -0.52525107930E+03  0.52525107930E+03  0.00000000000E+00 0.  1.
         24    2    1    2    0    0  0.50914932362E+03 -0.27615114762E+03  0.45596338258E+03  0.74205891967E+03  0.85184176569E+02 0.  0.
        254    2    1    2    0    0 -0.50914932362E+03  0.27615114762E+03  0.35790318805E+03  0.11223098096E+04  0.89218390847E+03 0.  0.
         23    2    4    4    0    0 -0.55816509219E+03  0.16101761992E+03 -0.13663687174E+03  0.60414505872E+03  0.94056755191E+02 0.  0.
         23    2    4    4    0    0  0.49015768568E+02  0.11513352770E+03  0.49454005978E+03  0.51816475083E+03  0.90920644011E+02 0.  0.
          2    1    3    3  502    0  0.14394777435E+03 -0.99269284271E+02  0.18239652739E+03  0.25267339739E+03  0.00000000000E+00 0. -1.
         -1    1    3    3    0  502  0.36520154926E+03 -0.17688186335E+03  0.27356685519E+03  0.48938552229E+03  0.00000000000E+00 0.  1.
         11    1    5    5    0    0 -0.44018794368E+03  0.16130048850E+03 -0.90492006565E+02  0.47746421500E+03  0.00000000000E+00 0.  1.
        -11    1    5    5    0    0 -0.11797714850E+03 -0.28286857825E+00 -0.46144865173E+02  0.12668084372E+03  0.00000000000E+00 0. -1.
          1    1    6    6  503    0 -0.59848266984E+01  0.51312946709E+02  0.80579755379E+02  0.95717990093E+02  0.00000000000E+00 0. -1.
         -1    1    6    6    0  503  0.55000595267E+02  0.63820580989E+02  0.41396030441E+03  0.42244676074E+03  0.00000000000E+00 0.  1.
<mgrwt>
<rscale>  0 0.16773467E+04</rscale>
<asrwt>0</asrwt>
<pdfrwt beam="1">  1        2 0.20601810E+00 0.16773467E+04</pdfrwt>
<pdfrwt beam="2">  1       -1 0.80807859E-01 0.16773467E+04</pdfrwt>
<totfact> 0.26026647E+01</totfact>
</mgrwt>
</event>
<event>
12    6  0.1450532E-007  0.1329625E+04  0.7818608E-02  0.9006397E-01
         -1   -1    0    0    0  501 -0.00000000000E+00  0.00000000000E+00  0.25911246035E+03  0.25911246035E+03  0.00000000000E+00 0.  1.
          2   -1    0    0  501    0  0.00000000000E+00 -0.00000000000E+00 -0.17057292004E+04  0.17057292004E+04  0.00000000000E+00 0. -1.
         24    2    1    2    0    0 -0.31396047319E+03  0.12923350570E+03 -0.52378480629E+03  0.63059655115E+03  0.89604739307E+02 0.  0.
        254    2    1    2    0    0  0.31396047319E+03 -0.12923350570E+03 -0.92283193371E+03  0.13342451096E+04  0.90184186905E+03 0.  0.
         23    2    4    4    0    0 -0.77978968124E+02  0.30458896867E+03 -0.14798813640E+03  0.35917273533E+03  0.90826240585E+02 0.  0.
         23    2    4    4    0    0  0.39193944131E+03 -0.43382247438E+03 -0.77484379731E+03  0.97507237422E+03  0.92545987576E+02 0.  0.
          4    1    3    3  502    0 -0.31963308335E+03  0.13059264680E+03 -0.51402708179E+03  0.61922821979E+03  0.00000000000E+00 0. -1.
         -3    1    3    3    0  502  0.56726101635E+01 -0.13591410955E+01 -0.97577244963E+01  0.11368331361E+02  0.00000000000E+00 0.  1.
         11    1    5    5    0    0 -0.77551253284E+02  0.16006171168E+03 -0.50677662349E+02  0.18493829753E+03  0.00000000000E+00 0.  1.
        -11    1    5    5    0    0 -0.42771483964E+00  0.14452725700E+03 -0.97310474054E+02  0.17423443780E+03  0.00000000000E+00 0. -1.
          3    1    6    6  503    0  0.10352785718E+03 -0.96054854890E+02 -0.25352863956E+03  0.29020910296E+03  0.00000000000E+00 0. -1.
         -3    1    6    6    0  503  0.28841158413E+03 -0.33776761949E+03 -0.52131515774E+03  0.68486327127E+03  0.00000000000E+00 0.  1.
<mgrwt>
<rscale>  0 0.13296250E+04</rscale>
<asrwt>0</asrwt>
<pdfrwt beam="1">  1        2 0.26241986E+00 0.13296250E+04</pdfrwt>
<pdfrwt beam="2">  1       -1 0.39863457E-01 0.13296250E+04</pdfrwt>
<totfact> 0.66490416E+01</totfact>
</mgrwt>
</event>
<event>
12    6  0.1450532E-007  0.1517563E+04  0.7818608E-02  0.8872857E-01
         -1   -1    0    0    0  501 -0.00000000000E+00  0.00000000000E+00  0.36523402959E+03  0.36523402959E+03  0.00000000000E+00 0.  1.
          2   -1    0    0  501    0  0.00000000000E+00 -0.00000000000E+00 -0.15763853438E+04  0.15763853438E+04  0.00000000000E+00 0. -1.
         24    2    1    2    0    0 -0.16320792391E+03  0.16331082519E+03 -0.94911431251E+03  0.98002689655E+03  0.79545507110E+02 0.  0.
        254    2    1    2    0    0  0.16320792391E+03 -0.16331082519E+03 -0.26203700166E+03  0.96159247680E+03  0.89592937732E+03 0.  0.
         23    2    4    4    0    0  0.12957551522E+03 -0.48677986831E+03 -0.33927981163E+03  0.61493635672E+03  0.96392312421E+02 0.  0.
         23    2    4    4    0    0  0.33632408683E+02  0.32346904313E+03  0.77242809971E+02  0.34665612008E+03  0.91873027167E+02 0.  0.
          4    1    3    3  502    0 -0.10314781596E+03  0.10272998356E+03 -0.73996547843E+03  0.75414974026E+03  0.00000000000E+00 0. -1.
         -3    1    3    3    0  502 -0.60060107945E+02  0.60580841624E+02 -0.20914883407E+03  0.22587715629E+03  0.00000000000E+00 0.  1.
         11    1    5    5    0    0 -0.42277549905E+01 -0.28779379996E+00 -0.13972319487E+02  0.14600768794E+02  0.00000000000E+00 0. -1.
        -11    1    5    5    0    0  0.13380327022E+03 -0.48649207451E+03 -0.32530749214E+03  0.60033558792E+03  0.00000000000E+00 0.  1.
          2    1    6    6  503    0  0.88929912326E+01  0.28028534750E+03  0.37410727540E+02  0.28291080547E+03  0.00000000000E+00 0.  1.
         -2    1    6    6    0  503  0.24739417450E+02  0.43183695624E+02  0.39832082431E+02  0.63745314607E+02  0.00000000000E+00 0. -1.
<mgrwt>
<rscale>  0 0.15175633E+04</rscale>
<asrwt>0</asrwt>
<pdfrwt beam="1">  1        2 0.24252083E+00 0.15175633E+04</pdfrwt>
<pdfrwt beam="2">  1       -1 0.56189849E-01 0.15175633E+04</pdfrwt>
<totfact> 0.40503991E+01</totfact>
</mgrwt>
</event>
<event>
12    6  0.1450532E-007  0.1469344E+04  0.7818608E-02  0.8905099E-01
          2   -1    0    0  501    0  0.00000000000E+00  0.00000000000E+00  0.90975608887E+03  0.90975608887E+03  0.00000000000E+00 0. -1.
         -1   -1    0    0    0  501 -0.00000000000E+00 -0.00000000000E+00 -0.59328319113E+03  0.59328319113E+03  0.00000000000E+00 0.  1.
         24    2    1    2    0    0  0.14240473097E+03  0.26513724023E+03  0.44225078274E+03  0.54608726165E+03  0.10976647458E+03 0.  0.
        254    2    1    2    0    0 -0.14240473097E+03 -0.26513724023E+03 -0.12577788500E+03  0.95695201836E+03  0.89964449952E+03 0.  0.
         23    2    4    4    0    0  0.37317888112E+03 -0.12186293271E+03 -0.15986044899E+02  0.40304818137E+03  0.89884543659E+02 0.  0.
         23    2    4    4    0    0 -0.51558361210E+03 -0.14327430752E+03 -0.10979184010E+03  0.55390383699E+03  0.91658192311E+02 0.  0.
          2    1    3    3  502    0  0.81710698818E+02  0.23938829689E+03  0.37085593303E+03  0.44890702607E+03  0.00000000000E+00 0. -1.
         -1    1    3    3    0  502  0.60694032157E+02  0.25748943338E+02  0.71394849703E+02  0.97180235576E+02  0.00000000000E+00 0.  1.
         11    1    5    5    0    0  0.35145651071E+03 -0.94542320304E+02  0.16228319940E+01  0.36395406693E+03  0.00000000000E+00 0.  1.
        -11    1    5    5    0    0  0.21722370412E+02 -0.27320612406E+02 -0.17608876893E+02  0.39094114442E+02  0.00000000000E+00 0. -1.
          3    1    6    6  503    0 -0.27790260789E+03 -0.36018750495E+02 -0.80150504799E+02  0.29146408575E+03  0.00000000000E+00 0. -1.
         -3    1    6    6    0  503 -0.23768100421E+03 -0.10725555703E+03 -0.29641335304E+02  0.26243975124E+03  0.00000000000E+00 0.  1.
<mgrwt>
<rscale>  0 0.14693441E+04</rscale>
<asrwt>0</asrwt>
<pdfrwt beam="1">  1        2 0.13996248E+00 0.14693441E+04</pdfrwt>
<pdfrwt beam="2">  1       -1 0.91274336E-01 0.14693441E+04</pdfrwt>
<totfact> 0.37384225E+01</totfact>
</mgrwt>
</event>
<event>
12    6  0.1450532E-007  0.1505929E+04  0.7818608E-02  0.8880520E-01
          2   -1    0    0  501    0  0.00000000000E+00  0.00000000000E+00  0.29726786831E+04  0.29726786831E+04  0.00000000000E+00 0. -1.
         -1   -1    0    0    0  501 -0.00000000000E+00 -0.00000000000E+00 -0.19072217707E+03  0.19072217707E+03  0.00000000000E+00 0.  1.
         24    2    1    2    0    0  0.16567210375E+03 -0.23147428562E+03  0.84724273824E+02  0.30897340759E+03  0.85198434022E+02 0.  0.
        254    2    1    2    0    0 -0.16567210375E+03  0.23147428562E+03  0.26972322322E+04  0.28544274526E+04  0.88975658283E+03 0.  0.
         23    2    4    4    0    0  0.17276653098E+03  0.38771024347E+03  0.20995431106E+04  0.21439349032E+04  0.90598501938E+02 0.  0.
         23    2    4    4    0    0 -0.33843863473E+03 -0.15623595785E+03  0.59768912155E+03  0.71049254937E+03  0.92827758172E+02 0.  0.
          2    1    3    3  502    0  0.89400476461E+02 -0.84776420150E+02  0.35121311562E-01  0.12320506418E+03  0.00000000000E+00 0. -1.
         -1    1    3    3    0  502  0.76271627292E+02 -0.14669786547E+03  0.84689152513E+02  0.18576834342E+03  0.00000000000E+00 0.  1.
         11    1    5    5    0    0  0.68036421030E+02  0.20200665527E+03  0.12502562678E+04  0.12682966445E+04  0.00000000000E+00 0.  1.
        -11    1    5    5    0    0  0.10473010995E+03  0.18570358820E+03  0.84928684286E+03  0.87563825868E+03  0.00000000000E+00 0. -1.
          1    1    6    6  503    0 -0.61211224381E+01  0.48677186243E+01 -0.10471108713E+00  0.78213674584E+01  0.00000000000E+00 0. -1.
         -1    1    6    6    0  503 -0.33231751229E+03 -0.16110367647E+03  0.59779383264E+03  0.70267118192E+03  0.00000000000E+00 0.  1.
<mgrwt>
<rscale>  0 0.15059293E+04</rscale>
<asrwt>0</asrwt>
<pdfrwt beam="1">  1        2 0.45733515E+00 0.15059293E+04</pdfrwt>
<pdfrwt beam="2">  1       -1 0.29341876E-01 0.15059293E+04</pdfrwt>
<totfact> 0.21277742E+01</totfact>
</mgrwt>
</event>
<event>
12    6  0.1450532E-007  0.2528906E+04  0.7818608E-02  0.8392760E-01
         -1   -1    0    0    0  501 -0.00000000000E+00  0.00000000000E+00  0.13454186349E+04  0.13454186349E+04  0.00000000000E+00 0.  1.
          2   -1    0    0  501    0  0.00000000000E+00 -0.00000000000E+00 -0.11883594833E+04  0.11883594833E+04  0.00000000000E+00 0. -1.
         24    2    1    2    0    0  0.11381869458E+02  0.60606007199E+03  0.99275465015E+03  0.11658704022E+04  0.79079969825E+02 0.  0.
        254    2    1    2    0    0 -0.11381869458E+02 -0.60606007199E+03 -0.83569549855E+03  0.13679077160E+04  0.89741082870E+03 0.  0.
         23    2    4    4    0    0 -0.11565402446E+03 -0.91139721090E+01 -0.73193989747E+03  0.74622636237E+03  0.87514870339E+02 0.  0.
         23    2    4    4    0    0  0.10427215500E+03 -0.59694609988E+03 -0.10375560109E+03  0.62168135367E+03  0.92223382434E+02 0.  0.
          2    1    3    3  502    0  0.11640081742E+02  0.27512881111E+02  0.28025898422E+02  0.40962191254E+02  0.00000000000E+00 0. -1.
         -1    1    3    3    0  502 -0.25821228427E+00  0.57854719088E+03  0.96472875173E+03  0.11249082110E+04  0.00000000000E+00 0.  1.
         11    1    5    5    0    0 -0.98681271602E+02  0.29143055082E+02 -0.48908127740E+03  0.49978776189E+03  0.00000000000E+00 0. -1.
        -11    1    5    5    0    0 -0.16972752853E+02 -0.38257027191E+02 -0.24285862006E+03  0.24643860048E+03  0.00000000000E+00 0.  1.
          3    1    6    6  503    0  0.62099025719E+02 -0.53081519988E+03 -0.94082349161E+02  0.54265325378E+03  0.00000000000E+00 0. -1.
         -3    1    6    6    0  503  0.42173129278E+02 -0.66130900003E+02 -0.96732519256E+01  0.79028099883E+02  0.00000000000E+00 0.  1.
<mgrwt>
<rscale>  0 0.25289057E+04</rscale>
<asrwt>0</asrwt>
<pdfrwt beam="1">  1        2 0.18282454E+00 0.25289057E+04</pdfrwt>
<pdfrwt beam="2">  1       -1 0.20698748E+00 0.25289057E+04</pdfrwt>
<totfact> 0.26304937E+00</totfact>
</mgrwt>
</event>
<event>
12    6  0.1450532E-007  0.2833118E+04  0.7818608E-02  0.8293060E-01
         -1   -1    0    0    0  501 -0.00000000000E+00  0.00000000000E+00  0.14579349283E+04  0.14579349283E+04  0.00000000000E+00 0.  1.
          2   -1    0    0  501    0  0.00000000000E+00 -0.00000000000E+00 -0.13763576056E+04  0.13763576056E+04  0.00000000000E+00 0. -1.
         24    2    1    2    0    0  0.63052398125E+03 -0.94895279057E+03 -0.52636268385E+03  0.12575947810E+04  0.80094122540E+02 0.  0.
        254    2    1    2    0    0 -0.63052398125E+03  0.94895279057E+03  0.60794000655E+03  0.15766977529E+04  0.90460646849E+03 0.  0.
         23    2    4    4    0    0 -0.80127716592E+03  0.61263940750E+03  0.62096825622E+03  0.11881716943E+04  0.93692367187E+02 0.  0.
         23    2    4    4    0    0  0.17075318467E+03  0.33631338308E+03 -0.13028249673E+02  0.38852605862E+03  0.92300710849E+02 0.  0.
          2    1    3    3  502    0  0.50448146080E+03 -0.71402470425E+03 -0.42820279291E+03  0.97349394165E+03  0.00000000000E+00 0. -1.
         -1    1    3    3    0  502  0.12604252044E+03 -0.23492808632E+03 -0.98159890939E+02  0.28410083930E+03  0.00000000000E+00 0.  1.
         11    1    5    5    0    0 -0.73055662610E+03  0.52535657134E+03  0.53669212903E+03  0.10477361082E+04  0.00000000000E+00 0.  1.
        -11    1    5    5    0    0 -0.70720539818E+02  0.87282836156E+02  0.84276127194E+02  0.14043558614E+03  0.00000000000E+00 0. -1.
          1    1    6    6  503    0  0.10704584526E+03  0.11776548236E+03 -0.22256916896E+02  0.16069502847E+03  0.00000000000E+00 0. -1.
         -1    1    6    6    0  503  0.63707339409E+02  0.21854790071E+03  0.92286672231E+01  0.22783103015E+03  0.00000000000E+00 0.  1.
<mgrwt>
<rscale>  0 0.28331183E+04</rscale>
<asrwt>0</asrwt>
<pdfrwt beam="1">  1        2 0.21174732E+00 0.28331183E+04</pdfrwt>
<pdfrwt beam="2">  1       -1 0.22429768E+00 0.28331183E+04</pdfrwt>
<totfact> 0.15201010E+00</totfact>
</mgrwt>
</event>
<event>
12    6  0.1450532E-007  0.1292075E+04  0.7818608E-02  0.9035874E-01
         -1   -1    0    0    0  501 -0.00000000000E+00  0.00000000000E+00  0.43271041595E+03  0.43271041595E+03  0.00000000000E+00 0.  1.
          2   -1    0    0  501    0  0.00000000000E+00 -0.00000000000E+00 -0.96453512397E+03  0.96453512397E+03  0.00000000000E+00 0. -1.
         24    2    1    2    0    0 -0.53323154474E+02 -0.31245296451E+03 -0.24535621659E+02  0.32808160239E+03  0.81026707074E+02 0.  0.
        254    2    1    2    0    0  0.53323154474E+02  0.31245296451E+03 -0.50728908637E+03  0.10691639375E+04  0.88617102996E+03 0.  0.
         23    2    4    4    0    0  0.57314146231E+02  0.24644266821E+03  0.21221014107E+03  0.34058401094E+03  0.83339213248E+02 0.  0.
         23    2    4    4    0    0 -0.39909917568E+01  0.66010296303E+02 -0.71949922743E+03  0.72857992659E+03  0.93681822794E+02 0.  0.
          2    1    3    3  502    0 -0.54365044925E+02 -0.20853247851E+03 -0.49685529462E+02  0.22115606376E+03  0.00000000000E+00 0. -1.
         -1    1    3    3    0  502  0.10418904509E+01 -0.10392048601E+03  0.25149907803E+02  0.10692553862E+03  0.00000000000E+00 0.  1.
         11    1    5    5    0    0  0.73281361438E+02  0.13848190032E+03  0.13605127616E+03  0.20750263708E+03  0.00000000000E+00 0.  1.
        -11    1    5    5    0    0 -0.15967215207E+02  0.10796076789E+03  0.76158864904E+02  0.13308137386E+03  0.00000000000E+00 0. -1.
          3    1    6    6  503    0  0.18904697207E+02  0.70331486056E+02 -0.66914229375E+03  0.67309383803E+03  0.00000000000E+00 0. -1.
         -3    1    6    6    0  503 -0.22895688964E+02 -0.43211897532E+01 -0.50356933681E+02  0.55486088561E+02  0.00000000000E+00 0.  1.
<mgrwt>
<rscale>  0 0.12920749E+04</rscale>
<asrwt>0</asrwt>
<pdfrwt beam="1">  1        2 0.14839002E+00 0.12920749E+04</pdfrwt>
<pdfrwt beam="2">  1       -1 0.66570833E-01 0.12920749E+04</pdfrwt>
<totfact> 0.67957331E+01</totfact>
</mgrwt>
</event>
<event>
12    6  0.1450532E-007  0.2706055E+04  0.7818608E-02  0.8333043E-01
          2   -1    0    0  501    0  0.00000000000E+00  0.00000000000E+00  0.21109170661E+04  0.21109170661E+04  0.00000000000E+00 0. -1.
         -1   -1    0    0    0  501 -0.00000000000E+00 -0.00000000000E+00 -0.86724584600E+03  0.86724584600E+03  0.00000000000E+00 0.  1.
         24    2    1    2    0    0  0.40232720346E+03  0.11149205320E+04  0.33330315705E+03  0.12339069032E+04  0.80748249844E+02 0.  0.
        254    2    1    2    0    0 -0.40232720346E+03 -0.11149205320E+04  0.91036806309E+03  0.17442560089E+04  0.89930197545E+03 0.  0.
         23    2    4    4    0    0 -0.29897161005E+03 -0.28909148201E+03  0.79156489752E+03  0.89869735523E+03  0.90133460687E+02 0.  0.
         23    2    4    4    0    0 -0.10335559342E+03 -0.82582905002E+03  0.11880316557E+03  0.84555865371E+03  0.90439184873E+02 0.  0.
          2    1    3    3  502    0  0.93243528051E+02  0.33471473328E+03  0.70688431450E+02  0.35457744224E+03  0.00000000000E+00 0. -1.
         -1    1    3    3    0  502  0.30908367541E+03  0.78020579875E+03  0.26261472560E+03  0.87932946096E+03  0.00000000000E+00 0.  1.
         11    1    5    5    0    0 -0.19801503314E+03 -0.20174664269E+03  0.44373940361E+03  0.52613336665E+03  0.00000000000E+00 0. -1.
        -11    1    5    5    0    0 -0.10095657690E+03 -0.87344839323E+02  0.34782549391E+03  0.37256398858E+03  0.00000000000E+00 0.  1.
          3    1    6    6  503    0 -0.81745500813E+02 -0.78470069713E+03  0.12464529227E+03  0.79873272117E+03  0.00000000000E+00 0.  1.
         -3    1    6    6    0  503 -0.21610092603E+02 -0.41128352893E+02 -0.58421266984E+01  0.46825932541E+02  0.00000000000E+00 0. -1.
<mgrwt>
<rscale>  0 0.27060555E+04</rscale>
<asrwt>0</asrwt>
<pdfrwt beam="1">  1        2 0.32475647E+00 0.27060555E+04</pdfrwt>
<pdfrwt beam="2">  1       -1 0.13342244E+00 0.27060555E+04</pdfrwt>
<totfact> 0.27431506E+00</totfact>
</mgrwt>
</event>
<event>
12    6  0.1450532E-007  0.1566278E+04  0.7818608E-02  0.8841537E-01
          2   -1    0    0  501    0  0.00000000000E+00  0.00000000000E+00  0.15146900406E+04  0.15146900406E+04  0.00000000000E+00 0. -1.
         -1   -1    0    0    0  501 -0.00000000000E+00 -0.00000000000E+00 -0.40490595974E+03  0.40490595974E+03  0.00000000000E+00 0.  1.
         24    2    1    2    0    0  0.73829206762E+02 -0.23819594830E+03  0.93052591820E+03  0.96660545960E+03  0.79117434943E+02 0.  0.
        254    2    1    2    0    0 -0.73829206762E+02  0.23819594830E+03  0.17925816265E+03  0.95299054073E+03  0.90214711676E+03 0.  0.
         23    2    4    4    0    0 -0.10298787315E+03 -0.20168509131E+03  0.38752768026E+03  0.45696479829E+03  0.85765644858E+02 0.  0.
         23    2    4    4    0    0  0.29158666390E+02  0.43988103961E+03 -0.20826951761E+03  0.49602574244E+03  0.91212873865E+02 0.  0.
          4    1    3    3  502    0  0.76214813248E+02 -0.24199201156E+03  0.92639715508E+03  0.96051055193E+03  0.00000000000E+00 0. -1.
         -3    1    3    3    0  502 -0.23856064863E+01  0.37960632602E+01  0.41287631241E+01  0.60949076710E+01  0.00000000000E+00 0.  1.
         11    1    5    5    0    0 -0.30045819527E+02 -0.11184032400E+03  0.26075496790E+03  0.28531414727E+03  0.00000000000E+00 0. -1.
        -11    1    5    5    0    0 -0.72942053625E+02 -0.89844767304E+02  0.12677271236E+03  0.17165065102E+03  0.00000000000E+00 0.  1.
          1    1    6    6  503    0  0.13932290902E+02  0.34942635453E+03 -0.20253266169E+03  0.40411924604E+03  0.00000000000E+00 0. -1.
         -1    1    6    6    0  503  0.15226375487E+02  0.90454685079E+02 -0.57368559196E+01  0.91906496392E+02  0.00000000000E+00 0.  1.
<mgrwt>
<rscale>  0 0.15662784E+04</rscale>
<asrwt>0</asrwt>
<pdfrwt beam="1">  1        2 0.23302923E+00 0.15662784E+04</pdfrwt>
<pdfrwt beam="2">  1       -1 0.62293225E-01 0.15662784E+04</pdfrwt>
<totfact> 0.35658733E+01</totfact>
</mgrwt>
</event>
<event>
12    6  0.1450532E-007  0.1959393E+04  0.7818608E-02  0.8625844E-01
          2   -1    0    0  501    0  0.00000000000E+00  0.00000000000E+00  0.47111273610E+03  0.47111273610E+03  0.00000000000E+00 0. -1.
         -1   -1    0    0    0  501 -0.00000000000E+00 -0.00000000000E+00 -0.20373164272E+04  0.20373164272E+04  0.00000000000E+00 0.  1.
         24    2    1    2    0    0  0.18345361451E+03 -0.83579783332E+02 -0.15975257745E+04  0.16120536138E+04  0.77378580827E+02 0.  0.
        254    2    1    2    0    0 -0.18345361451E+03  0.83579783332E+02  0.31322083368E+02  0.89637554952E+03  0.87285006960E+03 0.  0.
         23    2    4    4    0    0 -0.26135692484E+03 -0.34111264415E+03  0.98173514078E+02  0.45009678630E+03  0.91015383361E+02 0.  0.
         23    2    4    4    0    0  0.77903310337E+02  0.42469242748E+03 -0.66851430709E+02  0.44627876322E+03  0.90901248543E+02 0.  0.
          2    1    3    3  502    0  0.46220682834E+02 -0.36823697110E+02 -0.74024364849E+03  0.74259881182E+03  0.00000000000E+00 0. -1.
         -1    1    3    3    0  502  0.13723293167E+03 -0.46756086221E+02 -0.85728212597E+03  0.86945480195E+03  0.00000000000E+00 0.  1.
         11    1    5    5    0    0 -0.11499363847E+03 -0.17878261466E+03  0.91488506333E+02  0.23142365261E+03  0.00000000000E+00 0.  1.
        -11    1    5    5    0    0 -0.14636328637E+03 -0.16233002949E+03  0.66850077445E+01  0.21867313370E+03  0.00000000000E+00 0. -1.
          3    1    6    6  503    0  0.95966330811E+02  0.32828379410E+03 -0.65179537703E+02  0.34817834260E+03  0.00000000000E+00 0. -1.
         -3    1    6    6    0  503 -0.18063020475E+02  0.96408633381E+02 -0.16718930065E+01  0.98100420618E+02  0.00000000000E+00 0.  1.
<mgrwt>
<rscale>  0 0.19593935E+04</rscale>
<asrwt>0</asrwt>
<pdfrwt beam="1">  1        2 0.72478882E-01 0.19593935E+04</pdfrwt>
<pdfrwt beam="2">  1       -1 0.31343330E+00 0.19593935E+04</pdfrwt>
<totfact> 0.18999424E+00</totfact>
</mgrwt>
</event>
<event>
12    6  0.1450532E-007  0.2836707E+04  0.7818608E-02  0.8291962E-01
          2   -1    0    0  501    0  0.00000000000E+00  0.00000000000E+00  0.12947895612E+04  0.12947895612E+04  0.00000000000E+00 0. -1.
         -1   -1    0    0    0  501 -0.00000000000E+00 -0.00000000000E+00 -0.15537088927E+04  0.15537088927E+04  0.00000000000E+00 0.  1.
         24    2    1    2    0    0  0.51207288397E+03  0.11518812890E+04  0.53708492576E+02  0.12642824597E+04  0.80476040778E+02 0.  0.
        254    2    1    2    0    0 -0.51207288397E+03 -0.11518812890E+04 -0.31262782401E+03  0.15842159942E+04  0.90716868194E+03 0.  0.
         23    2    4    4    0    0 -0.39590760482E+03 -0.10016926834E+04 -0.59380503969E+03  0.12333057248E+04  0.91145610142E+02 0.  0.
         23    2    4    4    0    0 -0.11616527915E+03 -0.15018860565E+03  0.28117721569E+03  0.35091026939E+03  0.89590184690E+02 0.  0.
          2    1    3    3  502    0  0.45106312323E+03  0.98727337668E+03  0.71777818019E+02  0.10878045397E+04  0.00000000000E+00 0. -1.
         -1    1    3    3    0  502  0.61009760743E+02  0.16460791237E+03 -0.18069325442E+02  0.17647791999E+03  0.00000000000E+00 0.  1.
         11    1    5    5    0    0 -0.34387894289E+02 -0.15468616063E+03 -0.64386466427E+02  0.17104371553E+03  0.00000000000E+00 0. -1.
        -11    1    5    5    0    0 -0.36151971053E+03 -0.84700652277E+03 -0.52941857327E+03  0.10622620093E+04  0.00000000000E+00 0.  1.
          3    1    6    6  503    0 -0.90401541268E+02 -0.13571733423E+03  0.16875638954E+03  0.23467073206E+03  0.00000000000E+00 0.  1.
         -3    1    6    6    0  503 -0.25763737880E+02 -0.14471271415E+02  0.11242082615E+03  0.11623953733E+03  0.00000000000E+00 0. -1.
<mgrwt>
<rscale>  0 0.28367066E+04</rscale>
<asrwt>0</asrwt>
<pdfrwt beam="1">  1        2 0.19919840E+00 0.28367066E+04</pdfrwt>
<pdfrwt beam="2">  1       -1 0.23903214E+00 0.28367066E+04</pdfrwt>
<totfact> 0.13535807E+00</totfact>
</mgrwt>
</event>
<event>
12    6  0.1450532E-007  0.1605938E+04  0.7818608E-02  0.8816908E-01
         -1   -1    0    0    0  501 -0.00000000000E+00  0.00000000000E+00  0.11072047957E+04  0.11072047957E+04  0.00000000000E+00 0.  1.
          2   -1    0    0  501    0  0.00000000000E+00 -0.00000000000E+00 -0.58233087878E+03  0.58233087878E+03  0.00000000000E+00 0. -1.
         24    2    1    2    0    0  0.17327292511E+03  0.82993803174E+02 -0.34914827163E+03  0.40676534351E+03  0.81498780082E+02 0.  0.
        254    2    1    2    0    0 -0.17327292511E+03 -0.82993803174E+02  0.87402218853E+03  0.12827703309E+04  0.91906118293E+03 0.  0.
         23    2    4    4    0    0  0.29518715756E+03 -0.21788334918E+03  0.15357986040E+03  0.40791483382E+03  0.90549027013E+02 0.  0.
         23    2    4    4    0    0 -0.46846008267E+03  0.13488954601E+03  0.72044232813E+03  0.87485549711E+03  0.93193100606E+02 0.  0.
          4    1    3    3  502    0  0.17770105990E+03  0.86970478605E+02 -0.34854826167E+03  0.40078350958E+03  0.00000000000E+00 0. -1.
         -3    1    3    3    0  502 -0.44281347927E+01 -0.39766754300E+01 -0.60000996571E+00  0.59818339309E+01  0.00000000000E+00 0.  1.
         11    1    5    5    0    0  0.49889238916E+02 -0.35132919582E+02 -0.87136376395E+01  0.61637534659E+02  0.00000000000E+00 0. -1.
        -11    1    5    5    0    0  0.24529791865E+03 -0.18275042960E+03  0.16229349804E+03  0.34627729917E+03  0.00000000000E+00 0.  1.
          2    1    6    6  503    0 -0.12040008519E+03  0.42279414759E+02  0.26573061816E+03  0.29478210742E+03  0.00000000000E+00 0. -1.
         -2    1    6    6    0  503 -0.34805999747E+03  0.92610131249E+02  0.45471170996E+03  0.58007338969E+03  0.00000000000E+00 0.  1.
<mgrwt>
<rscale>  0 0.16059384E+04</rscale>
<asrwt>0</asrwt>
<pdfrwt beam="1">  1        2 0.89589366E-01 0.16059384E+04</pdfrwt>
<pdfrwt beam="2">  1       -1 0.17033920E+00 0.16059384E+04</pdfrwt>
<totfact> 0.13776624E+01</totfact>
</mgrwt>
</event>
<event>
12    6  0.1450532E-007  0.1556918E+04  0.7818608E-02  0.8847461E-01
         -1   -1    0    0    0  501 -0.00000000000E+00  0.00000000000E+00  0.45135447598E+03  0.45135447598E+03  0.00000000000E+00 0.  1.
          2   -1    0    0  501    0  0.00000000000E+00 -0.00000000000E+00 -0.13426217212E+04  0.13426217212E+04  0.00000000000E+00 0. -1.
         24    2    1    2    0    0 -0.19407577193E+03  0.33526763993E+03 -0.63572843929E+03  0.74874897238E+03  0.80028616617E+02 0.  0.
        254    2    1    2    0    0  0.19407577193E+03 -0.33526763993E+03 -0.25553880589E+03  0.10452272248E+04  0.93655222728E+03 0.  0.
         23    2    4    4    0    0 -0.20201586710E+03 -0.30539452246E+03 -0.45535344832E+03  0.59135962538E+03  0.91012189969E+02 0.  0.
         23    2    4    4    0    0  0.39609163903E+03 -0.29873117474E+02  0.19981464243E+03  0.45386759938E+03  0.91043488410E+02 0.  0.
          4    1    3    3  502    0 -0.19313832078E+03  0.27919935230E+03 -0.54519701725E+03  0.64225732919E+03  0.00000000000E+00 0. -1.
         -3    1    3    3    0  502 -0.93745115622E+00  0.56068287634E+02 -0.90531422046E+02  0.10649164320E+03  0.00000000000E+00 0.  1.
         11    1    5    5    0    0 -0.12028272538E+03 -0.11660425804E+03 -0.16184968190E+03  0.23293734468E+03  0.00000000000E+00 0.  1.
        -11    1    5    5    0    0 -0.81733141719E+02 -0.18879026441E+03 -0.29350376642E+03  0.35842228069E+03  0.00000000000E+00 0. -1.
          1    1    6    6  503    0  0.58566110399E+02 -0.38109939649E+02  0.32710717555E+02  0.77151460325E+02  0.00000000000E+00 0. -1.
         -1    1    6    6    0  503  0.33752552863E+03  0.82368221749E+01  0.16710392487E+03  0.37671613905E+03  0.00000000000E+00 0.  1.
<mgrwt>
<rscale>  0 0.15569179E+04</rscale>
<asrwt>0</asrwt>
<pdfrwt beam="1">  1        2 0.20655718E+00 0.15569179E+04</pdfrwt>
<pdfrwt beam="2">  1       -1 0.69439152E-01 0.15569179E+04</pdfrwt>
<totfact> 0.35919410E+01</totfact>
</mgrwt>
</event>
<event>
12    6  0.1450532E-007  0.1244482E+04  0.7818608E-02  0.9074788E-01
          2   -1    0    0  501    0  0.00000000000E+00  0.00000000000E+00  0.59416223394E+03  0.59416223394E+03  0.00000000000E+00 0. -1.
         -1   -1    0    0    0  501 -0.00000000000E+00 -0.00000000000E+00 -0.65164668208E+03  0.65164668208E+03  0.00000000000E+00 0.  1.
         24    2    1    2    0    0 -0.18097612595E+03  0.49750052491E+02  0.21676602979E+03  0.29803036924E+03  0.81284459938E+02 0.  0.
        254    2    1    2    0    0  0.18097612595E+03 -0.49750052491E+02 -0.27425047793E+03  0.94777854678E+03  0.88760544343E+03 0.  0.
         23    2    4    4    0    0 -0.17494785133E+00 -0.18465433863E+03 -0.54520040691E+03  0.58274290998E+03  0.90821583605E+02 0.  0.
         23    2    4    4    0    0  0.18115107381E+03  0.13490428614E+03  0.27094992898E+03  0.36503563681E+03  0.93926961861E+02 0.  0.
          4    1    3    3  502    0 -0.91326298691E+02 -0.15580020774E+02  0.11311051398E+03  0.14620950124E+03  0.00000000000E+00 0. -1.
         -3    1    3    3    0  502 -0.89649827264E+02  0.65330073264E+02  0.10365551581E+03  0.15182086799E+03  0.00000000000E+00 0.  1.
         11    1    5    5    0    0  0.44257287233E+00 -0.31843190636E-01  0.36477130906E+01  0.36746014107E+01  0.00000000000E+00 0.  1.
        -11    1    5    5    0    0 -0.61752072366E+00 -0.18462249544E+03 -0.54884812000E+03  0.57906830856E+03  0.00000000000E+00 0. -1.
          3    1    6    6  503    0  0.51578579454E+02  0.85995152195E+02  0.75646488889E+02  0.12561014028E+03  0.00000000000E+00 0. -1.
         -3    1    6    6    0  503  0.12957249435E+03  0.48909133942E+02  0.19530344009E+03  0.23942549653E+03  0.00000000000E+00 0.  1.
<mgrwt>
<rscale>  0 0.12444820E+04</rscale>
<asrwt>0</asrwt>
<pdfrwt beam="1">  1        2 0.91409575E-01 0.12444820E+04</pdfrwt>
<pdfrwt beam="2">  1       -1 0.10025334E+00 0.12444820E+04</pdfrwt>
<totfact> 0.53503877E+01</totfact>
</mgrwt>
</event>
<event>
12    6  0.1450532E-007  0.1533432E+04  0.7818608E-02  0.8862521E-01
         -1   -1    0    0    0  501 -0.00000000000E+00  0.00000000000E+00  0.83699337285E+03  0.83699337285E+03  0.00000000000E+00 0.  1.
          2   -1    0    0  501    0  0.00000000000E+00 -0.00000000000E+00 -0.70233920969E+03  0.70233920969E+03  0.00000000000E+00 0. -1.
         24    2    1    2    0    0  0.38911186558E+02  0.25862121440E+03  0.46945758398E+03  0.54280636278E+03  0.76480790682E+02 0.  0.
        254    2    1    2    0    0 -0.38911186558E+02 -0.25862121440E+03 -0.33480342082E+03  0.99652621976E+03  0.90142784687E+03 0.  0.
         23    2    4    4    0    0  0.34482266809E+03 -0.32105857205E+03 -0.35311090331E+03  0.59566632759E+03  0.90276157877E+02 0.  0.
         23    2    4    4    0    0 -0.38373385464E+03  0.62437357650E+02  0.18307482493E+02  0.40085989217E+03  0.95934323384E+02 0.  0.
          2    1    3    3  502    0 -0.19741569587E+02  0.12423595067E+03  0.21094305778E+03  0.24560389784E+03  0.00000000000E+00 0. -1.
         -1    1    3    3    0  502  0.58652756145E+02  0.13438526372E+03  0.25851452620E+03  0.29720246494E+03  0.00000000000E+00 0.  1.
         11    1    5    5    0    0  0.34273821629E+03 -0.31439188230E+03 -0.32675814360E+03  0.56840357579E+03  0.00000000000E+00 0. -1.
        -11    1    5    5    0    0  0.20844517943E+01 -0.66666897478E+01 -0.26352759712E+02  0.27262751804E+02  0.00000000000E+00 0.  1.
          2    1    6    6  503    0 -0.32938067748E+03  0.29578042486E+02  0.41380665794E+02  0.33328493935E+03  0.00000000000E+00 0. -1.
         -2    1    6    6    0  503 -0.54353177160E+02  0.32859315163E+02 -0.23073183301E+02  0.67574952815E+02  0.00000000000E+00 0.  1.
<mgrwt>
<rscale>  0 0.15334318E+04</rscale>
<asrwt>0</asrwt>
<pdfrwt beam="1">  1        2 0.10805219E+00 0.15334318E+04</pdfrwt>
<pdfrwt beam="2">  1       -1 0.12876821E+00 0.15334318E+04</pdfrwt>
<totfact> 0.23335812E+01</totfact>
</mgrwt>
</event>
<event>
12    6  0.1450532E-007  0.1754641E+04  0.7818608E-02  0.8730800E-01
          2   -1    0    0  501    0  0.00000000000E+00  0.00000000000E+00  0.31656600635E+04  0.31656600635E+04  0.00000000000E+00 0. -1.
         -1   -1    0    0    0  501 -0.00000000000E+00 -0.00000000000E+00 -0.24313757609E+03  0.24313757609E+03  0.00000000000E+00 0.  1.
         24    2    1    2    0    0 -0.45986019546E+03 -0.26929149287E+03  0.17977718548E+04  0.18767786668E+04  0.79531217042E+02 0.  0.
        254    2    1    2    0    0  0.45986019546E+03  0.26929149287E+03  0.11247506325E+04  0.15320189728E+04  0.89332459951E+03 0.  0.
         23    2    4    4    0    0  0.59764698233E+03  0.83724283191E+02  0.32055314088E+03  0.68979185527E+03  0.94163774212E+02 0.  0.
         23    2    4    4    0    0 -0.13778678687E+03  0.18556720968E+03  0.80419749164E+03  0.84222711751E+03  0.95877651028E+02 0.  0.
          4    1    3    3  502    0 -0.96891087216E+02 -0.53342669264E+02  0.27194734735E+03  0.29357909135E+03  0.00000000000E+00 0. -1.
         -3    1    3    3    0  502 -0.36296910824E+03 -0.21594882361E+03  0.15258245075E+04  0.15831995754E+04  0.00000000000E+00 0.  1.
         11    1    5    5    0    0  0.25069497017E+03  0.80783207966E+02  0.15119988530E+03  0.30370265075E+03  0.00000000000E+00 0.  1.
        -11    1    5    5    0    0  0.34695201216E+03  0.29410752244E+01  0.16935325559E+03  0.38608920452E+03  0.00000000000E+00 0. -1.
          1    1    6    6  503    0 -0.12196042002E+03  0.19460163419E+03  0.70795211005E+03  0.74427167769E+03  0.00000000000E+00 0. -1.
         -1    1    6    6    0  503 -0.15826366854E+02 -0.90344245115E+01  0.96245381588E+02  0.97955439824E+02  0.00000000000E+00 0.  1.
<mgrwt>
<rscale>  0 0.17546406E+04</rscale>
<asrwt>0</asrwt>
<pdfrwt beam="1">  1        2 0.48702460E+00 0.17546406E+04</pdfrwt>
<pdfrwt beam="2">  1       -1 0.37405783E-01 0.17546406E+04</pdfrwt>
<totfact> 0.10193628E+01</totfact>
</mgrwt>
</event>
<event>
12    6  0.1450532E-007  0.1414109E+04  0.7818608E-02  0.8943669E-01
         -1   -1    0    0    0  501 -0.00000000000E+00  0.00000000000E+00  0.93512113880E+03  0.93512113880E+03  0.00000000000E+00 0.  1.
          4   -1    0    0  501    0  0.00000000000E+00 -0.00000000000E+00 -0.53461106833E+03  0.53461106833E+03  0.00000000000E+00 0. -1.
         24    2    1    2    0    0 -0.53099721180E+02  0.33039642313E+03  0.37862664773E+03  0.51171272001E+03  0.80687004180E+02 0.  0.
        254    2    1    2    0    0  0.53099721180E+02 -0.33039642313E+03  0.21883422738E+02  0.95801948712E+03  0.89740797673E+03 0.  0.
         23    2    4    4    0    0  0.16658409613E+03 -0.20173467979E+03  0.42686935671E+03  0.50882913112E+03  0.90788186812E+02 0.  0.
         23    2    4    4    0    0 -0.11348437496E+03 -0.12866174334E+03 -0.40498593398E+03  0.44919035600E+03  0.91245940414E+02 0.  0.
          2    1    3    3  502    0 -0.30268432664E+02  0.50806227958E+02  0.37369236213E+02  0.69956490981E+02  0.00000000000E+00 0. -1.
         -1    1    3    3    0  502 -0.22831288515E+02  0.27959019518E+03  0.34125741152E+03  0.44175622903E+03  0.00000000000E+00 0.  1.
         11    1    5    5    0    0  0.44168534454E+02 -0.94899736976E+02  0.23598136962E+03  0.25815504319E+03  0.00000000000E+00 0.  1.
        -11    1    5    5    0    0  0.12241556168E+03 -0.10683494281E+03  0.19088798709E+03  0.25067408794E+03  0.00000000000E+00 0. -1.
          3    1    6    6  503    0  0.14984020334E+02 -0.65233287198E+01 -0.24658690549E+02  0.29582523600E+02  0.00000000000E+00 0. -1.
         -3    1    6    6    0  503 -0.12846839529E+03 -0.12213841462E+03 -0.38032724343E+03  0.41960783240E+03  0.00000000000E+00 0.  1.
<mgrwt>
<rscale>  0 0.14141091E+04</rscale>
<asrwt>0</asrwt>
<pdfrwt beam="1">  1        4 0.82247857E-01 0.14141091E+04</pdfrwt>
<pdfrwt beam="2">  1       -1 0.14386479E+00 0.14141091E+04</pdfrwt>
<totfact> 0.20585849E+00</totfact>
</mgrwt>
</event>
<event>
12    6  0.1450532E-007  0.1188701E+04  0.7818608E-02  0.9122805E-01
         -1   -1    0    0    0  501 -0.00000000000E+00  0.00000000000E+00  0.50493912912E+03  0.50493912912E+03  0.00000000000E+00 0.  1.
          2   -1    0    0  501    0  0.00000000000E+00 -0.00000000000E+00 -0.69959372503E+03  0.69959372503E+03  0.00000000000E+00 0. -1.
         24    2    1    2    0    0 -0.82290884462E+01  0.90226665365E+02 -0.27429108789E+03  0.29971046606E+03  0.79888632048E+02 0.  0.
        254    2    1    2    0    0  0.82290884462E+01 -0.90226665365E+02  0.79636491984E+02  0.90482238809E+03  0.89674579124E+03 0.  0.
         23    2    4    4    0    0 -0.12347115196E+03 -0.29088970151E+03  0.38480976531E+03  0.50665190786E+03  0.93571664768E+02 0.  0.
         23    2    4    4    0    0  0.13170024040E+03  0.20066303614E+03 -0.30517327333E+03  0.39817048024E+03  0.88308534031E+02 0.  0.
          2    1    3    3  502    0 -0.36050780873E+01  0.98364038983E+02 -0.27307420807E+03  0.29027229263E+03  0.00000000000E+00 0. -1.
         -1    1    3    3    0  502 -0.46240103589E+01 -0.81373736180E+01 -0.12168798143E+01  0.94381734292E+01  0.00000000000E+00 0.  1.
         11    1    5    5    0    0 -0.13857077810E+03 -0.27268891041E+03  0.35931963005E+03  0.47188102202E+03  0.00000000000E+00 0.  1.
        -11    1    5    5    0    0  0.15099626143E+02 -0.18200791095E+02  0.25490135260E+02  0.34770885835E+02  0.00000000000E+00 0. -1.
          3    1    6    6  503    0  0.76751732150E+02  0.12498400233E+03 -0.11547784014E+03  0.18667340675E+03  0.00000000000E+00 0. -1.
         -3    1    6    6    0  503  0.54948508251E+02  0.75679033810E+02 -0.18969543319E+03  0.21149707348E+03  0.00000000000E+00 0.  1.
<mgrwt>
<rscale>  0 0.11887005E+04</rscale>
<asrwt>0</asrwt>
<pdfrwt beam="1">  1        2 0.10762980E+00 0.11887005E+04</pdfrwt>
<pdfrwt beam="2">  1       -1 0.77682943E-01 0.11887005E+04</pdfrwt>
<totfact> 0.76822249E+01</totfact>
</mgrwt>
</event>
<event>
12    6  0.1506910E-007  0.1480577E+04  0.7818608E-02  0.8897473E-01
          2   -1    0    0  501    0  0.00000000000E+00  0.00000000000E+00  0.13684578644E+04  0.13684578644E+04  0.00000000000E+00 0. -1.
         -1   -1    0    0    0  501 -0.00000000000E+00 -0.00000000000E+00 -0.40047065958E+03  0.40047065958E+03  0.00000000000E+00 0.  1.
         24    2    1    2    0    0 -0.13691458434E+03 -0.59856609499E+02 -0.21301335811E+03  0.27157727953E+03  0.77788886834E+02 0.  0.
        254    2    1    2    0    0  0.13691458434E+03  0.59856609499E+02  0.11810005629E+04  0.14973512444E+04  0.90827859299E+03 0.  0.
         23    2    4    4    0    0  0.37063731482E+03 -0.15345094918E+02  0.11748799918E+04  0.12355126676E+04  0.92417885619E+02 0.  0.
         23    2    4    4    0    0 -0.23372273047E+03  0.75201704417E+02  0.61205711199E+01  0.26183857684E+03  0.90776471874E+02 0.  0.
          4    1    3    3  502    0 -0.43761592780E+02  0.53320590046E+01 -0.21959198870E+02  0.49251540797E+02  0.00000000000E+00 0. -1.
         -3    1    3    3    0  502 -0.93152991563E+02 -0.65188668504E+02 -0.19105415924E+03  0.22232573873E+03  0.00000000000E+00 0.  1.
         11    1    5    5    0    0  0.82078124300E+02 -0.19761623755E+02  0.39568352619E+03  0.40458966022E+03  0.00000000000E+00 0. -1.
        -11    1    5    5    0    0  0.28855919052E+03  0.44165288368E+01  0.77919646559E+03  0.83092300735E+03  0.00000000000E+00 0.  1.
          1    1    6    6  503    0 -0.11499129174E+03  0.67398418396E+02 -0.31661918450E+02  0.13699642718E+03  0.00000000000E+00 0. -1.
         -1    1    6    6    0  503 -0.11873143873E+03  0.78032860208E+01  0.37782489570E+02  0.12484214967E+03  0.00000000000E+00 0.  1.
<mgrwt>
<rscale>  0 0.14805772E+04</rscale>
<asrwt>0</asrwt>
<pdfrwt beam="1">  1        2 0.21053198E+00 0.14805772E+04</pdfrwt>
<pdfrwt beam="2">  1       -1 0.61610871E-01 0.14805772E+04</pdfrwt>
<totfact> 0.44457299E+01</totfact>
</mgrwt>
</event>
<event>
12    6  0.1450532E-007  0.1474537E+04  0.7818608E-02  0.8901564E-01
          2   -1    0    0  501    0  0.00000000000E+00  0.00000000000E+00  0.40724618119E+04  0.40724618119E+04  0.00000000000E+00 0. -1.
         -1   -1    0    0    0  501 -0.00000000000E+00 -0.00000000000E+00 -0.13347330781E+03  0.13347330781E+03  0.00000000000E+00 0.  1.
         24    2    1    2    0    0  0.22835872884E+03  0.40681593566E+03  0.12581987342E+04  0.13446911392E+04  0.86506015075E+02 0.  0.
        254    2    1    2    0    0 -0.22835872884E+03 -0.40681593566E+03  0.26807897699E+04  0.28612439805E+04  0.88455435724E+03 0.  0.
         23    2    4    4    0    0 -0.45360407034E+03 -0.46438946936E+03  0.23888958809E+04  0.24770224546E+04  0.86037658916E+02 0.  0.
         23    2    4    4    0    0  0.22524534150E+03  0.57573533702E+02  0.29189388895E+03  0.38422152588E+03  0.91509359564E+02 0.  0.
          2    1    3    3  502    0  0.77705999160E+02  0.16742793471E+03  0.61371107216E+03  0.64086786136E+03  0.00000000000E+00 0. -1.
         -3    1    3    3    0  502  0.15065272968E+03  0.23938800095E+03  0.64448766201E+03  0.70382327785E+03  0.00000000000E+00 0.  1.
         11    1    5    5    0    0 -0.13066761766E+03 -0.92545173845E+02  0.50243267150E+03  0.52733028066E+03  0.00000000000E+00 0.  1.
        -11    1    5    5    0    0 -0.32293645269E+03 -0.37184429552E+03  0.18864632094E+04  0.19496921739E+04  0.00000000000E+00 0. -1.
          3    1    6    6  503    0  0.22446978875E+01 -0.13235785565E-01  0.50610085641E+02  0.50659842206E+02  0.00000000000E+00 0. -1.
         -3    1    6    6    0  503  0.22300064361E+03  0.57586769487E+02  0.24128380331E+03  0.33356168367E+03  0.00000000000E+00 0.  1.
<mgrwt>
<rscale>  0 0.14745371E+04</rscale>
<asrwt>0</asrwt>
<pdfrwt beam="1">  1        2 0.62653249E+00 0.14745371E+04</pdfrwt>
<pdfrwt beam="2">  1       -1 0.20534358E-01 0.14745371E+04</pdfrwt>
<totfact> 0.66088999E+00</totfact>
</mgrwt>
</event>
<event>
12    6  0.1450532E-007  0.3089416E+04  0.7818608E-02  0.8218649E-01
          2   -1    0    0  501    0  0.00000000000E+00  0.00000000000E+00  0.21155431959E+04  0.21155431959E+04  0.00000000000E+00 0. -1.
         -1   -1    0    0    0  501 -0.00000000000E+00 -0.00000000000E+00 -0.11279007740E+04  0.11279007740E+04  0.00000000000E+00 0.  1.
         24    2    1    2    0    0  0.13511961943E+04 -0.26414710596E+03  0.13032743188E+03  0.13852823178E+04  0.80728009899E+02 0.  0.
        254    2    1    2    0    0 -0.13511961943E+04  0.26414710596E+03  0.85731499003E+03  0.18581616520E+04  0.90679153280E+03 0.  0.
         23    2    4    4    0    0 -0.45562040845E+03  0.93507205725E+02  0.81226960829E+03  0.94057947070E+03  0.92597354351E+02 0.  0.
         23    2    4    4    0    0 -0.89557578582E+03  0.17063990023E+03  0.45045381735E+02  0.91758218132E+03  0.93562863226E+02 0.  0.
          4    1    3    3  502    0  0.65288955181E+03 -0.11028565304E+03  0.99394246511E+02  0.66955724801E+03  0.00000000000E+00 0. -1.
         -3    1    3    3    0  502  0.69830664245E+03 -0.15386145292E+03  0.30933185366E+02  0.71572506981E+03  0.00000000000E+00 0.  1.
         11    1    5    5    0    0 -0.21778312659E+03  0.91753976904E+02  0.39628546790E+03  0.46140053595E+03  0.00000000000E+00 0. -1.
        -11    1    5    5    0    0 -0.23783728186E+03  0.17532288214E+01  0.41598414039E+03  0.47917893475E+03  0.00000000000E+00 0.  1.
          2    1    6    6  503    0 -0.46324368760E+03  0.45585672516E+02  0.43667156106E+02  0.46752495994E+03  0.00000000000E+00 0. -1.
         -2    1    6    6    0  503 -0.43233209821E+03  0.12505422772E+03  0.13782256291E+01  0.45005722139E+03  0.00000000000E+00 0.  1.
<mgrwt>
<rscale>  0 0.30894160E+04</rscale>
<asrwt>0</asrwt>
<pdfrwt beam="1">  1        2 0.32546818E+00 0.30894160E+04</pdfrwt>
<pdfrwt beam="2">  1       -1 0.17352320E+00 0.30894160E+04</pdfrwt>
<totfact> 0.12904930E+00</totfact>
</mgrwt>
</event>
<event>
12    6  0.1450532E-007  0.3283847E+04  0.7818608E-02  0.8167018E-01
         -1   -1    0    0    0  501 -0.00000000000E+00  0.00000000000E+00  0.48978624558E+04  0.48978624558E+04  0.00000000000E+00 0.  1.
          2   -1    0    0  501    0  0.00000000000E+00 -0.00000000000E+00 -0.55042642714E+03  0.55042642714E+03  0.00000000000E+00 0. -1.
         24    2    1    2    0    0  0.10042404826E+03  0.10598111290E+04  0.37923267881E+04  0.39397540230E+04  0.81453515245E+02 0.  0.
        254    2    1    2    0    0 -0.10042404826E+03 -0.10598111290E+04  0.55510924052E+03  0.15085348599E+04  0.91337097393E+03 0.  0.
         23    2    4    4    0    0 -0.26661298537E+02  0.13278602282E+03 -0.43287328842E+02  0.16909140232E+03  0.91515882799E+02 0.  0.
         23    2    4    4    0    0 -0.73762749721E+02 -0.11925971518E+04  0.59839656936E+03  0.13394434576E+04  0.91112085031E+02 0.  0.
          4    1    3    3  502    0  0.92530922682E+02  0.92133486436E+03  0.31907428368E+04  0.33223876587E+04  0.00000000000E+00 0. -1.
         -3    1    3    3    0  502  0.78931255763E+01  0.13847626466E+03  0.60158395128E+03  0.61736636428E+03  0.00000000000E+00 0.  1.
         11    1    5    5    0    0  0.22089329539E+02  0.16908551217E+02  0.13763985594E+02  0.31036831075E+02  0.00000000000E+00 0. -1.
        -11    1    5    5    0    0 -0.48750628076E+02  0.11587747161E+03 -0.57051314437E+02  0.13805457125E+03  0.00000000000E+00 0.  1.
          1    1    6    6  503    0 -0.12144949595E+02 -0.18591045316E+02  0.60093764768E+01  0.23005203156E+02  0.00000000000E+00 0. -1.
         -1    1    6    6    0  503 -0.61617800126E+02 -0.11740061065E+04  0.59238719289E+03  0.13164382544E+04  0.00000000000E+00 0.  1.
<mgrwt>
<rscale>  0 0.32838471E+04</rscale>
<asrwt>0</asrwt>
<pdfrwt beam="1">  1        2 0.84680992E-01 0.32838471E+04</pdfrwt>
<pdfrwt beam="2">  1       -1 0.75351727E+00 0.32838471E+04</pdfrwt>
<totfact> 0.64305372E-03</totfact>
</mgrwt>
</event>
<event>
12    6  0.1450532E-007  0.1495087E+04  0.7818608E-02  0.8887726E-01
          2   -1    0    0  501    0  0.00000000000E+00  0.00000000000E+00  0.14165460057E+04  0.14165460057E+04  0.00000000000E+00 0. -1.
         -1   -1    0    0    0  501 -0.00000000000E+00 -0.00000000000E+00 -0.39449593767E+03  0.39449593767E+03  0.00000000000E+00 0.  1.
         24    2    1    2    0    0 -0.19959866544E+02 -0.50670217014E+02 -0.24032400594E+03  0.26062110389E+03  0.84863801465E+02 0.  0.
        254    2    1    2    0    0  0.19959866544E+02  0.50670217014E+02  0.12623740740E+04  0.15504208395E+04  0.89847126257E+03 0.  0.
         23    2    4    4    0    0 -0.41309953646E+03 -0.96854739305E+02  0.61634686984E+03  0.75377931878E+03  0.90927058163E+02 0.  0.
         23    2    4    4    0    0  0.43305940301E+03  0.14752495632E+03  0.64602720412E+03  0.79664152069E+03  0.89344864117E+02 0.  0.
          2    1    3    3  502    0 -0.65549043268E+01  0.87711585640E+01  0.16672090030E+01  0.11076081399E+02  0.00000000000E+00 0. -1.
         -1    1    3    3    0  502 -0.13404962218E+02 -0.59441375578E+02 -0.24199121494E+03  0.24954502249E+03  0.00000000000E+00 0.  1.
         11    1    5    5    0    0 -0.84567121020E+02 -0.57483008774E+02  0.16552163246E+03  0.19455925850E+03  0.00000000000E+00 0.  1.
        -11    1    5    5    0    0 -0.32853241544E+03 -0.39371730531E+02  0.45082523739E+03  0.55922006029E+03  0.00000000000E+00 0. -1.
          2    1    6    6  503    0  0.33206066865E+03  0.12508092176E+03  0.43301130753E+03  0.55982882839E+03  0.00000000000E+00 0. -1.
         -2    1    6    6    0  503  0.10099873436E+03  0.22444034561E+02  0.21301589660E+03  0.23681269230E+03  0.00000000000E+00 0.  1.
<mgrwt>
<rscale>  0 0.14950875E+04</rscale>
<asrwt>0</asrwt>
<pdfrwt beam="1">  1        2 0.21793015E+00 0.14950875E+04</pdfrwt>
<pdfrwt beam="2">  1       -1 0.60691684E-01 0.14950875E+04</pdfrwt>
<totfact> 0.42937226E+01</totfact>
</mgrwt>
</event>
<event>
12    6  0.1450532E-007  0.1504648E+04  0.7818608E-02  0.8881368E-01
          2   -1    0    0  501    0  0.00000000000E+00  0.00000000000E+00  0.17891067119E+04  0.17891067119E+04  0.00000000000E+00 0. -1.
         -1   -1    0    0    0  501 -0.00000000000E+00 -0.00000000000E+00 -0.31635411779E+03  0.31635411779E+03  0.00000000000E+00 0.  1.
         24    2    1    2    0    0 -0.47540166595E+03 -0.14159741753E+02  0.39761237592E+03  0.62553236527E+03  0.83593637530E+02 0.  0.
        254    2    1    2    0    0  0.47540166595E+03  0.14159741753E+02  0.10751402182E+04  0.14799284645E+04  0.89891853291E+03 0.  0.
         23    2    4    4    0    0 -0.89374131827E+01  0.35940349772E+03  0.20446461382E+03  0.42165987484E+03  0.82100671256E+02 0.  0.
         23    2    4    4    0    0  0.48433907913E+03 -0.34524375597E+03  0.87067560439E+03  0.10582685896E+04  0.89882173228E+02 0.  0.
          4    1    3    3  502    0 -0.16763108200E+03 -0.45643184060E+01  0.19375357453E+03  0.25624492248E+03  0.00000000000E+00 0. -1.
         -3    1    3    3    0  502 -0.30777058395E+03 -0.95954233469E+01  0.20385880140E+03  0.36928744278E+03  0.00000000000E+00 0.  1.
         11    1    5    5    0    0 -0.33344871092E+01  0.32865184360E+03  0.20983939720E+03  0.38994323398E+03  0.00000000000E+00 0. -1.
        -11    1    5    5    0    0 -0.56029260735E+01  0.30751654117E+02 -0.53747833777E+01  0.31716640867E+02  0.00000000000E+00 0.  1.
          3    1    6    6  503    0  0.23450240634E+03 -0.20980214073E+03  0.50731236545E+03  0.59697081417E+03  0.00000000000E+00 0. -1.
         -3    1    6    6    0  503  0.24983667280E+03 -0.13544161523E+03  0.36336323894E+03  0.46129777544E+03  0.00000000000E+00 0.  1.
<mgrwt>
<rscale>  0 0.15046478E+04</rscale>
<asrwt>0</asrwt>
<pdfrwt beam="1">  1        2 0.27524718E+00 0.15046478E+04</pdfrwt>
<pdfrwt beam="2">  1       -1 0.48669866E-01 0.15046478E+04</pdfrwt>
<totfact> 0.40676984E+01</totfact>
</mgrwt>
</event>
<event>
12    6  0.1450532E-007  0.2015511E+04  0.7818608E-02  0.8599403E-01
         -1   -1    0    0    0  501 -0.00000000000E+00  0.00000000000E+00  0.53772421920E+03  0.53772421920E+03  0.00000000000E+00 0.  1.
          2   -1    0    0  501    0  0.00000000000E+00 -0.00000000000E+00 -0.18886459853E+04  0.18886459853E+04  0.00000000000E+00 0. -1.
         24    2    1    2    0    0 -0.65661552978E+03  0.25651619680E+03 -0.79348053143E+02  0.71590424471E+03  0.96323729622E+02 0.  0.
        254    2    1    2    0    0  0.65661552978E+03 -0.25651619680E+03 -0.12715737129E+04  0.17104659598E+04  0.90102695795E+03 0.  0.
         23    2    4    4    0    0  0.85886235758E+03 -0.12317762515E+03 -0.87004868379E+03  0.12328236662E+04  0.10026067650E+03 0.  0.
         23    2    4    4    0    0 -0.20224682780E+03 -0.13333857165E+03 -0.40152502914E+03  0.47764229354E+03  0.90757134722E+02 0.  0.
          4    1    3    3  502    0 -0.51585284136E+03  0.16785973993E+03 -0.86824126233E+02  0.54938099268E+03  0.00000000000E+00 0. -1.
         -3    1    3    3    0  502 -0.14076268842E+03  0.88656456871E+02  0.74760730904E+01  0.16652325203E+03  0.00000000000E+00 0.  1.
         11    1    5    5    0    0  0.62328935475E+03 -0.43775588353E+02 -0.62060824034E+03  0.88065913375E+03  0.00000000000E+00 0. -1.
        -11    1    5    5    0    0  0.23557300284E+03 -0.79402036798E+02 -0.24944044345E+03  0.35216453248E+03  0.00000000000E+00 0.  1.
          1    1    6    6  503    0 -0.14147903593E+03 -0.12056035393E+03 -0.35257209383E+03  0.39857019193E+03  0.00000000000E+00 0. -1.
         -1    1    6    6    0  503 -0.60767791875E+02 -0.12778217721E+02 -0.48952935318E+02  0.79072101615E+02  0.00000000000E+00 0.  1.
<mgrwt>
<rscale>  0 0.20155105E+04</rscale>
<asrwt>0</asrwt>
<pdfrwt beam="1">  1        2 0.29056092E+00 0.20155105E+04</pdfrwt>
<pdfrwt beam="2">  1       -1 0.82726804E-01 0.20155105E+04</pdfrwt>
<totfact> 0.11816919E+01</totfact>
</mgrwt>
</event>
<event>
12    6  0.1450532E-007  0.3909049E+04  0.7818608E-02  0.8023150E-01
         -1   -1    0    0    0  501 -0.00000000000E+00  0.00000000000E+00  0.15871918426E+04  0.15871918426E+04  0.00000000000E+00 0.  1.
          2   -1    0    0  501    0  0.00000000000E+00 -0.00000000000E+00 -0.24068714270E+04  0.24068714270E+04  0.00000000000E+00 0. -1.
         24    2    1    2    0    0  0.69592675096E+01  0.87389214355E+03  0.12757706382E+04  0.15484961272E+04  0.80707029893E+02 0.  0.
        254    2    1    2    0    0 -0.69592675096E+01 -0.87389214355E+03 -0.20954502227E+04  0.24455671423E+04  0.90892854615E+03 0.  0.
         23    2    4    4    0    0  0.33770561878E+03 -0.40570816595E+02 -0.51902613446E+03  0.62713808468E+03  0.90680609211E+02 0.  0.
         23    2    4    4    0    0 -0.34466488629E+03 -0.83332132695E+03 -0.15764240882E+04  0.18184290576E+04  0.91394824988E+02 0.  0.
          4    1    3    3  502    0 -0.84237581618E+01  0.41739337240E+02  0.92492662253E+02  0.10182349702E+03  0.00000000000E+00 0. -1.
         -3    1    3    3    0  502  0.15383025671E+02  0.83215280631E+03  0.11832779760E+04  0.14466726302E+04  0.00000000000E+00 0.  1.
         11    1    5    5    0    0  0.11192352354E+03 -0.56160831462E+02 -0.20061687441E+03  0.23649110852E+03  0.00000000000E+00 0.  1.
        -11    1    5    5    0    0  0.22578209524E+03  0.15590014866E+02 -0.31840926006E+03  0.39064697616E+03  0.00000000000E+00 0. -1.
          2    1    6    6  503    0 -0.11335393778E+03 -0.34523616187E+03 -0.56354638615E+03  0.67053833001E+03  0.00000000000E+00 0. -1.
         -2    1    6    6    0  503 -0.23131094851E+03 -0.48808516508E+03 -0.10128777020E+04  0.11478907276E+04  0.00000000000E+00 0.  1.
<mgrwt>
<rscale>  0 0.39090493E+04</rscale>
<asrwt>0</asrwt>
<pdfrwt beam="1">  1        2 0.37028791E+00 0.39090493E+04</pdfrwt>
<pdfrwt beam="2">  1       -1 0.24418336E+00 0.39090493E+04</pdfrwt>
<totfact> 0.27085787E-01</totfact>
</mgrwt>
</event>
<event>
12    6  0.1450532E-007  0.1528045E+04  0.7818608E-02  0.8866014E-01
         -1   -1    0    0    0  501 -0.00000000000E+00  0.00000000000E+00  0.19419930384E+03  0.19419930384E+03  0.00000000000E+00 0.  1.
          2   -1    0    0  501    0  0.00000000000E+00 -0.00000000000E+00 -0.30058322256E+04  0.30058322256E+04  0.00000000000E+00 0. -1.
         24    2    1    2    0    0  0.20557722720E+03  0.24531210785E+03 -0.17201463842E+04  0.17514994583E+04  0.80042131478E+02 0.  0.
        254    2    1    2    0    0 -0.20557722720E+03 -0.24531210785E+03 -0.10914865376E+04  0.14485320712E+04  0.89691820854E+03 0.  0.
         23    2    4    4    0    0 -0.11137393760E+03 -0.47768699244E+03 -0.23549710130E+03  0.55181949867E+03  0.91961174817E+02 0.  0.
         23    2    4    4    0    0 -0.94203289600E+02  0.23237488459E+03 -0.85598943634E+03  0.89671257251E+03  0.92212666289E+02 0.  0.
          2    1    3    3  502    0  0.19367800580E+03  0.23185477044E+03 -0.16866297283E+04  0.17134723939E+04  0.00000000000E+00 0. -1.
         -1    1    3    3    0  502  0.11899221402E+02  0.13457337412E+02 -0.33516655875E+02  0.38027064326E+02  0.00000000000E+00 0.  1.
         11    1    5    5    0    0 -0.16602133230E+02 -0.85952828095E+02 -0.83786851490E+02  0.12117654875E+03  0.00000000000E+00 0.  1.
        -11    1    5    5    0    0 -0.94771804368E+02 -0.39173416434E+03 -0.15171024981E+03  0.43064294992E+03  0.00000000000E+00 0. -1.
          1    1    6    6  503    0 -0.70983972765E+02  0.22657384279E+03 -0.81843981861E+03  0.85218435055E+03  0.00000000000E+00 0. -1.
         -1    1    6    6    0  503 -0.23219316835E+02  0.58010417982E+01 -0.37549617723E+02  0.44528221965E+02  0.00000000000E+00 0.  1.
<mgrwt>
<rscale>  0 0.15280452E+04</rscale>
<asrwt>0</asrwt>
<pdfrwt beam="1">  1        2 0.46243574E+00 0.15280452E+04</pdfrwt>
<pdfrwt beam="2">  1       -1 0.29876815E-01 0.15280452E+04</pdfrwt>
<totfact> 0.19618969E+01</totfact>
</mgrwt>
</event>
<event>
12    6  0.1450532E-007  0.1509469E+04  0.7818608E-02  0.8878181E-01
         -1   -1    0    0    0  501 -0.00000000000E+00  0.00000000000E+00  0.54779203852E+03  0.54779203852E+03  0.00000000000E+00 0.  1.
          2   -1    0    0  501    0  0.00000000000E+00 -0.00000000000E+00 -0.10398542431E+04  0.10398542431E+04  0.00000000000E+00 0. -1.
         24    2    1    2    0    0 -0.26949173801E+03  0.18275331667E+03  0.25416349185E+03  0.42077541081E+03  0.80176643403E+02 0.  0.
        254    2    1    2    0    0  0.26949173801E+03 -0.18275331667E+03 -0.74622569640E+03  0.11668708708E+04  0.83588890860E+03 0.  0.
         23    2    4    4    0    0 -0.17316049347E+02 -0.42412354390E+03 -0.15512457401E+03  0.46111662517E+03  0.91565727679E+02 0.  0.
         23    2    4    4    0    0  0.28680778736E+03  0.24137022723E+03 -0.59110112239E+03  0.70575424563E+03  0.90389296081E+02 0.  0.
          2    1    3    3  502    0 -0.63680412011E+02  0.53100019684E+02  0.11092593811E+03  0.13848960506E+03  0.00000000000E+00 0. -1.
         -1    1    3    3    0  502 -0.20581132600E+03  0.12965329698E+03  0.14323755374E+03  0.28228580575E+03  0.00000000000E+00 0.  1.
         11    1    5    5    0    0 -0.18191349885E+02 -0.11401179474E+02 -0.91799147578E+01  0.23349152854E+02  0.00000000000E+00 0. -1.
        -11    1    5    5    0    0  0.87530053801E+00 -0.41272236443E+03 -0.14594465925E+03  0.43776747231E+03  0.00000000000E+00 0.  1.
          1    1    6    6  503    0  0.10931915998E+03  0.64088415624E+02 -0.27016702019E+03  0.29840948804E+03  0.00000000000E+00 0. -1.
         -1    1    6    6    0  503  0.17748862738E+03  0.17728181161E+03 -0.32093410220E+03  0.40734475759E+03  0.00000000000E+00 0.  1.
<mgrwt>
<rscale>  0 0.15094686E+04</rscale>
<asrwt>0</asrwt>
<pdfrwt beam="1">  1        2 0.15997757E+00 0.15094686E+04</pdfrwt>
<pdfrwt beam="2">  1       -1 0.84275699E-01 0.15094686E+04</pdfrwt>
<totfact> 0.36502259E+01</totfact>
</mgrwt>
</event>
<event>
12    6  0.1450532E-007  0.2387595E+04  0.7818608E-02  0.8444163E-01
         -1   -1    0    0    0  501 -0.00000000000E+00  0.00000000000E+00  0.99999728943E+03  0.99999728943E+03  0.00000000000E+00 0.  1.
          2   -1    0    0  501    0  0.00000000000E+00 -0.00000000000E+00 -0.14251559216E+04  0.14251559216E+04  0.00000000000E+00 0. -1.
         24    2    1    2    0    0 -0.98170898390E+03 -0.99075674071E+02 -0.43039890931E+03  0.10793432931E+04  0.78550651491E+02 0.  0.
        254    2    1    2    0    0  0.98170898390E+03  0.99075674071E+02  0.52402771912E+01  0.13458099179E+04  0.91520946042E+03 0.  0.
         23    2    4    4    0    0  0.80400909061E+03 -0.28834761104E+02  0.38642968614E+03  0.89707079052E+03  0.90255413424E+02 0.  0.
         23    2    4    4    0    0  0.17769989330E+03  0.12791043518E+03 -0.38118940895E+03  0.44873912741E+03  0.90128283424E+02 0.  0.
          4    1    3    3  502    0 -0.62308924206E+03 -0.77821854555E+02 -0.31135643140E+03  0.70088463529E+03  0.00000000000E+00 0. -1.
         -3    1    3    3    0  502 -0.35861974184E+03 -0.21253819517E+02 -0.11904247791E+03  0.37845865776E+03  0.00000000000E+00 0.  1.
         11    1    5    5    0    0  0.10812992720E+03  0.13339453919E+02  0.81925266471E+02  0.13631497157E+03  0.00000000000E+00 0.  1.
        -11    1    5    5    0    0  0.69587916340E+03 -0.42174215023E+02  0.30450441967E+03  0.76075581895E+03  0.00000000000E+00 0. -1.
          2    1    6    6  503    0  0.21428172617E+02  0.52067112205E+02 -0.52548334847E+02  0.77016090853E+02  0.00000000000E+00 0. -1.
         -2    1    6    6    0  503  0.15627172068E+03  0.75843322970E+02 -0.32864107410E+03  0.37172303656E+03  0.00000000000E+00 0.  1.
<mgrwt>
<rscale>  0 0.23875947E+04</rscale>
<asrwt>0</asrwt>
<pdfrwt beam="1">  1        2 0.21925476E+00 0.23875947E+04</pdfrwt>
<pdfrwt beam="2">  1       -1 0.15384574E+00 0.23875947E+04</pdfrwt>
<totfact> 0.46763232E+00</totfact>
</mgrwt>
</event>
<event>
12    6  0.1458153E-007  0.1520713E+04  0.7818608E-02  0.8870795E-01
         -1   -1    0    0    0  501 -0.00000000000E+00  0.00000000000E+00  0.35220209251E+03  0.35220209251E+03  0.00000000000E+00 0.  1.
          2   -1    0    0  501    0  0.00000000000E+00 -0.00000000000E+00 -0.16415063279E+04  0.16415063279E+04  0.00000000000E+00 0. -1.
         24    2    1    2    0    0  0.76093454774E+02  0.46797873698E+03 -0.57727633096E+03  0.75135531994E+03  0.80576314113E+02 0.  0.
        254    2    1    2    0    0 -0.76093454774E+02 -0.46797873698E+03 -0.71202790438E+03  0.12423531004E+04  0.90092351361E+03 0.  0.
         23    2    4    4    0    0 -0.39470059552E+02 -0.30219981477E+03  0.15545308561E+03  0.35383947994E+03  0.90300066964E+02 0.  0.
         23    2    4    4    0    0 -0.36623395222E+02 -0.16577892221E+03 -0.86748098999E+03  0.88851362048E+03  0.90051438888E+02 0.  0.
          2    1    3    3  502    0  0.77322422898E+02  0.34615913214E+03 -0.38271850472E+03  0.52180298553E+03  0.00000000000E+00 0. -1.
         -1    1    3    3    0  502 -0.12289681248E+01  0.12181960483E+03 -0.19455782624E+03  0.22955233441E+03  0.00000000000E+00 0.  1.
         11    1    5    5    0    0 -0.56274062312E+02 -0.13428278216E+03  0.45978470703E+02  0.15268482387E+03  0.00000000000E+00 0. -1.
        -11    1    5    5    0    0  0.16804002760E+02 -0.16791703261E+03  0.10947461491E+03  0.20115465607E+03  0.00000000000E+00 0.  1.
          3    1    6    6  503    0 -0.87146164102E+01  0.67956888799E+01 -0.17175713299E+02  0.20423786472E+02  0.00000000000E+00 0. -1.
         -3    1    6    6    0  503 -0.27908778812E+02 -0.17257461109E+03 -0.85030527669E+03  0.86808983400E+03  0.00000000000E+00 0.  1.
<mgrwt>
<rscale>  0 0.15207129E+04</rscale>
<asrwt>0</asrwt>
<pdfrwt beam="1">  1        2 0.25253943E+00 0.15207129E+04</pdfrwt>
<pdfrwt beam="2">  1       -1 0.54184938E-01 0.15207129E+04</pdfrwt>
<totfact> 0.39958713E+01</totfact>
</mgrwt>
</event>
<event>
12    6  0.1450532E-007  0.2071241E+04  0.7818608E-02  0.8574019E-01
          2   -1    0    0  501    0  0.00000000000E+00  0.00000000000E+00  0.91261502152E+03  0.91261502152E+03  0.00000000000E+00 0. -1.
         -1   -1    0    0    0  501 -0.00000000000E+00 -0.00000000000E+00 -0.11752046355E+04  0.11752046355E+04  0.00000000000E+00 0.  1.
         24    2    1    2    0    0  0.35579834021E+03  0.47170199377E+03  0.49429455130E+03  0.77452627111E+03  0.80427677882E+02 0.  0.
        254    2    1    2    0    0 -0.35579834021E+03 -0.47170199377E+03 -0.75688416524E+03  0.13132933859E+04  0.89597469159E+03 0.  0.
         23    2    4    4    0    0  0.53369705609E+02  0.13910644310E+01 -0.66693349104E+03  0.67476257209E+03  0.87487065760E+02 0.  0.
         23    2    4    4    0    0 -0.40916804582E+03 -0.47309305820E+03 -0.89950674196E+02  0.63853081379E+03  0.91623932116E+02 0.  0.
          2    1    3    3  502    0  0.32787422916E+03  0.46091991276E+03  0.47726164817E+03  0.74008604698E+03  0.00000000000E+00 0. -1.
         -1    1    3    3    0  502  0.27924111046E+02  0.10782081009E+02  0.17032903132E+02  0.34440224124E+02  0.00000000000E+00 0.  1.
         11    1    5    5    0    0 -0.32445101888E+01 -0.74228906623E+01 -0.45922359628E+03  0.45929504410E+03  0.00000000000E+00 0.  1.
        -11    1    5    5    0    0  0.56614215798E+02  0.88139550933E+01 -0.20770989477E+03  0.21546752799E+03  0.00000000000E+00 0. -1.
          4    1    6    6  503    0 -0.16542679295E+03 -0.16845950435E+03 -0.76386766371E+02  0.24815230506E+03  0.00000000000E+00 0. -1.
         -4    1    6    6    0  503 -0.24374125287E+03 -0.30463355385E+03 -0.13563907825E+02  0.39037850873E+03  0.00000000000E+00 0.  1.
<mgrwt>
<rscale>  0 0.20712406E+04</rscale>
<asrwt>0</asrwt>
<pdfrwt beam="1">  1        2 0.14040231E+00 0.20712406E+04</pdfrwt>
<pdfrwt beam="2">  1       -1 0.18080071E+00 0.20712406E+04</pdfrwt>
<totfact> 0.62224576E+00</totfact>
</mgrwt>
</event>
<event>
12    6  0.1450532E-007  0.1301104E+04  0.7818608E-02  0.9028690E-01
         -1   -1    0    0    0  501 -0.00000000000E+00  0.00000000000E+00  0.40537799164E+03  0.40537799164E+03  0.00000000000E+00 0.  1.
          2   -1    0    0  501    0  0.00000000000E+00 -0.00000000000E+00 -0.10440085505E+04  0.10440085505E+04  0.00000000000E+00 0. -1.
         24    2    1    2    0    0  0.17046387688E+03 -0.14539607600E+03 -0.24918148853E+03  0.34437313179E+03  0.79394505098E+02 0.  0.
        254    2    1    2    0    0 -0.17046387688E+03  0.14539607600E+03 -0.38944907032E+03  0.11050134103E+04  0.10095474761E+04 0.  0.
         23    2    4    4    0    0  0.38953022844E+03 -0.81830212487E+02 -0.68321930063E+02  0.41320031525E+03  0.87387824363E+02 0.  0.
         23    2    4    4    0    0 -0.55999410532E+03  0.22722628849E+03 -0.32112714026E+03  0.69181309509E+03  0.10127948536E+03 0.  0.
          4    1    3    3  502    0  0.16326948763E+03 -0.10147778273E+03 -0.18959627494E+03  0.27000261748E+03  0.00000000000E+00 0. -1.
         -1    1    3    3    0  502  0.71943892560E+01 -0.43918293272E+02 -0.59585213584E+02  0.74370514309E+02  0.00000000000E+00 0.  1.
         11    1    5    5    0    0  0.18436472980E+03 -0.45087529722E+02  0.11170784311E+02  0.19012634051E+03  0.00000000000E+00 0. -1.
        -11    1    5    5    0    0  0.20516549864E+03 -0.36742682766E+02 -0.79492714374E+02  0.22307397474E+03  0.00000000000E+00 0.  1.
          2    1    6    6  503    0 -0.54591809300E+03  0.19974321789E+03 -0.29806852088E+03  0.65327540938E+03  0.00000000000E+00 0. -1.
         -2    1    6    6    0  503 -0.14076012320E+02  0.27483070600E+02 -0.23058619384E+02  0.38537685716E+02  0.00000000000E+00 0.  1.
<mgrwt>
<rscale>  0 0.13011043E+04</rscale>
<asrwt>0</asrwt>
<pdfrwt beam="1">  1        2 0.16061670E+00 0.13011043E+04</pdfrwt>
<pdfrwt beam="2">  1       -1 0.62365846E-01 0.13011043E+04</pdfrwt>
<totfact> 0.68842966E+01</totfact>
</mgrwt>
</event>
<event>
12    6  0.1450532E-007  0.2305187E+04  0.7818608E-02  0.8475879E-01
         -1   -1    0    0    0  501 -0.00000000000E+00  0.00000000000E+00  0.11027053173E+04  0.11027053173E+04  0.00000000000E+00 0.  1.
          2   -1    0    0  501    0  0.00000000000E+00 -0.00000000000E+00 -0.12047386137E+04  0.12047386137E+04  0.00000000000E+00 0. -1.
         24    2    1    2    0    0 -0.26568881464E+03  0.62009668816E+03 -0.74611422337E+03  0.10091050467E+04  0.80598462504E+02 0.  0.
        254    2    1    2    0    0  0.26568881464E+03 -0.62009668816E+03  0.64408092692E+03  0.12983388842E+04  0.90317947772E+03 0.  0.
         23    2    4    4    0    0  0.59221749363E+02  0.21826786639E+03  0.54056187374E+02  0.24917271130E+03  0.89537096042E+02 0.  0.
         23    2    4    4    0    0  0.20646706528E+03 -0.83836455455E+03  0.59002473955E+03  0.10491661729E+04  0.84478930786E+02 0.  0.
          4    1    3    3  502    0 -0.24040017282E+03  0.49051150563E+03 -0.62320284982E+03  0.82871923609E+03  0.00000000000E+00 0. -1.
         -3    1    3    3    0  502 -0.25288641824E+02  0.12958518253E+03 -0.12291137355E+03  0.18038581065E+03  0.00000000000E+00 0.  1.
         11    1    5    5    0    0  0.42916990099E+02  0.18154034930E+03  0.61513287162E+01  0.18664566780E+03  0.00000000000E+00 0. -1.
        -11    1    5    5    0    0  0.16304759264E+02  0.36727517095E+02  0.47904858658E+02  0.62527043507E+02  0.00000000000E+00 0.  1.
          3    1    6    6  503    0  0.18506611480E+03 -0.67002164821E+03  0.50620370219E+03  0.85989572858E+03  0.00000000000E+00 0. -1.
         -3    1    6    6    0  503  0.21400950476E+02 -0.16834290634E+03  0.83821037357E+02  0.18927044434E+03  0.00000000000E+00 0.  1.
<mgrwt>
<rscale>  0 0.23051869E+04</rscale>
<asrwt>0</asrwt>
<pdfrwt beam="1">  1        2 0.18534440E+00 0.23051869E+04</pdfrwt>
<pdfrwt beam="2">  1       -1 0.16964697E+00 0.23051869E+04</pdfrwt>
<totfact> 0.48119730E+00</totfact>
</mgrwt>
</event>
<event>
12    6  0.1450532E-007  0.2609998E+04  0.7818608E-02  0.8364813E-01
         -1   -1    0    0    0  501 -0.00000000000E+00  0.00000000000E+00  0.10697319115E+04  0.10697319115E+04  0.00000000000E+00 0.  1.
          2   -1    0    0  501    0  0.00000000000E+00 -0.00000000000E+00 -0.15920087471E+04  0.15920087471E+04  0.00000000000E+00 0. -1.
         24    2    1    2    0    0 -0.77554232140E+03  0.11077039489E+03 -0.10672127348E+04  0.13263325977E+04  0.80493264700E+02 0.  0.
        254    2    1    2    0    0  0.77554232140E+03 -0.11077039489E+03  0.54493589927E+03  0.13354080609E+04  0.93414323432E+03 0.  0.
         23    2    4    4    0    0 -0.18699368854E+03  0.93194283127E+02  0.63820265678E+02  0.23636381589E+03  0.90238645750E+02 0.  0.
         23    2    4    4    0    0  0.96253600995E+03 -0.20396467801E+03  0.48111563359E+03  0.10990442450E+04  0.91371983489E+02 0.  0.
          2    1    3    3  502    0 -0.32905061423E+03  0.14464381672E+02 -0.48657481655E+03  0.58757006149E+03  0.00000000000E+00 0. -1.
         -3    1    3    3    0  502 -0.44649170717E+03  0.96306013216E+02 -0.58063791829E+03  0.73876253622E+03  0.00000000000E+00 0.  1.
         11    1    5    5    0    0 -0.19711659990E+03  0.86689288246E+02  0.62697417482E+02  0.22427873910E+03  0.00000000000E+00 0.  1.
        -11    1    5    5    0    0  0.10122911361E+02  0.65049948809E+01  0.11228481960E+01  0.12085076785E+02  0.00000000000E+00 0. -1.
          1    1    6    6  503    0  0.20440155981E+03 -0.42948979823E+02  0.14495856229E+03  0.25423925209E+03  0.00000000000E+00 0. -1.
         -1    1    6    6    0  503  0.75813445013E+03 -0.16101569819E+03  0.33615707130E+03  0.84480499296E+03  0.00000000000E+00 0.  1.
<mgrwt>
<rscale>  0 0.26099981E+04</rscale>
<asrwt>0</asrwt>
<pdfrwt beam="1">  1        2 0.24492442E+00 0.26099981E+04</pdfrwt>
<pdfrwt beam="2">  1       -1 0.16457414E+00 0.26099981E+04</pdfrwt>
<totfact> 0.30613490E+00</totfact>
</mgrwt>
</event>
<event>
12    6  0.1450532E-007  0.1969716E+04  0.7818608E-02  0.8620912E-01
          2   -1    0    0  501    0  0.00000000000E+00  0.00000000000E+00  0.42627216158E+03  0.42627216158E+03  0.00000000000E+00 0. -1.
         -1   -1    0    0    0  501 -0.00000000000E+00 -0.00000000000E+00 -0.22754136610E+04  0.22754136610E+04  0.00000000000E+00 0.  1.
         24    2    1    2    0    0  0.38611190444E+03  0.34495499230E+03 -0.14463339027E+04  0.15383443855E+04  0.80903279716E+02 0.  0.
        254    2    1    2    0    0 -0.38611190444E+03 -0.34495499230E+03 -0.40280759672E+03  0.11633414371E+04  0.96074605901E+03 0.  0.
         23    2    4    4    0    0 -0.30622958706E+03  0.27126185813E+03 -0.32320120589E+03  0.53039704464E+03  0.97480509847E+02 0.  0.
         23    2    4    4    0    0 -0.79882317372E+02 -0.61621685044E+03 -0.79606390832E+02  0.63294439249E+03  0.90426960231E+02 0.  0.
          2    1    3    3  502    0  0.84571429802E+02  0.87776827077E+02 -0.25115450309E+03  0.27916963039E+03  0.00000000000E+00 0. -1.
         -1    1    3    3    0  502  0.30154047463E+03  0.25717816523E+03 -0.11951793996E+04  0.12591747551E+04  0.00000000000E+00 0.  1.
         11    1    5    5    0    0 -0.26757422450E+03  0.26851437403E+03 -0.30923027715E+03  0.48920271767E+03  0.00000000000E+00 0. -1.
        -11    1    5    5    0    0 -0.38655362566E+02  0.27474841062E+01 -0.13970928742E+02  0.41194326963E+02  0.00000000000E+00 0.  1.
          3    1    6    6  503    0  0.30348177634E+01 -0.22143317467E+03  0.15746323136E+01  0.22145956838E+03  0.00000000000E+00 0. -1.
         -3    1    6    6    0  503 -0.82917135136E+02 -0.39478367577E+03 -0.81181023146E+02  0.41148482411E+03  0.00000000000E+00 0.  1.
<mgrwt>
<rscale>  0 0.19697162E+04</rscale>
<asrwt>0</asrwt>
<pdfrwt beam="1">  1        2 0.65580334E-01 0.19697162E+04</pdfrwt>
<pdfrwt beam="2">  1       -1 0.35006363E+00 0.19697162E+04</pdfrwt>
<totfact> 0.12244161E+00</totfact>
</mgrwt>
</event>
<event>
12    6  0.1450532E-007  0.2223150E+04  0.7818608E-02  0.8508854E-01
         -1   -1    0    0    0  501 -0.00000000000E+00  0.00000000000E+00  0.39255350979E+03  0.39255350979E+03  0.00000000000E+00 0.  1.
          2   -1    0    0  501    0  0.00000000000E+00 -0.00000000000E+00 -0.31475927588E+04  0.31475927588E+04  0.00000000000E+00 0. -1.
         24    2    1    2    0    0  0.50073073654E+03 -0.18227956994E+03  0.64985408330E+02  0.54239409195E+03  0.77531513268E+02 0.  0.
        254    2    1    2    0    0 -0.50073073654E+03  0.18227956994E+03 -0.28200246574E+04  0.29977521767E+04  0.86603806641E+03 0.  0.
         23    2    4    4    0    0 -0.47415111720E+03  0.19189666952E+03 -0.68119321734E+03  0.85674916221E+03  0.91385523361E+02 0.  0.
         23    2    4    4    0    0 -0.26579619344E+02 -0.96170995806E+01 -0.21388314400E+04  0.21410030145E+04  0.92168402055E+02 0.  0.
          4    1    3    3  502    0  0.38964563862E+02 -0.38165261175E+02  0.20016299276E+01  0.54578667260E+02  0.00000000000E+00 0. -1.
         -3    1    3    3    0  502  0.46176617268E+03 -0.14411430877E+03  0.62983778402E+02  0.48781542469E+03  0.00000000000E+00 0.  1.
         11    1    5    5    0    0 -0.14618250251E+03  0.95377276690E+02 -0.27644618600E+03  0.32693828577E+03  0.00000000000E+00 0. -1.
        -11    1    5    5    0    0 -0.32796861469E+03  0.96519392834E+02 -0.40474703134E+03  0.52981087644E+03  0.00000000000E+00 0.  1.
          1    1    6    6  503    0 -0.44421171600E+02  0.22636221653E+02 -0.73561751248E+03  0.73730506826E+03  0.00000000000E+00 0. -1.
         -1    1    6    6    0  503  0.17841552256E+02 -0.32253321233E+02 -0.14032139276E+04  0.14036979462E+04  0.00000000000E+00 0.  1.
<mgrwt>
<rscale>  0 0.22231496E+04</rscale>
<asrwt>0</asrwt>
<pdfrwt beam="1">  1        2 0.48424502E+00 0.22231496E+04</pdfrwt>
<pdfrwt beam="2">  1       -1 0.60392850E-01 0.22231496E+04</pdfrwt>
<totfact> 0.40542414E+00</totfact>
</mgrwt>
</event>
<event>
12    6  0.1450532E-007  0.1524211E+04  0.7818608E-02  0.8868511E-01
         -1   -1    0    0    0  501 -0.00000000000E+00  0.00000000000E+00  0.15120657047E+03  0.15120657047E+03  0.00000000000E+00 0.  1.
          2   -1    0    0  501    0  0.00000000000E+00 -0.00000000000E+00 -0.38411354608E+04  0.38411354608E+04  0.00000000000E+00 0. -1.
         24    2    1    2    0    0 -0.21829547063E+03 -0.15058991198E+03 -0.13608040445E+03  0.30857204612E+03  0.79803490409E+02 0.  0.
        254    2    1    2    0    0  0.21829547063E+03  0.15058991198E+03 -0.35538484859E+04  0.36837699851E+04  0.93273362157E+03 0.  0.
         23    2    4    4    0    0  0.20415754533E+03 -0.37199755222E+03 -0.14129579612E+04  0.14781122748E+04  0.91121977713E+02 0.  0.
         23    2    4    4    0    0  0.14137925303E+02  0.52258746420E+03 -0.21408905247E+04  0.22056577103E+04  0.90643022831E+02 0.  0.
          4    1    3    3  502    0 -0.21040782370E+02  0.92289121463E+01 -0.13585327316E+02  0.26691730188E+02  0.00000000000E+00 0. -1.
         -3    1    3    3    0  502 -0.19725468826E+03 -0.15981882413E+03 -0.12249507714E+03  0.28188031593E+03  0.00000000000E+00 0.  1.
         11    1    5    5    0    0  0.43181315171E+02 -0.23646164047E+02 -0.13079911554E+03  0.13975756037E+03  0.00000000000E+00 0. -1.
        -11    1    5    5    0    0  0.16097623016E+03 -0.34835138817E+03 -0.12821588456E+04  0.13383547145E+04  0.00000000000E+00 0.  1.
          3    1    6    6  503    0 -0.57426069674E+01  0.15875641875E+02 -0.16002818662E+03  0.16091623303E+03  0.00000000000E+00 0. -1.
         -3    1    6    6    0  503  0.19880532271E+02  0.50671182233E+03 -0.19808623381E+04  0.20447414773E+04  0.00000000000E+00 0.  1.
<mgrwt>
<rscale>  0 0.15242112E+04</rscale>
<asrwt>0</asrwt>
<pdfrwt beam="1">  1        2 0.59094395E+00 0.15242112E+04</pdfrwt>
<pdfrwt beam="2">  1       -1 0.23262548E-01 0.15242112E+04</pdfrwt>
<totfact> 0.81047991E+00</totfact>
</mgrwt>
</event>
<event>
12    6  0.1450532E-007  0.1311999E+04  0.7818608E-02  0.9020103E-01
          2   -1    0    0  501    0  0.00000000000E+00  0.00000000000E+00  0.37752680971E+03  0.37752680971E+03  0.00000000000E+00 0. -1.
         -1   -1    0    0    0  501 -0.00000000000E+00 -0.00000000000E+00 -0.11398804763E+04  0.11398804763E+04  0.00000000000E+00 0.  1.
         24    2    1    2    0    0 -0.17929959943E+03 -0.18610019786E+01  0.12907753677E+03  0.23540396572E+03  0.81253965406E+02 0.  0.
        254    2    1    2    0    0  0.17929959943E+03  0.18610019786E+01 -0.89143120340E+03  0.12820033203E+04  0.90373177064E+03 0.  0.
         23    2    4    4    0    0 -0.25471894616E+03 -0.25882923774E+03 -0.54524683156E+03  0.66162162038E+03  0.92599921088E+02 0.  0.
         23    2    4    4    0    0  0.43401854559E+03  0.26069023972E+03 -0.34618437184E+03  0.62038169995E+03  0.93264866540E+02 0.  0.
          2    1    3    3  502    0 -0.18539177194E+03 -0.10943732101E+02  0.12427370912E+03  0.22345878625E+03  0.00000000000E+00 0. -1.
         -1    1    3    3    0  502  0.60921725119E+01  0.90827301229E+01  0.48038276542E+01  0.11945179468E+02  0.00000000000E+00 0.  1.
         11    1    5    5    0    0 -0.75378354066E+02 -0.13211060142E+03 -0.26550269729E+03  0.30598494985E+03  0.00000000000E+00 0. -1.
        -11    1    5    5    0    0 -0.17934059210E+03 -0.12671863632E+03 -0.27974413427E+03  0.35563667053E+03  0.00000000000E+00 0.  1.
          1    1    6    6  503    0  0.15932980071E+03  0.14923405871E+03 -0.15175673906E+03  0.26587007640E+03  0.00000000000E+00 0. -1.
         -1    1    6    6    0  503  0.27468874488E+03  0.11145618101E+03 -0.19442763278E+03  0.35451162355E+03  0.00000000000E+00 0.  1.
<mgrwt>
<rscale>  0 0.13119991E+04</rscale>
<asrwt>0</asrwt>
<pdfrwt beam="1">  1        2 0.58081048E-01 0.13119991E+04</pdfrwt>
<pdfrwt beam="2">  1       -1 0.17536623E+00 0.13119991E+04</pdfrwt>
<totfact> 0.21387580E+01</totfact>
</mgrwt>
</event>
<event>
12    6  0.1450532E-007  0.1977980E+04  0.7818608E-02  0.8616985E-01
         -1   -1    0    0    0  501 -0.00000000000E+00  0.00000000000E+00  0.62093758506E+03  0.62093758506E+03  0.00000000000E+00 0.  1.
          2   -1    0    0  501    0  0.00000000000E+00 -0.00000000000E+00 -0.15752010896E+04  0.15752010896E+04  0.00000000000E+00 0. -1.
         24    2    1    2    0    0 -0.43189980215E+03 -0.18287585093E+03  0.31450523704E+03  0.57041615406E+03  0.80498625687E+02 0.  0.
        254    2    1    2    0    0  0.43189980215E+03  0.18287585093E+03 -0.12687687415E+04  0.16257225206E+04  0.90178632635E+03 0.  0.
         23    2    4    4    0    0  0.10660796936E+03 -0.33452738344E+03 -0.68371549001E+03  0.77481783788E+03  0.97989699555E+02 0.  0.
         23    2    4    4    0    0  0.32529183279E+03  0.51740323438E+03 -0.58505325153E+03  0.85090468268E+03  0.90722590643E+02 0.  0.
          2    1    3    3  502    0 -0.11396415506E+02 -0.23528651754E+02  0.19252813503E+02  0.32467623374E+02  0.00000000000E+00 0. -1.
         -1    1    3    3    0  502 -0.42050338665E+03 -0.15934719918E+03  0.29525242353E+03  0.53794853069E+03  0.00000000000E+00 0.  1.
         11    1    5    5    0    0  0.98618306930E+02 -0.33757820753E+03 -0.67985863143E+03  0.76543606878E+03  0.00000000000E+00 0.  1.
        -11    1    5    5    0    0  0.79896624332E+01  0.30508240894E+01 -0.38568585846E+01  0.93817691062E+01  0.00000000000E+00 0. -1.
          3    1    6    6  503    0  0.11887897904E+03  0.26084477039E+03 -0.23898452053E+03  0.37321013779E+03  0.00000000000E+00 0. -1.
         -3    1    6    6    0  503  0.20641285376E+03  0.25655846398E+03 -0.34606873100E+03  0.47769454489E+03  0.00000000000E+00 0.  1.
<mgrwt>
<rscale>  0 0.19779803E+04</rscale>
<asrwt>0</asrwt>
<pdfrwt beam="1">  1        2 0.24233863E+00 0.19779803E+04</pdfrwt>
<pdfrwt beam="2">  1       -1 0.95528860E-01 0.19779803E+04</pdfrwt>
<totfact> 0.12910218E+01</totfact>
</mgrwt>
</event>
<event>
12    6  0.1450532E-007  0.3663050E+04  0.7818608E-02  0.8076200E-01
          2   -1    0    0  501    0  0.00000000000E+00  0.00000000000E+00  0.19112520905E+04  0.19112520905E+04  0.00000000000E+00 0. -1.
         -1   -1    0    0    0  501 -0.00000000000E+00 -0.00000000000E+00 -0.17551236593E+04  0.17551236593E+04  0.00000000000E+00 0.  1.
         24    2    1    2    0    0  0.60650828888E+03 -0.78140386234E+03  0.14769634448E+04  0.17793693917E+04  0.79310239344E+02 0.  0.
        254    2    1    2    0    0 -0.60650828888E+03  0.78140386234E+03 -0.13208350137E+04  0.18870063582E+04  0.91528332320E+03 0.  0.
         23    2    4    4    0    0 -0.88709229471E+02  0.41876781139E+03 -0.11425346562E+04  0.12235520400E+04  0.91969270884E+02 0.  0.
         23    2    4    4    0    0 -0.51779905941E+03  0.36263605095E+03 -0.17830035751E+03  0.66345431814E+03  0.93594034984E+02 0.  0.
          2    1    3    3  502    0  0.40745676099E+03 -0.57394622435E+03  0.10125313026E+04  0.12331483769E+04  0.00000000000E+00 0. -1.
         -1    1    3    3    0  502  0.19905152790E+03 -0.20745763799E+03  0.46443214218E+03  0.54622101480E+03  0.00000000000E+00 0.  1.
         11    1    5    5    0    0 -0.45300597043E+02  0.21522491188E+03 -0.71480514554E+03  0.74787719772E+03  0.00000000000E+00 0.  1.
        -11    1    5    5    0    0 -0.43408632428E+02  0.20354289951E+03 -0.42772951066E+03  0.47567484230E+03  0.00000000000E+00 0. -1.
          2    1    6    6  503    0 -0.41161520542E+03  0.24230690509E+03 -0.11783314336E+03  0.49195971712E+03  0.00000000000E+00 0. -1.
         -2    1    6    6    0  503 -0.10618385399E+03  0.12032914586E+03 -0.60467214151E+02  0.17149460102E+03  0.00000000000E+00 0.  1.
<mgrwt>
<rscale>  0 0.36630500E+04</rscale>
<asrwt>0</asrwt>
<pdfrwt beam="1">  1        2 0.29403878E+00 0.36630500E+04</pdfrwt>
<pdfrwt beam="2">  1       -1 0.27001902E+00 0.36630500E+04</pdfrwt>
<totfact> 0.35667366E-01</totfact>
</mgrwt>
</event>
<event>
12    6  0.1450532E-007  0.1472933E+04  0.7818608E-02  0.8902654E-01
          2   -1    0    0  501    0  0.00000000000E+00  0.00000000000E+00  0.99164576812E+03  0.99164576812E+03  0.00000000000E+00 0. -1.
         -1   -1    0    0    0  501 -0.00000000000E+00 -0.00000000000E+00 -0.54695248119E+03  0.54695248119E+03  0.00000000000E+00 0.  1.
         24    2    1    2    0    0 -0.37157207170E+03 -0.21822767971E+03 -0.38380455154E+02  0.44011024287E+03  0.80838368893E+02 0.  0.
        254    2    1    2    0    0  0.37157207170E+03  0.21822767971E+03  0.48307374208E+03  0.10984880064E+04  0.88748325919E+03 0.  0.
         23    2    4    4    0    0 -0.20895696863E+03  0.11536913941E+03 -0.90807013562E+02  0.27104598850E+03  0.90812780506E+02 0.  0.
         23    2    4    4    0    0  0.58052904033E+03  0.10285854030E+03  0.57388075564E+03  0.82744201793E+03  0.87905206743E+02 0.  0.
          2    1    3    3  502    0 -0.33864806390E+03 -0.20692268295E+03 -0.13081990825E+02  0.39707763270E+03  0.00000000000E+00 0. -1.
         -1    1    3    3    0  502 -0.32924007798E+02 -0.11304996759E+02 -0.25298464329E+02  0.43032610177E+02  0.00000000000E+00 0.  1.
         11    1    5    5    0    0 -0.21706632508E+03  0.11643808254E+03 -0.83540787898E+02  0.26010513219E+03  0.00000000000E+00 0.  1.
        -11    1    5    5    0    0  0.81093564509E+01 -0.10689431238E+01 -0.72662256637E+01  0.10940856312E+02  0.00000000000E+00 0. -1.
          3    1    6    6  503    0  0.52891504940E+01 -0.33254776454E+01  0.23313624081E+02  0.24136258665E+02  0.00000000000E+00 0. -1.
         -3    1    6    6    0  503  0.57523988983E+03  0.10618401795E+03  0.55056713156E+03  0.80330575927E+03  0.00000000000E+00 0.  1.
<mgrwt>
<rscale>  0 0.14729333E+04</rscale>
<asrwt>0</asrwt>
<pdfrwt beam="1">  1        2 0.15256089E+00 0.14729333E+04</pdfrwt>
<pdfrwt beam="2">  1       -1 0.84146536E-01 0.14729333E+04</pdfrwt>
<totfact> 0.39430959E+01</totfact>
</mgrwt>
</event>
<event>
12    6  0.1450532E-007  0.1452495E+04  0.7818608E-02  0.8916672E-01
         -1   -1    0    0    0  501 -0.00000000000E+00  0.00000000000E+00  0.12840227267E+04  0.12840227267E+04  0.00000000000E+00 0.  1.
          2   -1    0    0  501    0  0.00000000000E+00 -0.00000000000E+00 -0.41076813983E+03  0.41076813983E+03  0.00000000000E+00 0. -1.
         24    2    1    2    0    0 -0.25855676834E+03  0.18490040574E+03  0.63913346266E+03  0.71794660986E+03  0.76915466707E+02 0.  0.
        254    2    1    2    0    0  0.25855676834E+03 -0.18490040574E+03  0.23412112425E+03  0.97684425670E+03  0.89351678134E+03 0.  0.
         23    2    4    4    0    0 -0.79690557218E+02  0.24869096881E+03 -0.13533297359E+03  0.30809525205E+03  0.91705439962E+02 0.  0.
         23    2    4    4    0    0  0.33824732556E+03 -0.43359137455E+03  0.36945409784E+03  0.66874900465E+03  0.91193023209E+02 0.  0.
          4    1    3    3  502    0 -0.13853998147E+03  0.12348091193E+03  0.29707328145E+03  0.35027617194E+03  0.00000000000E+00 0. -1.
         -3    1    3    3    0  502 -0.12001678688E+03  0.61419493805E+02  0.34206018121E+03  0.36767043792E+03  0.00000000000E+00 0.  1.
         11    1    5    5    0    0 -0.21765376626E+02  0.10845176782E+01 -0.16895940805E+02  0.27574999799E+02  0.00000000000E+00 0. -1.
        -11    1    5    5    0    0 -0.57925180592E+02  0.24760645113E+03 -0.11843703279E+03  0.28052025225E+03  0.00000000000E+00 0.  1.
          2    1    6    6  503    0  0.95395237711E+02 -0.87010413603E+02  0.49764803831E+02  0.13837485015E+03  0.00000000000E+00 0. -1.
         -2    1    6    6    0  503  0.24285208785E+03 -0.34658096094E+03  0.31968929401E+03  0.53037415450E+03  0.00000000000E+00 0.  1.
<mgrwt>
<rscale>  0 0.14524953E+04</rscale>
<asrwt>0</asrwt>
<pdfrwt beam="1">  1        2 0.63195099E-01 0.14524953E+04</pdfrwt>
<pdfrwt beam="2">  1       -1 0.19754196E+00 0.14524953E+04</pdfrwt>
<totfact> 0.13395415E+01</totfact>
</mgrwt>
</event>
<event>
12    6  0.1450532E-007  0.1701721E+04  0.7818608E-02  0.8760384E-01
          2   -1    0    0  501    0  0.00000000000E+00  0.00000000000E+00  0.41261721613E+03  0.41261721613E+03  0.00000000000E+00 0. -1.
         -1   -1    0    0    0  501 -0.00000000000E+00 -0.00000000000E+00 -0.17545642362E+04  0.17545642362E+04  0.00000000000E+00 0.  1.
         24    2    1    2    0    0  0.23168788968E+03 -0.49510687908E+03 -0.14724635211E+03  0.57178459606E+03  0.80287210313E+02 0.  0.
        254    2    1    2    0    0 -0.23168788968E+03  0.49510687908E+03 -0.11947006679E+04  0.15953968563E+04  0.90508084889E+03 0.  0.
         23    2    4    4    0    0  0.17520506832E+03 -0.14866480452E+03 -0.11867885197E+03  0.27392560863E+03  0.90291356670E+02 0.  0.
         23    2    4    4    0    0 -0.40689295800E+03  0.64377168360E+03 -0.10760218160E+04  0.13214712476E+04  0.91975268235E+02 0.  0.
          2    1    3    3  502    0  0.18111023743E+03 -0.32300174993E+03 -0.71938191694E+02  0.37723487641E+03  0.00000000000E+00 0. -1.
         -1    1    3    3    0  502  0.50577652252E+02 -0.17210512915E+03 -0.75308160416E+02  0.19454971964E+03  0.00000000000E+00 0.  1.
         11    1    5    5    0    0  0.16081004819E+03 -0.16099371760E+03 -0.11345740628E+03  0.25426645816E+03  0.00000000000E+00 0. -1.
        -11    1    5    5    0    0  0.14395020123E+02  0.12328913074E+02 -0.52214456855E+01  0.19659150465E+02  0.00000000000E+00 0.  1.
          3    1    6    6  503    0 -0.38515339486E+03  0.56433493999E+03 -0.98441126130E+03  0.11982831858E+04  0.00000000000E+00 0. -1.
         -3    1    6    6    0  503 -0.21739563143E+02  0.79436743612E+02 -0.91610554670E+02  0.12318806179E+03  0.00000000000E+00 0.  1.
<mgrwt>
<rscale>  0 0.17017208E+04</rscale>
<asrwt>0</asrwt>
<pdfrwt beam="1">  1        2 0.63479572E-01 0.17017208E+04</pdfrwt>
<pdfrwt beam="2">  1       -1 0.26993296E+00 0.17017208E+04</pdfrwt>
<totfact> 0.43228478E+00</totfact>
</mgrwt>
</event>
<event>
12    6  0.1450532E-007  0.1475602E+04  0.7818608E-02  0.8900841E-01
         -1   -1    0    0    0  501 -0.00000000000E+00  0.00000000000E+00  0.30900716599E+03  0.30900716599E+03  0.00000000000E+00 0.  1.
          2   -1    0    0  501    0  0.00000000000E+00 -0.00000000000E+00 -0.17616102591E+04  0.17616102591E+04  0.00000000000E+00 0. -1.
         24    2    1    2    0    0 -0.37264630302E+03  0.19332834002E+03 -0.30529304874E+03  0.52558273288E+03  0.82415103459E+02 0.  0.
        254    2    1    2    0    0  0.37264630302E+03 -0.19332834002E+03 -0.11473100444E+04  0.15450346922E+04  0.94581750251E+03 0.  0.
         23    2    4    4    0    0 -0.23125945647E+02 -0.50577924568E+03 -0.67573630603E+03  0.84935935046E+03  0.91892851774E+02 0.  0.
         23    2    4    4    0    0  0.39577224867E+03  0.31245090567E+03 -0.47157373835E+03  0.69567534177E+03  0.85563714108E+02 0.  0.
          4    1    3    3  502    0 -0.15477076439E+03  0.55023943426E+02 -0.16057857218E+03  0.22971090898E+03  0.00000000000E+00 0. -1.
         -3    1    3    3    0  502 -0.21787553863E+03  0.13830439659E+03 -0.14471447656E+03  0.29587182390E+03  0.00000000000E+00 0.  1.
         11    1    5    5    0    0 -0.89462861459E+01 -0.49027177266E+03 -0.66353558135E+03  0.82506115823E+03  0.00000000000E+00 0.  1.
        -11    1    5    5    0    0 -0.14179659501E+02 -0.15507473026E+02 -0.12200724684E+02  0.24298192238E+02  0.00000000000E+00 0. -1.
          1    1    6    6  503    0  0.13715645460E+03  0.77859190583E+02 -0.10528028189E+03  0.18962564266E+03  0.00000000000E+00 0. -1.
         -1    1    6    6    0  503  0.25861579407E+03  0.23459171508E+03 -0.36629345646E+03  0.50604969911E+03  0.00000000000E+00 0.  1.
<mgrwt>
<rscale>  0 0.14756018E+04</rscale>
<asrwt>0</asrwt>
<pdfrwt beam="1">  1        2 0.27101695E+00 0.14756018E+04</pdfrwt>
<pdfrwt beam="2">  1       -1 0.47539566E-01 0.14756018E+04</pdfrwt>
<totfact> 0.44145244E+01</totfact>
</mgrwt>
</event>
<event>
12    6  0.1450532E-007  0.1986848E+04  0.7818608E-02  0.8612794E-01
          2   -1    0    0  501    0  0.00000000000E+00  0.00000000000E+00  0.11024045886E+04  0.11024045886E+04  0.00000000000E+00 0. -1.
         -1   -1    0    0    0  501 -0.00000000000E+00 -0.00000000000E+00 -0.89521722682E+03  0.89521722682E+03  0.00000000000E+00 0.  1.
         24    2    1    2    0    0  0.75953921802E+03  0.18792374913E+02  0.25761822606E+03  0.80622989310E+03  0.79915662171E+02 0.  0.
        254    2    1    2    0    0 -0.75953921802E+03 -0.18792374913E+02 -0.50430864307E+02  0.11913919223E+04  0.91630697005E+03 0.  0.
         23    2    4    4    0    0 -0.88133678602E+02  0.26174724177E+03  0.26459619339E+03  0.39318466984E+03  0.91125601026E+02 0.  0.
         23    2    4    4    0    0 -0.67140553942E+03 -0.28053961669E+03 -0.31502705769E+03  0.79820725245E+03  0.91678219322E+02 0.  0.
          4    1    3    3  502    0  0.38299288963E+03  0.12225331634E+01  0.17108035141E+03  0.41946815699E+03  0.00000000000E+00 0. -1.
         -3    1    3    3    0  502  0.37654632839E+03  0.17569841749E+02  0.86537874644E+02  0.38676173610E+03  0.00000000000E+00 0.  1.
         11    1    5    5    0    0 -0.27827447150E+02  0.15581588405E+03  0.95930445219E+02  0.18508270275E+03  0.00000000000E+00 0.  1.
        -11    1    5    5    0    0 -0.60306231451E+02  0.10593135772E+03  0.16866574817E+03  0.20810196709E+03  0.00000000000E+00 0. -1.
          1    1    6    6  503    0 -0.13141827084E+02 -0.33842564881E+00 -0.20890656848E+02  0.24682821852E+02  0.00000000000E+00 0. -1.
         -1    1    6    6    0  503 -0.65826371233E+03 -0.28020119104E+03 -0.29413640085E+03  0.77352443060E+03  0.00000000000E+00 0.  1.
<mgrwt>
<rscale>  0 0.19868483E+04</rscale>
<asrwt>0</asrwt>
<pdfrwt beam="1">  1        2 0.16960071E+00 0.19868483E+04</pdfrwt>
<pdfrwt beam="2">  1       -1 0.13772573E+00 0.19868483E+04</pdfrwt>
<totfact> 0.10075174E+01</totfact>
</mgrwt>
</event>
<event>
12    6  0.1450532E-007  0.1495213E+04  0.7818608E-02  0.8887642E-01
          2   -1    0    0  501    0  0.00000000000E+00  0.00000000000E+00  0.71401525126E+03  0.71401525126E+03  0.00000000000E+00 0. -1.
         -1   -1    0    0    0  501 -0.00000000000E+00 -0.00000000000E+00 -0.78277835512E+03  0.78277835512E+03  0.00000000000E+00 0.  1.
         24    2    1    2    0    0 -0.20526352195E+03 -0.42100332117E+03 -0.11929666375E+03  0.49010857059E+03  0.81226886599E+02 0.  0.
        254    2    1    2    0    0  0.20526352195E+03  0.42100332117E+03  0.50533559890E+02  0.10066850358E+04  0.88965398371E+03 0.  0.
         23    2    4    4    0    0 -0.14468640649E+03  0.11541531810E+03  0.37834765227E+03  0.43098034512E+03  0.91335973330E+02 0.  0.
         23    2    4    4    0    0  0.34994992844E+03  0.30558800307E+03 -0.32781409238E+03  0.57570469067E+03  0.90137848128E+02 0.  0.
          2    1    3    3  502    0 -0.39231073083E+01 -0.56132478152E+02  0.12660614470E+01  0.56283645814E+02  0.00000000000E+00 0. -1.
         -1    1    3    3    0  502 -0.20134041464E+03 -0.36487084302E+03 -0.12056272520E+03  0.43382492478E+03  0.00000000000E+00 0.  1.
         11    1    5    5    0    0 -0.50287882094E+02  0.26393460575E+02  0.21497270585E+03  0.22234826311E+03  0.00000000000E+00 0. -1.
        -11    1    5    5    0    0 -0.94398524398E+02  0.89021857527E+02  0.16337494642E+03  0.20863208201E+03  0.00000000000E+00 0.  1.
          4    1    6    6  503    0  0.96234778510E+02  0.13826347578E+03 -0.10027774922E+03  0.19604476101E+03  0.00000000000E+00 0. -1.
         -4    1    6    6    0  503  0.25371514993E+03  0.16732452729E+03 -0.22753634316E+03  0.37965992967E+03  0.00000000000E+00 0.  1.
<mgrwt>
<rscale>  0 0.14952133E+04</rscale>
<asrwt>0</asrwt>
<pdfrwt beam="1">  1        2 0.10984850E+00 0.14952133E+04</pdfrwt>
<pdfrwt beam="2">  1       -1 0.12042744E+00 0.14952133E+04</pdfrwt>
<totfact> 0.27073838E+01</totfact>
</mgrwt>
</event>
<event>
12    6  0.1450532E-007  0.1532987E+04  0.7818608E-02  0.8862808E-01
          2   -1    0    0  501    0  0.00000000000E+00  0.00000000000E+00  0.15999537990E+04  0.15999537990E+04  0.00000000000E+00 0. -1.
         -1   -1    0    0    0  501 -0.00000000000E+00 -0.00000000000E+00 -0.36720601075E+03  0.36720601075E+03  0.00000000000E+00 0.  1.
         24    2    1    2    0    0 -0.45598956669E+03 -0.26354470712E+03  0.61328601921E+03  0.81234161020E+03  0.79980327062E+02 0.  0.
        254    2    1    2    0    0  0.45598956669E+03  0.26354470712E+03  0.61946176901E+03  0.11548181995E+04  0.82005481104E+03 0.  0.
         23    2    4    4    0    0 -0.35396712408E+02 -0.49382894986E+02 -0.14989023598E+03  0.18537479542E+03  0.90582196763E+02 0.  0.
         23    2    4    4    0    0  0.49138627909E+03  0.31292760211E+03  0.76935200499E+03  0.96944340410E+03  0.92378821882E+02 0.  0.
          4    1    3    3  502    0 -0.30105188572E+03 -0.13051605610E+03  0.36316541217E+03  0.48944437416E+03  0.00000000000E+00 0. -1.
         -1    1    3    3    0  502 -0.15493768096E+03 -0.13302865102E+03  0.25012060704E+03  0.32289723604E+03  0.00000000000E+00 0.  1.
         11    1    5    5    0    0 -0.39796407302E+02 -0.55069048636E+02 -0.15950281195E+03  0.17337099288E+03  0.00000000000E+00 0.  1.
        -11    1    5    5    0    0  0.43996948942E+01  0.56861536504E+01  0.96125759774E+01  0.12003802540E+02  0.00000000000E+00 0. -1.
          1    1    6    6  503    0  0.95990949273E+01  0.28955237594E+02  0.43698248448E+02  0.53292450919E+02  0.00000000000E+00 0. -1.
         -1    1    6    6    0  503  0.48178718417E+03  0.28397236451E+03  0.72565375654E+03  0.91615095318E+03  0.00000000000E+00 0.  1.
<mgrwt>
<rscale>  0 0.15329875E+04</rscale>
<asrwt>0</asrwt>
<pdfrwt beam="1">  1        2 0.24614673E+00 0.15329875E+04</pdfrwt>
<pdfrwt beam="2">  1       -1 0.56493233E-01 0.15329875E+04</pdfrwt>
<totfact> 0.38833383E+01</totfact>
</mgrwt>
</event>
<event>
12    6  0.1450532E-007  0.1798034E+04  0.7818608E-02  0.8707345E-01
          2   -1    0    0  501    0  0.00000000000E+00  0.00000000000E+00  0.17406477944E+04  0.17406477944E+04  0.00000000000E+00 0. -1.
         -1   -1    0    0    0  501 -0.00000000000E+00 -0.00000000000E+00 -0.46432825597E+03  0.46432825597E+03  0.00000000000E+00 0.  1.
         24    2    1    2    0    0  0.16412784705E+03 -0.52539322226E+02  0.12781173792E+04  0.12920529169E+04  0.78220040074E+02 0.  0.
        254    2    1    2    0    0 -0.16412784705E+03  0.52539322226E+02 -0.17978407756E+01  0.91292313340E+03  0.89650827364E+03 0.  0.
         23    2    4    4    0    0 -0.24817238619E+03  0.40591937634E+03 -0.15442581781E+03  0.50849264046E+03  0.91418591350E+02 0.  0.
         23    2    4    4    0    0  0.84044539133E+02 -0.35338005412E+03  0.15262797703E+03  0.40443049294E+03  0.91256654779E+02 0.  0.
          4    1    3    3  502    0  0.34835698585E+02  0.64239707060E+01  0.48607228260E+03  0.48736132100E+03  0.00000000000E+00 0. -1.
         -3    1    3    3    0  502  0.12929214847E+03 -0.58963292932E+02  0.79204509657E+03  0.80469159593E+03  0.00000000000E+00 0.  1.
         11    1    5    5    0    0 -0.15107055184E+03  0.16010344615E+03 -0.73847105073E+02  0.23218272983E+03  0.00000000000E+00 0. -1.
        -11    1    5    5    0    0 -0.97101834344E+02  0.24581593019E+03 -0.80578712732E+02  0.27630991063E+03  0.00000000000E+00 0.  1.
          2    1    6    6  503    0  0.95977909418E+02 -0.30377558962E+03  0.15299316222E+03  0.35340950134E+03  0.00000000000E+00 0. -1.
         -2    1    6    6    0  503 -0.11933370286E+02 -0.49604464492E+02 -0.36518519227E+00  0.51020991603E+02  0.00000000000E+00 0.  1.
<mgrwt>
<rscale>  0 0.17980344E+04</rscale>
<asrwt>0</asrwt>
<pdfrwt beam="1">  1        2 0.26779196E+00 0.17980344E+04</pdfrwt>
<pdfrwt beam="2">  1       -1 0.71435117E-01 0.17980344E+04</pdfrwt>
<totfact> 0.19809770E+01</totfact>
</mgrwt>
</event>
<event>
12    6  0.1450532E-007  0.1104325E+04  0.7818608E-02  0.9200986E-01
          2   -1    0    0  501    0  0.00000000000E+00  0.00000000000E+00  0.51770836551E+03  0.51770836551E+03  0.00000000000E+00 0. -1.
         -3   -1    0    0    0  501 -0.00000000000E+00 -0.00000000000E+00 -0.58890984219E+03  0.58890984219E+03  0.00000000000E+00 0.  1.
         24    2    1    2    0    0 -0.89479070514E+02  0.15998556328E+03 -0.44534913914E+02  0.20530374694E+03  0.81020895031E+02 0.  0.
        254    2    1    2    0    0  0.89479070514E+02 -0.15998556328E+03 -0.26666562760E+02  0.90131446076E+03  0.88207412789E+03 0.  0.
         23    2    4    4    0    0  0.37053040004E+03 -0.11279756215E+03 -0.29710582115E+03  0.49743277047E+03  0.95663079606E+02 0.  0.
         23    2    4    4    0    0 -0.28105132952E+03 -0.47188001121E+02  0.27043925839E+03  0.40388169029E+03  0.93629429121E+02 0.  0.
          4    1    3    3  502    0 -0.72850258931E+02  0.16697381672E+03 -0.43139766607E+02  0.18721232640E+03  0.00000000000E+00 0. -1.
         -3    1    3    3    0  502 -0.16628811584E+02 -0.69882534398E+01 -0.13951473074E+01  0.18091420531E+02  0.00000000000E+00 0.  1.
         11    1    5    5    0    0  0.36136020631E+03 -0.12410134943E+03 -0.27416779305E+03  0.47026622501E+03  0.00000000000E+00 0. -1.
        -11    1    5    5    0    0  0.91701937288E+01  0.11303787273E+02 -0.22938028094E+02  0.27166545466E+02  0.00000000000E+00 0.  1.
          3    1    6    6  503    0 -0.17021558280E+03 -0.23112030827E+02  0.98832303050E+02  0.19818005632E+03  0.00000000000E+00 0. -1.
         -3    1    6    6    0  503 -0.11083574672E+03 -0.24075970294E+02  0.17160695534E+03  0.20570163397E+03  0.00000000000E+00 0.  1.
<mgrwt>
<rscale>  0 0.11043252E+04</rscale>
<asrwt>0</asrwt>
<pdfrwt beam="1">  1        2 0.79647441E-01 0.11043252E+04</pdfrwt>
<pdfrwt beam="2">  1       -3 0.90601514E-01 0.11043252E+04</pdfrwt>
<totfact> 0.40612997E+01</totfact>
</mgrwt>
</event>
<event>
12    6  0.1450532E-007  0.2355355E+04  0.7818608E-02  0.8456410E-01
         -1   -1    0    0    0  501 -0.00000000000E+00  0.00000000000E+00  0.87914629700E+03  0.87914629700E+03  0.00000000000E+00 0.  1.
          2   -1    0    0  501    0  0.00000000000E+00 -0.00000000000E+00 -0.15775809456E+04  0.15775809456E+04  0.00000000000E+00 0. -1.
         24    2    1    2    0    0 -0.21780434699E+03 -0.61498701632E+03  0.49682731688E+03  0.82357724106E+03  0.76120466311E+02 0.  0.
        254    2    1    2    0    0  0.21780434699E+03  0.61498701632E+03 -0.11952619655E+04  0.16331500015E+04  0.90159857895E+03 0.  0.
         23    2    4    4    0    0 -0.20429125909E+03  0.59504380512E+03 -0.47730714222E+03  0.79493670010E+03  0.91050538741E+02 0.  0.
         23    2    4    4    0    0  0.42209560608E+03  0.19943211195E+02 -0.71795482324E+03  0.83821330141E+03  0.92628171207E+02 0.  0.
          4    1    3    3  502    0 -0.11643615714E+02 -0.55059933936E+02  0.19810615975E+02  0.59662640046E+02  0.00000000000E+00 0. -1.
         -3    1    3    3    0  502 -0.20616073128E+03 -0.55992708238E+03  0.47701670091E+03  0.76391460102E+03  0.00000000000E+00 0.  1.
         11    1    5    5    0    0 -0.21974166637E+02  0.14433567784E+03 -0.76432359754E+02  0.16479550210E+03  0.00000000000E+00 0. -1.
        -11    1    5    5    0    0 -0.18231709245E+03  0.45070812728E+03 -0.40087478246E+03  0.63014119800E+03  0.00000000000E+00 0.  1.
          2    1    6    6  503    0  0.43279647016E+02 -0.16457171340E+02 -0.42102366080E+02  0.62582549995E+02  0.00000000000E+00 0. -1.
         -2    1    6    6    0  503  0.37881595906E+03  0.36400382534E+02 -0.67585245716E+03  0.77563075141E+03  0.00000000000E+00 0.  1.
<mgrwt>
<rscale>  0 0.23553551E+04</rscale>
<asrwt>0</asrwt>
<pdfrwt beam="1">  1        2 0.24270476E+00 0.23553551E+04</pdfrwt>
<pdfrwt beam="2">  1       -1 0.13525328E+00 0.23553551E+04</pdfrwt>
<totfact> 0.54094092E+00</totfact>
</mgrwt>
</event>
<event>
12    6  0.1450532E-007  0.1762221E+04  0.7818608E-02  0.8726652E-01
          2   -1    0    0  501    0  0.00000000000E+00  0.00000000000E+00  0.13290549010E+04  0.13290549010E+04  0.00000000000E+00 0. -1.
         -1   -1    0    0    0  501 -0.00000000000E+00 -0.00000000000E+00 -0.58414136729E+03  0.58414136729E+03  0.00000000000E+00 0.  1.
         24    2    1    2    0    0 -0.15854572349E+03 -0.77818221139E+02 -0.39620058653E+03  0.44174507105E+03  0.83494796573E+02 0.  0.
        254    2    1    2    0    0  0.15854572349E+03  0.77818221139E+02  0.11411141203E+04  0.14714511973E+04  0.91204976206E+03 0.  0.
         23    2    4    4    0    0  0.48751804726E+02  0.14617807350E+03 -0.11188786036E+03  0.20834978590E+03  0.84533853298E+02 0.  0.
         23    2    4    4    0    0  0.10979391876E+03 -0.68359852363E+02  0.12530019806E+04  0.12631014114E+04  0.93184966056E+02 0.  0.
          2    1    3    3  502    0 -0.60607617808E+02 -0.31984484970E+02 -0.69455934454E+02  0.97572626520E+02  0.00000000000E+00 0. -1.
         -1    1    3    3    0  502 -0.97938105682E+02 -0.45833736170E+02 -0.32674465207E+03  0.34417244453E+03  0.00000000000E+00 0.  1.
         11    1    5    5    0    0  0.60626859080E+02  0.14963863504E+03 -0.11103933417E+03  0.19595170546E+03  0.00000000000E+00 0. -1.
        -11    1    5    5    0    0 -0.11875054354E+02 -0.34605615375E+01 -0.84852618829E+00  0.12398080446E+02  0.00000000000E+00 0.  1.
          3    1    6    6  503    0  0.56917347271E+02 -0.65244558261E+02  0.10405516073E+04  0.10441475395E+04  0.00000000000E+00 0. -1.
         -3    1    6    6    0  503  0.52876571493E+02 -0.31152941011E+01  0.21245037330E+03  0.21895387182E+03  0.00000000000E+00 0.  1.
<mgrwt>
<rscale>  0 0.17622213E+04</rscale>
<asrwt>0</asrwt>
<pdfrwt beam="1">  1        2 0.20446998E+00 0.17622213E+04</pdfrwt>
<pdfrwt beam="2">  1       -1 0.89867903E-01 0.17622213E+04</pdfrwt>
<totfact> 0.20799448E+01</totfact>
</mgrwt>
</event>
<event>
12    6  0.1450532E-007  0.1412887E+04  0.7818608E-02  0.8944543E-01
         -1   -1    0    0    0  501 -0.00000000000E+00  0.00000000000E+00  0.24416413755E+03  0.24416413755E+03  0.00000000000E+00 0.  1.
          2   -1    0    0  501    0  0.00000000000E+00 -0.00000000000E+00 -0.20439617770E+04  0.20439617770E+04  0.00000000000E+00 0. -1.
         24    2    1    2    0    0  0.38580778640E+03 -0.10802367188E+03 -0.41136488508E+03  0.58024040182E+03  0.83313225236E+02 0.  0.
        254    2    1    2    0    0 -0.38580778640E+03  0.10802367188E+03 -0.13884327543E+04  0.17078855127E+04  0.91028053336E+03 0.  0.
         23    2    4    4    0    0 -0.67089379088E+03  0.14605927870E+03 -0.93016759239E+03  0.11595900648E+04  0.89473889387E+02 0.  0.
         23    2    4    4    0    0  0.28508600449E+03 -0.38035606822E+02 -0.45826516195E+03  0.54829544791E+03  0.88883081595E+02 0.  0.
          2    1    3    3  502    0  0.12983467055E+03 -0.82644718685E+01 -0.94108229025E+02  0.16056681457E+03  0.00000000000E+00 0. -1.
         -1    1    3    3    0  502  0.25597311585E+03 -0.99759200010E+02 -0.31725665605E+03  0.41967358725E+03  0.00000000000E+00 0.  1.
         11    1    5    5    0    0 -0.61429472937E+03  0.10900418809E+03 -0.82089663514E+03  0.10310728457E+04  0.00000000000E+00 0. -1.
        -11    1    5    5    0    0 -0.56599061517E+02  0.37055090611E+02 -0.10927095724E+03  0.12851721908E+03  0.00000000000E+00 0.  1.
          1    1    6    6  503    0  0.24282935769E+03 -0.62210860226E+02 -0.36058634868E+03  0.43915692291E+03  0.00000000000E+00 0. -1.
         -1    1    6    6    0  503  0.42256646800E+02  0.24175253404E+02 -0.97678813277E+02  0.10913852500E+03  0.00000000000E+00 0.  1.
<mgrwt>
<rscale>  0 0.14128866E+04</rscale>
<asrwt>0</asrwt>
<pdfrwt beam="1">  1        2 0.31445566E+00 0.14128866E+04</pdfrwt>
<pdfrwt beam="2">  1       -1 0.37563713E-01 0.14128866E+04</pdfrwt>
<totfact> 0.47812202E+01</totfact>
</mgrwt>
</event>
<event>
12    6  0.1450532E-007  0.1739698E+04  0.7818608E-02  0.8739042E-01
         -1   -1    0    0    0  501 -0.00000000000E+00  0.00000000000E+00  0.31747135745E+03  0.31747135745E+03  0.00000000000E+00 0.  1.
          2   -1    0    0  501    0  0.00000000000E+00 -0.00000000000E+00 -0.23833243535E+04  0.23833243535E+04  0.00000000000E+00 0. -1.
         24    2    1    2    0    0 -0.30249847446E+03 -0.22280944797E+03  0.35262853329E+02  0.38595266309E+03  0.81034635613E+02 0.  0.
        254    2    1    2    0    0  0.30249847446E+03  0.22280944797E+03 -0.21011158494E+04  0.23148430479E+04  0.89591358207E+03 0.  0.
         23    2    4    4    0    0  0.59983432686E+03  0.20480738363E+03 -0.16041729510E+04  0.17272803815E+04  0.91538927867E+02 0.  0.
         23    2    4    4    0    0 -0.29733585240E+03  0.18002064335E+02 -0.49694289838E+03  0.58756266641E+03  0.97698307399E+02 0.  0.
          2    1    3    3  502    0 -0.87334446709E+02 -0.86469286469E+02 -0.22047709893E+02  0.12486130143E+03  0.00000000000E+00 0. -1.
         -1    1    3    3    0  502 -0.21516402775E+03 -0.13634016150E+03  0.57310563222E+02  0.26109136166E+03  0.00000000000E+00 0.  1.
         11    1    5    5    0    0  0.23568145276E+03  0.45019903099E+02 -0.52720461278E+03  0.57923850233E+03  0.00000000000E+00 0. -1.
        -11    1    5    5    0    0  0.36415287411E+03  0.15978748054E+03 -0.10769683383E+04  0.11480418791E+04  0.00000000000E+00 0.  1.
          1    1    6    6  503    0 -0.48726257208E+02  0.51695456753E+01 -0.27476707959E+02  0.56177769841E+02  0.00000000000E+00 0. -1.
         -1    1    6    6    0  503 -0.24860959519E+03  0.12832518659E+02 -0.46946619042E+03  0.53138489657E+03  0.00000000000E+00 0.  1.
<mgrwt>
<rscale>  0 0.17396979E+04</rscale>
<asrwt>0</asrwt>
<pdfrwt beam="1">  1        2 0.36666529E+00 0.17396979E+04</pdfrwt>
<pdfrwt beam="2">  1       -1 0.48841747E-01 0.17396979E+04</pdfrwt>
<totfact> 0.18441446E+01</totfact>
</mgrwt>
</event>
<event>
12    6  0.1450532E-007  0.2553668E+04  0.7818608E-02  0.8384112E-01
         -1   -1    0    0    0  501 -0.00000000000E+00  0.00000000000E+00  0.67296149031E+03  0.67296149031E+03  0.00000000000E+00 0.  1.
          2   -1    0    0  501    0  0.00000000000E+00 -0.00000000000E+00 -0.24225829196E+04  0.24225829196E+04  0.00000000000E+00 0. -1.
         24    2    1    2    0    0  0.78037407074E+03  0.10478805578E+03 -0.17286932926E+04  0.19011333864E+04  0.77223223374E+02 0.  0.
        254    2    1    2    0    0 -0.78037407074E+03 -0.10478805578E+03 -0.20928136698E+02  0.11944110235E+04  0.89789502681E+03 0.  0.
         23    2    4    4    0    0 -0.24967017333E+03  0.36532436393E+03  0.12133758064E+03  0.46692971972E+03  0.86622562636E+02 0.  0.
         23    2    4    4    0    0 -0.53070389742E+03 -0.47011241971E+03 -0.14226571734E+03  0.72748130375E+03  0.79606526549E+02 0.  0.
          2    1    3    3  502    0  0.60295585810E+03  0.97333939102E+02 -0.14030158761E+04  0.15301905800E+04  0.00000000000E+00 0. -1.
         -1    1    3    3    0  502  0.17741821264E+03  0.74541166810E+01 -0.32567741645E+03  0.37094280640E+03  0.00000000000E+00 0.  1.
         11    1    5    5    0    0 -0.13129065619E+03  0.11826593956E+03  0.40311355727E+02  0.18124313577E+03  0.00000000000E+00 0. -1.
        -11    1    5    5    0    0 -0.11837951714E+03  0.24705842437E+03  0.81026224915E+02  0.28568658396E+03  0.00000000000E+00 0.  1.
          4    1    6    6  503    0 -0.28997477105E+02 -0.51361777123E+02 -0.15433408143E+01  0.59002268843E+02  0.00000000000E+00 0. -1.
         -4    1    6    6    0  503 -0.50170642031E+03 -0.41875064259E+03 -0.14072237653E+03  0.66847903490E+03  0.00000000000E+00 0.  1.
<mgrwt>
<rscale>  0 0.25536680E+04</rscale>
<asrwt>0</asrwt>
<pdfrwt beam="1">  1        2 0.37270506E+00 0.25536680E+04</pdfrwt>
<pdfrwt beam="2">  1       -1 0.10353254E+00 0.25536680E+04</pdfrwt>
<totfact> 0.34272596E+00</totfact>
</mgrwt>
</event>
<event>
12    6  0.1450532E-007  0.1707581E+04  0.7818608E-02  0.8757052E-01
         -1   -1    0    0    0  501 -0.00000000000E+00  0.00000000000E+00  0.13049255866E+04  0.13049255866E+04  0.00000000000E+00 0.  1.
          2   -1    0    0  501    0  0.00000000000E+00 -0.00000000000E+00 -0.55862061999E+03  0.55862061999E+03  0.00000000000E+00 0. -1.
         24    2    1    2    0    0 -0.28248974987E+03 -0.51069135520E+03  0.48682783709E+03  0.76450085173E+03  0.82789433385E+02 0.  0.
        254    2    1    2    0    0  0.28248974987E+03  0.51069135520E+03  0.25947712954E+03  0.10990453549E+04  0.89440829169E+03 0.  0.
         23    2    4    4    0    0  0.27322280136E+03  0.60615750131E+03 -0.13316097593E+03  0.68421720914E+03  0.91344010177E+02 0.  0.
         23    2    4    4    0    0  0.92669485089E+01 -0.95466146111E+02  0.39263810547E+03  0.41482814573E+03  0.93370483736E+02 0.  0.
          2    1    3    3  502    0 -0.49024364081E+02 -0.82594343212E+02  0.43356542882E+02  0.10538028096E+03  0.00000000000E+00 0. -1.
         -1    1    3    3    0  502 -0.23346538579E+03 -0.42809701199E+03  0.44347129421E+03  0.65912057078E+03  0.00000000000E+00 0.  1.
         11    1    5    5    0    0  0.97871092866E+02  0.29506211015E+03 -0.95056345840E+02  0.32507861903E+03  0.00000000000E+00 0.  1.
        -11    1    5    5    0    0  0.17535170849E+03  0.31109539116E+03 -0.38104630085E+02  0.35913859011E+03  0.00000000000E+00 0. -1.
          1    1    6    6  503    0 -0.26237702188E+02 -0.94676078316E+02  0.28120397259E+03  0.29787187015E+03  0.00000000000E+00 0. -1.
         -1    1    6    6    0  503  0.35504650697E+02 -0.79006779518E+00  0.11143413287E+03  0.11695627558E+03  0.00000000000E+00 0.  1.
<mgrwt>
<rscale>  0 0.17075811E+04</rscale>
<asrwt>0</asrwt>
<pdfrwt beam="1">  1        2 0.85941634E-01 0.17075811E+04</pdfrwt>
<pdfrwt beam="2">  1       -1 0.20075778E+00 0.17075811E+04</pdfrwt>
<totfact> 0.87307837E+00</totfact>
</mgrwt>
</event>
<event>
12    6  0.1450532E-007  0.1205229E+04  0.7818608E-02  0.9108292E-01
          2   -1    0    0  501    0  0.00000000000E+00  0.00000000000E+00  0.13348952415E+04  0.13348952415E+04  0.00000000000E+00 0. -1.
         -1   -1    0    0    0  501 -0.00000000000E+00 -0.00000000000E+00 -0.27203952655E+03  0.27203952655E+03  0.00000000000E+00 0.  1.
         24    2    1    2    0    0 -0.12468132246E+03  0.92497636290E+02 -0.37120917094E+02  0.17813528664E+03  0.79075741985E+02 0.  0.
        254    2    1    2    0    0  0.12468132246E+03 -0.92497636290E+02  0.10999766321E+04  0.14287994814E+04  0.89856447857E+03 0.  0.
         23    2    4    4    0    0 -0.85534800125E+02  0.28637487134E+03  0.87783221700E+03  0.93180633365E+03  0.91361224008E+02 0.  0.
         23    2    4    4    0    0  0.21021612259E+03 -0.37887250763E+03  0.22214441506E+03  0.49699314778E+03  0.99593436330E+02 0.  0.
          2    1    3    3  502    0 -0.12174382889E+02  0.15470684991E+02  0.21998872916E+02  0.29521316068E+02  0.00000000000E+00 0. -1.
         -1    1    3    3    0  502 -0.11250693957E+03  0.77026951299E+02 -0.59119790010E+02  0.14861397057E+03  0.00000000000E+00 0.  1.
         11    1    5    5    0    0 -0.26040940801E+02  0.10325542534E+03  0.19307494735E+03  0.22049432817E+03  0.00000000000E+00 0. -1.
        -11    1    5    5    0    0 -0.59493859325E+02  0.18311944601E+03  0.68475726965E+03  0.71131200548E+03  0.00000000000E+00 0.  1.
          1    1    6    6  503    0  0.19220978527E+03 -0.33167288039E+03  0.22818368629E+03  0.44611578747E+03  0.00000000000E+00 0. -1.
         -1    1    6    6    0  503  0.18006337320E+02 -0.47199627241E+02 -0.60392712241E+01  0.50877360311E+02  0.00000000000E+00 0.  1.
<mgrwt>
<rscale>  0 0.12052291E+04</rscale>
<asrwt>0</asrwt>
<pdfrwt beam="1">  1        2 0.20536849E+00 0.12052291E+04</pdfrwt>
<pdfrwt beam="2">  1       -1 0.41852236E-01 0.12052291E+04</pdfrwt>
<totfact> 0.99341242E+01</totfact>
</mgrwt>
</event>
<event>
12    6  0.1450532E-007  0.1227739E+04  0.7818608E-02  0.9088917E-01
         -3   -1    0    0    0  501 -0.00000000000E+00  0.00000000000E+00  0.14692125859E+04  0.14692125859E+04  0.00000000000E+00 0.  1.
          4   -1    0    0  501    0  0.00000000000E+00 -0.00000000000E+00 -0.25648813796E+03  0.25648813796E+03  0.00000000000E+00 0. -1.
         24    2    1    2    0    0  0.95889975048E+02  0.36627987553E+02 -0.45017288782E+02  0.14063245268E+03  0.84937822382E+02 0.  0.
        254    2    1    2    0    0 -0.95889975048E+02 -0.36627987553E+02  0.12577417367E+04  0.15850682712E+04  0.95916143126E+03 0.  0.
         23    2    4    4    0    0 -0.35274353784E+03  0.21796269400E+03  0.21118519459E+03  0.47413411359E+03  0.90929817964E+02 0.  0.
         23    2    4    4    0    0  0.25685356279E+03 -0.25459068156E+03  0.10465565421E+04  0.11109341576E+04  0.90021879326E+02 0.  0.
          4    1    3    3  502    0  0.81455031670E+02  0.30583679072E+02 -0.69648417615E+02  0.11145037320E+03  0.00000000000E+00 0. -1.
         -3    1    3    3    0  502  0.14434943378E+02  0.60443084803E+01  0.24631128833E+02  0.29182079482E+02  0.00000000000E+00 0.  1.
         11    1    5    5    0    0 -0.26311569501E+03  0.19641715777E+03  0.13687496845E+03  0.35573069282E+03  0.00000000000E+00 0. -1.
        -11    1    5    5    0    0 -0.89627842826E+02  0.21545536236E+02  0.74310226141E+02  0.11840342077E+03  0.00000000000E+00 0.  1.
          1    1    6    6  503    0  0.23643929811E+03 -0.23145528654E+03  0.10114661952E+04  0.10642081354E+04  0.00000000000E+00 0. -1.
         -1    1    6    6    0  503  0.20414264679E+02 -0.23135395012E+02  0.35090346971E+02  0.46726022250E+02  0.00000000000E+00 0.  1.
<mgrwt>
<rscale>  0 0.12277387E+04</rscale>
<asrwt>0</asrwt>
<pdfrwt beam="1">  1        4 0.39459714E-01 0.12277387E+04</pdfrwt>
<pdfrwt beam="2">  1       -3 0.22603270E+00 0.12277387E+04</pdfrwt>
<totfact> 0.14346486E+00</totfact>
</mgrwt>
</event>
<event>
12    6  0.1450532E-007  0.1346162E+04  0.7818608E-02  0.8993739E-01
          2   -1    0    0  501    0  0.00000000000E+00  0.00000000000E+00  0.27979171024E+04  0.27979171024E+04  0.00000000000E+00 0. -1.
         -1   -1    0    0    0  501 -0.00000000000E+00 -0.00000000000E+00 -0.16191970866E+03  0.16191970866E+03  0.00000000000E+00 0.  1.
         24    2    1    2    0    0  0.16921156473E+03 -0.14927736180E+03  0.89856820759E+02  0.25388842156E+03  0.73951321698E+02 0.  0.
        254    2    1    2    0    0 -0.16921156473E+03  0.14927736180E+03  0.25461405730E+04  0.27059483895E+04  0.88792374943E+03 0.  0.
         23    2    4    4    0    0  0.30509546455E+03 -0.11534529357E+03  0.67002910700E+03  0.75076064533E+03  0.91185322840E+02 0.  0.
         23    2    4    4    0    0 -0.47430702928E+03  0.26462265537E+03  0.18761114660E+04  0.19551877442E+04  0.89289273607E+02 0.  0.
          4    1    3    3  502    0  0.54785483849E+02 -0.15378773212E+02  0.43875829374E+02  0.71854327005E+02  0.00000000000E+00 0. -1.
         -3    1    3    3    0  502  0.11442608089E+03 -0.13389858859E+03  0.45980991384E+02  0.18203409456E+03  0.00000000000E+00 0.  1.
         11    1    5    5    0    0  0.20150790439E+03 -0.10627675489E+03  0.38496524785E+03  0.44732362581E+03  0.00000000000E+00 0.  1.
        -11    1    5    5    0    0  0.10358756016E+03 -0.90685386808E+01  0.28506385916E+03  0.30343701951E+03  0.00000000000E+00 0. -1.
          3    1    6    6  503    0 -0.14517187073E+03  0.49081684908E+02  0.42904402864E+03  0.45559045464E+03  0.00000000000E+00 0. -1.
         -3    1    6    6    0  503 -0.32913515855E+03  0.21554097046E+03  0.14470674373E+04  0.14995972895E+04  0.00000000000E+00 0.  1.
<mgrwt>
<rscale>  0 0.13461618E+04</rscale>
<asrwt>0</asrwt>
<pdfrwt beam="1">  1        2 0.43044875E+00 0.13461618E+04</pdfrwt>
<pdfrwt beam="2">  1       -1 0.24910726E-01 0.13461618E+04</pdfrwt>
<totfact> 0.36644921E+01</totfact>
</mgrwt>
</event>
<event>
12    6  0.1450532E-007  0.1124438E+04  0.7818608E-02  0.9181695E-01
         -1   -1    0    0    0  501 -0.00000000000E+00  0.00000000000E+00  0.88155856738E+03  0.88155856738E+03  0.00000000000E+00 0.  1.
          2   -1    0    0  501    0  0.00000000000E+00 -0.00000000000E+00 -0.35855816649E+03  0.35855816649E+03  0.00000000000E+00 0. -1.
         24    2    1    2    0    0 -0.15577525530E+03 -0.60880585492E+02 -0.34186443373E+01  0.18570014027E+03  0.80625548763E+02 0.  0.
        254    2    1    2    0    0  0.15577525530E+03  0.60880585492E+02  0.52641904523E+03  0.10544165936E+04  0.89816755999E+03 0.  0.
         23    2    4    4    0    0  0.29138819722E+03  0.18561623572E+03  0.69964601756E+03  0.78599754456E+03  0.94483446902E+02 0.  0.
         23    2    4    4    0    0 -0.13561294191E+03 -0.12473565023E+03 -0.17322697233E+03  0.26841904904E+03  0.89951928774E+02 0.  0.
          4    1    3    3  502    0 -0.17805605807E+02  0.19140363349E+02  0.69628815658E+00  0.26151059720E+02  0.00000000000E+00 0. -1.
         -3    1    3    3    0  502 -0.13796964949E+03 -0.80020948841E+02 -0.41149324938E+01  0.15954908055E+03  0.00000000000E+00 0.  1.
         11    1    5    5    0    0  0.50264649801E+01  0.24020931364E+02  0.90552377031E+02  0.93818993171E+02  0.00000000000E+00 0. -1.
        -11    1    5    5    0    0  0.28636173224E+03  0.16159530435E+03  0.60909364053E+03  0.69217855139E+03  0.00000000000E+00 0.  1.
          2    1    6    6  503    0  0.84418513062E+00 -0.43165397799E+02 -0.56903903608E+02  0.71428414944E+02  0.00000000000E+00 0. -1.
         -2    1    6    6    0  503 -0.13645712705E+03 -0.81570252428E+02 -0.11632306872E+03  0.19699063409E+03  0.00000000000E+00 0.  1.
<mgrwt>
<rscale>  0 0.11244377E+04</rscale>
<asrwt>0</asrwt>
<pdfrwt beam="1">  1        2 0.55162795E-01 0.11244377E+04</pdfrwt>
<pdfrwt beam="2">  1       -1 0.13562439E+00 0.11244377E+04</pdfrwt>
<totfact> 0.46489953E+01</totfact>
</mgrwt>
</event>
<event>
12    6  0.1450532E-007  0.1626305E+04  0.7818608E-02  0.8804549E-01
         -1   -1    0    0    0  501 -0.00000000000E+00  0.00000000000E+00  0.99021006205E+03  0.99021006205E+03  0.00000000000E+00 0.  1.
          2   -1    0    0  501    0  0.00000000000E+00 -0.00000000000E+00 -0.66775424078E+03  0.66775424078E+03  0.00000000000E+00 0. -1.
         24    2    1    2    0    0 -0.35655859657E+03 -0.46705939160E+01 -0.32767358900E+03  0.49090804188E+03  0.80404461396E+02 0.  0.
        254    2    1    2    0    0  0.35655859657E+03  0.46705939160E+01  0.65012941027E+03  0.11670562609E+04  0.90121929566E+03 0.  0.
         23    2    4    4    0    0  0.54166827530E+03  0.25365174787E+03  0.25444335651E+03  0.65624915851E+03  0.90431226385E+02 0.  0.
         23    2    4    4    0    0 -0.18510967873E+03 -0.24898115396E+03  0.39568605376E+03  0.51080710244E+03  0.89995747563E+02 0.  0.
          4    1    3    3  502    0 -0.30043239750E+03  0.23063479558E+02 -0.28783929015E+03  0.41670493939E+03  0.00000000000E+00 0. -1.
         -3    1    3    3    0  502 -0.56126199072E+02 -0.27734073474E+02 -0.39834298852E+02  0.74203102488E+02  0.00000000000E+00 0.  1.
         11    1    5    5    0    0  0.39318532226E+03  0.21149744912E+03  0.22165408108E+03  0.49845401020E+03  0.00000000000E+00 0.  1.
        -11    1    5    5    0    0  0.14848295304E+03  0.42154298753E+02  0.32789275435E+02  0.15779514831E+03  0.00000000000E+00 0. -1.
          1    1    6    6  503    0 -0.15290418257E+03 -0.15006787724E+03  0.30547424439E+03  0.37311468855E+03  0.00000000000E+00 0. -1.
         -1    1    6    6    0  503 -0.32205496160E+02 -0.98913276713E+02  0.90211809373E+02  0.13769241389E+03  0.00000000000E+00 0.  1.
<mgrwt>
<rscale>  0 0.16263050E+04</rscale>
<asrwt>0</asrwt>
<pdfrwt beam="1">  1        2 0.10273142E+00 0.16263050E+04</pdfrwt>
<pdfrwt beam="2">  1       -1 0.15234001E+00 0.16263050E+04</pdfrwt>
<totfact> 0.15901870E+01</totfact>
</mgrwt>
</event>
<event>
12    6  0.1450532E-007  0.1522870E+04  0.7818608E-02  0.8869385E-01
         -1   -1    0    0    0  501 -0.00000000000E+00  0.00000000000E+00  0.15971431591E+03  0.15971431591E+03  0.00000000000E+00 0.  1.
          2   -1    0    0  501    0  0.00000000000E+00 -0.00000000000E+00 -0.36301284550E+04  0.36301284550E+04  0.00000000000E+00 0. -1.
         24    2    1    2    0    0 -0.14522450812E+03 -0.36142362025E+03 -0.40431268338E+03  0.56713898278E+03  0.80378410130E+02 0.  0.
        254    2    1    2    0    0  0.14522450812E+03  0.36142362025E+03 -0.30661014557E+04  0.32227037881E+04  0.91275647263E+03 0.  0.
         23    2    4    4    0    0 -0.47997661817E+01  0.25504790269E+03 -0.29918329258E+04  0.30041638121E+04  0.94146077871E+02 0.  0.
         23    2    4    4    0    0  0.15002427430E+03  0.10637571756E+03 -0.74268529929E+02  0.21853997599E+03  0.91765082710E+02 0.  0.
          2    1    3    3  502    0 -0.46325261698E+02 -0.15656723207E+03 -0.11797190134E+03  0.20143658440E+03  0.00000000000E+00 0. -1.
         -1    1    3    3    0  502 -0.98899246418E+02 -0.20485638817E+03 -0.28634078204E+03  0.36570239837E+03  0.00000000000E+00 0.  1.
         11    1    5    5    0    0  0.33449267578E+02  0.73006678357E+02 -0.12055017001E+04  0.12081734882E+04  0.00000000000E+00 0. -1.
        -11    1    5    5    0    0 -0.38249033760E+02  0.18204122433E+03 -0.17863312256E+04  0.17959903239E+04  0.00000000000E+00 0.  1.
          1    1    6    6  503    0  0.14146258069E+03  0.94831296177E+02 -0.31206857966E+02  0.17314301734E+03  0.00000000000E+00 0. -1.
         -1    1    6    6    0  503  0.85616936072E+01  0.11544421379E+02 -0.43061671963E+02  0.45396958650E+02  0.00000000000E+00 0.  1.
<mgrwt>
<rscale>  0 0.15228703E+04</rscale>
<asrwt>0</asrwt>
<pdfrwt beam="1">  1        2 0.55848122E+00 0.15228703E+04</pdfrwt>
<pdfrwt beam="2">  1       -1 0.24571437E-01 0.15228703E+04</pdfrwt>
<totfact> 0.10571713E+01</totfact>
</mgrwt>
</event>
<event>
12    6  0.1450532E-007  0.1371289E+04  0.7818608E-02  0.8974867E-01
          2   -1    0    0  501    0  0.00000000000E+00  0.00000000000E+00  0.15800004834E+04  0.15800004834E+04  0.00000000000E+00 0. -1.
         -1   -1    0    0    0  501 -0.00000000000E+00 -0.00000000000E+00 -0.29753689875E+03  0.29753689875E+03  0.00000000000E+00 0.  1.
         24    2    1    2    0    0 -0.19029611275E+03  0.27603688103E+03  0.94129864615E+02  0.35738047821E+03  0.80320636065E+02 0.  0.
        254    2    1    2    0    0  0.19029611275E+03 -0.27603688103E+03  0.11883337201E+04  0.15201569040E+04  0.88675307285E+03 0.  0.
         23    2    4    4    0    0  0.54974629509E+01 -0.18952019567E+03 -0.85316257101E+02  0.22710226366E+03  0.91369840582E+02 0.  0.
         23    2    4    4    0    0  0.18479864980E+03 -0.86516685365E+02  0.12736499772E+04  0.12930546403E+04  0.90390047360E+02 0.  0.
          2    1    3    3  502    0 -0.14757285705E+02  0.57551350862E+02 -0.61099616553E+01  0.59726602941E+02  0.00000000000E+00 0. -1.
         -1    1    3    3    0  502 -0.17553882705E+03  0.21848553017E+03  0.10023982627E+03  0.29765387527E+03  0.00000000000E+00 0.  1.
         11    1    5    5    0    0 -0.40120356199E+02 -0.12161265885E+03 -0.60368866877E+02  0.14157571071E+03  0.00000000000E+00 0.  1.
        -11    1    5    5    0    0  0.45617819150E+02 -0.67907536815E+02 -0.24947390225E+02  0.85526552949E+02  0.00000000000E+00 0. -1.
          3    1    6    6  503    0  0.84550920463E+02 -0.79435100710E+01  0.32585217881E+03  0.33673669230E+03  0.00000000000E+00 0. -1.
         -3    1    6    6    0  503  0.10024772934E+03 -0.78573175294E+02  0.94779779836E+03  0.95631794801E+03  0.00000000000E+00 0.  1.
<mgrwt>
<rscale>  0 0.13712891E+04</rscale>
<asrwt>0</asrwt>
<pdfrwt beam="1">  1        2 0.24307699E+00 0.13712891E+04</pdfrwt>
<pdfrwt beam="2">  1       -1 0.45774908E-01 0.13712891E+04</pdfrwt>
<totfact> 0.60308655E+01</totfact>
</mgrwt>
</event>
<event>
12    6  0.1450532E-007  0.1427636E+04  0.7818608E-02  0.8934054E-01
         -1   -1    0    0    0  501 -0.00000000000E+00  0.00000000000E+00  0.37274753457E+03  0.37274753457E+03  0.00000000000E+00 0.  1.
          2   -1    0    0  501    0  0.00000000000E+00 -0.00000000000E+00 -0.13669736312E+04  0.13669736312E+04  0.00000000000E+00 0. -1.
         24    2    1    2    0    0  0.34187437028E+03 -0.24045025988E+03 -0.37264319871E+03  0.56726130230E+03  0.90708428509E+02 0.  0.
        254    2    1    2    0    0 -0.34187437028E+03  0.24045025988E+03 -0.62158289787E+03  0.11724598634E+04  0.90199912411E+03 0.  0.
         23    2    4    4    0    0 -0.42672849108E+03 -0.20796217040E+03 -0.48995309937E+03  0.68846078393E+03  0.92621498673E+02 0.  0.
         23    2    4    4    0    0  0.84854120797E+02  0.44841243029E+03 -0.13162979850E+03  0.48399907950E+03  0.93031046682E+02 0.  0.
          4    1    3    3  502    0  0.13602046778E+03 -0.68862097791E+02 -0.18690137717E+03  0.24119635353E+03  0.00000000000E+00 0. -1.
         -3    1    3    3    0  502  0.20585390250E+03 -0.17158816209E+03 -0.18574182155E+03  0.32606494877E+03  0.00000000000E+00 0.  1.
         11    1    5    5    0    0 -0.33364181253E+03 -0.11715171456E+03 -0.35785336510E+03  0.50309086078E+03  0.00000000000E+00 0.  1.
        -11    1    5    5    0    0 -0.93086678549E+02 -0.90810455848E+02 -0.13209973427E+03  0.18536992315E+03  0.00000000000E+00 0. -1.
          4    1    6    6  503    0 -0.42182226622E+01  0.16345996948E+03 -0.17779883232E+02  0.16447820303E+03  0.00000000000E+00 0. -1.
         -4    1    6    6    0  503  0.89072343459E+02  0.28495246081E+03 -0.11384991527E+03  0.31952087647E+03  0.00000000000E+00 0.  1.
<mgrwt>
<rscale>  0 0.14276359E+04</rscale>
<asrwt>0</asrwt>
<pdfrwt beam="1">  1        2 0.21030363E+00 0.14276359E+04</pdfrwt>
<pdfrwt beam="2">  1       -1 0.57345775E-01 0.14276359E+04</pdfrwt>
<totfact> 0.51535559E+01</totfact>
</mgrwt>
</event>
<event>
12    6  0.1450532E-007  0.2587949E+04  0.7818608E-02  0.8372306E-01
         -1   -1    0    0    0  501 -0.00000000000E+00  0.00000000000E+00  0.72480967496E+03  0.72480967496E+03  0.00000000000E+00 0.  1.
          2   -1    0    0  501    0  0.00000000000E+00 -0.00000000000E+00 -0.23100820141E+04  0.23100820141E+04  0.00000000000E+00 0. -1.
         24    2    1    2    0    0  0.13426577970E+03 -0.23224459239E+03 -0.19905404312E+04  0.20101235047E+04  0.79877690632E+02 0.  0.
        254    2    1    2    0    0 -0.13426577970E+03  0.23224459239E+03  0.40526809210E+03  0.10247681844E+04  0.90218776034E+03 0.  0.
         23    2    4    4    0    0  0.34525688162E+03 -0.73426727774E+02  0.14249878742E+03  0.39145477714E+03  0.91307937637E+02 0.  0.
         23    2    4    4    0    0 -0.47952266131E+03  0.30567132016E+03  0.26276930468E+03  0.63331340722E+03  0.93065705801E+02 0.  0.
          2    1    3    3  502    0  0.13131104607E+03 -0.22819794742E+03 -0.19859571736E+04  0.20033329203E+04  0.00000000000E+00 0. -1.
         -1    1    3    3    0  502  0.29547336274E+01 -0.40466449670E+01 -0.45832576042E+01  0.67905844052E+01  0.00000000000E+00 0.  1.
         11    1    5    5    0    0  0.22987091463E+03 -0.71834328626E+02  0.13434399226E+03  0.27577004264E+03  0.00000000000E+00 0. -1.
        -11    1    5    5    0    0  0.11538596699E+03 -0.15923991480E+01  0.81547951620E+01  0.11568473450E+03  0.00000000000E+00 0.  1.
          3    1    6    6  503    0 -0.38147435806E+03  0.27567495193E+03  0.18990778968E+03  0.50752766778E+03  0.00000000000E+00 0. -1.
         -3    1    6    6    0  503 -0.98048303255E+02  0.29996368231E+02  0.72861515004E+02  0.12578573944E+03  0.00000000000E+00 0.  1.
<mgrwt>
<rscale>  0 0.25879488E+04</rscale>
<asrwt>0</asrwt>
<pdfrwt beam="1">  1        2 0.35539724E+00 0.25879488E+04</pdfrwt>
<pdfrwt beam="2">  1       -1 0.11150918E+00 0.25879488E+04</pdfrwt>
<totfact> 0.33287283E+00</totfact>
</mgrwt>
</event>
<event>
12    6  0.1450532E-007  0.2057727E+04  0.7818608E-02  0.8580097E-01
         -1   -1    0    0    0  501 -0.00000000000E+00  0.00000000000E+00  0.12470833101E+04  0.12470833101E+04  0.00000000000E+00 0.  1.
          2   -1    0    0  501    0  0.00000000000E+00 -0.00000000000E+00 -0.84882840233E+03  0.84882840233E+03  0.00000000000E+00 0. -1.
         24    2    1    2    0    0  0.28664143272E+03 -0.62579950954E+03 -0.29369091803E+03  0.75277635566E+03  0.81422043837E+02 0.  0.
        254    2    1    2    0    0 -0.28664143272E+03  0.62579950954E+03  0.69194582583E+03  0.13431353568E+04  0.92273247678E+03 0.  0.
         23    2    4    4    0    0 -0.46591244120E+03  0.73666733720E+03  0.68446906659E+03  0.11119186241E+04  0.90066392145E+02 0.  0.
         23    2    4    4    0    0  0.17927100849E+03 -0.11086782767E+03  0.74767592385E+01  0.23121673266E+03  0.94739146287E+02 0.  0.
          2    1    3    3  502    0  0.17044435275E+03 -0.39772836031E+03 -0.22520334007E+03  0.48780700114E+03  0.00000000000E+00 0. -1.
         -1    1    3    3    0  502  0.11619707996E+03 -0.22807114922E+03 -0.68487577960E+02  0.26496935452E+03  0.00000000000E+00 0.  1.
         11    1    5    5    0    0 -0.40380151224E+02  0.58949395608E+02  0.90645848438E+02  0.11542208495E+03  0.00000000000E+00 0. -1.
        -11    1    5    5    0    0 -0.42553228998E+03  0.67771794160E+03  0.59382321815E+03  0.99649653918E+03  0.00000000000E+00 0.  1.
          1    1    6    6  503    0  0.15291829882E+03 -0.43922058357E+02  0.73508144421E+01  0.15927080021E+03  0.00000000000E+00 0. -1.
         -1    1    6    6    0  503  0.26352709665E+02 -0.66945769310E+02  0.12594479640E+00  0.71945932458E+02  0.00000000000E+00 0.  1.
<mgrwt>
<rscale>  0 0.20577266E+04</rscale>
<asrwt>0</asrwt>
<pdfrwt beam="1">  1        2 0.13058899E+00 0.20577266E+04</pdfrwt>
<pdfrwt beam="2">  1       -1 0.19185897E+00 0.20577266E+04</pdfrwt>
<totfact> 0.57529320E+00</totfact>
</mgrwt>
</event>
<event>
12    6  0.1450532E-007  0.1130446E+04  0.7818608E-02  0.9176014E-01
         -1   -1    0    0    0  501 -0.00000000000E+00  0.00000000000E+00  0.71642544299E+03  0.71642544299E+03  0.00000000000E+00 0.  1.
          2   -1    0    0  501    0  0.00000000000E+00 -0.00000000000E+00 -0.44593240105E+03  0.44593240105E+03  0.00000000000E+00 0. -1.
         24    2    1    2    0    0  0.22552908436E+02 -0.16388885368E+03  0.15336944082E+03  0.23927063864E+03  0.79750003718E+02 0.  0.
        254    2    1    2    0    0 -0.22552908436E+02  0.16388885368E+03  0.11712360111E+03  0.92308720540E+03  0.90055752776E+03 0.  0.
         23    2    4    4    0    0 -0.42770636767E+03  0.37557348524E+02  0.19638262537E+03  0.48093001058E+03  0.91565540235E+02 0.  0.
         23    2    4    4    0    0  0.40515345923E+03  0.12633150516E+03 -0.79259024257E+02  0.44215719483E+03  0.95456887068E+02 0.  0.
          2    1    3    3  502    0 -0.84428951316E+01 -0.13014111175E+03  0.80709602345E+02  0.15336893870E+03  0.00000000000E+00 0. -1.
         -1    1    3    3    0  502  0.30995803568E+02 -0.33747741931E+02  0.72659838479E+02  0.85901699937E+02  0.00000000000E+00 0.  1.
         11    1    5    5    0    0 -0.37334398475E+02 -0.90255484671E+01 -0.58015491910E+01  0.38845537808E+02  0.00000000000E+00 0.  1.
        -11    1    5    5    0    0 -0.39037196919E+03  0.46582896991E+02  0.20218417456E+03  0.44208447277E+03  0.00000000000E+00 0. -1.
          1    1    6    6  503    0  0.33241294377E+03  0.82704173870E+02 -0.29490979867E+02  0.34381399543E+03  0.00000000000E+00 0. -1.
         -1    1    6    6    0  503  0.72740515462E+02  0.43627331291E+02 -0.49768044390E+02  0.98343199397E+02  0.00000000000E+00 0.  1.
<mgrwt>
<rscale>  0 0.11304465E+04</rscale>
<asrwt>0</asrwt>
<pdfrwt beam="1">  1        2 0.68604985E-01 0.11304465E+04</pdfrwt>
<pdfrwt beam="2">  1       -1 0.11021930E+00 0.11304465E+04</pdfrwt>
<totfact> 0.60558276E+01</totfact>
</mgrwt>
</event>
<event>
12    6  0.1450532E-007  0.2542384E+04  0.7818608E-02  0.8388040E-01
         -1   -1    0    0    0  501 -0.00000000000E+00  0.00000000000E+00  0.18887557389E+04  0.18887557389E+04  0.00000000000E+00 0.  1.
          2   -1    0    0  501    0  0.00000000000E+00 -0.00000000000E+00 -0.85555246418E+03  0.85555246418E+03  0.00000000000E+00 0. -1.
         24    2    1    2    0    0 -0.58783929383E+03  0.53660591965E+03  0.12889384371E+04  0.15169613937E+04  0.79426865314E+02 0.  0.
        254    2    1    2    0    0  0.58783929383E+03 -0.53660591965E+03 -0.25573516241E+03  0.12273468094E+04  0.89859822437E+03 0.  0.
         23    2    4    4    0    0  0.52613367355E+03 -0.76930737043E+03 -0.14653992791E+03  0.94785268213E+03  0.91105893920E+02 0.  0.
         23    2    4    4    0    0  0.61705620273E+02  0.23270145078E+03 -0.10919523450E+03  0.27949412725E+03  0.90751414083E+02 0.  0.
          4    1    3    3  502    0 -0.21820765725E+03  0.18634660317E+03  0.39613532038E+03  0.48914499920E+03  0.00000000000E+00 0. -1.
         -3    1    3    3    0  502 -0.36963163658E+03  0.35025931648E+03  0.89280311676E+03  0.10278163945E+04  0.00000000000E+00 0.  1.
         11    1    5    5    0    0  0.57701799233E+01 -0.16252284147E+02  0.88820987737E+01  0.19399056548E+02  0.00000000000E+00 0.  1.
        -11    1    5    5    0    0  0.52036349363E+03 -0.75305508628E+03 -0.15542202668E+03  0.92845362558E+03  0.00000000000E+00 0. -1.
          3    1    6    6  503    0  0.59611495807E+02  0.24016376179E+03 -0.98612576080E+02  0.26637680656E+03  0.00000000000E+00 0. -1.
         -3    1    6    6    0  503  0.20941244654E+01 -0.74623110077E+01 -0.10582658421E+02  0.13117320691E+02  0.00000000000E+00 0.  1.
<mgrwt>
<rscale>  0 0.25423844E+04</rscale>
<asrwt>0</asrwt>
<pdfrwt beam="1">  1        2 0.13162346E+00 0.25423844E+04</pdfrwt>
<pdfrwt beam="2">  1       -1 0.29057780E+00 0.25423844E+04</pdfrwt>
<totfact> 0.12119434E+00</totfact>
</mgrwt>
</event>
<event>
12    6  0.1450532E-007  0.2029921E+04  0.7818608E-02  0.8592758E-01
          2   -1    0    0  501    0  0.00000000000E+00  0.00000000000E+00  0.22047556009E+04  0.22047556009E+04  0.00000000000E+00 0. -1.
         -1   -1    0    0    0  501 -0.00000000000E+00 -0.00000000000E+00 -0.46723784139E+03  0.46723784139E+03  0.00000000000E+00 0.  1.
         24    2    1    2    0    0 -0.35294632337E+03 -0.44583514062E+03  0.14532841033E+04  0.15625530377E+04  0.78722493119E+02 0.  0.
        254    2    1    2    0    0  0.35294632337E+03  0.44583514062E+03  0.28423365622E+03  0.11094404046E+04  0.90924647935E+03 0.  0.
         23    2    4    4    0    0  0.48255238115E+03 -0.68728006476E+02 -0.91050770446E+01  0.49632491595E+03  0.93140648152E+02 0.  0.
         23    2    4    4    0    0 -0.12960605778E+03  0.51456314710E+03  0.29333873326E+03  0.61311548864E+03  0.91049587674E+02 0.  0.
          4    1    3    3  502    0 -0.18023400648E+03 -0.23839344054E+03  0.65746574840E+03  0.72220283847E+03  0.00000000000E+00 0. -1.
         -3    1    3    3    0  502 -0.17271231689E+03 -0.20744170009E+03  0.79581835486E+03  0.84035019919E+03  0.00000000000E+00 0.  1.
         11    1    5    5    0    0  0.16067968789E+03  0.66921282046E+01  0.29450931457E+02  0.16349343731E+03  0.00000000000E+00 0. -1.
        -11    1    5    5    0    0  0.32187269326E+03 -0.75420134681E+02 -0.38556008501E+02  0.33283147864E+03  0.00000000000E+00 0.  1.
          1    1    6    6  503    0  0.79328651150E+01  0.11645708144E+03  0.74326769896E+02  0.13838226364E+03  0.00000000000E+00 0. -1.
         -1    1    6    6    0  503 -0.13753892289E+03  0.39810606566E+03  0.21901196337E+03  0.47473322500E+03  0.00000000000E+00 0.  1.
<mgrwt>
<rscale>  0 0.20299214E+04</rscale>
<asrwt>0</asrwt>
<pdfrwt beam="1">  1        2 0.33919316E+00 0.20299214E+04</pdfrwt>
<pdfrwt beam="2">  1       -1 0.71882746E-01 0.20299214E+04</pdfrwt>
<totfact> 0.10576402E+01</totfact>
</mgrwt>
</event>
<event>
12    6  0.1450532E-007  0.1271996E+04  0.7818608E-02  0.9052073E-01
          2   -1    0    0  501    0  0.00000000000E+00  0.00000000000E+00  0.13145722355E+04  0.13145722355E+04  0.00000000000E+00 0. -1.
         -1   -1    0    0    0  501 -0.00000000000E+00 -0.00000000000E+00 -0.30769947290E+03  0.30769947290E+03  0.00000000000E+00 0.  1.
         24    2    1    2    0    0  0.15420746271E+03 -0.25150651872E+03  0.33279203101E+03  0.45179560792E+03  0.79581812721E+02 0.  0.
        254    2    1    2    0    0 -0.15420746271E+03  0.25150651872E+03  0.67408073158E+03  0.11704761005E+04  0.91027138733E+03 0.  0.
         23    2    4    4    0    0 -0.54325753315E+02 -0.82292279599E+02 -0.19053469931E+03  0.23333607784E+03  0.91754819098E+02 0.  0.
         23    2    4    4    0    0 -0.99881709397E+02  0.33379879832E+03  0.86461543089E+03  0.93714002264E+03  0.96299455178E+02 0.  0.
          2    1    3    3  502    0  0.13611713285E+03 -0.24755760069E+03  0.28849621188E+03  0.40378546752E+03  0.00000000000E+00 0. -1.
         -1    1    3    3    0  502  0.18090329862E+02 -0.39489180270E+01  0.44295819131E+02  0.48010140393E+02  0.00000000000E+00 0.  1.
         11    1    5    5    0    0 -0.57270996562E+02 -0.71126439688E+02 -0.19904392707E+03  0.21899183175E+03  0.00000000000E+00 0. -1.
        -11    1    5    5    0    0  0.29452432469E+01 -0.11165839911E+02  0.85092277653E+01  0.14344246089E+02  0.00000000000E+00 0.  1.
          1    1    6    6  503    0 -0.11065643641E+01 -0.39043663287E+01  0.44113283266E+00  0.40820533187E+01  0.00000000000E+00 0.  1.
         -1    1    6    6    0  503 -0.98775145033E+02  0.33770316465E+03  0.86417429806E+03  0.93305796932E+03  0.00000000000E+00 0. -1.
<mgrwt>
<rscale>  0 0.12719956E+04</rscale>
<asrwt>0</asrwt>
<pdfrwt beam="1">  1        2 0.20224188E+00 0.12719956E+04</pdfrwt>
<pdfrwt beam="2">  1       -1 0.47338381E-01 0.12719956E+04</pdfrwt>
<totfact> 0.80772690E+01</totfact>
</mgrwt>
</event>
<event>
12    6  0.1450532E-007  0.1822187E+04  0.7818608E-02  0.8694589E-01
         -1   -1    0    0    0  501 -0.00000000000E+00  0.00000000000E+00  0.50330080367E+03  0.50330080367E+03  0.00000000000E+00 0.  1.
          2   -1    0    0  501    0  0.00000000000E+00 -0.00000000000E+00 -0.16492949446E+04  0.16492949446E+04  0.00000000000E+00 0. -1.
         24    2    1    2    0    0 -0.47138767018E+02 -0.10923944367E+03 -0.12372164607E+04  0.12454879450E+04  0.79876973964E+02 0.  0.
        254    2    1    2    0    0  0.47138767018E+02  0.10923944367E+03  0.91222319783E+02  0.90710780330E+03  0.89463273793E+03 0.  0.
         23    2    4    4    0    0 -0.10080103197E+02  0.37703120426E+03  0.34765161677E+03  0.52080455170E+03  0.90119903253E+02 0.  0.
         23    2    4    4    0    0  0.57218870215E+02 -0.26779176059E+03 -0.25642929699E+03  0.38630325160E+03  0.92129211927E+02 0.  0.
          2    1    3    3  502    0 -0.57379507084E+02 -0.85485304341E+02 -0.11477053765E+04  0.11523140962E+04  0.00000000000E+00 0. -1.
         -1    1    3    3    0  502  0.10240740066E+02 -0.23754139333E+02 -0.89511084201E+02  0.93173848731E+02  0.00000000000E+00 0.  1.
         11    1    5    5    0    0 -0.34663118691E+02  0.25699498456E+03  0.19174529801E+03  0.32251234580E+03  0.00000000000E+00 0.  1.
        -11    1    5    5    0    0  0.24583015494E+02  0.12003621971E+03  0.15590631876E+03  0.19829220590E+03  0.00000000000E+00 0. -1.
          4    1    6    6  503    0 -0.23221348237E+02 -0.10243515016E+03 -0.93571969419E+02  0.14066948661E+03  0.00000000000E+00 0. -1.
         -4    1    6    6    0  503  0.80440218452E+02 -0.16535661043E+03 -0.16285732757E+03  0.24563376499E+03  0.00000000000E+00 0.  1.
<mgrwt>
<rscale>  0 0.18221871E+04</rscale>
<asrwt>0</asrwt>
<pdfrwt beam="1">  1        2 0.25373768E+00 0.18221871E+04</pdfrwt>
<pdfrwt beam="2">  1       -1 0.77430893E-01 0.18221871E+04</pdfrwt>
<totfact> 0.18784161E+01</totfact>
</mgrwt>
</event>
<event>
12    6  0.1450532E-007  0.1566229E+04  0.7818608E-02  0.8841568E-01
          2   -1    0    0  501    0  0.00000000000E+00  0.00000000000E+00  0.13439536701E+04  0.13439536701E+04  0.00000000000E+00 0. -1.
         -1   -1    0    0    0  501 -0.00000000000E+00 -0.00000000000E+00 -0.45631664601E+03  0.45631664601E+03  0.00000000000E+00 0.  1.
         24    2    1    2    0    0 -0.44549000463E+03  0.21776649304E+03  0.14238598594E+03  0.52159171102E+03  0.76815065559E+02 0.  0.
        254    2    1    2    0    0  0.44549000463E+03 -0.21776649304E+03  0.74525103816E+03  0.12786786051E+04  0.91309160305E+03 0.  0.
         23    2    4    4    0    0  0.48211633096E+03  0.14262354034E+03  0.74755463822E+03  0.90526060599E+03  0.88776104862E+02 0.  0.
         23    2    4    4    0    0 -0.36626326327E+02 -0.36039003337E+03 -0.23036000630E+01  0.37341799912E+03  0.90626880979E+02 0.  0.
          4    1    3    3  502    0 -0.26326291787E+03  0.10835611382E+03  0.11597980481E+03  0.30740807805E+03  0.00000000000E+00 0. -1.
         -3    1    3    3    0  502 -0.18222708676E+03  0.10941037922E+03  0.26406181134E+02  0.21418363297E+03  0.00000000000E+00 0.  1.
         11    1    5    5    0    0  0.42183085324E+03  0.13185826275E+03  0.59750864493E+03  0.74319879639E+03  0.00000000000E+00 0.  1.
        -11    1    5    5    0    0  0.60285477724E+02  0.10765277581E+02  0.15004599330E+03  0.16206180960E+03  0.00000000000E+00 0. -1.
          1    1    6    6  503    0 -0.21715943599E+02 -0.89698442017E+02  0.37099725887E+02  0.99467494025E+02  0.00000000000E+00 0. -1.
         -1    1    6    6    0  503 -0.14910382728E+02 -0.27069159136E+03 -0.39403325950E+02  0.27395050509E+03  0.00000000000E+00 0.  1.
<mgrwt>
<rscale>  0 0.15662291E+04</rscale>
<asrwt>0</asrwt>
<pdfrwt beam="1">  1        2 0.20676210E+00 0.15662291E+04</pdfrwt>
<pdfrwt beam="2">  1       -1 0.70202561E-01 0.15662291E+04</pdfrwt>
<totfact> 0.35034048E+01</totfact>
</mgrwt>
</event>
<event>
12    6  0.1450532E-007  0.1981873E+04  0.7818608E-02  0.8615143E-01
         -1   -1    0    0    0  501 -0.00000000000E+00  0.00000000000E+00  0.59693969647E+03  0.59693969647E+03  0.00000000000E+00 0.  1.
          2   -1    0    0  501    0  0.00000000000E+00 -0.00000000000E+00 -0.16449829527E+04  0.16449829527E+04  0.00000000000E+00 0. -1.
         24    2    1    2    0    0  0.42193141729E+03 -0.63666698001E+03 -0.21117421153E+03  0.79696183166E+03  0.84750511321E+02 0.  0.
        254    2    1    2    0    0 -0.42193141729E+03  0.63666698001E+03 -0.83686904467E+03  0.14449608175E+04  0.89676697185E+03 0.  0.
         23    2    4    4    0    0 -0.49404249077E+02  0.25164006887E+03 -0.85956517427E+03  0.90162486787E+03  0.91168028702E+02 0.  0.
         23    2    4    4    0    0 -0.37252716821E+03  0.38502691115E+03  0.22696129602E+02  0.54333594961E+03  0.87616359652E+02 0.  0.
          4    1    3    3  502    0  0.50439499040E+02 -0.13547463884E+03 -0.43502247438E+02  0.15096346036E+03  0.00000000000E+00 0. -1.
         -3    1    3    3    0  502  0.37149191825E+03 -0.50119234118E+03 -0.16767196410E+03  0.64599837130E+03  0.00000000000E+00 0.  1.
         11    1    5    5    0    0  0.10079745300E+02  0.11523644852E+01 -0.11467983658E+02  0.15311559633E+02  0.00000000000E+00 0.  1.
        -11    1    5    5    0    0 -0.59483994377E+02  0.25048770438E+03 -0.84809719062E+03  0.88631330824E+03  0.00000000000E+00 0. -1.
          1    1    6    6  503    0 -0.26992586165E+03  0.23404746644E+03  0.42225662943E+02  0.35975157254E+03  0.00000000000E+00 0. -1.
         -1    1    6    6    0  503 -0.10260130656E+03  0.15097944470E+03 -0.19529533341E+02  0.18358437707E+03  0.00000000000E+00 0.  1.
<mgrwt>
<rscale>  0 0.19818735E+04</rscale>
<asrwt>0</asrwt>
<pdfrwt beam="1">  1        2 0.25307430E+00 0.19818735E+04</pdfrwt>
<pdfrwt beam="2">  1       -1 0.91836876E-01 0.19818735E+04</pdfrwt>
<totfact> 0.12882791E+01</totfact>
</mgrwt>
</event>
<event>
12    6  0.1450532E-007  0.1419427E+04  0.7818608E-02  0.8939875E-01
          2   -1    0    0  501    0  0.00000000000E+00  0.00000000000E+00  0.10714738698E+04  0.10714738698E+04  0.00000000000E+00 0. -1.
         -1   -1    0    0    0  501 -0.00000000000E+00 -0.00000000000E+00 -0.47009389868E+03  0.47009389868E+03  0.00000000000E+00 0.  1.
         24    2    1    2    0    0 -0.85775689091E+02 -0.35943028562E+03 -0.41678844646E+02  0.38003579097E+03  0.78373957851E+02 0.  0.
        254    2    1    2    0    0  0.85775689091E+02  0.35943028562E+03  0.64305881573E+03  0.11615319775E+04  0.89391514986E+03 0.  0.
         23    2    4    4    0    0  0.34957378355E+03 -0.61045081368E+02  0.53067655258E+03  0.64480425110E+03  0.90700532955E+02 0.  0.
         23    2    4    4    0    0 -0.26379809446E+03  0.42047536699E+03  0.11238226315E+03  0.51672772637E+03  0.89380094214E+02 0.  0.
          2    1    3    3  502    0  0.75508120572E+01 -0.99174837932E+01 -0.11603093526E+02  0.17029475238E+02  0.00000000000E+00 0. -1.
         -1    1    3    3    0  502 -0.93326501148E+02 -0.34951280183E+03 -0.30075751120E+02  0.36300631573E+03  0.00000000000E+00 0.  1.
         11    1    5    5    0    0  0.38851711601E+02  0.82368011410E+01  0.11204823318E+03  0.11887853862E+03  0.00000000000E+00 0.  1.
        -11    1    5    5    0    0  0.31072207195E+03 -0.69281882509E+02  0.41862831940E+03  0.52592571248E+03  0.00000000000E+00 0. -1.
          3    1    6    6  503    0 -0.19893531304E+03  0.36928519620E+03  0.11177027394E+03  0.43409608273E+03  0.00000000000E+00 0. -1.
         -3    1    6    6    0  503 -0.64862781426E+02  0.51190170793E+02  0.61198920749E+00  0.82631643641E+02  0.00000000000E+00 0.  1.
<mgrwt>
<rscale>  0 0.14194271E+04</rscale>
<asrwt>0</asrwt>
<pdfrwt beam="1">  1        2 0.16484213E+00 0.14194271E+04</pdfrwt>
<pdfrwt beam="2">  1       -1 0.72322139E-01 0.14194271E+04</pdfrwt>
<totfact> 0.48531399E+01</totfact>
</mgrwt>
</event>
<event>
12    6  0.1450532E-007  0.1157731E+04  0.7818608E-02  0.9150680E-01
         -3   -1    0    0    0  501 -0.00000000000E+00  0.00000000000E+00  0.32205783428E+03  0.32205783428E+03  0.00000000000E+00 0.  1.
          4   -1    0    0  501    0  0.00000000000E+00 -0.00000000000E+00 -0.10404513862E+04  0.10404513862E+04  0.00000000000E+00 0. -1.
         24    2    1    2    0    0 -0.91327292717E+02  0.15226033795E+02  0.14552251246E+03  0.18971396172E+03  0.79006829701E+02 0.  0.
        254    2    1    2    0    0  0.91327292717E+02 -0.15226033795E+02 -0.86391606435E+03  0.11727952587E+04  0.78773424843E+03 0.  0.
         23    2    4    4    0    0  0.36658441240E+03  0.34741159189E+02 -0.16521072410E+03  0.41390259178E+03  0.91813357246E+02 0.  0.
         23    2    4    4    0    0 -0.27525711968E+03 -0.49967192984E+02 -0.69870534024E+03  0.75889266694E+03  0.97291958243E+02 0.  0.
          4    1    3    3  502    0 -0.20087169948E+02 -0.65068007344E+01 -0.50649999239E+01  0.21713753165E+02  0.00000000000E+00 0. -1.
         -3    1    3    3    0  502 -0.71240122769E+02  0.21732834530E+02  0.15058751239E+03  0.16800020856E+03  0.00000000000E+00 0.  1.
         11    1    5    5    0    0  0.30873241441E+03  0.61653632717E+02 -0.14760536002E+03  0.34771283617E+03  0.00000000000E+00 0. -1.
        -11    1    5    5    0    0  0.57851997990E+02 -0.26912473528E+02 -0.17605364088E+02  0.66189755609E+02  0.00000000000E+00 0.  1.
          4    1    6    6  503    0 -0.26141140052E+03 -0.55507906564E+02 -0.57241220874E+03  0.63172207871E+03  0.00000000000E+00 0. -1.
         -4    1    6    6    0  503 -0.13845719164E+02  0.55407135798E+01 -0.12629313150E+03  0.12717058823E+03  0.00000000000E+00 0.  1.
<mgrwt>
<rscale>  0 0.11577314E+04</rscale>
<asrwt>0</asrwt>
<pdfrwt beam="1">  1        4 0.16006944E+00 0.11577314E+04</pdfrwt>
<pdfrwt beam="2">  1       -3 0.49547359E-01 0.11577314E+04</pdfrwt>
<totfact> 0.22825363E+00</totfact>
</mgrwt>
</event>
<event>
12    6  0.1450532E-007  0.1277037E+04  0.7818608E-02  0.9047975E-01
         -1   -1    0    0    0  501 -0.00000000000E+00  0.00000000000E+00  0.36550518208E+03  0.36550518208E+03  0.00000000000E+00 0.  1.
          2   -1    0    0  501    0  0.00000000000E+00 -0.00000000000E+00 -0.11154593922E+04  0.11154593922E+04  0.00000000000E+00 0. -1.
         24    2    1    2    0    0 -0.16977601634E+03 -0.25614716552E+03 -0.21590223172E+03  0.38339395378E+03  0.77083616962E+02 0.  0.
        254    2    1    2    0    0  0.16977601634E+03  0.25614716552E+03 -0.53405197839E+03  0.10975706205E+04  0.90830308004E+03 0.  0.
         23    2    4    4    0    0  0.35790745731E+03  0.50919987707E+03 -0.33304320755E+03  0.71242964452E+03  0.96207886815E+02 0.  0.
         23    2    4    4    0    0 -0.18813144097E+03 -0.25305271156E+03 -0.20100877084E+03  0.38514097596E+03  0.92195073088E+02 0.  0.
          4    1    3    3  502    0 -0.13778126443E+03 -0.22116566365E+03 -0.21183124369E+03  0.33581304830E+03  0.00000000000E+00 0. -1.
         -3    1    3    3    0  502 -0.31994751906E+02 -0.34981501864E+02 -0.40709880337E+01  0.47580905474E+02  0.00000000000E+00 0.  1.
         11    1    5    5    0    0  0.46355320463E+02  0.13428074389E+03 -0.83840914730E+02  0.16495282022E+03  0.00000000000E+00 0. -1.
        -11    1    5    5    0    0  0.31155213685E+03  0.37491913318E+03 -0.24920229282E+03  0.54747682431E+03  0.00000000000E+00 0.  1.
          2    1    6    6  503    0 -0.66767497965E+01 -0.63157041080E+02 -0.58361828144E+02  0.86252500312E+02  0.00000000000E+00 0. -1.
         -2    1    6    6    0  503 -0.18145469118E+03 -0.18989567048E+03 -0.14264694270E+03  0.29888847565E+03  0.00000000000E+00 0.  1.
<mgrwt>
<rscale>  0 0.12770375E+04</rscale>
<asrwt>0</asrwt>
<pdfrwt beam="1">  1        2 0.17160913E+00 0.12770375E+04</pdfrwt>
<pdfrwt beam="2">  1       -1 0.56231567E-01 0.12770375E+04</pdfrwt>
<totfact> 0.76346070E+01</totfact>
</mgrwt>
</event>
<event>
12    6  0.1450532E-007  0.2237466E+04  0.7818608E-02  0.8502994E-01
          2   -1    0    0  501    0  0.00000000000E+00  0.00000000000E+00  0.29923739877E+04  0.29923739877E+04  0.00000000000E+00 0. -1.
         -1   -1    0    0    0  501 -0.00000000000E+00 -0.00000000000E+00 -0.41825114887E+03  0.41825114887E+03  0.00000000000E+00 0.  1.
         24    2    1    2    0    0  0.13591206740E+03  0.92081174673E+03  0.94904691596E+03  0.13318426501E+04  0.82148846279E+02 0.  0.
        254    2    1    2    0    0 -0.13591206740E+03 -0.92081174673E+03  0.16250759229E+04  0.20787824865E+04  0.90227407590E+03 0.  0.
         23    2    4    4    0    0 -0.51058312515E+02 -0.45751220279E+03  0.15160702879E+04  0.15871573819E+04  0.93140055397E+02 0.  0.
         23    2    4    4    0    0 -0.84853754886E+02 -0.46329954394E+03  0.10900563496E+03  0.49162510462E+03  0.89254624026E+02 0.  0.
          4    1    3    3  502    0  0.70520014629E+01  0.91066964467E+02  0.61994317551E+02  0.11039120504E+03  0.00000000000E+00 0. -1.
         -3    1    3    3    0  502  0.12886006594E+03  0.82974478226E+03  0.88705259841E+03  0.12214514451E+04  0.00000000000E+00 0.  1.
         11    1    5    5    0    0  0.45428626975E+01 -0.51968053191E+02  0.28735331431E+03  0.29205007002E+03  0.00000000000E+00 0.  1.
        -11    1    5    5    0    0 -0.55601175213E+02 -0.40554414960E+03  0.12287169736E+04  0.12951073119E+04  0.00000000000E+00 0. -1.
          3    1    6    6  503    0 -0.94505467819E+02 -0.45911240676E+03  0.10490774812E+03  0.48033438468E+03  0.00000000000E+00 0. -1.
         -3    1    6    6    0  503  0.96517129330E+01 -0.41871371776E+01  0.40978868393E+01  0.11290719943E+02  0.00000000000E+00 0.  1.
<mgrwt>
<rscale>  0 0.22374663E+04</rscale>
<asrwt>0</asrwt>
<pdfrwt beam="1">  1        2 0.46036521E+00 0.22374663E+04</pdfrwt>
<pdfrwt beam="2">  1       -1 0.64346333E-01 0.22374663E+04</pdfrwt>
<totfact> 0.44748063E+00</totfact>
</mgrwt>
</event>
<event>
12    6  0.1450532E-007  0.1376193E+04  0.7818608E-02  0.8971234E-01
         -1   -1    0    0    0  501 -0.00000000000E+00  0.00000000000E+00  0.29031835950E+03  0.29031835950E+03  0.00000000000E+00 0.  1.
          2   -1    0    0  501    0  0.00000000000E+00 -0.00000000000E+00 -0.16308886091E+04  0.16308886091E+04  0.00000000000E+00 0. -1.
         24    2    1    2    0    0  0.34546159735E+02 -0.18964705096E+03 -0.90989563468E+03  0.93362147796E+03  0.81114468496E+02 0.  0.
        254    2    1    2    0    0 -0.34546159735E+02  0.18964705096E+03 -0.43067461493E+03  0.98758549065E+03  0.86757422524E+03 0.  0.
         23    2    4    4    0    0 -0.42937585618E+03  0.16025411757E+03 -0.13925641449E+03  0.48761617925E+03  0.91280782315E+02 0.  0.
         23    2    4    4    0    0  0.39482969645E+03  0.29392933387E+02 -0.29141820044E+03  0.49996931140E+03  0.91051145311E+02 0.  0.
          2    1    3    3  502    0 -0.33941090034E+01 -0.13680713667E+03 -0.72008651908E+03  0.73297497064E+03  0.00000000000E+00 0. -1.
         -1    1    3    3    0  502  0.37940268738E+02 -0.52839914290E+02 -0.18980911560E+03  0.20064650732E+03  0.00000000000E+00 0.  1.
         11    1    5    5    0    0 -0.71037976907E+02  0.60251536068E+02 -0.96089063793E+01  0.93642793868E+02  0.00000000000E+00 0.  1.
        -11    1    5    5    0    0 -0.35833787928E+03  0.10000258150E+03 -0.12964750811E+03  0.39397338538E+03  0.00000000000E+00 0. -1.
          2    1    6    6  503    0  0.54579307079E+02 -0.27762060888E+02 -0.43011999038E+02  0.74830908368E+02  0.00000000000E+00 0.  1.
         -2    1    6    6    0  503  0.34025038937E+03  0.57154994275E+02 -0.24840620140E+03  0.42513840303E+03  0.00000000000E+00 0. -1.
<mgrwt>
<rscale>  0 0.13761932E+04</rscale>
<asrwt>0</asrwt>
<pdfrwt beam="1">  1        2 0.25090594E+00 0.13761932E+04</pdfrwt>
<pdfrwt beam="2">  1       -1 0.44664363E-01 0.13761932E+04</pdfrwt>
<totfact> 0.59115875E+01</totfact>
</mgrwt>
</event>
<event>
12    6  0.1450532E-007  0.1017902E+04  0.7818608E-02  0.9289125E-01
          2   -1    0    0  501    0  0.00000000000E+00  0.00000000000E+00  0.15081190947E+04  0.15081190947E+04  0.00000000000E+00 0. -1.
         -1   -1    0    0    0  501 -0.00000000000E+00 -0.00000000000E+00 -0.17175771049E+03  0.17175771049E+03  0.00000000000E+00 0.  1.
         24    2    1    2    0    0 -0.66360358469E+02  0.62300223715E+01  0.48953887662E+02  0.11543500592E+03  0.80537240581E+02 0.  0.
        254    2    1    2    0    0  0.66360358469E+02 -0.62300223715E+01  0.12874074965E+04  0.15644417992E+04  0.88635070415E+03 0.  0.
         23    2    4    4    0    0  0.29315287400E+03  0.34208076235E+03  0.57672796877E+03  0.73721840554E+03  0.88982987154E+02 0.  0.
         23    2    4    4    0    0 -0.22679251553E+03 -0.34831078472E+03  0.71067952774E+03  0.82722339368E+03  0.80485427583E+02 0.  0.
          2    1    3    3  502    0 -0.27492261900E+02  0.40264736355E+02  0.39864715203E+02  0.62978321479E+02  0.00000000000E+00 0. -1.
         -1    1    3    3    0  502 -0.38868096569E+02 -0.34034713984E+02  0.90891724584E+01  0.52456684444E+02  0.00000000000E+00 0.  1.
         11    1    5    5    0    0  0.53690592292E+02  0.37722264300E+02  0.13268614477E+03  0.14802453154E+03  0.00000000000E+00 0. -1.
        -11    1    5    5    0    0  0.23946228171E+03  0.30435849805E+03  0.44404182400E+03  0.58919387400E+03  0.00000000000E+00 0.  1.
          2    1    6    6  503    0 -0.99941463487E+02 -0.12581606529E+03  0.34716496923E+03  0.38254606817E+03  0.00000000000E+00 0. -1.
         -2    1    6    6    0  503 -0.12685105204E+03 -0.22249471943E+03  0.36351455850E+03  0.44467732551E+03  0.00000000000E+00 0.  1.
<mgrwt>
<rscale>  0 0.10179019E+04</rscale>
<asrwt>0</asrwt>
<pdfrwt beam="1">  1        2 0.23201831E+00 0.10179019E+04</pdfrwt>
<pdfrwt beam="2">  1       -1 0.26424264E-01 0.10179019E+04</pdfrwt>
<totfact> 0.18159014E+02</totfact>
</mgrwt>
</event>
<event>
12    6  0.1450532E-007  0.2669273E+04  0.7818608E-02  0.8345044E-01
         -1   -1    0    0    0  501 -0.00000000000E+00  0.00000000000E+00  0.10210247220E+04  0.10210247220E+04  0.00000000000E+00 0.  1.
          2   -1    0    0  501    0  0.00000000000E+00 -0.00000000000E+00 -0.17445760016E+04  0.17445760016E+04  0.00000000000E+00 0. -1.
         24    2    1    2    0    0 -0.67478231272E+02 -0.32051763652E+03 -0.15002548672E+04  0.15377456713E+04  0.81315533931E+02 0.  0.
        254    2    1    2    0    0  0.67478231272E+02  0.32051763652E+03  0.77670358765E+03  0.12278550523E+04  0.89279040055E+03 0.  0.
         23    2    4    4    0    0  0.41558152976E+02 -0.26568061917E+03  0.49476478206E+03  0.57043125113E+03  0.91029397519E+02 0.  0.
         23    2    4    4    0    0  0.25920078296E+02  0.58619825569E+03  0.28193880559E+03  0.65742380115E+03  0.91740496985E+02 0.  0.
          4    1    3    3  502    0 -0.82414157795E+02 -0.30349760301E+03 -0.13804492314E+04  0.14158188334E+04  0.00000000000E+00 0. -1.
         -3    1    3    3    0  502  0.14935926523E+02 -0.17020033509E+02 -0.11980563578E+03  0.12192683793E+03  0.00000000000E+00 0.  1.
         11    1    5    5    0    0  0.13833021269E+02 -0.14797727721E+03  0.18118231928E+03  0.23434090523E+03  0.00000000000E+00 0.  1.
        -11    1    5    5    0    0  0.27725131707E+02 -0.11770334197E+03  0.31358246278E+03  0.33609034589E+03  0.00000000000E+00 0. -1.
          1    1    6    6  503    0  0.33102233993E+02  0.10946713664E+03  0.30304082108E+02  0.11830954861E+03  0.00000000000E+00 0. -1.
         -1    1    6    6    0  503 -0.71821556968E+01  0.47673111905E+03  0.25163472348E+03  0.53911425254E+03  0.00000000000E+00 0.  1.
<mgrwt>
<rscale>  0 0.26692735E+04</rscale>
<asrwt>0</asrwt>
<pdfrwt beam="1">  1        2 0.26839631E+00 0.26692735E+04</pdfrwt>
<pdfrwt beam="2">  1       -1 0.15708073E+00 0.26692735E+04</pdfrwt>
<totfact> 0.28525090E+00</totfact>
</mgrwt>
</event>
<event>
12    6  0.1450532E-007  0.1810921E+04  0.7818608E-02  0.8700513E-01
         -3   -1    0    0    0  501 -0.00000000000E+00  0.00000000000E+00  0.13516154378E+04  0.13516154378E+04  0.00000000000E+00 0.  1.
          2   -1    0    0  501    0  0.00000000000E+00 -0.00000000000E+00 -0.60657677711E+03  0.60657677711E+03  0.00000000000E+00 0. -1.
         24    2    1    2    0    0  0.24889074101E+03 -0.57078087771E+02  0.95395937726E+03  0.99080363600E+03  0.80304686036E+02 0.  0.
        254    2    1    2    0    0 -0.24889074101E+03  0.57078087771E+02 -0.20892071660E+03  0.96738857887E+03  0.90938896389E+03 0.  0.
         23    2    4    4    0    0  0.37121017153E+02 -0.23497193808E+02 -0.51891188982E+03  0.52862977523E+03  0.90828419695E+02 0.  0.
         23    2    4    4    0    0 -0.28601175816E+03  0.80575281579E+02  0.30999117323E+03  0.43875880365E+03  0.90109147655E+02 0.  0.
          2    1    3    3  502    0  0.81199295460E+02  0.73713426140E+01  0.40733332437E+03  0.41541316712E+03  0.00000000000E+00 0. -1.
         -1    1    3    3    0  502  0.16769144555E+03 -0.64449430385E+02  0.54662605289E+03  0.57539046888E+03  0.00000000000E+00 0.  1.
         11    1    5    5    0    0 -0.25198355129E+02 -0.15758201908E+02 -0.81835073819E+02  0.87064673293E+02  0.00000000000E+00 0.  1.
        -11    1    5    5    0    0  0.62319372282E+02 -0.77389918999E+01 -0.43707681600E+03  0.44156510193E+03  0.00000000000E+00 0. -1.
          3    1    6    6  503    0 -0.15927891454E+03  0.77652623050E+02  0.13544256102E+03  0.22303450365E+03  0.00000000000E+00 0. -1.
         -3    1    6    6    0  503 -0.12673284362E+03  0.29226585289E+01  0.17454861220E+03  0.21572429999E+03  0.00000000000E+00 0.  1.
<mgrwt>
<rscale>  0 0.18109208E+04</rscale>
<asrwt>0</asrwt>
<pdfrwt beam="1">  1        2 0.93319504E-01 0.18109208E+04</pdfrwt>
<pdfrwt beam="2">  1       -3 0.20794084E+00 0.18109208E+04</pdfrwt>
<totfact> 0.37761931E+00</totfact>
</mgrwt>
</event>
<event>
12    6  0.1450532E-007  0.1676918E+04  0.7818608E-02  0.8774640E-01
         -1   -1    0    0    0  501 -0.00000000000E+00  0.00000000000E+00  0.53355130703E+03  0.53355130703E+03  0.00000000000E+00 0.  1.
          2   -1    0    0  501    0  0.00000000000E+00 -0.00000000000E+00 -0.13176115563E+04  0.13176115563E+04  0.00000000000E+00 0. -1.
         24    2    1    2    0    0 -0.14356029962E+03  0.43350545836E+03  0.15494052813E+03  0.48875689959E+03  0.79625357638E+02 0.  0.
        254    2    1    2    0    0  0.14356029962E+03 -0.43350545836E+03 -0.93900077739E+03  0.13624059637E+04  0.87515199140E+03 0.  0.
         23    2    4    4    0    0  0.22937396356E+03 -0.80113409071E+02  0.83893073402E+02  0.27292746305E+03  0.91764801794E+02 0.  0.
         23    2    4    4    0    0 -0.85813663940E+02 -0.35339204929E+03 -0.10228938508E+04  0.10894785007E+04  0.91660504416E+02 0.  0.
          2    1    3    3  502    0  0.10961510114E+01  0.95657176865E+02  0.24166647234E+02  0.98668758334E+02  0.00000000000E+00 0. -1.
         -1    1    3    3    0  502 -0.14465645064E+03  0.33784828150E+03  0.13077388089E+03  0.39008814125E+03  0.00000000000E+00 0.  1.
         11    1    5    5    0    0  0.70495524393E+02 -0.16478614197E+01 -0.11871902898E+02  0.71507177858E+02  0.00000000000E+00 0.  1.
        -11    1    5    5    0    0  0.15887843917E+03 -0.78465547651E+02  0.95764976300E+02  0.20142028519E+03  0.00000000000E+00 0. -1.
          2    1    6    6  503    0 -0.59842537942E+02 -0.86581913115E+02 -0.24355143229E+03  0.26532029171E+03  0.00000000000E+00 0.  1.
         -2    1    6    6    0  503 -0.25971125999E+02 -0.26681013618E+03 -0.77934241850E+03  0.82415820898E+03  0.00000000000E+00 0. -1.
<mgrwt>
<rscale>  0 0.16769178E+04</rscale>
<asrwt>0</asrwt>
<pdfrwt beam="1">  1        2 0.20270947E+00 0.16769178E+04</pdfrwt>
<pdfrwt beam="2">  1       -1 0.82084817E-01 0.16769178E+04</pdfrwt>
<totfact> 0.25902651E+01</totfact>
</mgrwt>
</event>
<event>
12    6  0.1450532E-007  0.2123866E+04  0.7818608E-02  0.8550802E-01
         -1   -1    0    0    0  501 -0.00000000000E+00  0.00000000000E+00  0.31108126900E+03  0.31108126900E+03  0.00000000000E+00 0.  1.
          2   -1    0    0  501    0  0.00000000000E+00 -0.00000000000E+00 -0.36251034735E+04  0.36251034735E+04  0.00000000000E+00 0. -1.
         24    2    1    2    0    0 -0.58353655702E+03 -0.90830661705E+02 -0.25344076060E+04  0.26042611320E+04  0.10094061416E+03 0.  0.
        254    2    1    2    0    0  0.58353655702E+03  0.90830661705E+02 -0.77961459844E+03  0.13319236105E+04  0.90413298779E+03 0.  0.
         23    2    4    4    0    0  0.16369296646E+03  0.46479372144E+03 -0.45197614006E+03  0.67499238835E+03  0.92215521408E+02 0.  0.
         23    2    4    4    0    0  0.41984359056E+03 -0.37396305973E+03 -0.32763845838E+03  0.65693122215E+03  0.89970332002E+02 0.  0.
          2    1    3    3  502    0 -0.63435467672E+02 -0.13248488515E+02 -0.16651293228E+03  0.17867886731E+03  0.00000000000E+00 0. -1.
         -1    1    3    3    0  502 -0.52010108935E+03 -0.77582173190E+02 -0.23678946738E+04  0.24255822647E+04  0.00000000000E+00 0.  1.
         11    1    5    5    0    0  0.21174385043E+01  0.11405222023E+03 -0.12228158341E+03  0.16722792268E+03  0.00000000000E+00 0.  1.
        -11    1    5    5    0    0  0.16157552795E+03  0.35074150121E+03 -0.32969455665E+03  0.50776446567E+03  0.00000000000E+00 0. -1.
          3    1    6    6  503    0  0.18289939802E+03 -0.22287618445E+03 -0.17086137908E+03  0.33514115571E+03  0.00000000000E+00 0. -1.
         -3    1    6    6    0  503  0.23694419254E+03 -0.15108687529E+03 -0.15677707930E+03  0.32179006644E+03  0.00000000000E+00 0.  1.
<mgrwt>
<rscale>  0 0.21238661E+04</rscale>
<asrwt>0</asrwt>
<pdfrwt beam="1">  1        2 0.55770823E+00 0.21238661E+04</pdfrwt>
<pdfrwt beam="2">  1       -1 0.47858656E-01 0.21238661E+04</pdfrwt>
<totfact> 0.30388049E+00</totfact>
</mgrwt>
</event>
<event>
12    6  0.1450532E-007  0.1611441E+04  0.7818608E-02  0.8813550E-01
          2   -1    0    0  501    0  0.00000000000E+00  0.00000000000E+00  0.75345399777E+03  0.75345399777E+03  0.00000000000E+00 0. -1.
         -1   -1    0    0    0  501 -0.00000000000E+00 -0.00000000000E+00 -0.86161318044E+03  0.86161318044E+03  0.00000000000E+00 0.  1.
         24    2    1    2    0    0  0.98025803725E+02  0.12031362317E+03 -0.57528999346E+03  0.60097343905E+03  0.78269226109E+02 0.  0.
        254    2    1    2    0    0 -0.98025803725E+02 -0.12031362317E+03  0.46713081079E+03  0.10140937392E+04  0.88661744361E+03 0.  0.
         23    2    4    4    0    0 -0.10379219210E+03  0.17004869685E+03  0.63155055871E+03  0.66820246486E+03  0.89157430379E+02 0.  0.
         23    2    4    4    0    0  0.57663883710E+01 -0.29036232002E+03 -0.16441974793E+03  0.34589127430E+03  0.90903201306E+02 0.  0.
          4    1    3    3  502    0 -0.38498896077E+01  0.10302820178E+01  0.66325602268E+00  0.40401781618E+01  0.00000000000E+00 0. -1.
         -3    1    3    3    0  502  0.10187569333E+03  0.11928334115E+03 -0.57595324948E+03  0.59693326089E+03  0.00000000000E+00 0.  1.
         11    1    5    5    0    0 -0.20339362797E+02  0.12833380964E+02  0.19920827995E+03  0.20065473866E+03  0.00000000000E+00 0. -1.
        -11    1    5    5    0    0 -0.83452829299E+02  0.15721531589E+03  0.43234227876E+03  0.46754772620E+03  0.00000000000E+00 0.  1.
          4    1    6    6  503    0  0.13428900508E+02 -0.48091511802E+02  0.49690097743E+01  0.50177882921E+02  0.00000000000E+00 0. -1.
         -4    1    6    6    0  503 -0.76625121374E+01 -0.24227080822E+03 -0.16938875770E+03  0.29571339138E+03  0.00000000000E+00 0.  1.
<mgrwt>
<rscale>  0 0.16114415E+04</rscale>
<asrwt>0</asrwt>
<pdfrwt beam="1">  1        2 0.11591600E+00 0.16114415E+04</pdfrwt>
<pdfrwt beam="2">  1       -1 0.13255587E+00 0.16114415E+04</pdfrwt>
<totfact> 0.19687613E+01</totfact>
</mgrwt>
</event>
<event>
12    6  0.1450532E-007  0.1320265E+04  0.7818608E-02  0.9013648E-01
         -1   -1    0    0    0  501 -0.00000000000E+00  0.00000000000E+00  0.62574215617E+03  0.62574215617E+03  0.00000000000E+00 0.  1.
          2   -1    0    0  501    0  0.00000000000E+00 -0.00000000000E+00 -0.69641248531E+03  0.69641248531E+03  0.00000000000E+00 0. -1.
         24    2    1    2    0    0 -0.11083394523E+03  0.31803210880E+03  0.67875770707E+02  0.35325751922E+03  0.82189835095E+02 0.  0.
        254    2    1    2    0    0  0.11083394523E+03 -0.31803210880E+03 -0.13854609984E+03  0.96889712226E+03  0.89785189542E+03 0.  0.
         23    2    4    4    0    0 -0.35956960513E+03 -0.96760462501E+01 -0.14651765826E+03  0.39912057896E+03  0.91901499239E+02 0.  0.
         23    2    4    4    0    0  0.47040355036E+03 -0.30835606255E+03  0.79715584260E+01  0.56977654330E+03  0.90657608874E+02 0.  0.
          4    1    3    3  502    0 -0.47036162261E+02  0.75717854904E+02 -0.12723698707E+02  0.90041582729E+02  0.00000000000E+00 0. -1.
         -3    1    3    3    0  502 -0.63797782970E+02  0.24231425389E+03  0.80599469414E+02  0.26321593649E+03  0.00000000000E+00 0.  1.
         11    1    5    5    0    0 -0.15919939496E+03  0.10452843115E+02 -0.18775393065E+02  0.16064315943E+03  0.00000000000E+00 0.  1.
        -11    1    5    5    0    0 -0.20037021017E+03 -0.20128889365E+02 -0.12774226520E+03  0.23847741954E+03  0.00000000000E+00 0. -1.
          3    1    6    6  503    0  0.41913966660E+03 -0.27405981315E+03  0.35896572721E+02  0.50207111571E+03  0.00000000000E+00 0. -1.
         -3    1    6    6    0  503  0.51263883766E+02 -0.34296249399E+02 -0.27925014295E+02  0.67705427588E+02  0.00000000000E+00 0.  1.
<mgrwt>
<rscale>  0 0.13202646E+04</rscale>
<asrwt>0</asrwt>
<pdfrwt beam="1">  1        2 0.10714038E+00 0.13202646E+04</pdfrwt>
<pdfrwt beam="2">  1       -1 0.96268024E-01 0.13202646E+04</pdfrwt>
<totfact> 0.47941014E+01</totfact>
</mgrwt>
</event>
<event>
12    6  0.1450532E-007  0.1592404E+04  0.7818608E-02  0.8825228E-01
          2   -1    0    0  501    0  0.00000000000E+00  0.00000000000E+00  0.21771879951E+04  0.21771879951E+04  0.00000000000E+00 0. -1.
         -1   -1    0    0    0  501 -0.00000000000E+00 -0.00000000000E+00 -0.29117272499E+03  0.29117272499E+03  0.00000000000E+00 0.  1.
         24    2    1    2    0    0  0.17880264869E+03  0.38524518715E+03  0.11560025141E+04  0.12341167423E+04  0.79486348122E+02 0.  0.
        254    2    1    2    0    0 -0.17880264869E+03 -0.38524518715E+03  0.73001275597E+03  0.12342439778E+04  0.90003073916E+03 0.  0.
         23    2    4    4    0    0  0.96142111564E+02 -0.61158048621E+03  0.42446127924E+03  0.75586435407E+03  0.88823124537E+02 0.  0.
         23    2    4    4    0    0 -0.27494476025E+03  0.22633529906E+03  0.30555147673E+03  0.47837962372E+03  0.93075618025E+02 0.  0.
          2    1    3    3  502    0  0.14718045685E+03  0.33593742107E+03  0.90767139803E+03  0.97897058411E+03  0.00000000000E+00 0. -1.
         -1    1    3    3    0  502  0.31622191838E+02  0.49307766078E+02  0.24833111609E+03  0.25514615817E+03  0.00000000000E+00 0.  1.
         11    1    5    5    0    0  0.88563843806E+02 -0.57522266758E+03  0.42151301344E+03  0.71860830236E+03  0.00000000000E+00 0. -1.
        -11    1    5    5    0    0  0.75782677579E+01 -0.36357818633E+02  0.29482658061E+01  0.37256051713E+02  0.00000000000E+00 0.  1.
          3    1    6    6  503    0 -0.26348344182E+03  0.20667324359E+03  0.30864591213E+03  0.45541152028E+03  0.00000000000E+00 0. -1.
         -3    1    6    6    0  503 -0.11461318427E+02  0.19662055465E+02 -0.30944353966E+01  0.22968103440E+02  0.00000000000E+00 0.  1.
<mgrwt>
<rscale>  0 0.15924042E+04</rscale>
<asrwt>0</asrwt>
<pdfrwt beam="1">  1        2 0.33495199E+00 0.15924042E+04</pdfrwt>
<pdfrwt beam="2">  1       -1 0.44795805E-01 0.15924042E+04</pdfrwt>
<totfact> 0.28728337E+01</totfact>
</mgrwt>
</event>
<event>
12    6  0.1450532E-007  0.1590888E+04  0.7818608E-02  0.8826165E-01
         -1   -1    0    0    0  501 -0.00000000000E+00  0.00000000000E+00  0.57134908069E+03  0.57134908069E+03  0.00000000000E+00 0.  1.
          2   -1    0    0  501    0  0.00000000000E+00 -0.00000000000E+00 -0.11074335901E+04  0.11074335901E+04  0.00000000000E+00 0. -1.
         24    2    1    2    0    0  0.31114088983E+02 -0.26678038245E+03 -0.67752698272E+03  0.73306535339E+03  0.78753673091E+02 0.  0.
        254    2    1    2    0    0 -0.31114088983E+02  0.26678038245E+03  0.14144247330E+03  0.94571731741E+03  0.89567595268E+03 0.  0.
         23    2    4    4    0    0 -0.19234000503E+03  0.46936103210E+03 -0.15807809588E+03  0.53915309579E+03  0.91667444156E+02 0.  0.
         23    2    4    4    0    0  0.16122591605E+03 -0.20258064965E+03  0.29952056917E+03  0.40656422162E+03  0.92461772242E+02 0.  0.
          4    1    3    3  502    0  0.19997528468E+02 -0.31846753674E+02 -0.16375840819E+03  0.16802063301E+03  0.00000000000E+00 0. -1.
         -3    1    3    3    0  502  0.11116560515E+02 -0.23493362878E+03 -0.51376857453E+03  0.56504472038E+03  0.00000000000E+00 0.  1.
         11    1    5    5    0    0 -0.18431307769E+03  0.39024295411E+03 -0.10702545535E+03  0.44465191097E+03  0.00000000000E+00 0.  1.
        -11    1    5    5    0    0 -0.80269273364E+01  0.79118077993E+02 -0.51052640523E+02  0.94501184819E+02  0.00000000000E+00 0. -1.
          2    1    6    6  503    0  0.67994112360E+02 -0.23340249387E+02  0.63897671515E+02  0.96181489810E+02  0.00000000000E+00 0. -1.
         -2    1    6    6    0  503  0.93231803687E+02 -0.17924040026E+03  0.23562289766E+03  0.31038273181E+03  0.00000000000E+00 0.  1.
<mgrwt>
<rscale>  0 0.15908880E+04</rscale>
<asrwt>0</asrwt>
<pdfrwt beam="1">  1        2 0.17037440E+00 0.15908880E+04</pdfrwt>
<pdfrwt beam="2">  1       -1 0.87899859E-01 0.15908880E+04</pdfrwt>
<totfact> 0.30026534E+01</totfact>
</mgrwt>
</event>
<event>
12    6  0.1450532E-007  0.2451471E+04  0.7818608E-02  0.8420481E-01
         -1   -1    0    0    0  501 -0.00000000000E+00  0.00000000000E+00  0.75808120447E+03  0.75808120447E+03  0.00000000000E+00 0.  1.
          2   -1    0    0  501    0  0.00000000000E+00 -0.00000000000E+00 -0.19818827914E+04  0.19818827914E+04  0.00000000000E+00 0. -1.
         24    2    1    2    0    0 -0.89477150256E+03  0.51096217267E+03 -0.78291373252E+03  0.12964881796E+04  0.78925937776E+02 0.  0.
        254    2    1    2    0    0  0.89477150256E+03 -0.51096217267E+03 -0.44088785443E+03  0.14434758163E+04  0.90969332647E+03 0.  0.
         23    2    4    4    0    0  0.56615454756E+03 -0.66467202895E+03 -0.16808368595E+02  0.87772718947E+03  0.88332440745E+02 0.  0.
         23    2    4    4    0    0  0.32861695500E+03  0.15370985628E+03 -0.42407948584E+03  0.56574862678E+03  0.92802345692E+02 0.  0.
          4    1    3    3  502    0 -0.79832481585E+03  0.48041998694E+03 -0.71799220570E+03  0.11762817192E+04  0.00000000000E+00 0. -1.
         -3    1    3    3    0  502 -0.96446686718E+02  0.30542185738E+02 -0.64921526814E+02  0.12020646044E+03  0.00000000000E+00 0.  1.
         11    1    5    5    0    0  0.38721757711E+03 -0.42752745438E+03  0.26934586933E+02  0.57744493092E+03  0.00000000000E+00 0. -1.
        -11    1    5    5    0    0  0.17893697046E+03 -0.23714457457E+03 -0.43742955527E+02  0.30028225855E+03  0.00000000000E+00 0.  1.
          1    1    6    6  503    0  0.27072239614E+03  0.10484379999E+03 -0.37962005650E+03  0.47790608436E+03  0.00000000000E+00 0. -1.
         -1    1    6    6    0  503  0.57894558858E+02  0.48866056284E+02 -0.44459429336E+02  0.87842542421E+02  0.00000000000E+00 0.  1.
<mgrwt>
<rscale>  0 0.24514715E+04</rscale>
<asrwt>0</asrwt>
<pdfrwt beam="1">  1        2 0.30490504E+00 0.24514715E+04</pdfrwt>
<pdfrwt beam="2">  1       -1 0.11662788E+00 0.24514715E+04</pdfrwt>
<totfact> 0.46233617E+00</totfact>
</mgrwt>
</event>
<event>
12    6  0.1450532E-007  0.1277067E+04  0.7818608E-02  0.9047951E-01
         -1   -1    0    0    0  501 -0.00000000000E+00  0.00000000000E+00  0.36461024439E+03  0.36461024439E+03  0.00000000000E+00 0.  1.
          2   -1    0    0  501    0  0.00000000000E+00 -0.00000000000E+00 -0.11182494542E+04  0.11182494542E+04  0.00000000000E+00 0. -1.
         24    2    1    2    0    0 -0.10043988150E+03 -0.12836631316E+03  0.11862681255E+03  0.21768115411E+03  0.82138200924E+02 0.  0.
        254    2    1    2    0    0  0.10043988150E+03  0.12836631316E+03 -0.87226602233E+03  0.12651785444E+04  0.90181076478E+03 0.  0.
         23    2    4    4    0    0  0.45221017971E+03 -0.70577841445E+02 -0.63385595305E+03  0.78703477247E+03  0.90416179586E+02 0.  0.
         23    2    4    4    0    0 -0.35177029821E+03  0.19894415460E+03 -0.23841006928E+03  0.47814377198E+03  0.91983619154E+02 0.  0.
          4    1    3    3  502    0  0.23151043040E+01 -0.34842200902E+02 -0.10225936731E+00  0.34919179953E+02  0.00000000000E+00 0. -1.
         -3    1    3    3    0  502 -0.10275498580E+03 -0.93524112256E+02  0.11872907192E+03  0.18276197416E+03  0.00000000000E+00 0.  1.
         11    1    5    5    0    0  0.15593886194E+03 -0.68253226159E+02 -0.23544721584E+03  0.29053540747E+03  0.00000000000E+00 0.  1.
        -11    1    5    5    0    0  0.29627131777E+03 -0.23246152853E+01 -0.39840873720E+03  0.49649936500E+03  0.00000000000E+00 0. -1.
          1    1    6    6  503    0 -0.12528795417E+03  0.26843230734E+02 -0.95529801709E+02  0.15982356995E+03  0.00000000000E+00 0. -1.
         -1    1    6    6    0  503 -0.22648234404E+03  0.17210092387E+03 -0.14288026757E+03  0.31832020203E+03  0.00000000000E+00 0.  1.
<mgrwt>
<rscale>  0 0.12770673E+04</rscale>
<asrwt>0</asrwt>
<pdfrwt beam="1">  1        2 0.17203838E+00 0.12770673E+04</pdfrwt>
<pdfrwt beam="2">  1       -1 0.56093883E-01 0.12770673E+04</pdfrwt>
<totfact> 0.76409091E+01</totfact>
</mgrwt>
</event>
<event>
12    6  0.1450532E-007  0.1011176E+04  0.7818608E-02  0.9296372E-01
         -1   -1    0    0    0  501 -0.00000000000E+00  0.00000000000E+00  0.85382295828E+02  0.85382295828E+02  0.00000000000E+00 0.  1.
          2   -1    0    0  501    0  0.00000000000E+00 -0.00000000000E+00 -0.29938187015E+04  0.29938187015E+04  0.00000000000E+00 0. -1.
         24    2    1    2    0    0 -0.12353582009E+02  0.75280052835E+02 -0.42299771543E+03  0.43729624201E+03  0.80506140628E+02 0.  0.
        254    2    1    2    0    0  0.12353582009E+02 -0.75280052835E+02 -0.24854386902E+04  0.26419047553E+04  0.89243238167E+03 0.  0.
         23    2    4    4    0    0  0.39385611913E+01  0.37758549942E+03 -0.15777111282E+04  0.16243393901E+04  0.81973950656E+02 0.  0.
         23    2    4    4    0    0  0.84150208172E+01 -0.45286555226E+03 -0.90772756204E+03  0.10175653652E+04  0.79447621505E+02 0.  0.
          4    1    3    3  502    0 -0.49524541352E+01  0.50338587882E+02 -0.39805107274E+03  0.40125198658E+03  0.00000000000E+00 0. -1.
         -3    1    3    3    0  502 -0.74011278733E+01  0.24941464953E+02 -0.24946642690E+02  0.36044255427E+02  0.00000000000E+00 0.  1.
         11    1    5    5    0    0  0.25209356686E+02  0.20352013616E+03 -0.70684051501E+03  0.73598877108E+03  0.00000000000E+00 0. -1.
        -11    1    5    5    0    0 -0.21270795494E+02  0.17406536327E+03 -0.87087061320E+03  0.88835061905E+03  0.00000000000E+00 0.  1.
          2    1    6    6  503    0  0.15021510625E+02 -0.42840976532E+03 -0.88574538085E+03  0.98402512799E+03  0.00000000000E+00 0. -1.
         -2    1    6    6    0  503 -0.66064898078E+01 -0.24455786939E+02 -0.21982181180E+02  0.33540237206E+02  0.00000000000E+00 0.  1.
<mgrwt>
<rscale>  0 0.10111758E+04</rscale>
<asrwt>0</asrwt>
<pdfrwt beam="1">  1        2 0.46058741E+00 0.10111758E+04</pdfrwt>
<pdfrwt beam="2">  1       -1 0.13135740E-01 0.10111758E+04</pdfrwt>
<totfact> 0.83404566E+01</totfact>
</mgrwt>
</event>
<event>
12    6  0.1450532E-007  0.2114660E+04  0.7818608E-02  0.8554813E-01
         -1   -1    0    0    0  501 -0.00000000000E+00  0.00000000000E+00  0.22005285244E+04  0.22005285244E+04  0.00000000000E+00 0.  1.
          2   -1    0    0  501    0  0.00000000000E+00 -0.00000000000E+00 -0.50803572430E+03  0.50803572430E+03  0.00000000000E+00 0. -1.
         24    2    1    2    0    0 -0.73855660367E+03  0.35139449391E+03  0.33923958558E+03  0.88922787002E+03  0.81845960392E+02 0.  0.
        254    2    1    2    0    0  0.73855660367E+03 -0.35139449391E+03  0.13532532146E+04  0.18193363787E+04  0.89985923843E+03 0.  0.
         23    2    4    4    0    0  0.74896268494E+03 -0.10015171457E+02  0.12305232729E+04  0.14441829529E+04  0.10213456474E+03 0.  0.
         23    2    4    4    0    0 -0.10406081267E+02 -0.34137932245E+03  0.12272994164E+03  0.37515342575E+03  0.95022765461E+02 0.  0.
          4    1    3    3  502    0 -0.68809178744E+03  0.30787536861E+03  0.32593824359E+03  0.82127540398E+03  0.00000000000E+00 0. -1.
         -3    1    3    3    0  502 -0.50464816229E+02  0.43519125292E+02  0.13301341987E+02  0.67952466047E+02  0.00000000000E+00 0.  1.
         11    1    5    5    0    0  0.32667654314E+03  0.81151676566E+01  0.44409882724E+03  0.55136846858E+03  0.00000000000E+00 0.  1.
        -11    1    5    5    0    0  0.42228614179E+03 -0.18130339113E+02  0.78642444567E+03  0.89281448436E+03  0.00000000000E+00 0. -1.
          1    1    6    6  503    0  0.26756944789E+02 -0.27392286101E+02  0.11528527254E+02  0.39989728342E+02  0.00000000000E+00 0. -1.
         -1    1    6    6    0  503 -0.37163026055E+02 -0.31398703635E+03  0.11120141439E+03  0.33516369741E+03  0.00000000000E+00 0.  1.
<mgrwt>
<rscale>  0 0.21146604E+04</rscale>
<asrwt>0</asrwt>
<pdfrwt beam="1">  1        2 0.78159344E-01 0.21146604E+04</pdfrwt>
<pdfrwt beam="2">  1       -1 0.33854284E+00 0.21146604E+04</pdfrwt>
<totfact> 0.11766581E+00</totfact>
</mgrwt>
</event>
<event>
12    6  0.1450532E-007  0.2360802E+04  0.7818608E-02  0.8454326E-01
          2   -1    0    0  501    0  0.00000000000E+00  0.00000000000E+00  0.30770999478E+04  0.30770999478E+04  0.00000000000E+00 0. -1.
         -1   -1    0    0    0  501 -0.00000000000E+00 -0.00000000000E+00 -0.45281171322E+03  0.45281171322E+03  0.00000000000E+00 0.  1.
         24    2    1    2    0    0 -0.58479729593E+03  0.29117791213E+03 -0.21662547551E+02  0.65843276450E+03  0.79322037040E+02 0.  0.
        254    2    1    2    0    0  0.58479729593E+03 -0.29117791213E+03  0.26459507821E+04  0.28714788965E+04  0.90419193642E+03 0.  0.
         23    2    4    4    0    0 -0.10056141645E+03  0.58383787287E+02  0.37983195740E+02  0.15086139980E+03  0.88290280870E+02 0.  0.
         23    2    4    4    0    0  0.68535871238E+03 -0.34956169942E+03  0.26079675864E+04  0.27206174967E+04  0.91403968569E+02 0.  0.
          4    1    3    3  502    0 -0.20743690802E+03  0.14478349318E+03 -0.18741214219E+02  0.25366033158E+03  0.00000000000E+00 0. -1.
         -3    1    3    3    0  502 -0.37736038791E+03  0.14639441895E+03 -0.29213333325E+01  0.40477243292E+03  0.00000000000E+00 0.  1.
         11    1    5    5    0    0 -0.25746185558E+02  0.26629405167E+02 -0.27789967362E+02  0.46306301691E+02  0.00000000000E+00 0.  1.
        -11    1    5    5    0    0 -0.74815230890E+02  0.31754382120E+02  0.65773163101E+02  0.10455509811E+03  0.00000000000E+00 0. -1.
          4    1    6    6  503    0  0.52591739828E+02 -0.16614161578E+01  0.16954792062E+03  0.17752506524E+03  0.00000000000E+00 0. -1.
         -4    1    6    6    0  503  0.63276697255E+03 -0.34790028326E+03  0.24384196658E+04  0.25430924315E+04  0.00000000000E+00 0.  1.
<mgrwt>
<rscale>  0 0.23608023E+04</rscale>
<asrwt>0</asrwt>
<pdfrwt beam="1">  1        2 0.47339998E+00 0.23608023E+04</pdfrwt>
<pdfrwt beam="2">  1       -1 0.69663342E-01 0.23608023E+04</pdfrwt>
<totfact> 0.33306694E+00</totfact>
</mgrwt>
</event>
<event>
12    6  0.1450532E-007  0.1240530E+04  0.7818608E-02  0.9078102E-01
          2   -1    0    0  501    0  0.00000000000E+00  0.00000000000E+00  0.74547255890E+03  0.74547255890E+03  0.00000000000E+00 0. -1.
         -1   -1    0    0    0  501 -0.00000000000E+00 -0.00000000000E+00 -0.51608696000E+03  0.51608696000E+03  0.00000000000E+00 0.  1.
         24    2    1    2    0    0 -0.83175768205E+02 -0.19235507118E+03  0.24446050377E+03  0.33150130128E+03  0.78825712959E+02 0.  0.
        254    2    1    2    0    0  0.83175768205E+02  0.19235507118E+03 -0.15074904869E+02  0.93005821762E+03  0.90601454380E+03 0.  0.
         23    2    4    4    0    0  0.27164382283E+03  0.28499461931E+02  0.36597163067E+03  0.46568420735E+03  0.91235742492E+02 0.  0.
         23    2    4    4    0    0 -0.18846805462E+03  0.16385560925E+03 -0.38104653554E+03  0.46437401027E+03  0.89877087617E+02 0.  0.
          4    1    3    3  502    0 -0.32220774631E+02 -0.79596758615E+02  0.16031329738E+03  0.18186306832E+03  0.00000000000E+00 0. -1.
         -3    1    3    3    0  502 -0.50954993574E+02 -0.11275831256E+03  0.84147206388E+02  0.14963823297E+03  0.00000000000E+00 0.  1.
         11    1    5    5    0    0  0.18371554823E+03  0.48517676786E+02  0.19429655077E+03  0.27176555570E+03  0.00000000000E+00 0. -1.
        -11    1    5    5    0    0  0.87928274595E+02 -0.20018214855E+02  0.17167507990E+03  0.19391865165E+03  0.00000000000E+00 0.  1.
          3    1    6    6  503    0 -0.14624136324E+03  0.16456260227E+03 -0.34274950649E+03  0.40736299610E+03  0.00000000000E+00 0.  1.
         -3    1    6    6    0  503 -0.42226691378E+02 -0.70699301859E+00 -0.38297029042E+02  0.57011014176E+02  0.00000000000E+00 0. -1.
<mgrwt>
<rscale>  0 0.12405300E+04</rscale>
<asrwt>0</asrwt>
<pdfrwt beam="1">  1        2 0.11468809E+00 0.12405300E+04</pdfrwt>
<pdfrwt beam="2">  1       -1 0.79397993E-01 0.12405300E+04</pdfrwt>
<totfact> 0.67363062E+01</totfact>
</mgrwt>
</event>
<event>
12    6  0.1450532E-007  0.1375521E+04  0.7818608E-02  0.8971731E-01
          2   -1    0    0  501    0  0.00000000000E+00  0.00000000000E+00  0.53751184314E+03  0.53751184314E+03  0.00000000000E+00 0. -1.
         -1   -1    0    0    0  501 -0.00000000000E+00 -0.00000000000E+00 -0.88000766080E+03  0.88000766080E+03  0.00000000000E+00 0.  1.
         24    2    1    2    0    0  0.11323547500E+03 -0.11354264790E+03  0.26674448320E+03  0.32092323630E+03  0.78261731329E+02 0.  0.
        254    2    1    2    0    0 -0.11323547500E+03  0.11354264790E+03 -0.60924030086E+03  0.10965962676E+04  0.89757196051E+03 0.  0.
         23    2    4    4    0    0  0.35890556503E+03  0.20093093866E+03 -0.23914997745E+03  0.48426198982E+03  0.90169375879E+02 0.  0.
         23    2    4    4    0    0 -0.47214104004E+03 -0.87388290757E+02 -0.37009032341E+03  0.61233427781E+03  0.86212210597E+02 0.  0.
          2    1    3    3  502    0  0.11606402123E+03 -0.12016422717E+03  0.23474798045E+03  0.28812655699E+03  0.00000000000E+00 0. -1.
         -1    1    3    3    0  502 -0.28285462282E+01  0.66215792753E+01  0.31996502748E+02  0.32796679313E+02  0.00000000000E+00 0.  1.
         11    1    5    5    0    0  0.33923673288E+03  0.15893747136E+03 -0.20953884311E+03  0.42924259750E+03  0.00000000000E+00 0.  1.
        -11    1    5    5    0    0  0.19668832149E+02  0.41993467294E+02 -0.29611134346E+02  0.55019392315E+02  0.00000000000E+00 0. -1.
          1    1    6    6  503    0 -0.48718204654E+02 -0.10174518484E+02 -0.91215493946E+01  0.50598290035E+02  0.00000000000E+00 0. -1.
         -1    1    6    6    0  503 -0.42342283538E+03 -0.77213772274E+02 -0.36096877402E+03  0.56173598778E+03  0.00000000000E+00 0.  1.
<mgrwt>
<rscale>  0 0.13755210E+04</rscale>
<asrwt>0</asrwt>
<pdfrwt beam="1">  1        2 0.82694130E-01 0.13755210E+04</pdfrwt>
<pdfrwt beam="2">  1       -1 0.13538579E+00 0.13755210E+04</pdfrwt>
<totfact> 0.28839498E+01</totfact>
</mgrwt>
</event>
<event>
12    6  0.1450532E-007  0.1051757E+04  0.7818608E-02  0.9253532E-01
         -1   -1    0    0    0  501 -0.00000000000E+00  0.00000000000E+00  0.37915544219E+03  0.37915544219E+03  0.00000000000E+00 0.  1.
          2   -1    0    0  501    0  0.00000000000E+00 -0.00000000000E+00 -0.72937905368E+03  0.72937905368E+03  0.00000000000E+00 0. -1.
         24    2    1    2    0    0 -0.91604364224E+02 -0.83352948164E+02 -0.63683476560E+02  0.16147582649E+03  0.81729944581E+02 0.  0.
        254    2    1    2    0    0  0.91604364224E+02  0.83352948164E+02 -0.28654013493E+03  0.94705866939E+03  0.89413410673E+03 0.  0.
         23    2    4    4    0    0  0.34678580218E+02  0.20897156352E+03  0.27550380521E+03  0.36119315948E+03  0.98419680383E+02 0.  0.
         23    2    4    4    0    0  0.56925784005E+02 -0.12561861536E+03 -0.56204394014E+03  0.58586550990E+03  0.91238279472E+02 0.  0.
          2    1    3    3  502    0 -0.77623698283E+02 -0.64189529139E+02 -0.83289105271E+02  0.13070122128E+03  0.00000000000E+00 0. -1.
         -1    1    3    3    0  502 -0.13980665940E+02 -0.19163419025E+02  0.19605628711E+02  0.30774605213E+02  0.00000000000E+00 0.  1.
         11    1    5    5    0    0  0.69322582086E+02  0.13646670983E+03  0.17433616520E+03  0.23199543482E+03  0.00000000000E+00 0. -1.
        -11    1    5    5    0    0 -0.34644001868E+02  0.72504853690E+02  0.10116764001E+03  0.12919772467E+03  0.00000000000E+00 0.  1.
          2    1    6    6  503    0  0.51375936753E+02 -0.64751566720E+02 -0.16936966722E+03  0.18846309040E+03  0.00000000000E+00 0. -1.
         -2    1    6    6    0  503  0.55498472520E+01 -0.60867048638E+02 -0.39267427291E+03  0.39740241950E+03  0.00000000000E+00 0.  1.
<mgrwt>
<rscale>  0 0.10517567E+04</rscale>
<asrwt>0</asrwt>
<pdfrwt beam="1">  1        2 0.11221216E+00 0.10517567E+04</pdfrwt>
<pdfrwt beam="2">  1       -1 0.58331607E-01 0.10517567E+04</pdfrwt>
<totfact> 0.13161803E+02</totfact>
</mgrwt>
</event>
<event>
12    6  0.1450532E-007  0.2259194E+04  0.7818608E-02  0.8494186E-01
         -1   -1    0    0    0  501 -0.00000000000E+00  0.00000000000E+00  0.11868377550E+04  0.11868377550E+04  0.00000000000E+00 0.  1.
          2   -1    0    0  501    0  0.00000000000E+00 -0.00000000000E+00 -0.10751166898E+04  0.10751166898E+04  0.00000000000E+00 0. -1.
         24    2    1    2    0    0  0.14704534265E+03  0.57893123770E+03  0.78662436608E+03  0.99087002574E+03  0.79131560127E+02 0.  0.
        254    2    1    2    0    0 -0.14704534265E+03 -0.57893123770E+03 -0.67490330084E+03  0.12710844191E+04  0.89631323998E+03 0.  0.
         23    2    4    4    0    0  0.81569835832E+02 -0.41902251017E+03  0.94784211550E+02  0.44728515579E+03  0.94055630817E+02 0.  0.
         23    2    4    4    0    0 -0.22861517848E+03 -0.15990872753E+03 -0.76968751239E+03  0.82379926329E+03  0.91600537577E+02 0.  0.
          2    1    3    3  502    0  0.37360746923E+00  0.41060322372E+02  0.87620004476E+02  0.96764429623E+02  0.00000000000E+00 0. -1.
         -1    1    3    3    0  502  0.14667173518E+03  0.53787091533E+03  0.69900436161E+03  0.89410559611E+03  0.00000000000E+00 0.  1.
         11    1    5    5    0    0 -0.16298897934E+02 -0.85476757782E+02  0.11559431597E+00  0.87016915349E+02  0.00000000000E+00 0.  1.
        -11    1    5    5    0    0  0.97868733766E+02 -0.33354575239E+03  0.94668617234E+02  0.36026824044E+03  0.00000000000E+00 0. -1.
          4    1    6    6  503    0 -0.17141555724E+03 -0.16207029401E+03 -0.59952638190E+03  0.64426854344E+03  0.00000000000E+00 0. -1.
         -4    1    6    6    0  503 -0.57199621244E+02  0.21615664801E+01 -0.17016113049E+03  0.17953071985E+03  0.00000000000E+00 0.  1.
<mgrwt>
<rscale>  0 0.22591937E+04</rscale>
<asrwt>0</asrwt>
<pdfrwt beam="1">  1        2 0.16540257E+00 0.22591937E+04</pdfrwt>
<pdfrwt beam="2">  1       -1 0.18259042E+00 0.22591937E+04</pdfrwt>
<totfact> 0.46688829E+00</totfact>
</mgrwt>
</event>
<event>
12    6  0.1450532E-007  0.4517196E+04  0.7818608E-02  0.7907633E-01
          2   -1    0    0  501    0  0.00000000000E+00  0.00000000000E+00  0.29296270971E+04  0.29296270971E+04  0.00000000000E+00 0. -1.
         -1   -1    0    0    0  501 -0.00000000000E+00 -0.00000000000E+00 -0.17412674219E+04  0.17412674219E+04  0.00000000000E+00 0.  1.
         24    2    1    2    0    0  0.13132645231E+03  0.15945667738E+04 -0.91247538155E+03  0.18436633148E+04  0.81198912477E+02 0.  0.
        254    2    1    2    0    0 -0.13132645231E+03 -0.15945667738E+04  0.21008350568E+04  0.28272312041E+04  0.10098705424E+04 0.  0.
         23    2    4    4    0    0 -0.12072516104E+03 -0.17043175499E+03 -0.62129759885E+02  0.23591607975E+03  0.90414279862E+02 0.  0.
         23    2    4    4    0    0 -0.10601291275E+02 -0.14241350188E+04  0.21629648167E+04  0.25913151244E+04  0.90688127053E+02 0.  0.
          4    1    3    3  502    0 -0.10814685317E+02  0.17557668535E+03 -0.97067311443E+02  0.20091339629E+03  0.00000000000E+00 0. -1.
         -3    1    3    3    0  502  0.14214113763E+03  0.14189900884E+04 -0.81540807011E+03  0.16427499186E+04  0.00000000000E+00 0.  1.
         11    1    5    5    0    0 -0.90169304339E+02 -0.15543688392E+03 -0.18597653989E+02  0.18065713675E+03  0.00000000000E+00 0. -1.
        -11    1    5    5    0    0 -0.30555856701E+02 -0.14994871079E+02 -0.43532105896E+02  0.55258942997E+02  0.00000000000E+00 0.  1.
          3    1    6    6  503    0  0.27097044796E+02 -0.10670844230E+04  0.15856222478E+04  0.19114395958E+04  0.00000000000E+00 0. -1.
         -3    1    6    6    0  503 -0.37698336071E+02 -0.35705059584E+03  0.57734256891E+03  0.67987552861E+03  0.00000000000E+00 0.  1.
<mgrwt>
<rscale>  0 0.45171957E+04</rscale>
<asrwt>0</asrwt>
<pdfrwt beam="1">  1        2 0.45071186E+00 0.45171957E+04</pdfrwt>
<pdfrwt beam="2">  1       -1 0.26788730E+00 0.45171957E+04</pdfrwt>
<totfact> 0.88271412E-02</totfact>
</mgrwt>
</event>
<event>
12    6  0.1450532E-007  0.1160578E+04  0.7818608E-02  0.9148080E-01
         -1   -1    0    0    0  501 -0.00000000000E+00  0.00000000000E+00  0.13631407296E+04  0.13631407296E+04  0.00000000000E+00 0.  1.
          2   -1    0    0  501    0  0.00000000000E+00 -0.00000000000E+00 -0.24702910153E+03  0.24702910153E+03  0.00000000000E+00 0. -1.
         24    2    1    2    0    0 -0.13923547489E+03 -0.88274776538E+02  0.43474361342E+03  0.47179595192E+03  0.80065330868E+02 0.  0.
        254    2    1    2    0    0  0.13923547489E+03  0.88274776538E+02  0.68136801469E+03  0.11383738792E+04  0.89691346509E+03 0.  0.
         23    2    4    4    0    0  0.24508616410E+03 -0.14026819865E+02  0.85410417858E+03  0.89348180903E+03  0.92476027687E+02 0.  0.
         23    2    4    4    0    0 -0.10585068921E+03  0.10230159640E+03 -0.17273616389E+03  0.24489207021E+03  0.92001949462E+02 0.  0.
          4    1    3    3  502    0 -0.54845867451E+02  0.10665164268E+01  0.85743052701E+02  0.10178937921E+03  0.00000000000E+00 0. -1.
         -3    1    3    3    0  502 -0.84389607434E+02 -0.89341292965E+02  0.34900056071E+03  0.37000657271E+03  0.00000000000E+00 0.  1.
         11    1    5    5    0    0  0.62857683780E+01 -0.77590388161E+01  0.45357156005E+01  0.10967510358E+02  0.00000000000E+00 0. -1.
        -11    1    5    5    0    0  0.23880039572E+03 -0.62677810488E+01  0.84956846298E+03  0.88251429867E+03  0.00000000000E+00 0.  1.
          2    1    6    6  503    0 -0.55056235855E+02  0.78586266873E+01 -0.21787278025E+02  0.59729662678E+02  0.00000000000E+00 0. -1.
         -2    1    6    6    0  503 -0.50794453357E+02  0.94442969715E+02 -0.15094888586E+03  0.18516240753E+03  0.00000000000E+00 0.  1.
<mgrwt>
<rscale>  0 0.11605782E+04</rscale>
<asrwt>0</asrwt>
<pdfrwt beam="1">  1        2 0.38004478E-01 0.11605782E+04</pdfrwt>
<pdfrwt beam="2">  1       -1 0.20971395E+00 0.11605782E+04</pdfrwt>
<totfact> 0.19997501E+01</totfact>
</mgrwt>
</event>
<event>
12    6  0.1450532E-007  0.1240617E+04  0.7818608E-02  0.9078029E-01
          2   -1    0    0  501    0  0.00000000000E+00  0.00000000000E+00  0.18015366969E+04  0.18015366969E+04  0.00000000000E+00 0. -1.
         -1   -1    0    0    0  501 -0.00000000000E+00 -0.00000000000E+00 -0.21358579172E+03  0.21358579172E+03  0.00000000000E+00 0.  1.
         24    2    1    2    0    0 -0.10343613418E+03 -0.11144842137E+03 -0.49266978724E+01  0.17870001436E+03  0.93753070884E+02 0.  0.
        254    2    1    2    0    0  0.10343613418E+03  0.11144842137E+03  0.15928776031E+04  0.18364224743E+04  0.90114852339E+03 0.  0.
         23    2    4    4    0    0  0.43290138462E+03 -0.13001859105E+03  0.10828722929E+04  0.11765830485E+04  0.86179025558E+02 0.  0.
         23    2    4    4    0    0 -0.32946525044E+03  0.24146701241E+03  0.51000531015E+03  0.65983942577E+03  0.91809487998E+02 0.  0.
          4    1    3    3  502    0 -0.92397014546E+02 -0.68800863867E+02 -0.40465178934E+02  0.12209913133E+03  0.00000000000E+00 0. -1.
         -3    1    3    3    0  502 -0.11039119632E+02 -0.42647557501E+02  0.35538481062E+02  0.56600883025E+02  0.00000000000E+00 0.  1.
         11    1    5    5    0    0  0.40567806623E+03 -0.14256180331E+03  0.10039395372E+04  0.10921507018E+04  0.00000000000E+00 0.  1.
        -11    1    5    5    0    0  0.27223318395E+02  0.12543212268E+02  0.78932755748E+02  0.84432346694E+02  0.00000000000E+00 0. -1.
          2    1    6    6  503    0 -0.64425732680E+02  0.56329009699E+02  0.55208629658E+02  0.10184117612E+03  0.00000000000E+00 0. -1.
         -2    1    6    6    0  503 -0.26503951777E+03  0.18513800272E+03  0.45479668049E+03  0.55799824965E+03  0.00000000000E+00 0.  1.
<mgrwt>
<rscale>  0 0.12406170E+04</rscale>
<asrwt>0</asrwt>
<pdfrwt beam="1">  1        2 0.27715948E+00 0.12406170E+04</pdfrwt>
<pdfrwt beam="2">  1       -1 0.32859354E-01 0.12406170E+04</pdfrwt>
<totfact> 0.83882616E+01</totfact>
</mgrwt>
</event>
<event>
12    6  0.1450532E-007  0.2400604E+04  0.7818608E-02  0.8439278E-01
          2   -1    0    0  501    0  0.00000000000E+00  0.00000000000E+00  0.18647841499E+04  0.18647841499E+04  0.00000000000E+00 0. -1.
         -1   -1    0    0    0  501 -0.00000000000E+00 -0.00000000000E+00 -0.77259579937E+03  0.77259579937E+03  0.00000000000E+00 0.  1.
         24    2    1    2    0    0  0.53693622985E+03  0.76473190422E+03 -0.64145928150E+01  0.93890737746E+03  0.91599760887E+02 0.  0.
        254    2    1    2    0    0 -0.53693622985E+03 -0.76473190422E+03  0.10986029433E+04  0.16984725718E+04  0.89708709151E+03 0.  0.
         23    2    4    4    0    0 -0.75500588423E+03 -0.50624825414E+03  0.94476729576E+03  0.13142566806E+04  0.91455996199E+02 0.  0.
         23    2    4    4    0    0  0.21806965438E+03 -0.25848365007E+03  0.15383564754E+03  0.38421589119E+03  0.97919727716E+02 0.  0.
          2    1    3    3  502    0  0.35695586008E+03  0.51329703052E+03 -0.47318288493E+02  0.62700107497E+03  0.00000000000E+00 0. -1.
         -1    1    3    3    0  502  0.17998036977E+03  0.25143487369E+03  0.40903695678E+02  0.31190630249E+03  0.00000000000E+00 0.  1.
         11    1    5    5    0    0 -0.74710531299E+02 -0.21399006960E+02  0.93036149834E+02  0.12122419792E+03  0.00000000000E+00 0.  1.
        -11    1    5    5    0    0 -0.68029535293E+03 -0.48484924718E+03  0.85173114593E+03  0.11930324826E+04  0.00000000000E+00 0. -1.
          3    1    6    6  503    0  0.22486423113E+03 -0.23595283665E+03  0.15443128283E+03  0.36067531753E+03  0.00000000000E+00 0. -1.
         -3    1    6    6    0  503 -0.67945767474E+01 -0.22530813425E+02 -0.59563529228E+00  0.23540573659E+02  0.00000000000E+00 0.  1.
<mgrwt>
<rscale>  0 0.24006036E+04</rscale>
<asrwt>0</asrwt>
<pdfrwt beam="1">  1        2 0.28688987E+00 0.24006036E+04</pdfrwt>
<pdfrwt beam="2">  1       -1 0.11886089E+00 0.24006036E+04</pdfrwt>
<totfact> 0.51517730E+00</totfact>
</mgrwt>
</event>
<event>
12    6  0.1450532E-007  0.1352871E+04  0.7818608E-02  0.8988658E-01
         -1   -1    0    0    0  501 -0.00000000000E+00  0.00000000000E+00  0.35193927914E+03  0.35193927914E+03  0.00000000000E+00 0.  1.
          2   -1    0    0  501    0  0.00000000000E+00 -0.00000000000E+00 -0.13001243710E+04  0.13001243710E+04  0.00000000000E+00 0. -1.
         24    2    1    2    0    0  0.13654548279E+03  0.34627077682E+03 -0.43567131028E+03  0.57838402749E+03  0.78552357712E+02 0.  0.
        254    2    1    2    0    0 -0.13654548279E+03 -0.34627077682E+03 -0.51251378155E+03  0.10736796226E+04  0.86693104457E+03 0.  0.
         23    2    4    4    0    0 -0.37932438651E+03 -0.41924630805E+03 -0.55875475417E+03  0.80046954803E+03  0.94287671522E+02 0.  0.
         23    2    4    4    0    0  0.24277890372E+03  0.72975531236E+02  0.46240972614E+02  0.27321007460E+03  0.90766144935E+02 0.  0.
          2    1    3    3  502    0  0.62831321394E+02  0.93185353796E+02 -0.17262621057E+03  0.20598809112E+03  0.00000000000E+00 0. -1.
         -1    1    3    3    0  502  0.73714161399E+02  0.25308542302E+03 -0.26304509972E+03  0.37239593636E+03  0.00000000000E+00 0.  1.
         11    1    5    5    0    0 -0.67950167853E+02 -0.30995591172E+02 -0.87895701286E+02  0.11534126013E+03  0.00000000000E+00 0.  1.
        -11    1    5    5    0    0 -0.31137421866E+03 -0.38825071688E+03 -0.47085905288E+03  0.68512828790E+03  0.00000000000E+00 0. -1.
          3    1    6    6  503    0  0.38144533137E+02  0.40880108780E+02 -0.13717862720E+02  0.57570552019E+02  0.00000000000E+00 0. -1.
         -3    1    6    6    0  503  0.20463437058E+03  0.32095422456E+02  0.59958835333E+02  0.21563952259E+03  0.00000000000E+00 0.  1.
<mgrwt>
<rscale>  0 0.13528708E+04</rscale>
<asrwt>0</asrwt>
<pdfrwt beam="1">  1        2 0.20001914E+00 0.13528708E+04</pdfrwt>
<pdfrwt beam="2">  1       -1 0.54144504E-01 0.13528708E+04</pdfrwt>
<totfact> 0.63364704E+01</totfact>
</mgrwt>
</event>
<event>
12    6  0.1450532E-007  0.1282200E+04  0.7818608E-02  0.9043801E-01
         -1   -1    0    0    0  501 -0.00000000000E+00  0.00000000000E+00  0.21123960654E+03  0.21123960654E+03  0.00000000000E+00 0.  1.
          2   -1    0    0  501    0  0.00000000000E+00 -0.00000000000E+00 -0.19457020301E+04  0.19457020301E+04  0.00000000000E+00 0. -1.
         24    2    1    2    0    0  0.10511568516E+03 -0.15092813006E+03 -0.73634190341E+01  0.20098961079E+03  0.80709330278E+02 0.  0.
        254    2    1    2    0    0 -0.10511568516E+03  0.15092813006E+03 -0.17270990045E+04  0.19559520258E+04  0.89947137160E+03 0.  0.
         23    2    4    4    0    0  0.23335994996E+02 -0.35331830136E+03 -0.49381398537E+03  0.61428620088E+03  0.90093805045E+02 0.  0.
         23    2    4    4    0    0 -0.12845168016E+03  0.50424643142E+03 -0.12332850191E+04  0.13416658250E+04  0.91164410330E+02 0.  0.
          2    1    3    3  502    0 -0.46146676279E+01 -0.13231365153E+02 -0.20050199874E+02  0.24461698554E+02  0.00000000000E+00 0. -1.
         -1    1    3    3    0  502  0.10973035279E+03 -0.13769676490E+03  0.12686780840E+02  0.17652791223E+03  0.00000000000E+00 0.  1.
         11    1    5    5    0    0  0.41053809991E+02 -0.68916991552E+02 -0.10023044373E+03  0.12837877118E+03  0.00000000000E+00 0. -1.
        -11    1    5    5    0    0 -0.17717814995E+02 -0.28440130981E+03 -0.39358354165E+03  0.48590742971E+03  0.00000000000E+00 0.  1.
          3    1    6    6  503    0 -0.57051986200E+02  0.22374211043E+03 -0.43427476234E+03  0.49184350186E+03  0.00000000000E+00 0. -1.
         -3    1    6    6    0  503 -0.71399693960E+02  0.28050432099E+03 -0.79901025679E+03  0.84982232311E+03  0.00000000000E+00 0.  1.
<mgrwt>
<rscale>  0 0.12822002E+04</rscale>
<asrwt>0</asrwt>
<pdfrwt beam="1">  1        2 0.29933877E+00 0.12822002E+04</pdfrwt>
<pdfrwt beam="2">  1       -1 0.32498401E-01 0.12822002E+04</pdfrwt>
<totfact> 0.70979643E+01</totfact>
</mgrwt>
</event>
<event>
12    6  0.1450532E-007  0.1909606E+04  0.7818608E-02  0.8650089E-01
          2   -1    0    0  501    0  0.00000000000E+00  0.00000000000E+00  0.55809618176E+03  0.55809618176E+03  0.00000000000E+00 0. -1.
         -1   -1    0    0    0  501 -0.00000000000E+00 -0.00000000000E+00 -0.16334982307E+04  0.16334982307E+04  0.00000000000E+00 0.  1.
         24    2    1    2    0    0  0.14215471757E+03 -0.16868683589E+03  0.39140637414E+03  0.45637944357E+03  0.80125117609E+02 0.  0.
        254    2    1    2    0    0 -0.14215471757E+03  0.16868683589E+03 -0.14668084231E+04  0.17352149689E+04  0.90043368769E+03 0.  0.
         23    2    4    4    0    0  0.22472448485E+03  0.28530364559E+03 -0.23659238494E+03  0.44275644665E+03  0.90321925116E+02 0.  0.
         23    2    4    4    0    0 -0.36687920242E+03 -0.11661680970E+03 -0.12302160381E+04  0.12924585222E+04  0.93902618468E+02 0.  0.
          2    1    3    3  502    0  0.13489179886E+03 -0.16660782095E+03  0.32366248319E+03  0.38821561847E+03  0.00000000000E+00 0. -1.
         -1    1    3    3    0  502  0.72629187118E+01 -0.20790149318E+01  0.67743890953E+02  0.68163825104E+02  0.00000000000E+00 0.  1.
         11    1    5    5    0    0  0.21214760717E+03  0.28569297139E+03 -0.24059785172E+03  0.42955140250E+03  0.00000000000E+00 0. -1.
        -11    1    5    5    0    0  0.12576877683E+02 -0.38932580401E+00  0.40054667861E+01  0.13205044150E+02  0.00000000000E+00 0.  1.
          2    1    6    6  503    0 -0.25890194489E+03 -0.75517546735E+02 -0.70826742346E+03  0.75787588699E+03  0.00000000000E+00 0. -1.
         -2    1    6    6    0  503 -0.10797725753E+03 -0.41099262968E+02 -0.52194861467E+03  0.53458263526E+03  0.00000000000E+00 0.  1.
<mgrwt>
<rscale>  0 0.19096064E+04</rscale>
<asrwt>0</asrwt>
<pdfrwt beam="1">  1        2 0.85860951E-01 0.19096064E+04</pdfrwt>
<pdfrwt beam="2">  1       -1 0.25130742E+00 0.19096064E+04</pdfrwt>
<totfact> 0.39539446E+00</totfact>
</mgrwt>
</event>
<event>
12    6  0.1450532E-007  0.1161910E+04  0.7818608E-02  0.9146866E-01
          2   -1    0    0  501    0  0.00000000000E+00  0.00000000000E+00  0.15804406213E+04  0.15804406213E+04  0.00000000000E+00 0. -1.
         -1   -1    0    0    0  501 -0.00000000000E+00 -0.00000000000E+00 -0.21355343498E+03  0.21355343498E+03  0.00000000000E+00 0.  1.
         24    2    1    2    0    0  0.26557895249E+01 -0.83609377325E+02 -0.38372449117E+02  0.12093707981E+03  0.78458595625E+02 0.  0.
        254    2    1    2    0    0 -0.26557895249E+01  0.83609377325E+02  0.14052596354E+04  0.16730569765E+04  0.90408374739E+03 0.  0.
         23    2    4    4    0    0  0.30690508857E+03  0.35431495443E+03  0.85047501818E+03  0.97548383382E+03  0.92364133672E+02 0.  0.
         23    2    4    4    0    0 -0.30956087809E+03 -0.27070557710E+03  0.55478461726E+03  0.69757314263E+03  0.98553899241E+02 0.  0.
          4    1    3    3  502    0 -0.47130231736E+01 -0.26132751153E+02  0.24005621684E+02  0.35796691784E+02  0.00000000000E+00 0. -1.
         -3    1    3    3    0  502  0.73688126985E+01 -0.57476626172E+02 -0.62378070801E+02  0.85140388028E+02  0.00000000000E+00 0.  1.
         11    1    5    5    0    0  0.83630071330E+02  0.14875403600E+03  0.36549787182E+03  0.40337382955E+03  0.00000000000E+00 0.  1.
        -11    1    5    5    0    0  0.22327501724E+03  0.20556091843E+03  0.48497714635E+03  0.57211000428E+03  0.00000000000E+00 0. -1.
          3    1    6    6  503    0 -0.25043244600E+02 -0.23757158643E+02  0.11382624177E+02  0.36347363316E+02  0.00000000000E+00 0. -1.
         -3    1    6    6    0  503 -0.28451763349E+03 -0.24694841846E+03  0.54340199308E+03  0.66122577932E+03  0.00000000000E+00 0.  1.
<mgrwt>
<rscale>  0 0.11619097E+04</rscale>
<asrwt>0</asrwt>
<pdfrwt beam="1">  1        2 0.24314470E+00 0.11619097E+04</pdfrwt>
<pdfrwt beam="2">  1       -1 0.32854376E-01 0.11619097E+04</pdfrwt>
<totfact> 0.11194039E+02</totfact>
</mgrwt>
</event>
<event>
12    6  0.1450532E-007  0.1775636E+04  0.7818608E-02  0.8719364E-01
         -1   -1    0    0    0  501 -0.00000000000E+00  0.00000000000E+00  0.35993461433E+03  0.35993461433E+03  0.00000000000E+00 0.  1.
          2   -1    0    0  501    0  0.00000000000E+00 -0.00000000000E+00 -0.21899004805E+04  0.21899004805E+04  0.00000000000E+00 0. -1.
         24    2    1    2    0    0 -0.50192283848E+03 -0.38524502454E+03 -0.93490223368E+03  0.11318319189E+04  0.81615202608E+02 0.  0.
        254    2    1    2    0    0  0.50192283848E+03  0.38524502454E+03 -0.89506363246E+03  0.14180031759E+04  0.89958536899E+03 0.  0.
         23    2    4    4    0    0  0.63431957683E+03  0.55228303406E+03 -0.57652622827E+03  0.10240316450E+04  0.94236101578E+02 0.  0.
         23    2    4    4    0    0 -0.13239673835E+03 -0.16703800952E+03 -0.31853740418E+03  0.39397153092E+03  0.91197019499E+02 0.  0.
          2    1    3    3  502    0 -0.55011103192E+02 -0.74390686527E+02 -0.11393835803E+03  0.14677242639E+03  0.00000000000E+00 0. -1.
         -1    1    3    3    0  502 -0.44691173529E+03 -0.31085433801E+03 -0.82096387564E+03  0.98505949247E+03  0.00000000000E+00 0.  1.
         11    1    5    5    0    0  0.22026259195E+03  0.24185024294E+03 -0.25511174106E+03  0.41483629283E+03  0.00000000000E+00 0.  1.
        -11    1    5    5    0    0  0.41405698488E+03  0.31043279112E+03 -0.32141448721E+03  0.60919535218E+03  0.00000000000E+00 0. -1.
          4    1    6    6  503    0 -0.58145415934E+02 -0.13112811861E+03 -0.24273643875E+03  0.28195115105E+03  0.00000000000E+00 0. -1.
         -4    1    6    6    0  503 -0.74251322414E+02 -0.35909890909E+02 -0.75800965433E+02  0.11202037987E+03  0.00000000000E+00 0.  1.
<mgrwt>
<rscale>  0 0.17756362E+04</rscale>
<asrwt>0</asrwt>
<pdfrwt beam="1">  1        2 0.33690776E+00 0.17756362E+04</pdfrwt>
<pdfrwt beam="2">  1       -1 0.55374557E-01 0.17756362E+04</pdfrwt>
<totfact> 0.18587739E+01</totfact>
</mgrwt>
</event>
<event>
12    6  0.1450532E-007  0.1155853E+04  0.7818608E-02  0.9152400E-01
          2   -1    0    0  501    0  0.00000000000E+00  0.00000000000E+00  0.55024334808E+03  0.55024334808E+03  0.00000000000E+00 0. -1.
         -1   -1    0    0    0  501 -0.00000000000E+00 -0.00000000000E+00 -0.60700290294E+03  0.60700290294E+03  0.00000000000E+00 0.  1.
         24    2    1    2    0    0 -0.20996395578E+03 -0.94711758324E+01 -0.67404487121E+02  0.23474338963E+03  0.79915756841E+02 0.  0.
        254    2    1    2    0    0  0.20996395578E+03  0.94711758324E+01  0.10644932263E+02  0.92250286139E+03  0.89817796054E+03 0.  0.
         23    2    4    4    0    0  0.24110801070E+03 -0.40852821936E+03 -0.64761562830E+02  0.48699185864E+03  0.89098998472E+02 0.  0.
         23    2    4    4    0    0 -0.31144054925E+02  0.41799939519E+03  0.75406495092E+02  0.43551100275E+03  0.91050796131E+02 0.  0.
          2    1    3    3  502    0 -0.59256628787E+01 -0.13901148543E+01  0.13728657859E+02  0.15017388137E+02  0.00000000000E+00 0. -1.
         -1    1    3    3    0  502 -0.20403829290E+03 -0.80810609781E+01 -0.81133144980E+02  0.21972600149E+03  0.00000000000E+00 0.  1.
         11    1    5    5    0    0  0.24449782383E+03 -0.37966687728E+03 -0.71378885266E+02  0.45718822035E+03  0.00000000000E+00 0.  1.
        -11    1    5    5    0    0 -0.33898131287E+01 -0.28861342073E+02  0.66173224358E+01  0.29803638294E+02  0.00000000000E+00 0. -1.
          3    1    6    6  503    0 -0.22978937100E+02  0.49507387483E+02  0.34724872374E+02  0.64690259908E+02  0.00000000000E+00 0. -1.
         -3    1    6    6    0  503 -0.81651178251E+01  0.36849200771E+03  0.40681622718E+02  0.37082074284E+03  0.00000000000E+00 0.  1.
<mgrwt>
<rscale>  0 0.11558535E+04</rscale>
<asrwt>0</asrwt>
<pdfrwt beam="1">  1        2 0.84652823E-01 0.11558535E+04</pdfrwt>
<pdfrwt beam="2">  1       -1 0.93385062E-01 0.11558535E+04</pdfrwt>
<totfact> 0.69299924E+01</totfact>
</mgrwt>
</event>
<event>
12    6  0.1450532E-007  0.1982976E+04  0.7818608E-02  0.8614621E-01
         -1   -1    0    0    0  501 -0.00000000000E+00  0.00000000000E+00  0.35471399401E+03  0.35471399401E+03  0.00000000000E+00 0.  1.
          2   -1    0    0  501    0  0.00000000000E+00 -0.00000000000E+00 -0.27713844295E+04  0.27713844295E+04  0.00000000000E+00 0. -1.
         24    2    1    2    0    0 -0.10899226061E+03 -0.45449963984E+03  0.31359870852E+02  0.47418520907E+03  0.73613419409E+02 0.  0.
        254    2    1    2    0    0  0.10899226061E+03  0.45449963984E+03 -0.24480303063E+04  0.26519132144E+04  0.90627925091E+03 0.  0.
         23    2    4    4    0    0 -0.10960891318E+03  0.60702491632E+03 -0.21627496582E+04  0.22508424009E+04  0.91170538331E+02 0.  0.
         23    2    4    4    0    0  0.21860117379E+03 -0.15252527649E+03 -0.28528064815E+03  0.40107081348E+03  0.91773177254E+02 0.  0.
          2    1    3    3  502    0 -0.62393225076E+02 -0.12975611380E+03 -0.52883800295E+01  0.14407473951E+03  0.00000000000E+00 0. -1.
         -1    1    3    3    0  502 -0.46599035535E+02 -0.32474352604E+03  0.36648250881E+02  0.33011046956E+03  0.00000000000E+00 0.  1.
         11    1    5    5    0    0  0.14408740167E+02  0.53737140429E+02 -0.23019056375E+03  0.23681846992E+03  0.00000000000E+00 0. -1.
        -11    1    5    5    0    0 -0.12401765335E+03  0.55328777589E+03 -0.19325590944E+04  0.20140239310E+04  0.00000000000E+00 0.  1.
          4    1    6    6  503    0  0.80549840262E+02 -0.10567074987E+03 -0.10583767433E+03  0.16987112012E+03  0.00000000000E+00 0. -1.
         -4    1    6    6    0  503  0.13805133353E+03 -0.46854526619E+02 -0.17944297382E+03  0.23119969336E+03  0.00000000000E+00 0.  1.
<mgrwt>
<rscale>  0 0.19829764E+04</rscale>
<asrwt>0</asrwt>
<pdfrwt beam="1">  1        2 0.42636685E+00 0.19829764E+04</pdfrwt>
<pdfrwt beam="2">  1       -1 0.54571381E-01 0.19829764E+04</pdfrwt>
<totfact> 0.86570616E+00</totfact>
</mgrwt>
</event>
<event>
12    6  0.1450532E-007  0.2278197E+04  0.7818608E-02  0.8486568E-01
          2   -1    0    0  501    0  0.00000000000E+00  0.00000000000E+00  0.28732647269E+04  0.28732647269E+04  0.00000000000E+00 0. -1.
         -1   -1    0    0    0  501 -0.00000000000E+00 -0.00000000000E+00 -0.45159255966E+03  0.45159255966E+03  0.00000000000E+00 0.  1.
         24    2    1    2    0    0 -0.84517930575E+03  0.41093677851E+03  0.12416811011E+04  0.15605189417E+04  0.10124384354E+03 0.  0.
        254    2    1    2    0    0  0.84517930575E+03 -0.41093677851E+03  0.11799910662E+04  0.17643383449E+04  0.91504851463E+03 0.  0.
         23    2    4    4    0    0  0.61406851910E+03  0.16374649243E+03  0.82042517169E+03  0.10423612934E+04  0.97604015247E+02 0.  0.
         23    2    4    4    0    0  0.23111078665E+03 -0.57468327094E+03  0.35956589449E+03  0.72197705143E+03  0.91050385536E+02 0.  0.
          4    1    3    3  502    0 -0.77341876326E+03  0.40035238449E+03  0.11699279123E+04  0.14584889219E+04  0.00000000000E+00 0. -1.
         -3    1    3    3    0  502 -0.71760542492E+02  0.10584394018E+02  0.71753188749E+02  0.10203001985E+03  0.00000000000E+00 0.  1.
         11    1    5    5    0    0  0.55913165376E+03  0.11873472121E+03  0.74027554852E+03  0.93527216787E+03  0.00000000000E+00 0.  1.
        -11    1    5    5    0    0  0.54936865342E+02  0.45011771217E+02  0.80149623175E+02  0.10708912558E+03  0.00000000000E+00 0. -1.
          1    1    6    6  503    0  0.31158785883E+02 -0.16146879359E+03  0.12437406233E+03  0.20618425891E+03  0.00000000000E+00 0. -1.
         -1    1    6    6    0  503  0.19995200077E+03 -0.41321447735E+03  0.23519183216E+03  0.51579279252E+03  0.00000000000E+00 0.  1.
<mgrwt>
<rscale>  0 0.22781966E+04</rscale>
<asrwt>0</asrwt>
<pdfrwt beam="1">  1        2 0.44204072E+00 0.22781966E+04</pdfrwt>
<pdfrwt beam="2">  1       -1 0.69475780E-01 0.22781966E+04</pdfrwt>
<totfact> 0.45202766E+00</totfact>
</mgrwt>
</event>
<event>
12    6  0.1450532E-007  0.2430178E+04  0.7818608E-02  0.8428291E-01
          2   -1    0    0  501    0  0.00000000000E+00  0.00000000000E+00  0.20324395874E+04  0.20324395874E+04  0.00000000000E+00 0. -1.
         -1   -1    0    0    0  501 -0.00000000000E+00 -0.00000000000E+00 -0.72643820917E+03  0.72643820917E+03  0.00000000000E+00 0.  1.
         24    2    1    2    0    0 -0.17582667543E+03  0.10278112260E+04  0.44646408710E+03  0.11379744457E+04  0.91349448941E+02 0.  0.
        254    2    1    2    0    0  0.17582667543E+03 -0.10278112260E+04  0.85953729114E+03  0.16209033509E+04  0.89510467659E+03 0.  0.
         23    2    4    4    0    0  0.51209471413E+03 -0.81344928310E+03  0.59225009444E+03  0.11327050239E+04  0.91212743057E+02 0.  0.
         23    2    4    4    0    0 -0.33626803869E+03 -0.21436194290E+03  0.26728719669E+03  0.48819832696E+03  0.88701321982E+02 0.  0.
          4    1    3    3  502    0 -0.60705485205E+01  0.24693866328E+03  0.89043102273E+02  0.26257233107E+03  0.00000000000E+00 0. -1.
         -3    1    3    3    0  502 -0.16975612691E+03  0.78087256272E+03  0.35742098482E+03  0.87540211459E+03  0.00000000000E+00 0.  1.
         11    1    5    5    0    0  0.24021793863E+03 -0.33289352304E+03  0.20952215596E+03  0.46089292635E+03  0.00000000000E+00 0.  1.
        -11    1    5    5    0    0  0.27187677549E+03 -0.48055576006E+03  0.38272793849E+03  0.67181209760E+03  0.00000000000E+00 0. -1.
          3    1    6    6  503    0 -0.85015451943E+01 -0.24270689747E+02  0.22762168324E+01  0.25817122507E+02  0.00000000000E+00 0. -1.
         -3    1    6    6    0  503 -0.32776649350E+03 -0.19009125315E+03  0.26501097986E+03  0.46238120445E+03  0.00000000000E+00 0.  1.
<mgrwt>
<rscale>  0 0.24301784E+04</rscale>
<asrwt>0</asrwt>
<pdfrwt beam="1">  1        2 0.31268301E+00 0.24301784E+04</pdfrwt>
<pdfrwt beam="2">  1       -1 0.11175973E+00 0.24301784E+04</pdfrwt>
<totfact> 0.48075334E+00</totfact>
</mgrwt>
</event>
<event>
12    6  0.1450532E-007  0.1731444E+04  0.7818608E-02  0.8743631E-01
          2   -1    0    0  501    0  0.00000000000E+00  0.00000000000E+00  0.22589257821E+04  0.22589257821E+04  0.00000000000E+00 0. -1.
         -1   -1    0    0    0  501 -0.00000000000E+00 -0.00000000000E+00 -0.33178366501E+03  0.33178366501E+03  0.00000000000E+00 0.  1.
         24    2    1    2    0    0  0.26151142758E+03  0.27648867443E+02 -0.14774123303E+03  0.31149072377E+03  0.77758037746E+02 0.  0.
        254    2    1    2    0    0 -0.26151142758E+03 -0.27648867443E+02  0.20748833501E+04  0.22792187233E+04  0.90583905059E+03 0.  0.
         23    2    4    4    0    0 -0.34653156143E+03 -0.73156175321E+01  0.22062073492E+03  0.42069307922E+03  0.90396442963E+02 0.  0.
         23    2    4    4    0    0  0.85020133848E+02 -0.20333249911E+02  0.18542626152E+04  0.18585256441E+04  0.90475739932E+02 0.  0.
          2    1    3    3  502    0  0.86753151631E+02 -0.23799111274E+02 -0.67302217441E+02  0.11234809962E+03  0.00000000000E+00 0. -1.
         -1    1    3    3    0  502  0.17475827595E+03  0.51447978717E+02 -0.80439015592E+02  0.19914262416E+03  0.00000000000E+00 0.  1.
         11    1    5    5    0    0 -0.12845946414E+03  0.40992392791E+02  0.83822335220E+02  0.15877151531E+03  0.00000000000E+00 0. -1.
        -11    1    5    5    0    0 -0.21807209729E+03 -0.48308010323E+02  0.13679839970E+03  0.26192156391E+03  0.00000000000E+00 0.  1.
          3    1    6    6  503    0  0.82980906213E+02 -0.14841875344E+02  0.83463776104E+03  0.83888396349E+03  0.00000000000E+00 0. -1.
         -3    1    6    6    0  503  0.20392276341E+01 -0.54913745675E+01  0.10196248541E+04  0.10196416806E+04  0.00000000000E+00 0.  1.
<mgrwt>
<rscale>  0 0.17314441E+04</rscale>
<asrwt>0</asrwt>
<pdfrwt beam="1">  1        2 0.34752703E+00 0.17314441E+04</pdfrwt>
<pdfrwt beam="2">  1       -1 0.51043642E-01 0.17314441E+04</pdfrwt>
<totfact> 0.19961922E+01</totfact>
</mgrwt>
</event>
<event>
12    6  0.1450532E-007  0.2372144E+04  0.7818608E-02  0.8450006E-01
         -1   -1    0    0    0  501 -0.00000000000E+00  0.00000000000E+00  0.53547350692E+03  0.53547350692E+03  0.00000000000E+00 0.  1.
          2   -1    0    0  501    0  0.00000000000E+00 -0.00000000000E+00 -0.26271463702E+04  0.26271463702E+04  0.00000000000E+00 0. -1.
         24    2    1    2    0    0 -0.66104101232E+03 -0.77472272140E+03 -0.73655162749E+03  0.12593790257E+04  0.79729012111E+02 0.  0.
        254    2    1    2    0    0  0.66104101232E+03  0.77472272140E+03 -0.13551212358E+04  0.19032408514E+04  0.86533326521E+03 0.  0.
         23    2    4    4    0    0  0.53615969380E+03  0.76969808385E+03 -0.56660096208E+03  0.10996357135E+04  0.90882862547E+02 0.  0.
         23    2    4    4    0    0  0.12488131853E+03  0.50246375492E+01 -0.78852027371E+03  0.80360513792E+03  0.91631899065E+02 0.  0.
          4    1    3    3  502    0 -0.91169238308E+02 -0.13055126279E+03 -0.14644757767E+03  0.21633852000E+03  0.00000000000E+00 0. -1.
         -3    1    3    3    0  502 -0.56987177402E+03 -0.64417145861E+03 -0.59010404982E+03  0.10430405057E+04  0.00000000000E+00 0.  1.
         11    1    5    5    0    0  0.21020201420E+03  0.23755123865E+03 -0.21720369350E+03  0.38443845051E+03  0.00000000000E+00 0.  1.
        -11    1    5    5    0    0  0.32595767960E+03  0.53214684520E+03 -0.34939726859E+03  0.71519726302E+03  0.00000000000E+00 0. -1.
          3    1    6    6  503    0  0.10679789587E+03  0.15866095159E+02 -0.76253969601E+03  0.77014564306E+03  0.00000000000E+00 0. -1.
         -3    1    6    6    0  503  0.18083422651E+02 -0.10841457610E+02 -0.25980577703E+02  0.33459494851E+02  0.00000000000E+00 0.  1.
<mgrwt>
<rscale>  0 0.23721444E+04</rscale>
<asrwt>0</asrwt>
<pdfrwt beam="1">  1        2 0.40417635E+00 0.23721444E+04</pdfrwt>
<pdfrwt beam="2">  1       -1 0.82380542E-01 0.23721444E+04</pdfrwt>
<totfact> 0.44056868E+00</totfact>
</mgrwt>
</event>
<event>
12    6  0.1450532E-007  0.3318195E+04  0.7818608E-02  0.8158281E-01
         -1   -1    0    0    0  501 -0.00000000000E+00  0.00000000000E+00  0.10884500567E+04  0.10884500567E+04  0.00000000000E+00 0.  1.
          2   -1    0    0  501    0  0.00000000000E+00 -0.00000000000E+00 -0.25289210606E+04  0.25289210606E+04  0.00000000000E+00 0. -1.
         24    2    1    2    0    0  0.61786106015E+03 -0.11457375462E+04  0.21753768961E+03  0.13220682417E+04  0.77942124595E+02 0.  0.
        254    2    1    2    0    0 -0.61786106015E+03  0.11457375462E+04 -0.16580086934E+04  0.22953028757E+04  0.90827069150E+03 0.  0.
         23    2    4    4    0    0 -0.23610549525E+03  0.11564833601E+04 -0.13522131843E+04  0.17973350644E+04  0.93451972227E+02 0.  0.
         23    2    4    4    0    0 -0.38175556490E+03 -0.10745813869E+02 -0.30579550919E+03  0.49796781124E+03  0.92780729355E+02 0.  0.
          4    1    3    3  502    0  0.12555138589E+03 -0.30321311842E+03  0.49544449880E+02  0.33189757184E+03  0.00000000000E+00 0. -1.
         -3    1    3    3    0  502  0.49230967426E+03 -0.84252442779E+03  0.16799323973E+03  0.99017066983E+03  0.00000000000E+00 0.  1.
         11    1    5    5    0    0 -0.16836112219E+03  0.79657423186E+03 -0.86600610701E+03  0.11886305363E+04  0.00000000000E+00 0.  1.
        -11    1    5    5    0    0 -0.67744373059E+02  0.35990912821E+03 -0.48620707725E+03  0.60870452817E+03  0.00000000000E+00 0. -1.
          1    1    6    6  503    0 -0.38771037525E+02  0.11115558924E+02 -0.38994267347E+01  0.40521038114E+02  0.00000000000E+00 0. -1.
         -1    1    6    6    0  503 -0.34298452738E+03 -0.21861372792E+02 -0.30189608246E+03  0.45744677313E+03  0.00000000000E+00 0.  1.
<mgrwt>
<rscale>  0 0.33181949E+04</rscale>
<asrwt>0</asrwt>
<pdfrwt beam="1">  1        2 0.38906477E+00 0.33181949E+04</pdfrwt>
<pdfrwt beam="2">  1       -1 0.16745386E+00 0.33181949E+04</pdfrwt>
<totfact> 0.81536275E-01</totfact>
</mgrwt>
</event>
<event>
12    6  0.1450532E-007  0.2968405E+04  0.7818608E-02  0.8252811E-01
         -1   -1    0    0    0  501 -0.00000000000E+00  0.00000000000E+00  0.14001541478E+04  0.14001541478E+04  0.00000000000E+00 0.  1.
          2   -1    0    0  501    0  0.00000000000E+00 -0.00000000000E+00 -0.15732957268E+04  0.15732957268E+04  0.00000000000E+00 0. -1.
         24    2    1    2    0    0 -0.64277009433E+03  0.63331446275E+03  0.92904689847E+03  0.12975511002E+04  0.79184058729E+02 0.  0.
        254    2    1    2    0    0  0.64277009433E+03 -0.63331446275E+03 -0.11021884774E+04  0.16758987744E+04  0.88293638467E+03 0.  0.
         23    2    4    4    0    0 -0.11824375302E+03 -0.41431077202E+03 -0.56344872355E+03  0.71486546045E+03  0.89012142631E+02 0.  0.
         23    2    4    4    0    0  0.76101384735E+03 -0.21900369073E+03 -0.53873975387E+03  0.96103331394E+03  0.78992504080E+02 0.  0.
          4    1    3    3  502    0 -0.28271166427E+03  0.29310387833E+03  0.36503039702E+03  0.54688477704E+03  0.00000000000E+00 0. -1.
         -3    1    3    3    0  502 -0.36005843005E+03  0.34021058442E+03  0.56401650145E+03  0.75066632315E+03  0.00000000000E+00 0.  1.
         11    1    5    5    0    0 -0.40791796561E+02 -0.38003271879E+02 -0.72607485780E+02  0.91542702229E+02  0.00000000000E+00 0. -1.
        -11    1    5    5    0    0 -0.77451956463E+02 -0.37630750014E+03 -0.49084123777E+03  0.62332275822E+03  0.00000000000E+00 0.  1.
          2    1    6    6  503    0  0.20233456352E+03 -0.23896102271E+02 -0.14999078239E+03  0.25299710295E+03  0.00000000000E+00 0.  1.
         -2    1    6    6    0  503  0.55867928383E+03 -0.19510758846E+03 -0.38874897148E+03  0.70803621099E+03  0.00000000000E+00 0. -1.
<mgrwt>
<rscale>  0 0.29684046E+04</rscale>
<asrwt>0</asrwt>
<pdfrwt beam="1">  1        2 0.24204550E+00 0.29684046E+04</pdfrwt>
<pdfrwt beam="2">  1       -1 0.21540833E+00 0.29684046E+04</pdfrwt>
<totfact> 0.13327471E+00</totfact>
</mgrwt>
</event>
<event>
12    6  0.1450532E-007  0.1909804E+04  0.7818608E-02  0.8649992E-01
         -1   -1    0    0    0  501 -0.00000000000E+00  0.00000000000E+00  0.46307432708E+03  0.46307432708E+03  0.00000000000E+00 0.  1.
          2   -1    0    0  501    0  0.00000000000E+00 -0.00000000000E+00 -0.19690965867E+04  0.19690965867E+04  0.00000000000E+00 0. -1.
         24    2    1    2    0    0 -0.37050573064E+03 -0.28695895843E+02  0.22950870254E+03  0.44392784366E+03  0.79370869729E+02 0.  0.
        254    2    1    2    0    0  0.37050573064E+03  0.28695895843E+02 -0.17355309621E+04  0.19882430701E+04  0.89607189132E+03 0.  0.
         23    2    4    4    0    0 -0.24785884591E+03 -0.13233401778E+03 -0.32877983950E+03  0.44041595353E+03  0.83208950875E+02 0.  0.
         23    2    4    4    0    0  0.61836457655E+03  0.16102991362E+03 -0.14067511226E+04  0.15478271166E+04  0.92275019102E+02 0.  0.
          4    1    3    3  502    0 -0.81530450935E+01  0.11469208709E+02  0.20548554364E+01  0.14221016967E+02  0.00000000000E+00 0. -1.
         -3    1    3    3    0  502 -0.36235268554E+03 -0.40165104552E+02  0.22745384710E+03  0.42970682669E+03  0.00000000000E+00 0.  1.
         11    1    5    5    0    0 -0.14164897666E+03 -0.90297763849E+02 -0.13513271835E+03  0.21558981960E+03  0.00000000000E+00 0.  1.
        -11    1    5    5    0    0 -0.10620986925E+03 -0.42036253932E+02 -0.19364712114E+03  0.22482613393E+03  0.00000000000E+00 0. -1.
          4    1    6    6  503    0  0.48219527794E+03  0.12037285155E+03 -0.99450241808E+03  0.11117719951E+04  0.00000000000E+00 0. -1.
         -4    1    6    6    0  503  0.13616929861E+03  0.40657062073E+02 -0.41224870457E+03  0.43605512151E+03  0.00000000000E+00 0.  1.
<mgrwt>
<rscale>  0 0.19098043E+04</rscale>
<asrwt>0</asrwt>
<pdfrwt beam="1">  1        2 0.30293794E+00 0.19098043E+04</pdfrwt>
<pdfrwt beam="2">  1       -1 0.71242204E-01 0.19098043E+04</pdfrwt>
<totfact> 0.14737883E+01</totfact>
</mgrwt>
</event>
<event>
12    6  0.1450532E-007  0.1546492E+04  0.7818608E-02  0.8854111E-01
         -1   -1    0    0    0  501 -0.00000000000E+00  0.00000000000E+00  0.35348340110E+03  0.35348340110E+03  0.00000000000E+00 0.  1.
          2   -1    0    0  501    0  0.00000000000E+00 -0.00000000000E+00 -0.16914785461E+04  0.16914785461E+04  0.00000000000E+00 0. -1.
         24    2    1    2    0    0 -0.34495932375E+03  0.16415371987E+03 -0.87189952762E+03  0.95516517176E+03  0.78666004673E+02 0.  0.
        254    2    1    2    0    0  0.34495932375E+03 -0.16415371987E+03 -0.46609561737E+03  0.10897967754E+04  0.90800248260E+03 0.  0.
         23    2    4    4    0    0  0.38526702838E+03  0.81270122330E+01 -0.68664134270E+03  0.79242722069E+03  0.89262730675E+02 0.  0.
         23    2    4    4    0    0 -0.40307704638E+02 -0.17228073210E+03  0.22054572533E+03  0.29736955474E+03  0.92102515782E+02 0.  0.
          4    1    3    3  502    0 -0.30501721674E+03  0.11750991278E+03 -0.69809577871E+03  0.77083188722E+03  0.00000000000E+00 0. -1.
         -3    1    3    3    0  502 -0.39942107004E+02  0.46643807093E+02 -0.17380374891E+03  0.18433328453E+03  0.00000000000E+00 0.  1.
         11    1    5    5    0    0  0.34994595532E+03 -0.14314101271E+02 -0.64143362899E+03  0.73082430552E+03  0.00000000000E+00 0. -1.
        -11    1    5    5    0    0  0.35321073066E+02  0.22441113504E+02 -0.45207713711E+02  0.61602915165E+02  0.00000000000E+00 0.  1.
          4    1    6    6  503    0  0.10340575894E+02 -0.58834354330E+02  0.23015087163E+02  0.64016427551E+02  0.00000000000E+00 0.  1.
         -4    1    6    6    0  503 -0.50648280533E+02 -0.11344637777E+03  0.19753063817E+03  0.23335312718E+03  0.00000000000E+00 0. -1.
<mgrwt>
<rscale>  0 0.15464923E+04</rscale>
<asrwt>0</asrwt>
<pdfrwt beam="1">  1        2 0.26022747E+00 0.15464923E+04</pdfrwt>
<pdfrwt beam="2">  1       -1 0.54382061E-01 0.15464923E+04</pdfrwt>
<totfact> 0.37139388E+01</totfact>
</mgrwt>
</event>
<event>
12    6  0.1450532E-007  0.2678723E+04  0.7818608E-02  0.8341942E-01
         -1   -1    0    0    0  501 -0.00000000000E+00  0.00000000000E+00  0.18627139995E+04  0.18627139995E+04  0.00000000000E+00 0.  1.
          2   -1    0    0  501    0  0.00000000000E+00 -0.00000000000E+00 -0.96305151774E+03  0.96305151774E+03  0.00000000000E+00 0. -1.
         24    2    1    2    0    0  0.88975685184E+03  0.38646981151E+03 -0.34767984549E+03  0.10333518395E+04  0.76867279964E+02 0.  0.
        254    2    1    2    0    0 -0.88975685184E+03 -0.38646981151E+03  0.12473423272E+04  0.17924136777E+04  0.84608376654E+03 0.  0.
         23    2    4    4    0    0 -0.28443269592E+03  0.22821204787E+03  0.60659665527E+03  0.71389158769E+03  0.93268427107E+02 0.  0.
         23    2    4    4    0    0 -0.60532415592E+03 -0.61468185939E+03  0.64074567197E+03  0.10785220900E+04  0.91672026482E+02 0.  0.
          4    1    3    3  502    0  0.88753238446E+03  0.38215063175E+03 -0.35028546438E+03  0.10278388713E+04  0.00000000000E+00 0. -1.
         -3    1    3    3    0  502  0.22244673763E+01  0.43191797662E+01  0.26056188952E+01  0.55129682375E+01  0.00000000000E+00 0.  1.
         11    1    5    5    0    0 -0.23126179402E+02 -0.75001773576E+01  0.33970899405E+02  0.41774332317E+02  0.00000000000E+00 0. -1.
        -11    1    5    5    0    0 -0.26130651652E+03  0.23571222523E+03  0.57262575586E+03  0.67211725537E+03  0.00000000000E+00 0.  1.
          3    1    6    6  503    0 -0.10187432608E+02 -0.93648387755E+01 -0.16989136136E+01  0.13941674788E+02  0.00000000000E+00 0. -1.
         -3    1    6    6    0  503 -0.59513672331E+03 -0.60531702061E+03  0.64244458558E+03  0.10645804152E+04  0.00000000000E+00 0.  1.
<mgrwt>
<rscale>  0 0.26787232E+04</rscale>
<asrwt>0</asrwt>
<pdfrwt beam="1">  1        2 0.14816177E+00 0.26787232E+04</pdfrwt>
<pdfrwt beam="2">  1       -1 0.28657138E+00 0.26787232E+04</pdfrwt>
<totfact> 0.10760948E+00</totfact>
</mgrwt>
</event>
<event>
12    6  0.1450532E-007  0.2240662E+04  0.7818608E-02  0.8501692E-01
         -1   -1    0    0    0  501 -0.00000000000E+00  0.00000000000E+00  0.10219864939E+04  0.10219864939E+04  0.00000000000E+00 0.  1.
          2   -1    0    0  501    0  0.00000000000E+00 -0.00000000000E+00 -0.12281390035E+04  0.12281390035E+04  0.00000000000E+00 0. -1.
         24    2    1    2    0    0 -0.53640888760E+03  0.33485407550E+03 -0.80817708304E+03  0.10292986416E+04  0.80272968908E+02 0.  0.
        254    2    1    2    0    0  0.53640888760E+03 -0.33485407550E+03  0.60202457351E+03  0.12208268558E+04  0.85330116494E+03 0.  0.
         23    2    4    4    0    0  0.15954353423E+03 -0.57184563052E+03  0.40722975293E+03  0.72569706056E+03  0.91315867049E+02 0.  0.
         23    2    4    4    0    0  0.37686535337E+03  0.23699155502E+03  0.19479482058E+03  0.49512979521E+03  0.94952621131E+02 0.  0.
          4    1    3    3  502    0 -0.17949671199E+03  0.12278723019E+03 -0.33954038114E+03  0.40321637360E+03  0.00000000000E+00 0. -1.
         -3    1    3    3    0  502 -0.35691217561E+03  0.21206684530E+03 -0.46863670190E+03  0.62608226803E+03  0.00000000000E+00 0.  1.
         11    1    5    5    0    0  0.13871767348E+03 -0.52232343017E+03  0.39804137262E+03  0.67119393096E+03  0.00000000000E+00 0. -1.
        -11    1    5    5    0    0  0.20825860752E+02 -0.49522200350E+02  0.91883803104E+01  0.54503129601E+02  0.00000000000E+00 0.  1.
          3    1    6    6  503    0  0.17385980346E+03  0.10235530312E+03  0.37619301292E+02  0.20522926488E+03  0.00000000000E+00 0. -1.
         -3    1    6    6    0  503  0.20300554991E+03  0.13463625190E+03  0.15717551929E+03  0.28990053033E+03  0.00000000000E+00 0.  1.
<mgrwt>
<rscale>  0 0.22406619E+04</rscale>
<asrwt>0</asrwt>
<pdfrwt beam="1">  1        2 0.18894446E+00 0.22406619E+04</pdfrwt>
<pdfrwt beam="2">  1       -1 0.15722869E+00 0.22406619E+04</pdfrwt>
<totfact> 0.58059688E+00</totfact>
</mgrwt>
</event>
<event>
12    6  0.1450532E-007  0.1446066E+04  0.7818608E-02  0.8921132E-01
         -3   -1    0    0    0  501 -0.00000000000E+00  0.00000000000E+00  0.69394544450E+03  0.69394544450E+03  0.00000000000E+00 0.  1.
          2   -1    0    0  501    0  0.00000000000E+00 -0.00000000000E+00 -0.75333970024E+03  0.75333970024E+03  0.00000000000E+00 0. -1.
         24    2    1    2    0    0  0.20715147212E+03 -0.16718937500E+03 -0.36283191178E+03  0.45833469237E+03  0.86946388722E+02 0.  0.
        254    2    1    2    0    0 -0.20715147212E+03  0.16718937500E+03  0.30343765604E+03  0.98895045237E+03  0.90282034017E+03 0.  0.
         23    2    4    4    0    0 -0.43707858690E+03  0.21355346561E+03  0.47365358310E+03  0.68511609643E+03  0.91616455987E+02 0.  0.
         23    2    4    4    0    0  0.22992711479E+03 -0.46364090610E+02 -0.17021592705E+03  0.30383435594E+03  0.91245531462E+02 0.  0.
          2    1    3    3  502    0  0.18555598912E+03 -0.17543792018E+03 -0.34454069053E+03  0.42885635866E+03  0.00000000000E+00 0. -1.
         -1    1    3    3    0  502  0.21595482997E+02  0.82485451768E+01 -0.18291221250E+02  0.29478333709E+02  0.00000000000E+00 0.  1.
         11    1    5    5    0    0 -0.28898558791E+03  0.18600030322E+03  0.31218898807E+03  0.46429596928E+03  0.00000000000E+00 0. -1.
        -11    1    5    5    0    0 -0.14809299900E+03  0.27553162391E+02  0.16146459503E+03  0.22082012716E+03  0.00000000000E+00 0.  1.
          2    1    6    6  503    0  0.22373853450E+03 -0.50991346129E+02 -0.13176555285E+03  0.26461521142E+03  0.00000000000E+00 0. -1.
         -2    1    6    6    0  503  0.61885802900E+01  0.46272555194E+01 -0.38450374209E+02  0.39219144515E+02  0.00000000000E+00 0.  1.
<mgrwt>
<rscale>  0 0.14460659E+04</rscale>
<asrwt>0</asrwt>
<pdfrwt beam="1">  1        2 0.11589841E+00 0.14460659E+04</pdfrwt>
<pdfrwt beam="2">  1       -3 0.10676084E+00 0.14460659E+04</pdfrwt>
<totfact> 0.17110474E+01</totfact>
</mgrwt>
</event>
<event>
12    6  0.1450532E-007  0.1393154E+04  0.7818608E-02  0.8958789E-01
          2   -1    0    0  501    0  0.00000000000E+00  0.00000000000E+00  0.21592721515E+04  0.21592721515E+04  0.00000000000E+00 0. -1.
         -1   -1    0    0    0  501 -0.00000000000E+00 -0.00000000000E+00 -0.22471448242E+03  0.22471448242E+03  0.00000000000E+00 0.  1.
         24    2    1    2    0    0  0.24010345299E+03  0.15789065972E+03  0.78433755947E+02  0.30855291467E+03  0.80460664380E+02 0.  0.
        254    2    1    2    0    0 -0.24010345299E+03 -0.15789065972E+03  0.18561239131E+04  0.20754337192E+04  0.88297792358E+03 0.  0.
         23    2    4    4    0    0 -0.49033331411E+03 -0.22373874382E+03  0.16331271659E+04  0.17222208245E+04  0.91948049884E+02 0.  0.
         23    2    4    4    0    0  0.25022986113E+03  0.65848084100E+02  0.22299674718E+03  0.35321289471E+03  0.89893526798E+02 0.  0.
          2    1    3    3  502    0  0.76831030888E+02  0.15188468148E+02  0.10845814411E+01  0.78325431303E+02  0.00000000000E+00 0. -1.
         -1    1    3    3    0  502  0.16327242210E+03  0.14270219158E+03  0.77349174506E+02  0.23022748336E+03  0.00000000000E+00 0.  1.
         11    1    5    5    0    0 -0.38049157022E+03 -0.21379632658E+03  0.13095904032E+04  0.13804020169E+04  0.00000000000E+00 0. -1.
        -11    1    5    5    0    0 -0.10984174390E+03 -0.99424172457E+01  0.32353676275E+03  0.34181880758E+03  0.00000000000E+00 0.  1.
          1    1    6    6  503    0  0.19816661740E+03  0.73359392603E+02  0.13518648601E+03  0.25085253584E+03  0.00000000000E+00 0. -1.
         -1    1    6    6    0  503  0.52063243724E+02 -0.75113085036E+01  0.87810261173E+02  0.10236035888E+03  0.00000000000E+00 0.  1.
<mgrwt>
<rscale>  0 0.13931543E+04</rscale>
<asrwt>0</asrwt>
<pdfrwt beam="1">  1        2 0.33219570E+00 0.13931543E+04</pdfrwt>
<pdfrwt beam="2">  1       -1 0.34571460E-01 0.13931543E+04</pdfrwt>
<totfact> 0.47962488E+01</totfact>
</mgrwt>
</event>
<event>
12    6  0.1450532E-007  0.1822461E+04  0.7818608E-02  0.8694446E-01
         -1   -1    0    0    0  501 -0.00000000000E+00  0.00000000000E+00  0.13383335882E+04  0.13383335882E+04  0.00000000000E+00 0.  1.
          2   -1    0    0  501    0  0.00000000000E+00 -0.00000000000E+00 -0.62042878144E+03  0.62042878144E+03  0.00000000000E+00 0. -1.
         24    2    1    2    0    0  0.90245089964E+02  0.13101138499E+03  0.99041311189E+03  0.10061448647E+04  0.78110161204E+02 0.  0.
        254    2    1    2    0    0 -0.90245089964E+02 -0.13101138499E+03 -0.27250830515E+03  0.95261750493E+03  0.89883879258E+03 0.  0.
         23    2    4    4    0    0  0.97416706790E+02 -0.44651553321E+03 -0.32912217426E+03  0.57029251033E+03  0.89699529498E+02 0.  0.
         23    2    4    4    0    0 -0.18766179675E+03  0.31550414822E+03  0.56613869106E+02  0.38232499459E+03  0.90594998818E+02 0.  0.
          4    1    3    3  502    0  0.40326606622E+01  0.58085070149E+01  0.40750087700E+01  0.81612990531E+01  0.00000000000E+00 0. -1.
         -3    1    3    3    0  502  0.86212429301E+02  0.12520287797E+03  0.98633810312E+03  0.99798356564E+03  0.00000000000E+00 0.  1.
         11    1    5    5    0    0  0.86906781050E+02 -0.41565514047E+03 -0.27129183703E+03  0.50390598849E+03  0.00000000000E+00 0.  1.
        -11    1    5    5    0    0  0.10509925740E+02 -0.30860392741E+02 -0.57830337226E+02  0.66386521846E+02  0.00000000000E+00 0. -1.
          2    1    6    6  503    0 -0.13341643705E+03  0.27571283363E+03  0.68868045888E+02  0.31394317965E+03  0.00000000000E+00 0.  1.
         -2    1    6    6    0  503 -0.54245359707E+02  0.39791314585E+02 -0.12254176782E+02  0.68381814942E+02  0.00000000000E+00 0. -1.
<mgrwt>
<rscale>  0 0.18224606E+04</rscale>
<asrwt>0</asrwt>
<pdfrwt beam="1">  1        2 0.95450582E-01 0.18224606E+04</pdfrwt>
<pdfrwt beam="2">  1       -1 0.20589748E+00 0.18224606E+04</pdfrwt>
<totfact> 0.70251690E+00</totfact>
</mgrwt>
</event>
<event>
12    6  0.1450532E-007  0.2431122E+04  0.7818608E-02  0.8427943E-01
         -1   -1    0    0    0  501 -0.00000000000E+00  0.00000000000E+00  0.12567359504E+04  0.12567359504E+04  0.00000000000E+00 0.  1.
          2   -1    0    0  501    0  0.00000000000E+00 -0.00000000000E+00 -0.11757350608E+04  0.11757350608E+04  0.00000000000E+00 0. -1.
         24    2    1    2    0    0 -0.88486547774E+02 -0.59643682401E+03  0.88787221604E+03  0.10761755979E+04  0.79183908075E+02 0.  0.
        254    2    1    2    0    0  0.88486547774E+02  0.59643682401E+03 -0.80687132650E+03  0.13562954133E+04  0.90825610729E+03 0.  0.
         23    2    4    4    0    0 -0.25414100965E+03  0.35269257131E+03 -0.81204088159E+03  0.92559741343E+03  0.91326205000E+02 0.  0.
         23    2    4    4    0    0  0.34262755743E+03  0.24374425270E+03  0.51695550875E+01  0.43069799988E+03  0.93108211048E+02 0.  0.
          2    1    3    3  502    0  0.11395492653E+02 -0.31439625163E+02  0.63870043805E+02  0.72095005228E+02  0.00000000000E+00 0. -1.
         -1    1    3    3    0  502 -0.99882040426E+02 -0.56499719885E+03  0.82400217223E+03  0.10040805927E+04  0.00000000000E+00 0.  1.
         11    1    5    5    0    0 -0.16348926386E+03  0.25563158029E+03 -0.63969942495E+03  0.70801949022E+03  0.00000000000E+00 0.  1.
        -11    1    5    5    0    0 -0.90651745788E+02  0.97060991013E+02 -0.17234145664E+03  0.21757792321E+03  0.00000000000E+00 0. -1.
          1    1    6    6  503    0  0.17783544074E+03  0.12066936326E+03 -0.43663754840E+02  0.21930130574E+03  0.00000000000E+00 0. -1.
         -1    1    6    6    0  503  0.16479211669E+03  0.12307488944E+03  0.48833309928E+02  0.21139669413E+03  0.00000000000E+00 0.  1.
<mgrwt>
<rscale>  0 0.24311220E+04</rscale>
<asrwt>0</asrwt>
<pdfrwt beam="1">  1        2 0.18088232E+00 0.24311220E+04</pdfrwt>
<pdfrwt beam="2">  1       -1 0.19334399E+00 0.24311220E+04</pdfrwt>
<totfact> 0.33525203E+00</totfact>
</mgrwt>
</event>
<event>
12    6  0.1450532E-007  0.1330390E+04  0.7818608E-02  0.9005807E-01
         -1   -1    0    0    0  501 -0.00000000000E+00  0.00000000000E+00  0.13520290178E+03  0.13520290178E+03  0.00000000000E+00 0.  1.
          2   -1    0    0  501    0  0.00000000000E+00 -0.00000000000E+00 -0.32727430296E+04  0.32727430296E+04  0.00000000000E+00 0. -1.
         24    2    1    2    0    0 -0.16754745364E+03  0.30783401471E+03 -0.66585894861E+03  0.75671571310E+03  0.80103690078E+02 0.  0.
        254    2    1    2    0    0  0.16754745364E+03 -0.30783401471E+03 -0.24716811792E+04  0.26512302182E+04  0.89273730113E+03 0.  0.
         23    2    4    4    0    0  0.23135581110E+03  0.24902123247E+03 -0.13385629760E+04  0.13843006688E+04  0.94870518898E+02 0.  0.
         23    2    4    4    0    0 -0.63808357452E+02 -0.55685524718E+03 -0.11331182032E+04  0.12669295495E+04  0.83632219459E+02 0.  0.
          2    1    3    3  502    0 -0.11300194046E+03  0.21986894632E+03 -0.38647375835E+03  0.45877419065E+03  0.00000000000E+00 0. -1.
         -1    1    3    3    0  502 -0.54545513181E+02  0.87965068385E+02 -0.27938519026E+03  0.29794152245E+03  0.00000000000E+00 0.  1.
         11    1    5    5    0    0  0.15482855102E+03  0.17061817020E+03 -0.10645452571E+04  0.10891919228E+04  0.00000000000E+00 0. -1.
        -11    1    5    5    0    0  0.76527260072E+02  0.78403062264E+02 -0.27401771885E+03  0.29510874598E+03  0.00000000000E+00 0.  1.
          2    1    6    6  503    0  0.15133472534E+02 -0.21774086007E+03 -0.45528553402E+03  0.50490100180E+03  0.00000000000E+00 0. -1.
         -2    1    6    6    0  503 -0.78941829986E+02 -0.33911438711E+03 -0.67783266919E+03  0.76202854768E+03  0.00000000000E+00 0.  1.
<mgrwt>
<rscale>  0 0.13303899E+04</rscale>
<asrwt>0</asrwt>
<pdfrwt beam="1">  1        2 0.50349896E+00 0.13303899E+04</pdfrwt>
<pdfrwt beam="2">  1       -1 0.20800445E-01 0.13303899E+04</pdfrwt>
<totfact> 0.25154697E+01</totfact>
</mgrwt>
</event>
<event>
12    6  0.1450532E-007  0.1396763E+04  0.7818608E-02  0.8956165E-01
          2   -1    0    0  501    0  0.00000000000E+00  0.00000000000E+00  0.71297353014E+03  0.71297353014E+03  0.00000000000E+00 0. -1.
         -1   -1    0    0    0  501 -0.00000000000E+00 -0.00000000000E+00 -0.68408846300E+03  0.68408846300E+03  0.00000000000E+00 0.  1.
         24    2    1    2    0    0 -0.27948448415E+03 -0.28637350398E+03 -0.51348537950E+02  0.41122295619E+03  0.79663584421E+02 0.  0.
        254    2    1    2    0    0  0.27948448415E+03  0.28637350398E+03  0.80233605098E+02  0.98583903695E+03  0.89739613033E+03 0.  0.
         23    2    4    4    0    0  0.36956749849E+03 -0.19592196420E+03  0.20155939285E+03  0.47220824888E+03  0.85958649746E+02 0.  0.
         23    2    4    4    0    0 -0.90083014338E+02  0.48229546818E+03 -0.12132578776E+03  0.51363078807E+03  0.91502850156E+02 0.  0.
          4    1    3    3  502    0 -0.25410747015E+03 -0.25102622230E+03 -0.20297162238E+02  0.35776632802E+03  0.00000000000E+00 0. -1.
         -3    1    3    3    0  502 -0.25377014007E+02 -0.35347281675E+02 -0.31051375712E+02  0.53456628171E+02  0.00000000000E+00 0.  1.
         11    1    5    5    0    0  0.38906645054E+02 -0.46852435849E+02  0.90267643436E+01  0.61565901674E+02  0.00000000000E+00 0. -1.
        -11    1    5    5    0    0  0.33066085344E+03 -0.14906952835E+03  0.19253262851E+03  0.41064234721E+03  0.00000000000E+00 0.  1.
          4    1    6    6  503    0 -0.83592013382E+02  0.24315315887E+03 -0.35946444614E+02  0.25962132087E+03  0.00000000000E+00 0. -1.
         -4    1    6    6    0  503 -0.64910009561E+01  0.23914230931E+03 -0.85379343142E+02  0.25400946721E+03  0.00000000000E+00 0.  1.
<mgrwt>
<rscale>  0 0.13967634E+04</rscale>
<asrwt>0</asrwt>
<pdfrwt beam="1">  1        2 0.10968824E+00 0.13967634E+04</pdfrwt>
<pdfrwt beam="2">  1       -1 0.10524438E+00 0.13967634E+04</pdfrwt>
<totfact> 0.37702316E+01</totfact>
</mgrwt>
</event>
<event>
12    6  0.1450532E-007  0.1795915E+04  0.7818608E-02  0.8708475E-01
          2   -1    0    0  501    0  0.00000000000E+00  0.00000000000E+00  0.17229374241E+04  0.17229374241E+04  0.00000000000E+00 0. -1.
         -1   -1    0    0    0  501 -0.00000000000E+00 -0.00000000000E+00 -0.46799586716E+03  0.46799586716E+03  0.00000000000E+00 0.  1.
         24    2    1    2    0    0  0.49381635496E+03  0.43359947714E+03  0.31579839498E+03  0.73325798641E+03  0.77945810362E+02 0.  0.
        254    2    1    2    0    0 -0.49381635496E+03 -0.43359947714E+03  0.93914316196E+03  0.14576753049E+04  0.90053557217E+03 0.  0.
         23    2    4    4    0    0 -0.13200857617E+03 -0.50683055446E+03  0.10603463880E+03  0.54217764853E+03  0.91704868053E+02 0.  0.
         23    2    4    4    0    0 -0.36180777879E+03  0.73231077324E+02  0.83310852316E+03  0.91549765633E+03  0.88309047685E+02 0.  0.
          4    1    3    3  502    0  0.48913344581E+03  0.43060298925E+03  0.32027754496E+03  0.72611856330E+03  0.00000000000E+00 0. -1.
         -3    1    3    3    0  502  0.46829091492E+01  0.29964878838E+01 -0.44791499771E+01  0.71394231038E+01  0.00000000000E+00 0.  1.
         11    1    5    5    0    0 -0.12581312791E+03 -0.32890276084E+03  0.89729370624E+02  0.36339693063E+03  0.00000000000E+00 0.  1.
        -11    1    5    5    0    0 -0.61954482668E+01 -0.17792779363E+03  0.16305268179E+02  0.17878071790E+03  0.00000000000E+00 0. -1.
          1    1    6    6  503    0 -0.14464194490E+03  0.12322965987E+02  0.23436000691E+03  0.27567691335E+03  0.00000000000E+00 0. -1.
         -1    1    6    6    0  503 -0.21716583389E+03  0.60908111338E+02  0.59874851624E+03  0.63982074298E+03  0.00000000000E+00 0.  1.
<mgrwt>
<rscale>  0 0.17959149E+04</rscale>
<asrwt>0</asrwt>
<pdfrwt beam="1">  1        2 0.26506729E+00 0.17959149E+04</pdfrwt>
<pdfrwt beam="2">  1       -1 0.71999365E-01 0.17959149E+04</pdfrwt>
<totfact> 0.19940508E+01</totfact>
</mgrwt>
</event>
<event>
12    6  0.1450532E-007  0.1321443E+04  0.7818608E-02  0.9012731E-01
          2   -1    0    0  501    0  0.00000000000E+00  0.00000000000E+00  0.83872152005E+03  0.83872152005E+03  0.00000000000E+00 0. -1.
         -1   -1    0    0    0  501 -0.00000000000E+00 -0.00000000000E+00 -0.52049801650E+03  0.52049801650E+03  0.00000000000E+00 0.  1.
         24    2    1    2    0    0  0.35266059358E+03  0.10170088540E+03 -0.73191264698E+01  0.37548276640E+03  0.78874418514E+02 0.  0.
        254    2    1    2    0    0 -0.35266059358E+03 -0.10170088540E+03  0.32554263002E+03  0.98373677015E+03  0.85267078326E+03 0.  0.
         23    2    4    4    0    0  0.24913941494E+03  0.93867385117E+02  0.15324707788E+03  0.32175432606E+03  0.95706036333E+02 0.  0.
         23    2    4    4    0    0 -0.60180000852E+03 -0.19556827052E+03  0.17229555214E+03  0.66198244409E+03  0.90137674152E+02 0.  0.
          2    1    3    3  502    0  0.10161055591E+03  0.34402689658E+02 -0.37903416845E+02  0.11377574055E+03  0.00000000000E+00 0. -1.
         -1    1    3    3    0  502  0.25105003767E+03  0.67298195747E+02  0.30584290375E+02  0.26170702586E+03  0.00000000000E+00 0.  1.
         11    1    5    5    0    0  0.22457376139E+03  0.90558659131E+02  0.16628895089E+03  0.29374523015E+03  0.00000000000E+00 0.  1.
        -11    1    5    5    0    0  0.24565653554E+02  0.33087259863E+01 -0.13041873004E+02  0.28009095909E+02  0.00000000000E+00 0. -1.
          1    1    6    6  503    0 -0.14913865267E+01 -0.63173481940E+01 -0.48426703425E+01  0.80984305901E+01  0.00000000000E+00 0. -1.
         -1    1    6    6    0  503 -0.60030862200E+03 -0.18925092233E+03  0.17713822248E+03  0.65388401350E+03  0.00000000000E+00 0.  1.
<mgrwt>
<rscale>  0 0.13214430E+04</rscale>
<asrwt>0</asrwt>
<pdfrwt beam="1">  1        2 0.12903408E+00 0.13214430E+04</pdfrwt>
<pdfrwt beam="2">  1       -1 0.80076618E-01 0.13214430E+04</pdfrwt>
<totfact> 0.56236806E+01</totfact>
</mgrwt>
</event>
<event>
12    6  0.1450532E-007  0.1207307E+04  0.7818608E-02  0.9106485E-01
         -1   -1    0    0    0  501 -0.00000000000E+00  0.00000000000E+00  0.15928750093E+03  0.15928750093E+03  0.00000000000E+00 0.  1.
          2   -1    0    0  501    0  0.00000000000E+00 -0.00000000000E+00 -0.22876706024E+04  0.22876706024E+04  0.00000000000E+00 0. -1.
         24    2    1    2    0    0  0.27545843173E+02 -0.10537723222E+03 -0.85701026598E+03  0.86754970889E+03  0.79452922249E+02 0.  0.
        254    2    1    2    0    0 -0.27545843173E+02  0.10537723222E+03 -0.12713728354E+04  0.15794083944E+04  0.93074102469E+03 0.  0.
         23    2    4    4    0    0  0.28798904211E+03  0.38697416400E+03 -0.80856199705E+03  0.94588397318E+03  0.90759548568E+02 0.  0.
         23    2    4    4    0    0 -0.31553488528E+03 -0.28159693179E+03 -0.46281083838E+03  0.63352442121E+03  0.91105566944E+02 0.  0.
          2    1    3    3  502    0 -0.25106244997E+02 -0.49538233632E+02 -0.44500531845E+03  0.44845746017E+03  0.00000000000E+00 0. -1.
         -1    1    3    3    0  502  0.52652088170E+02 -0.55838998586E+02 -0.41200494753E+03  0.41909224872E+03  0.00000000000E+00 0.  1.
         11    1    5    5    0    0  0.26086089356E+03  0.38254215590E+03 -0.75473187927E+03  0.88544176342E+03  0.00000000000E+00 0. -1.
        -11    1    5    5    0    0  0.27128148547E+02  0.44320081053E+01 -0.53830117783E+02  0.60442209754E+02  0.00000000000E+00 0.  1.
          1    1    6    6  503    0 -0.29131991030E+03 -0.27782340052E+03 -0.40643024081E+03  0.57204778879E+03  0.00000000000E+00 0. -1.
         -1    1    6    6    0  503 -0.24214974982E+02 -0.37735312643E+01 -0.56380597569E+02  0.61476632421E+02  0.00000000000E+00 0.  1.
<mgrwt>
<rscale>  0 0.12073066E+04</rscale>
<asrwt>0</asrwt>
<pdfrwt beam="1">  1        2 0.35194932E+00 0.12073066E+04</pdfrwt>
<pdfrwt beam="2">  1       -1 0.24505770E-01 0.12073066E+04</pdfrwt>
<totfact> 0.75310238E+01</totfact>
</mgrwt>
</event>
<event>
12    6  0.1450532E-007  0.1267129E+04  0.7818608E-02  0.9056046E-01
         -1   -1    0    0    0  501 -0.00000000000E+00  0.00000000000E+00  0.33830171626E+03  0.33830171626E+03  0.00000000000E+00 0.  1.
          2   -1    0    0  501    0  0.00000000000E+00 -0.00000000000E+00 -0.11865257993E+04  0.11865257993E+04  0.00000000000E+00 0. -1.
         24    2    1    2    0    0 -0.23352384983E+03  0.18434956341E+03 -0.35416624648E+03  0.46926342961E+03  0.79096689315E+02 0.  0.
        254    2    1    2    0    0  0.23352384983E+03 -0.18434956341E+03 -0.49405783652E+03  0.10555640859E+04  0.88408384424E+03 0.  0.
         23    2    4    4    0    0  0.18542259563E+03 -0.11744866302E+03 -0.74190317578E+03  0.77911814693E+03  0.91809788332E+02 0.  0.
         23    2    4    4    0    0  0.48101254200E+02 -0.66900900385E+02  0.24784533926E+03  0.27644593897E+03  0.90584677797E+02 0.  0.
          2    1    3    3  502    0 -0.18285764316E+03  0.16641394418E+03 -0.32422061573E+03  0.40773707968E+03  0.00000000000E+00 0. -1.
         -1    1    3    3    0  502 -0.50666206670E+02  0.17935619229E+02 -0.29945630743E+02  0.61526349933E+02  0.00000000000E+00 0.  1.
         11    1    5    5    0    0  0.16772142330E+03 -0.11417039930E+03 -0.72966941018E+03  0.75735249657E+03  0.00000000000E+00 0. -1.
        -11    1    5    5    0    0  0.17701172331E+02 -0.32782637226E+01 -0.12233765598E+02  0.21765650361E+02  0.00000000000E+00 0.  1.
          3    1    6    6  503    0  0.60770416708E+02 -0.71462568183E+02  0.24545498667E+03  0.26277003763E+03  0.00000000000E+00 0. -1.
         -3    1    6    6    0  503 -0.12669162508E+02  0.45616677984E+01  0.23903525903E+01  0.13675901333E+02  0.00000000000E+00 0.  1.
<mgrwt>
<rscale>  0 0.12671286E+04</rscale>
<asrwt>0</asrwt>
<pdfrwt beam="1">  1        2 0.18254243E+00 0.12671286E+04</pdfrwt>
<pdfrwt beam="2">  1       -1 0.52046417E-01 0.12671286E+04</pdfrwt>
<totfact> 0.80320783E+01</totfact>
</mgrwt>
</event>
<event>
12    6  0.1450532E-007  0.1053509E+04  0.7818608E-02  0.9251728E-01
         -1   -1    0    0    0  501 -0.00000000000E+00  0.00000000000E+00  0.14083360697E+03  0.14083360697E+03  0.00000000000E+00 0.  1.
          2   -1    0    0  501    0  0.00000000000E+00 -0.00000000000E+00 -0.19702004817E+04  0.19702004817E+04  0.00000000000E+00 0. -1.
         24    2    1    2    0    0 -0.29382533191E+02 -0.10937496954E+03 -0.17799717667E+03  0.22529793546E+03  0.79056610097E+02 0.  0.
        254    2    1    2    0    0  0.29382533191E+02  0.10937496954E+03 -0.16513696980E+04  0.18857361532E+04  0.90341172377E+03 0.  0.
         23    2    4    4    0    0  0.36789382708E+03 -0.12411294327E+03 -0.12184196534E+04  0.12818691590E+04  0.88838045405E+02 0.  0.
         23    2    4    4    0    0 -0.33851129389E+03  0.23348791281E+03 -0.43295004464E+03  0.60386699419E+03  0.90017242797E+02 0.  0.
          2    1    3    3  502    0 -0.33303031316E+01 -0.83248135655E+02 -0.16727555211E+03  0.18687550225E+03  0.00000000000E+00 0. -1.
         -1    1    3    3    0  502 -0.26052230059E+02 -0.26126833886E+02 -0.10721624558E+02  0.38422433202E+02  0.00000000000E+00 0.  1.
         11    1    5    5    0    0  0.26588929259E+03 -0.12294250303E+03 -0.97159055816E+03  0.10147907113E+04  0.00000000000E+00 0.  1.
        -11    1    5    5    0    0  0.10200453449E+03 -0.11704402437E+01 -0.24682909523E+03  0.26707844773E+03  0.00000000000E+00 0. -1.
          1    1    6    6  503    0 -0.29965822485E+02 -0.20141308832E+01 -0.15330160450E+02  0.33719742880E+02  0.00000000000E+00 0. -1.
         -1    1    6    6    0  503 -0.30854547141E+03  0.23550204370E+03 -0.41761988419E+03  0.57014725131E+03  0.00000000000E+00 0.  1.
<mgrwt>
<rscale>  0 0.10535093E+04</rscale>
<asrwt>0</asrwt>
<pdfrwt beam="1">  1        2 0.30310775E+00 0.10535093E+04</pdfrwt>
<pdfrwt beam="2">  1       -1 0.21666710E-01 0.10535093E+04</pdfrwt>
<totfact> 0.14105756E+02</totfact>
</mgrwt>
</event>
<event>
12    6  0.1450532E-007  0.2032641E+04  0.7818608E-02  0.8591510E-01
          2   -1    0    0  501    0  0.00000000000E+00  0.00000000000E+00  0.29667734508E+04  0.29667734508E+04  0.00000000000E+00 0. -1.
         -1   -1    0    0    0  501 -0.00000000000E+00 -0.00000000000E+00 -0.34815839259E+03  0.34815839259E+03  0.00000000000E+00 0.  1.
         24    2    1    2    0    0  0.66798785671E+03 -0.40780811452E+03  0.14249659574E+04  0.16276705795E+04  0.79172601797E+02 0.  0.
        254    2    1    2    0    0 -0.66798785671E+03  0.40780811452E+03  0.11936491008E+04  0.16872612638E+04  0.89974283080E+03 0.  0.
         23    2    4    4    0    0 -0.28753852092E+02  0.48277507901E+03  0.28370998811E+03  0.56922218726E+03  0.98101886850E+02 0.  0.
         23    2    4    4    0    0 -0.63923400461E+03 -0.74966964489E+02  0.90993911272E+03  0.11180390766E+04  0.88215811899E+02 0.  0.
          4    1    3    3  502    0  0.52120188396E+03 -0.28195264672E+03  0.10442642215E+04  0.12006816661E+04  0.00000000000E+00 0. -1.
         -3    1    3    3    0  502  0.14678597274E+03 -0.12585546780E+03  0.38070173582E+03  0.42698891347E+03  0.00000000000E+00 0.  1.
         11    1    5    5    0    0  0.26875532161E+02  0.47903882812E+02  0.27424616430E+02  0.61393695146E+02  0.00000000000E+00 0.  1.
        -11    1    5    5    0    0 -0.55629384253E+02  0.43487119619E+03  0.25628537168E+03  0.50782849212E+03  0.00000000000E+00 0. -1.
          4    1    6    6  503    0 -0.16905164330E+03 -0.58871430104E+02  0.26217704572E+03  0.31746040176E+03  0.00000000000E+00 0. -1.
         -4    1    6    6    0  503 -0.47018236132E+03 -0.16095534385E+02  0.64776206700E+03  0.80057867481E+03  0.00000000000E+00 0.  1.
<mgrwt>
<rscale>  0 0.20326407E+04</rscale>
<asrwt>0</asrwt>
<pdfrwt beam="1">  1        2 0.45642667E+00 0.20326407E+04</pdfrwt>
<pdfrwt beam="2">  1       -1 0.53562832E-01 0.20326407E+04</pdfrwt>
<totfact> 0.67885981E+00</totfact>
</mgrwt>
</event>
<event>
12    6  0.1450532E-007  0.1159170E+04  0.7818608E-02  0.9149365E-01
          2   -1    0    0  501    0  0.00000000000E+00  0.00000000000E+00  0.18387351437E+04  0.18387351437E+04  0.00000000000E+00 0. -1.
         -1   -1    0    0    0  501 -0.00000000000E+00 -0.00000000000E+00 -0.18269010648E+03  0.18269010648E+03  0.00000000000E+00 0.  1.
         24    2    1    2    0    0  0.93070257875E+02 -0.24710892730E+03  0.36188615438E+03  0.45513073846E+03  0.80358605699E+02 0.  0.
        254    2    1    2    0    0 -0.93070257875E+02  0.24710892730E+03  0.12941588829E+04  0.15662945117E+04  0.84184701019E+03 0.  0.
         23    2    4    4    0    0 -0.44896016253E+03  0.23342778058E+03  0.70845669075E+03  0.87529788083E+03  0.90452978023E+02 0.  0.
         23    2    4    4    0    0  0.35588990465E+03  0.13681146716E+02  0.58570219212E+03  0.69099663092E+03  0.87088966444E+02 0.  0.
          2    1    3    3  502    0  0.36813341341E+02 -0.92754279511E+02  0.20484492828E+03  0.22785965661E+03  0.00000000000E+00 0. -1.
         -1    1    3    3    0  502  0.56256916534E+02 -0.15435464779E+03  0.15704122610E+03  0.22727108185E+03  0.00000000000E+00 0.  1.
         11    1    5    5    0    0 -0.22499107127E+03  0.14419152252E+03  0.43704113194E+03  0.51226665744E+03  0.00000000000E+00 0. -1.
        -11    1    5    5    0    0 -0.22396909126E+03  0.89236258061E+02  0.27141555882E+03  0.36303122340E+03  0.00000000000E+00 0.  1.
          3    1    6    6  503    0  0.31282155850E+03 -0.43807083139E+01  0.45481070248E+03  0.55202290999E+03  0.00000000000E+00 0. -1.
         -3    1    6    6    0  503  0.43068346154E+02  0.18061855030E+02  0.13089148964E+03  0.13897372092E+03  0.00000000000E+00 0.  1.
<mgrwt>
<rscale>  0 0.11591699E+04</rscale>
<asrwt>0</asrwt>
<pdfrwt beam="1">  1        2 0.28288232E+00 0.11591699E+04</pdfrwt>
<pdfrwt beam="2">  1       -1 0.28106171E-01 0.11591699E+04</pdfrwt>
<totfact> 0.10591718E+02</totfact>
</mgrwt>
</event>
<event>
12    6  0.1450532E-007  0.2442988E+04  0.7818608E-02  0.8423583E-01
         -1   -1    0    0    0  501 -0.00000000000E+00  0.00000000000E+00  0.17445185780E+04  0.17445185780E+04  0.00000000000E+00 0.  1.
          2   -1    0    0  501    0  0.00000000000E+00 -0.00000000000E+00 -0.85527736907E+03  0.85527736907E+03  0.00000000000E+00 0. -1.
         24    2    1    2    0    0  0.43921336620E+03  0.94153275406E+03  0.62158861600E+03  0.12136553504E+04  0.84820952559E+02 0.  0.
        254    2    1    2    0    0 -0.43921336620E+03 -0.94153275406E+03  0.26765259297E+03  0.13861405967E+04  0.87769900041E+03 0.  0.
         23    2    4    4    0    0 -0.34744469484E+03 -0.19785640120E+03  0.45110099571E+03  0.60926576789E+03  0.88587223273E+02 0.  0.
         23    2    4    4    0    0 -0.91768671357E+02 -0.74367635286E+03 -0.18344840274E+03  0.77687482883E+03  0.91679748820E+02 0.  0.
          4    1    3    3  502    0  0.20273408069E+03  0.52864649159E+03  0.32109142953E+03  0.65089778511E+03  0.00000000000E+00 0. -1.
         -3    1    3    3    0  502  0.23647928551E+03  0.41288626247E+03  0.30049718647E+03  0.56275756529E+03  0.00000000000E+00 0.  1.
         11    1    5    5    0    0 -0.32213607489E+01 -0.17176414523E+02  0.64431369950E+01  0.18625799185E+02  0.00000000000E+00 0.  1.
        -11    1    5    5    0    0 -0.34422333409E+03 -0.18067998667E+03  0.44465785871E+03  0.59063996871E+03  0.00000000000E+00 0. -1.
          4    1    6    6  503    0 -0.98864164495E+02 -0.43335347121E+03 -0.11026057715E+03  0.45795933106E+03  0.00000000000E+00 0.  1.
         -4    1    6    6    0  503  0.70954931386E+01 -0.31032288165E+03 -0.73187825592E+02  0.31891549777E+03  0.00000000000E+00 0. -1.
<mgrwt>
<rscale>  0 0.24429877E+04</rscale>
<asrwt>0</asrwt>
<pdfrwt beam="1">  1        2 0.13158113E+00 0.24429877E+04</pdfrwt>
<pdfrwt beam="2">  1       -1 0.26838747E+00 0.24429877E+04</pdfrwt>
<totfact> 0.17022895E+00</totfact>
</mgrwt>
</event>
<event>
12    6  0.1491064E-007  0.1743288E+04  0.7818608E-02  0.8737053E-01
         -1   -1    0    0    0  501 -0.00000000000E+00  0.00000000000E+00  0.32959617211E+03  0.32959617211E+03  0.00000000000E+00 0.  1.
          2   -1    0    0  501    0  0.00000000000E+00 -0.00000000000E+00 -0.23051345624E+04  0.23051345624E+04  0.00000000000E+00 0. -1.
         24    2    1    2    0    0  0.83817563902E+02  0.38334405196E+03 -0.15429374660E+04  0.15939316981E+04  0.77357533115E+02 0.  0.
        254    2    1    2    0    0 -0.83817563902E+02 -0.38334405196E+03 -0.43260092425E+03  0.10407990364E+04  0.86147607531E+03 0.  0.
         23    2    4    4    0    0  0.16880258617E+03  0.21399855121E+02  0.17679805393E+03  0.26157438966E+03  0.90616458545E+02 0.  0.
         23    2    4    4    0    0 -0.25262015007E+03 -0.40474390709E+03 -0.60939897818E+03  0.77922464674E+03  0.90495110062E+02 0.  0.
          4    1    3    3  502    0  0.61954871488E+02  0.36813552223E+03 -0.14426976099E+04  0.14902142673E+04  0.00000000000E+00 0. -1.
         -3    1    3    3    0  502  0.21862692414E+02  0.15208529736E+02 -0.10023985613E+03  0.10371743081E+03  0.00000000000E+00 0.  1.
         11    1    5    5    0    0  0.41445426533E+02 -0.28626847740E+02  0.21984559567E+02  0.54959445515E+02  0.00000000000E+00 0. -1.
        -11    1    5    5    0    0  0.12735715964E+03  0.50026702861E+02  0.15481349436E+03  0.20661494415E+03  0.00000000000E+00 0.  1.
          4    1    6    6  503    0 -0.30875654131E+02 -0.93749837065E+01 -0.37973169041E+02  0.49831294430E+02  0.00000000000E+00 0. -1.
         -4    1    6    6    0  503 -0.22174449594E+03 -0.39536892338E+03 -0.57142580913E+03  0.72939335231E+03  0.00000000000E+00 0.  1.
<mgrwt>
<rscale>  0 0.17432883E+04</rscale>
<asrwt>0</asrwt>
<pdfrwt beam="1">  1        2 0.35463607E+00 0.17432883E+04</pdfrwt>
<pdfrwt beam="2">  1       -1 0.50707106E-01 0.17432883E+04</pdfrwt>
<totfact> 0.19016644E+01</totfact>
</mgrwt>
</event>
<event>
12    6  0.1450532E-007  0.2081342E+04  0.7818608E-02  0.8569507E-01
          2   -1    0    0  501    0  0.00000000000E+00  0.00000000000E+00  0.22570669322E+04  0.22570669322E+04  0.00000000000E+00 0. -1.
         -1   -1    0    0    0  501 -0.00000000000E+00 -0.00000000000E+00 -0.47982432991E+03  0.47982432991E+03  0.00000000000E+00 0.  1.
         24    2    1    2    0    0  0.56335816638E+03 -0.39119815747E+03  0.86718283960E+02  0.69584469019E+03  0.79191855969E+02 0.  0.
        254    2    1    2    0    0 -0.56335816638E+03  0.39119815747E+03  0.16905243184E+04  0.20410465719E+04  0.91519954975E+03 0.  0.
         23    2    4    4    0    0 -0.71987582308E+03  0.41917017093E+03  0.90074283914E+03  0.12303281758E+04  0.91896273488E+02 0.  0.
         23    2    4    4    0    0  0.15651765670E+03 -0.27972013456E+02  0.78978147921E+03  0.81071839613E+03  0.90715613441E+02 0.  0.
          4    1    3    3  502    0  0.26923875018E+03 -0.18340154991E+03  0.14675302121E+01  0.32577259976E+03  0.00000000000E+00 0. -1.
         -3    1    3    3    0  502  0.29411941620E+03 -0.20779660756E+03  0.85250753748E+02  0.37007209043E+03  0.00000000000E+00 0.  1.
         11    1    5    5    0    0 -0.43609641571E+02  0.24820308603E+02  0.91759085980E+02  0.10458287822E+03  0.00000000000E+00 0.  1.
        -11    1    5    5    0    0 -0.67626618151E+03  0.39434986233E+03  0.80898375316E+03  0.11257452976E+04  0.00000000000E+00 0. -1.
          3    1    6    6  503    0  0.15593794821E+03 -0.39585964361E+02  0.61982330328E+03  0.64036288115E+03  0.00000000000E+00 0. -1.
         -3    1    6    6    0  503  0.57970848689E+00  0.11613950906E+02  0.16995817593E+03  0.17035551498E+03  0.00000000000E+00 0.  1.
<mgrwt>
<rscale>  0 0.20813415E+04</rscale>
<asrwt>0</asrwt>
<pdfrwt beam="1">  1        2 0.34724106E+00 0.20813415E+04</pdfrwt>
<pdfrwt beam="2">  1       -1 0.73819129E-01 0.20813415E+04</pdfrwt>
<totfact> 0.93102030E+00</totfact>
</mgrwt>
</event>
<event>
12    6  0.1450532E-007  0.3209319E+04  0.7818608E-02  0.8186360E-01
         -1   -1    0    0    0  501 -0.00000000000E+00  0.00000000000E+00  0.90466109421E+03  0.90466109421E+03  0.00000000000E+00 0.  1.
          2   -1    0    0  501    0  0.00000000000E+00 -0.00000000000E+00 -0.28462941968E+04  0.28462941968E+04  0.00000000000E+00 0. -1.
         24    2    1    2    0    0 -0.20054935223E+02 -0.28447313375E+03  0.77624606880E+03  0.82909915385E+03  0.59331975654E+02 0.  0.
        254    2    1    2    0    0  0.20054935223E+02  0.28447313375E+03 -0.27178791714E+04  0.29218561372E+04  0.10339482249E+04 0.  0.
         23    2    4    4    0    0 -0.22722865089E+03 -0.46917915662E+02 -0.23442991565E+04  0.23572620196E+04  0.84329968590E+02 0.  0.
         23    2    4    4    0    0  0.24728358611E+03  0.33139104941E+03 -0.37358001493E+03  0.56459411754E+03  0.90748500884E+02 0.  0.
          4    1    3    3  502    0  0.21035167508E+02 -0.11296337466E+03  0.30180679937E+03  0.32294046887E+03  0.00000000000E+00 0. -1.
         -3    1    3    3    0  502 -0.41090102731E+02 -0.17150975909E+03  0.47443926943E+03  0.50615868498E+03  0.00000000000E+00 0.  1.
         11    1    5    5    0    0 -0.87530471586E+02 -0.46403759102E+02 -0.69017282127E+03  0.69724702620E+03  0.00000000000E+00 0. -1.
        -11    1    5    5    0    0 -0.13969817930E+03 -0.51415655982E+00 -0.16541263352E+04  0.16600149934E+04  0.00000000000E+00 0.  1.
          1    1    6    6  503    0  0.13224620465E+03  0.10317528907E+03 -0.14515715519E+03  0.22182154680E+03  0.00000000000E+00 0. -1.
         -1    1    6    6    0  503  0.11503738146E+03  0.22821576035E+03 -0.22842285973E+03  0.34277257074E+03  0.00000000000E+00 0.  1.
<mgrwt>
<rscale>  0 0.32093187E+04</rscale>
<asrwt>0</asrwt>
<pdfrwt beam="1">  1        2 0.43789141E+00 0.32093187E+04</pdfrwt>
<pdfrwt beam="2">  1       -1 0.13917863E+00 0.32093187E+04</pdfrwt>
<totfact> 0.88134360E-01</totfact>
</mgrwt>
</event>
<event>
12    6  0.1450532E-007  0.1488516E+04  0.7818608E-02  0.8892126E-01
         -1   -1    0    0    0  501 -0.00000000000E+00  0.00000000000E+00  0.15287430779E+03  0.15287430779E+03  0.00000000000E+00 0.  1.
          2   -1    0    0  501    0  0.00000000000E+00 -0.00000000000E+00 -0.36233703506E+04  0.36233703506E+04  0.00000000000E+00 0. -1.
         24    2    1    2    0    0  0.10645520254E+03  0.93564707490E+01  0.49701098832E+02  0.14202656276E+03  0.79253338168E+02 0.  0.
        254    2    1    2    0    0 -0.10645520254E+03 -0.93564707490E+01 -0.35201971417E+04  0.36342180956E+04  0.89684613889E+03 0.  0.
         23    2    4    4    0    0 -0.18160098341E+03  0.37580551354E+03 -0.25155386634E+04  0.25515487344E+04  0.90870654030E+02 0.  0.
         23    2    4    4    0    0  0.75145780871E+02 -0.38516198429E+03 -0.10046584782E+04  0.10826693612E+04  0.94008751224E+02 0.  0.
          4    1    3    3  502    0  0.28983717705E+02  0.57897524427E+01 -0.21655022305E+02  0.36640375494E+02  0.00000000000E+00 0. -1.
         -3    1    3    3    0  502  0.77471484835E+02  0.35667183063E+01  0.71356121137E+02  0.10538618726E+03  0.00000000000E+00 0.  1.
         11    1    5    5    0    0 -0.10302362882E+03  0.11467953305E+03 -0.86244644896E+03  0.87611594023E+03  0.00000000000E+00 0. -1.
        -11    1    5    5    0    0 -0.78577354591E+02  0.26112598049E+03 -0.16530922144E+04  0.16754327942E+04  0.00000000000E+00 0.  1.
          3    1    6    6  503    0  0.71295941199E+02 -0.13807225876E+03 -0.42578561156E+03  0.45325538815E+03  0.00000000000E+00 0. -1.
         -3    1    6    6    0  503  0.38498396714E+01 -0.24708972553E+03 -0.57887286668E+03  0.62941397308E+03  0.00000000000E+00 0.  1.
<mgrwt>
<rscale>  0 0.14885164E+04</rscale>
<asrwt>0</asrwt>
<pdfrwt beam="1">  1        2 0.55744155E+00 0.14885164E+04</pdfrwt>
<pdfrwt beam="2">  1       -1 0.23519126E-01 0.14885164E+04</pdfrwt>
<totfact> 0.11563364E+01</totfact>
</mgrwt>
</event>
<event>
12    6  0.1450532E-007  0.1861902E+04  0.7818608E-02  0.8674056E-01
          2   -1    0    0  501    0  0.00000000000E+00  0.00000000000E+00  0.77590950365E+03  0.77590950365E+03  0.00000000000E+00 0. -1.
         -1   -1    0    0    0  501 -0.00000000000E+00 -0.00000000000E+00 -0.11169729561E+04  0.11169729561E+04  0.00000000000E+00 0.  1.
         24    2    1    2    0    0 -0.53390186710E+03  0.16926102547E+03 -0.57640184370E+03  0.80758445153E+03  0.79076308001E+02 0.  0.
        254    2    1    2    0    0  0.53390186710E+03 -0.16926102547E+03  0.23533839126E+03  0.10852980082E+04  0.89932591968E+03 0.  0.
         23    2    4    4    0    0  0.76607793574E+03 -0.18691119794E+03  0.25853714106E+03  0.83499692034E+03  0.92559192483E+02 0.  0.
         23    2    4    4    0    0 -0.23217606864E+03  0.17650172477E+02 -0.23198749803E+02  0.25030108789E+03  0.88854922023E+02 0.  0.
          2    1    3    3  502    0 -0.65734765742E+02  0.36622191788E+02 -0.47940634859E+02  0.89221907787E+02  0.00000000000E+00 0. -1.
         -1    1    3    3    0  502 -0.46816710136E+03  0.13263883368E+03 -0.52846120884E+03  0.71836254374E+03  0.00000000000E+00 0.  1.
         11    1    5    5    0    0  0.43808549177E+03 -0.14575107663E+03  0.12361165113E+03  0.47795618495E+03  0.00000000000E+00 0.  1.
        -11    1    5    5    0    0  0.32799244398E+03 -0.41160121311E+02  0.13492548994E+03  0.35704073539E+03  0.00000000000E+00 0. -1.
          1    1    6    6  503    0 -0.17873736845E+03 -0.24730327375E+02 -0.24426377716E+02  0.18208592450E+03  0.00000000000E+00 0. -1.
         -1    1    6    6    0  503 -0.53438700185E+02  0.42380499852E+02  0.12276279137E+01  0.68215163383E+02  0.00000000000E+00 0.  1.
<mgrwt>
<rscale>  0 0.18619022E+04</rscale>
<asrwt>0</asrwt>
<pdfrwt beam="1">  1        2 0.11937069E+00 0.18619022E+04</pdfrwt>
<pdfrwt beam="2">  1       -1 0.17184199E+00 0.18619022E+04</pdfrwt>
<totfact> 0.91744240E+00</totfact>
</mgrwt>
</event>
<event>
12    6  0.1450532E-007  0.2704798E+04  0.7818608E-02  0.8333450E-01
         -1   -1    0    0    0  501 -0.00000000000E+00  0.00000000000E+00  0.13083988430E+04  0.13083988430E+04  0.00000000000E+00 0.  1.
          2   -1    0    0  501    0  0.00000000000E+00 -0.00000000000E+00 -0.13978790618E+04  0.13978790618E+04  0.00000000000E+00 0. -1.
         24    2    1    2    0    0 -0.15377313683E+03  0.51773432876E+03  0.10327005840E+04  0.11681136619E+04  0.79523695200E+02 0.  0.
        254    2    1    2    0    0  0.15377313683E+03 -0.51773432876E+03 -0.11221808029E+04  0.15381642429E+04  0.90275382632E+03 0.  0.
         23    2    4    4    0    0  0.42290855907E+03 -0.25901587788E+03 -0.20506627517E+03  0.54348601599E+03  0.85930192836E+02 0.  0.
         23    2    4    4    0    0 -0.26913542224E+03 -0.25871845088E+03 -0.91711452772E+03  0.99467822689E+03  0.94427780692E+02 0.  0.
          4    1    3    3  502    0 -0.59746557100E+02  0.23296678866E+03  0.37842518475E+03  0.44838465201E+03  0.00000000000E+00 0. -1.
         -3    1    3    3    0  502 -0.94026579732E+02  0.28476754010E+03  0.65427539929E+03  0.71972900991E+03  0.00000000000E+00 0.  1.
         11    1    5    5    0    0  0.28539449014E+03 -0.19243627144E+03 -0.18073685852E+03  0.38877698697E+03  0.00000000000E+00 0.  1.
        -11    1    5    5    0    0  0.13751406893E+03 -0.66579606436E+02 -0.24329416645E+02  0.15470902902E+03  0.00000000000E+00 0. -1.
          4    1    6    6  503    0 -0.82670153454E+02 -0.14322714855E+03 -0.41597585348E+03  0.44764302858E+03  0.00000000000E+00 0. -1.
         -4    1    6    6    0  503 -0.18646526878E+03 -0.11549130233E+03 -0.50113867424E+03  0.54703519832E+03  0.00000000000E+00 0.  1.
<mgrwt>
<rscale>  0 0.27047982E+04</rscale>
<asrwt>0</asrwt>
<pdfrwt beam="1">  1        2 0.21505832E+00 0.27047982E+04</pdfrwt>
<pdfrwt beam="2">  1       -1 0.20129213E+00 0.27047982E+04</pdfrwt>
<totfact> 0.21373626E+00</totfact>
</mgrwt>
</event>
<event>
12    6  0.1450532E-007  0.2375759E+04  0.7818608E-02  0.8448635E-01
          2   -1    0    0  501    0  0.00000000000E+00  0.00000000000E+00  0.12810014856E+04  0.12810014856E+04  0.00000000000E+00 0. -1.
         -1   -1    0    0    0  501 -0.00000000000E+00 -0.00000000000E+00 -0.11015266540E+04  0.11015266540E+04  0.00000000000E+00 0.  1.
         24    2    1    2    0    0 -0.79361193924E+03 -0.27486115508E+03 -0.49830504135E+03  0.97987110107E+03  0.80441878360E+02 0.  0.
        254    2    1    2    0    0  0.79361193924E+03  0.27486115508E+03  0.67777987296E+03  0.14026570385E+04  0.89593116186E+03 0.  0.
         23    2    4    4    0    0  0.73462604502E+03  0.55391968060E+03  0.46360818403E+03  0.10342894833E+04  0.91212654655E+02 0.  0.
         23    2    4    4    0    0  0.58985894221E+02 -0.27905852552E+03  0.21417168892E+03  0.36836755521E+03  0.92044266573E+02 0.  0.
          2    1    3    3  502    0 -0.24544235919E+03 -0.80030123235E+02 -0.19681034535E+03  0.32462452826E+03  0.00000000000E+00 0. -1.
         -1    1    3    3    0  502 -0.54816958004E+03 -0.19483103184E+03 -0.30149469600E+03  0.65524657280E+03  0.00000000000E+00 0.  1.
         11    1    5    5    0    0  0.72554402739E+03  0.53967218419E+03  0.46594281756E+03  0.10172329681E+04  0.00000000000E+00 0.  1.
        -11    1    5    5    0    0  0.90820176301E+01  0.14247496411E+02 -0.23346335278E+01  0.17056515234E+02  0.00000000000E+00 0. -1.
          1    1    6    6  503    0 -0.20564890225E+02 -0.10173825257E+03  0.92822504673E+02  0.13924655874E+03  0.00000000000E+00 0. -1.
         -1    1    6    6    0  503  0.79550784445E+02 -0.17732027295E+03  0.12134918425E+03  0.22912099647E+03  0.00000000000E+00 0.  1.
<mgrwt>
<rscale>  0 0.23757586E+04</rscale>
<asrwt>0</asrwt>
<pdfrwt beam="1">  1        2 0.19707715E+00 0.23757586E+04</pdfrwt>
<pdfrwt beam="2">  1       -1 0.16946564E+00 0.23757586E+04</pdfrwt>
<totfact> 0.43243838E+00</totfact>
</mgrwt>
</event>
<event>
12    6  0.1450532E-007  0.1442656E+04  0.7818608E-02  0.8923508E-01
          2   -1    0    0  501    0  0.00000000000E+00  0.00000000000E+00  0.11654472214E+04  0.11654472214E+04  0.00000000000E+00 0. -1.
         -1   -1    0    0    0  501 -0.00000000000E+00 -0.00000000000E+00 -0.44645041964E+03  0.44645041964E+03  0.00000000000E+00 0.  1.
         24    2    1    2    0    0  0.15195532967E+03 -0.39337359224E+03  0.34223787930E+03  0.54897754733E+03  0.80102285612E+02 0.  0.
        254    2    1    2    0    0 -0.15195532967E+03  0.39337359224E+03  0.37675892250E+03  0.10629200937E+04  0.90001035256E+03 0.  0.
         23    2    4    4    0    0  0.77524681777E+02  0.44893605798E+03 -0.14185760826E+03  0.48584142487E+03  0.91458453212E+02 0.  0.
         23    2    4    4    0    0 -0.22948001145E+03 -0.55562465736E+02  0.51861653076E+03  0.57707866888E+03  0.91150539475E+02 0.  0.
          2    1    3    3  502    0  0.11421862411E+03 -0.23849620296E+03  0.17038372713E+03  0.31457423192E+03  0.00000000000E+00 0. -1.
         -1    1    3    3    0  502  0.37736705561E+02 -0.15487738929E+03  0.17185415217E+03  0.23440331541E+03  0.00000000000E+00 0.  1.
         11    1    5    5    0    0  0.63064154348E+02  0.31901465751E+03 -0.14268608218E+03  0.35511513248E+03  0.00000000000E+00 0. -1.
        -11    1    5    5    0    0  0.14460527429E+02  0.12992140047E+03  0.82847392287E+00  0.13072629239E+03  0.00000000000E+00 0.  1.
          2    1    6    6  503    0 -0.16181014128E+03  0.16643012710E+01  0.37339573405E+03  0.40695167518E+03  0.00000000000E+00 0.  1.
         -2    1    6    6    0  503 -0.67669870168E+02 -0.57226767007E+02  0.14522079670E+03  0.17012699370E+03  0.00000000000E+00 0. -1.
<mgrwt>
<rscale>  0 0.14426564E+04</rscale>
<asrwt>0</asrwt>
<pdfrwt beam="1">  1        2 0.17929957E+00 0.14426564E+04</pdfrwt>
<pdfrwt beam="2">  1       -1 0.68684680E-01 0.14426564E+04</pdfrwt>
<totfact> 0.47164453E+01</totfact>
</mgrwt>
</event>
<event>
12    6  0.1450532E-007  0.1909562E+04  0.7818608E-02  0.8650111E-01
         -1   -1    0    0    0  501 -0.00000000000E+00  0.00000000000E+00  0.42080388409E+03  0.42080388409E+03  0.00000000000E+00 0.  1.
          2   -1    0    0  501    0  0.00000000000E+00 -0.00000000000E+00 -0.21663462480E+04  0.21663462480E+04  0.00000000000E+00 0. -1.
         24    2    1    2    0    0 -0.69952657639E+03 -0.14728679120E+03 -0.47054428695E+03  0.85938190550E+03  0.78067301549E+02 0.  0.
        254    2    1    2    0    0  0.69952657639E+03  0.14728679120E+03 -0.12749980770E+04  0.17277682266E+04  0.92115803133E+03 0.  0.
         23    2    4    4    0    0  0.56686209572E+03  0.40716662348E+03 -0.12296616793E+04  0.14166555415E+04  0.87907809778E+02 0.  0.
         23    2    4    4    0    0  0.13266448067E+03 -0.25987983228E+03 -0.45336397736E+02  0.31111268512E+03  0.97971027501E+02 0.  0.
          4    1    3    3  502    0 -0.11162077823E+03 -0.17438996674E+01 -0.51814044961E+02  0.12307288318E+03  0.00000000000E+00 0. -1.
         -3    1    3    3    0  502 -0.58790579816E+03 -0.14554289153E+03 -0.41873024199E+03  0.73630902231E+03  0.00000000000E+00 0.  1.
         11    1    5    5    0    0  0.24530160974E+03  0.14643241264E+03 -0.57543095307E+03  0.64244541633E+03  0.00000000000E+00 0.  1.
        -11    1    5    5    0    0  0.32156048598E+03  0.26073421083E+03 -0.65423072620E+03  0.77421012519E+03  0.00000000000E+00 0. -1.
          1    1    6    6  503    0  0.12958305276E+03 -0.21389195491E+03 -0.54232148633E+01  0.25014185415E+03  0.00000000000E+00 0. -1.
         -1    1    6    6    0  503  0.30814279108E+01 -0.45987877367E+02 -0.39913182873E+02  0.60970830975E+02  0.00000000000E+00 0.  1.
<mgrwt>
<rscale>  0 0.19095622E+04</rscale>
<asrwt>0</asrwt>
<pdfrwt beam="1">  1        2 0.33328404E+00 0.19095622E+04</pdfrwt>
<pdfrwt beam="2">  1       -1 0.64739059E-01 0.19095622E+04</pdfrwt>
<totfact> 0.13905610E+01</totfact>
</mgrwt>
</event>
<event>
12    6  0.1450532E-007  0.1356685E+04  0.7818608E-02  0.8985783E-01
          2   -1    0    0  501    0  0.00000000000E+00  0.00000000000E+00  0.19681434222E+04  0.19681434222E+04  0.00000000000E+00 0. -1.
         -1   -1    0    0    0  501 -0.00000000000E+00 -0.00000000000E+00 -0.23379839809E+03  0.23379839809E+03  0.00000000000E+00 0.  1.
         24    2    1    2    0    0  0.15170515881E+03  0.32808409516E+03  0.65628796103E+03  0.75345027321E+03  0.79497155297E+02 0.  0.
        254    2    1    2    0    0 -0.15170515881E+03 -0.32808409516E+03  0.10780570630E+04  0.14484915471E+04  0.89736676002E+03 0.  0.
         23    2    4    4    0    0  0.30002328633E+03 -0.36720062809E+03  0.70520738887E+03  0.85444127507E+03  0.88894080849E+02 0.  0.
         23    2    4    4    0    0 -0.45172844514E+03  0.39116532927E+02  0.37284967418E+03  0.59405027198E+03  0.91050287262E+02 0.  0.
          2    1    3    3  502    0  0.44727216468E+02  0.40649048512E+02  0.14706474960E+03  0.15899971576E+03  0.00000000000E+00 0. -1.
         -1    1    3    3    0  502  0.10697794234E+03  0.28743504665E+03  0.50922321143E+03  0.59445055745E+03  0.00000000000E+00 0.  1.
         11    1    5    5    0    0  0.16880644634E+03 -0.26375933376E+03  0.49775400411E+03  0.58806772661E+03  0.00000000000E+00 0.  1.
        -11    1    5    5    0    0  0.13121683999E+03 -0.10344129433E+03  0.20745338476E+03  0.26637354846E+03  0.00000000000E+00 0. -1.
          1    1    6    6  503    0 -0.27581575997E+03 -0.24715535579E+01  0.27047108843E+03  0.38630952835E+03  0.00000000000E+00 0. -1.
         -1    1    6    6    0  503 -0.17591268518E+03  0.41588086485E+02  0.10237858575E+03  0.20774074363E+03  0.00000000000E+00 0.  1.
<mgrwt>
<rscale>  0 0.13566853E+04</rscale>
<asrwt>0</asrwt>
<pdfrwt beam="1">  1        2 0.30279128E+00 0.13566853E+04</pdfrwt>
<pdfrwt beam="2">  1       -1 0.35968986E-01 0.13566853E+04</pdfrwt>
<totfact> 0.57216428E+01</totfact>
</mgrwt>
</event>
<event>
12    6  0.1450532E-007  0.1795068E+04  0.7818608E-02  0.8708927E-01
         -1   -1    0    0    0  501 -0.00000000000E+00  0.00000000000E+00  0.15050351734E+04  0.15050351734E+04  0.00000000000E+00 0.  1.
          2   -1    0    0  501    0  0.00000000000E+00 -0.00000000000E+00 -0.53524823705E+03  0.53524823705E+03  0.00000000000E+00 0. -1.
         24    2    1    2    0    0  0.48400171123E+03 -0.23884218102E+03  0.81078712526E+03  0.97739203016E+03  0.81339868567E+02 0.  0.
        254    2    1    2    0    0 -0.48400171123E+03  0.23884218102E+03  0.15899981113E+03  0.10628913803E+04  0.90175046578E+03 0.  0.
         23    2    4    4    0    0  0.69229910190E+02 -0.24715962994E+03 -0.79652680307E+02  0.28351520771E+03  0.90308694983E+02 0.  0.
         23    2    4    4    0    0 -0.55323162142E+03  0.48600181095E+03  0.23865249144E+03  0.77937617261E+03  0.90604743696E+02 0.  0.
          2    1    3    3  502    0  0.19331821611E+03 -0.72796131794E+02  0.25019782677E+03  0.32445363614E+03  0.00000000000E+00 0. -1.
         -1    1    3    3    0  502  0.29068349512E+03 -0.16604604922E+03  0.56058929849E+03  0.65293839401E+03  0.00000000000E+00 0.  1.
         11    1    5    5    0    0  0.24655249334E+02 -0.16933734740E+03 -0.12694778654E+02  0.17159305332E+03  0.00000000000E+00 0.  1.
        -11    1    5    5    0    0  0.44574660856E+02 -0.77822282542E+02 -0.66957901653E+02  0.11192215439E+03  0.00000000000E+00 0. -1.
          2    1    6    6  503    0 -0.10564164153E+03  0.51615830548E+02  0.49825989448E+02  0.12769878469E+03  0.00000000000E+00 0. -1.
         -2    1    6    6    0  503 -0.44758997989E+03  0.43438598041E+03  0.18882650199E+03  0.65167738792E+03  0.00000000000E+00 0.  1.
<mgrwt>
<rscale>  0 0.17950682E+04</rscale>
<asrwt>0</asrwt>
<pdfrwt beam="1">  1        2 0.82345883E-01 0.17950682E+04</pdfrwt>
<pdfrwt beam="2">  1       -1 0.23154387E+00 0.17950682E+04</pdfrwt>
<totfact> 0.56555460E+00</totfact>
</mgrwt>
</event>
<event>
12    6  0.1450532E-007  0.1137510E+04  0.7818608E-02  0.9169384E-01
         -1   -1    0    0    0  501 -0.00000000000E+00  0.00000000000E+00  0.61683644161E+03  0.61683644161E+03  0.00000000000E+00 0.  1.
          2   -1    0    0  501    0  0.00000000000E+00 -0.00000000000E+00 -0.52442150535E+03  0.52442150535E+03  0.00000000000E+00 0. -1.
         24    2    1    2    0    0  0.25459293215E+02 -0.19155018450E+03 -0.58339050532E+02  0.21757130751E+03  0.81204558012E+02 0.  0.
        254    2    1    2    0    0 -0.25459293215E+02  0.19155018450E+03  0.15075398679E+03  0.92368663945E+03  0.89057879751E+03 0.  0.
         23    2    4    4    0    0 -0.33825417650E+03 -0.94817625244E+01  0.34688418778E+03  0.49353274460E+03  0.93488707967E+02 0.  0.
         23    2    4    4    0    0  0.31279488329E+03  0.20103194702E+03 -0.19613020098E+03  0.43015389485E+03  0.91163779981E+02 0.  0.
          4    1    3    3  502    0 -0.85176297894E+01 -0.16785080673E+03 -0.43957572523E+02  0.17372021045E+03  0.00000000000E+00 0. -1.
         -3    1    3    3    0  502  0.33976923005E+02 -0.23699377769E+02 -0.14381478009E+02  0.43851097059E+02  0.00000000000E+00 0.  1.
         11    1    5    5    0    0 -0.24321303893E+02  0.32614981242E+01 -0.12656192144E+01  0.24571629679E+02  0.00000000000E+00 0. -1.
        -11    1    5    5    0    0 -0.31393287261E+03 -0.12743260649E+02  0.34814980699E+03  0.46896111492E+03  0.00000000000E+00 0.  1.
          3    1    6    6  503    0  0.14165101188E+02  0.12331303998E+02  0.98778961126E+01  0.21219895890E+02  0.00000000000E+00 0. -1.
         -3    1    6    6    0  503  0.29862978210E+03  0.18870064303E+03 -0.20600809710E+03  0.40893399896E+03  0.00000000000E+00 0.  1.
<mgrwt>
<rscale>  0 0.11375101E+04</rscale>
<asrwt>0</asrwt>
<pdfrwt beam="1">  1        2 0.80680232E-01 0.11375101E+04</pdfrwt>
<pdfrwt beam="2">  1       -1 0.94897914E-01 0.11375101E+04</pdfrwt>
<totfact> 0.70845782E+01</totfact>
</mgrwt>
</event>
<event>
12    6  0.1450532E-007  0.2323593E+04  0.7818608E-02  0.8468676E-01
          2   -1    0    0  501    0  0.00000000000E+00  0.00000000000E+00  0.27023251148E+04  0.27023251148E+04  0.00000000000E+00 0. -1.
         -1   -1    0    0    0  501 -0.00000000000E+00 -0.00000000000E+00 -0.49948503798E+03  0.49948503798E+03  0.00000000000E+00 0.  1.
         24    2    1    2    0    0 -0.61266199034E+03 -0.13291684540E+03  0.19854255673E+04  0.20833128552E+04  0.72499427202E+02 0.  0.
        254    2    1    2    0    0  0.61266199034E+03  0.13291684540E+03  0.21741450952E+03  0.11184972976E+04  0.90041409011E+03 0.  0.
         23    2    4    4    0    0  0.22705747744E+03  0.49765581690E+03  0.16321864492E+03  0.57718609263E+03  0.85364215704E+02 0.  0.
         23    2    4    4    0    0  0.38560451290E+03 -0.36473897150E+03  0.54195864603E+02  0.54131120501E+03  0.91407172751E+02 0.  0.
          4    1    3    3  502    0 -0.28987619305E+03 -0.62739504016E+02  0.10594860386E+04  0.11002159419E+04  0.00000000000E+00 0. -1.
         -3    1    3    3    0  502 -0.32278579729E+03 -0.70177341383E+02  0.92593952871E+03  0.98309691333E+03  0.00000000000E+00 0.  1.
         11    1    5    5    0    0  0.19332824361E+03  0.47529232100E+03  0.14923070458E+03  0.53436729257E+03  0.00000000000E+00 0. -1.
        -11    1    5    5    0    0  0.33729233832E+02  0.22363495894E+02  0.13987940333E+02  0.42818800056E+02  0.00000000000E+00 0.  1.
          4    1    6    6  503    0  0.37813504080E+03 -0.32926305143E+03  0.42405080123E+02  0.50318829173E+03  0.00000000000E+00 0. -1.
         -4    1    6    6    0  503  0.74694721032E+01 -0.35475920066E+02  0.11790784480E+02  0.38122913277E+02  0.00000000000E+00 0.  1.
<mgrwt>
<rscale>  0 0.23235929E+04</rscale>
<asrwt>0</asrwt>
<pdfrwt beam="1">  1        2 0.41574232E+00 0.23235929E+04</pdfrwt>
<pdfrwt beam="2">  1       -1 0.76843853E-01 0.23235929E+04</pdfrwt>
<totfact> 0.46302389E+00</totfact>
</mgrwt>
</event>
<event>
12    6  0.2552580E-007  0.2447103E+04  0.7818608E-02  0.8422076E-01
         -1   -1    0    0    0  501 -0.00000000000E+00  0.00000000000E+00  0.81309330473E+03  0.81309330473E+03  0.00000000000E+00 0.  1.
          2   -1    0    0  501    0  0.00000000000E+00 -0.00000000000E+00 -0.18412137334E+04  0.18412137334E+04  0.00000000000E+00 0. -1.
         24    2    1    2    0    0  0.26672994926E+03  0.95477149619E+03 -0.44363588898E+02  0.99578095903E+03  0.82934399252E+02 0.  0.
        254    2    1    2    0    0 -0.26672994926E+03 -0.95477149619E+03 -0.98375683974E+03  0.16585260791E+04  0.89453773507E+03 0.  0.
         23    2    4    4    0    0 -0.51432363953E+02 -0.31564434950E+02  0.14493196777E+03  0.18212853598E+03  0.92325114255E+02 0.  0.
         23    2    4    4    0    0 -0.21529758530E+03 -0.92320706124E+03 -0.11286888075E+04  0.14763975431E+04  0.84539652715E+02 0.  0.
          4    1    3    3  502    0  0.16030542845E+02  0.11017552696E+03  0.17011750503E+02  0.11262781495E+03  0.00000000000E+00 0. -1.
         -3    1    3    3    0  502  0.25069940641E+03  0.84459596923E+03 -0.61375339401E+02  0.88315314408E+03  0.00000000000E+00 0.  1.
         11    1    5    5    0    0 -0.47298206665E+02 -0.33237591926E+02  0.15804081688E+03  0.16828178056E+03  0.00000000000E+00 0.  1.
        -11    1    5    5    0    0 -0.41341572879E+01  0.16731569766E+01 -0.13108849106E+02  0.13846755419E+02  0.00000000000E+00 0. -1.
          2    1    6    6  503    0 -0.46954234244E+02 -0.37000391200E+03 -0.41886977597E+03  0.56085602808E+03  0.00000000000E+00 0. -1.
         -2    1    6    6    0  503 -0.16834335106E+03 -0.55320314924E+03 -0.70981903154E+03  0.91554151501E+03  0.00000000000E+00 0.  1.
<mgrwt>
<rscale>  0 0.24471032E+04</rscale>
<asrwt>0</asrwt>
<pdfrwt beam="1">  1        2 0.28326365E+00 0.24471032E+04</pdfrwt>
<pdfrwt beam="2">  1       -1 0.12509128E+00 0.24471032E+04</pdfrwt>
<totfact> 0.46623205E+00</totfact>
</mgrwt>
</event>
<event>
12    6  0.1450532E-007  0.2482483E+04  0.7818608E-02  0.8409253E-01
          2   -1    0    0  501    0  0.00000000000E+00  0.00000000000E+00  0.17257248654E+04  0.17257248654E+04  0.00000000000E+00 0. -1.
         -1   -1    0    0    0  501 -0.00000000000E+00 -0.00000000000E+00 -0.89277283541E+03  0.89277283541E+03  0.00000000000E+00 0.  1.
         24    2    1    2    0    0 -0.15695242708E+03  0.67932483560E+02  0.14838683141E+04  0.14958360550E+04  0.80071487273E+02 0.  0.
        254    2    1    2    0    0  0.15695242708E+03 -0.67932483560E+02 -0.65091628407E+03  0.11226616459E+04  0.89857012836E+03 0.  0.
         23    2    4    4    0    0 -0.25796551097E+03 -0.30844870228E+03 -0.20061344020E+03  0.45810898507E+03  0.89057751041E+02 0.  0.
         23    2    4    4    0    0  0.41491793806E+03  0.24051621872E+03 -0.45030284387E+03  0.66455266082E+03  0.94088474359E+02 0.  0.
          2    1    3    3  502    0 -0.11908705384E+03  0.29976603497E+02  0.12441318321E+04  0.12501777229E+04  0.00000000000E+00 0. -1.
         -1    1    3    3    0  502 -0.37865373245E+02  0.37955880063E+02  0.23973648194E+03  0.24565833203E+03  0.00000000000E+00 0.  1.
         11    1    5    5    0    0 -0.11097974749E+03 -0.20050916784E+03 -0.10284011825E+03  0.25119020814E+03  0.00000000000E+00 0. -1.
        -11    1    5    5    0    0 -0.14698576349E+03 -0.10793953444E+03 -0.97773321946E+02  0.20691877693E+03  0.00000000000E+00 0.  1.
          2    1    6    6  503    0  0.71549323669E+02  0.36468257202E+02 -0.32767531243E+02  0.86734944542E+02  0.00000000000E+00 0.  1.
         -2    1    6    6    0  503  0.34336861439E+03  0.20404796152E+03 -0.41753531263E+03  0.57781771627E+03  0.00000000000E+00 0. -1.
<mgrwt>
<rscale>  0 0.24824829E+04</rscale>
<asrwt>0</asrwt>
<pdfrwt beam="1">  1        2 0.26549613E+00 0.24824829E+04</pdfrwt>
<pdfrwt beam="2">  1       -1 0.13734967E+00 0.24824829E+04</pdfrwt>
<totfact> 0.42511689E+00</totfact>
</mgrwt>
</event>
<event>
12    6  0.1450532E-007  0.1580086E+04  0.7818608E-02  0.8832876E-01
         -1   -1    0    0    0  501 -0.00000000000E+00  0.00000000000E+00  0.48415861490E+03  0.48415861490E+03  0.00000000000E+00 0.  1.
          2   -1    0    0  501    0  0.00000000000E+00 -0.00000000000E+00 -0.12891813305E+04  0.12891813305E+04  0.00000000000E+00 0. -1.
         24    2    1    2    0    0 -0.18464748809E+03  0.14165676186E+01  0.26638075851E+03  0.33363633744E+03  0.79106230070E+02 0.  0.
        254    2    1    2    0    0  0.18464748809E+03 -0.14165676186E+01 -0.10714034741E+04  0.14397036080E+04  0.94379254763E+03 0.  0.
         23    2    4    4    0    0 -0.25868660700E+03  0.28377424518E+03 -0.27794670390E+03  0.48276216088E+03  0.91424017067E+02 0.  0.
         23    2    4    4    0    0  0.44333409510E+03 -0.28519081280E+03 -0.79345677025E+03  0.95694144712E+03  0.91018500251E+02 0.  0.
          4    1    3    3  502    0  0.12006588140E+01 -0.95939024110E+01  0.13677900974E+01  0.97650086948E+01  0.00000000000E+00 0. -1.
         -3    1    3    3    0  502 -0.18584814691E+03  0.11010470030E+02  0.26501296841E+03  0.32387132875E+03  0.00000000000E+00 0.  1.
         11    1    5    5    0    0 -0.10896145137E+03  0.14495135183E+03 -0.79385151833E+02  0.19795326371E+03  0.00000000000E+00 0.  1.
        -11    1    5    5    0    0 -0.14972515563E+03  0.13882289336E+03 -0.19856155206E+03  0.28480889717E+03  0.00000000000E+00 0. -1.
          3    1    6    6  503    0  0.23264285994E+03 -0.12905083212E+03 -0.32423520324E+03  0.41941063956E+03  0.00000000000E+00 0. -1.
         -3    1    6    6    0  503  0.21069123515E+03 -0.15613998068E+03 -0.46922156700E+03  0.53753080756E+03  0.00000000000E+00 0.  1.
<mgrwt>
<rscale>  0 0.15800864E+04</rscale>
<asrwt>0</asrwt>
<pdfrwt beam="1">  1        2 0.19833559E+00 0.15800864E+04</pdfrwt>
<pdfrwt beam="2">  1       -1 0.74485941E-01 0.15800864E+04</pdfrwt>
<totfact> 0.33312869E+01</totfact>
</mgrwt>
</event>
<event>
12    6  0.1450532E-007  0.2117417E+04  0.7818608E-02  0.8553610E-01
          2   -1    0    0  501    0  0.00000000000E+00  0.00000000000E+00  0.92285010760E+03  0.92285010760E+03  0.00000000000E+00 0. -1.
         -1   -1    0    0    0  501 -0.00000000000E+00 -0.00000000000E+00 -0.12145668747E+04  0.12145668747E+04  0.00000000000E+00 0.  1.
         24    2    1    2    0    0 -0.65101385492E+03  0.31284216312E+03  0.35395396000E+03  0.80840301236E+03  0.80887367766E+02 0.  0.
        254    2    1    2    0    0  0.65101385492E+03 -0.31284216312E+03 -0.64567072707E+03  0.13290139699E+04  0.90977919634E+03 0.  0.
         23    2    4    4    0    0  0.62108138161E+03 -0.25717512985E+02 -0.77698144037E+03  0.99912168407E+03  0.90224762960E+02 0.  0.
         23    2    4    4    0    0  0.29932473315E+02 -0.28712465014E+03  0.13131071330E+03  0.32989228584E+03  0.90828955458E+02 0.  0.
          2    1    3    3  502    0 -0.40987506412E+03  0.21919113627E+03  0.26386823665E+03  0.53447990488E+03  0.00000000000E+00 0. -1.
         -1    1    3    3    0  502 -0.24113879080E+03  0.93651026852E+02  0.90085723347E+02  0.27392310748E+03  0.00000000000E+00 0.  1.
         11    1    5    5    0    0  0.24039963053E+03 -0.21242965757E+00 -0.37024521966E+03  0.44144484385E+03  0.00000000000E+00 0.  1.
        -11    1    5    5    0    0  0.38068175107E+03 -0.25505083327E+02 -0.40673622072E+03  0.55767684022E+03  0.00000000000E+00 0. -1.
          4    1    6    6  503    0  0.40538369647E+02 -0.12694397313E+03  0.99329664718E+02  0.16620623942E+03  0.00000000000E+00 0.  1.
         -4    1    6    6    0  503 -0.10605896332E+02 -0.16018067701E+03  0.31981048582E+02  0.16368604642E+03  0.00000000000E+00 0. -1.
<mgrwt>
<rscale>  0 0.21174165E+04</rscale>
<asrwt>0</asrwt>
<pdfrwt beam="1">  1        2 0.14197694E+00 0.21174165E+04</pdfrwt>
<pdfrwt beam="2">  1       -1 0.18685644E+00 0.21174165E+04</pdfrwt>
<totfact> 0.55243148E+00</totfact>
</mgrwt>
</event>
<event>
12    6  0.1450532E-007  0.1194853E+04  0.7818608E-02  0.9117373E-01
          2   -1    0    0  501    0  0.00000000000E+00  0.00000000000E+00  0.16951600256E+04  0.16951600256E+04  0.00000000000E+00 0. -1.
         -1   -1    0    0    0  501 -0.00000000000E+00 -0.00000000000E+00 -0.21055160852E+03  0.21055160852E+03  0.00000000000E+00 0.  1.
         24    2    1    2    0    0 -0.31070133392E+02 -0.61362886550E+02  0.69150125075E+03  0.69951061633E+03  0.80064758440E+02 0.  0.
        254    2    1    2    0    0  0.31070133392E+02  0.61362886550E+02  0.79310716631E+03  0.12062010178E+04  0.90618494855E+03 0.  0.
         23    2    4    4    0    0  0.23721207348E+03 -0.47644426416E+02 -0.10141106514E+03  0.27724363217E+03  0.89667543000E+02 0.  0.
         23    2    4    4    0    0 -0.20614194009E+03  0.10900731297E+03  0.89451823146E+03  0.92895738560E+03  0.91770714885E+02 0.  0.
          4    1    3    3  502    0  0.23146001827E+02 -0.18150109240E+02  0.33782249782E+03  0.33910058080E+03  0.00000000000E+00 0. -1.
         -3    1    3    3    0  502 -0.54216135219E+02 -0.43212777310E+02  0.35367875293E+03  0.36041003554E+03  0.00000000000E+00 0.  1.
         11    1    5    5    0    0  0.14935193349E+03 -0.11845868335E+02 -0.17965094921E+02  0.15089423206E+03  0.00000000000E+00 0. -1.
        -11    1    5    5    0    0  0.87860139997E+02 -0.35798558081E+02 -0.83445970224E+02  0.12634940011E+03  0.00000000000E+00 0.  1.
          1    1    6    6  503    0 -0.19315541434E+03  0.93322746114E+02  0.87440959983E+03  0.90033899022E+03  0.00000000000E+00 0. -1.
         -1    1    6    6    0  503 -0.12986525750E+02  0.15684566852E+02  0.20108631623E+02  0.28618395380E+02  0.00000000000E+00 0.  1.
<mgrwt>
<rscale>  0 0.11948534E+04</rscale>
<asrwt>0</asrwt>
<pdfrwt beam="1">  1        2 0.26079384E+00 0.11948534E+04</pdfrwt>
<pdfrwt beam="2">  1       -1 0.32392556E-01 0.11948534E+04</pdfrwt>
<totfact> 0.98863406E+01</totfact>
</mgrwt>
</event>
<event>
12    6  0.1450532E-007  0.1742155E+04  0.7818608E-02  0.8737681E-01
          2   -1    0    0  501    0  0.00000000000E+00  0.00000000000E+00  0.15861033810E+04  0.15861033810E+04  0.00000000000E+00 0. -1.
         -1   -1    0    0    0  501 -0.00000000000E+00 -0.00000000000E+00 -0.47838976896E+03  0.47838976896E+03  0.00000000000E+00 0.  1.
         24    2    1    2    0    0 -0.38887721881E+02  0.28413458717E+03 -0.26148443712E+03  0.39690369226E+03  0.83148731382E+02 0.  0.
        254    2    1    2    0    0  0.38887721881E+02 -0.28413458717E+03  0.13691980491E+04  0.16675894577E+04  0.90769300045E+03 0.  0.
         23    2    4    4    0    0 -0.35555586295E+03 -0.30294165774E+03  0.41957822781E+03  0.63463877191E+03  0.92341008695E+02 0.  0.
         23    2    4    4    0    0  0.39444358483E+03  0.18807070564E+02  0.94961982132E+03  0.10329506858E+04  0.96280146722E+02 0.  0.
          4    1    3    3  502    0 -0.10421278975E+01  0.50821286063E+02 -0.10052994537E+02  0.51816520983E+02  0.00000000000E+00 0. -1.
         -3    1    3    3    0  502 -0.37845593983E+02  0.23331330111E+03 -0.25143144258E+03  0.34508717127E+03  0.00000000000E+00 0.  1.
         11    1    5    5    0    0 -0.16408313226E+03 -0.10176570850E+03  0.12626155023E+03  0.23069788206E+03  0.00000000000E+00 0. -1.
        -11    1    5    5    0    0 -0.19147273069E+03 -0.20117594924E+03  0.29331667757E+03  0.40394088985E+03  0.00000000000E+00 0.  1.
          1    1    6    6  503    0  0.31355995971E+03  0.22910540327E+02  0.64200261683E+03  0.71485110422E+03  0.00000000000E+00 0.  1.
         -1    1    6    6    0  503  0.80883625122E+02 -0.41034697623E+01  0.30761720449E+03  0.31809958154E+03  0.00000000000E+00 0. -1.
<mgrwt>
<rscale>  0 0.17421546E+04</rscale>
<asrwt>0</asrwt>
<pdfrwt beam="1">  1        2 0.24401590E+00 0.17421546E+04</pdfrwt>
<pdfrwt beam="2">  1       -1 0.73598427E-01 0.17421546E+04</pdfrwt>
<totfact> 0.22815399E+01</totfact>
</mgrwt>
</event>
<event>
12    6  0.1450532E-007  0.1583316E+04  0.7818608E-02  0.8830864E-01
         -1   -1    0    0    0  501 -0.00000000000E+00  0.00000000000E+00  0.55958393649E+03  0.55958393649E+03  0.00000000000E+00 0.  1.
          2   -1    0    0  501    0  0.00000000000E+00 -0.00000000000E+00 -0.11199787261E+04  0.11199787261E+04  0.00000000000E+00 0. -1.
         24    2    1    2    0    0  0.58786601214E+02 -0.45192159632E+03 -0.48498133147E+03  0.67021329442E+03  0.79309359102E+02 0.  0.
        254    2    1    2    0    0 -0.58786601214E+02  0.45192159632E+03 -0.75413458119E+02  0.10093493682E+04  0.89744635696E+03 0.  0.
         23    2    4    4    0    0  0.29008165597E+03  0.51716380856E+03  0.92019959182E+02  0.60663180462E+03  0.89043256190E+02 0.  0.
         23    2    4    4    0    0 -0.34886825719E+03 -0.65242212242E+02 -0.16743341730E+03  0.40271756353E+03  0.90453742978E+02 0.  0.
          2    1    3    3  502    0  0.54081429424E+02 -0.32800675362E+03 -0.39888090163E+03  0.51924869293E+03  0.00000000000E+00 0. -1.
         -1    1    3    3    0  502  0.47051717905E+01 -0.12391484271E+03 -0.86100429839E+02  0.15096460149E+03  0.00000000000E+00 0.  1.
         11    1    5    5    0    0  0.16030363986E+03  0.25775852596E+03  0.89874717575E+02  0.31656623244E+03  0.00000000000E+00 0. -1.
        -11    1    5    5    0    0  0.12977801611E+03  0.25940528260E+03  0.21452416071E+01  0.29006557218E+03  0.00000000000E+00 0.  1.
          4    1    6    6  503    0 -0.14580924996E+03 -0.46409845935E+02 -0.11705842919E+03  0.19265743437E+03  0.00000000000E+00 0. -1.
         -4    1    6    6    0  503 -0.20305900723E+03 -0.18832366308E+02 -0.50374988108E+02  0.21006012916E+03  0.00000000000E+00 0.  1.
<mgrwt>
<rscale>  0 0.15833156E+04</rscale>
<asrwt>0</asrwt>
<pdfrwt beam="1">  1        2 0.17230442E+00 0.15833156E+04</pdfrwt>
<pdfrwt beam="2">  1       -1 0.86089836E-01 0.15833156E+04</pdfrwt>
<totfact> 0.30887632E+01</totfact>
</mgrwt>
</event>
<event>
12    6  0.1450532E-007  0.1484839E+04  0.7818608E-02  0.8894598E-01
          2   -1    0    0  501    0  0.00000000000E+00  0.00000000000E+00  0.29722391766E+03  0.29722391766E+03  0.00000000000E+00 0. -1.
         -1   -1    0    0    0  501 -0.00000000000E+00 -0.00000000000E+00 -0.18544506355E+04  0.18544506355E+04  0.00000000000E+00 0.  1.
         24    2    1    2    0    0  0.97531337347E+01 -0.65062884282E+02  0.17276595154E+03  0.20154832635E+03  0.80282945358E+02 0.  0.
        254    2    1    2    0    0 -0.97531337347E+01  0.65062884282E+02 -0.17299926694E+04  0.19501262268E+04  0.89765770859E+03 0.  0.
         23    2    4    4    0    0 -0.34292757665E+03  0.25049555639E+03 -0.52046339655E+03  0.67818720190E+03  0.93318739127E+02 0.  0.
         23    2    4    4    0    0  0.33317444292E+03 -0.18543267210E+03 -0.12095292728E+04  0.12719390249E+04  0.97351609772E+02 0.  0.
          4    1    3    3  502    0  0.47541804249E+01 -0.74308533580E+02  0.17553865416E+03  0.19067820929E+03  0.00000000000E+00 0. -1.
         -3    1    3    3    0  502  0.49989533097E+01  0.92456492983E+01 -0.27727026183E+01  0.10870117062E+02  0.00000000000E+00 0.  1.
         11    1    5    5    0    0 -0.23499748890E+03  0.16415438607E+03 -0.41478653732E+03  0.50420070785E+03  0.00000000000E+00 0.  1.
        -11    1    5    5    0    0 -0.10793008776E+03  0.86341170317E+02 -0.10567685923E+03  0.17398649405E+03  0.00000000000E+00 0. -1.
          2    1    6    6  503    0  0.95038872783E+02 -0.90940399733E+02 -0.51915861052E+03  0.53556344771E+03  0.00000000000E+00 0. -1.
         -2    1    6    6    0  503  0.23813557014E+03 -0.94492272371E+02 -0.69037066228E+03  0.73637557716E+03  0.00000000000E+00 0.  1.
<mgrwt>
<rscale>  0 0.14848395E+04</rscale>
<asrwt>0</asrwt>
<pdfrwt beam="1">  1        2 0.45726756E-01 0.14848395E+04</pdfrwt>
<pdfrwt beam="2">  1       -1 0.28530010E+00 0.14848395E+04</pdfrwt>
<totfact> 0.50637161E+00</totfact>
</mgrwt>
</event>
<event>
12    6  0.1450532E-007  0.1338584E+04  0.7818608E-02  0.8999515E-01
          2   -1    0    0  501    0  0.00000000000E+00  0.00000000000E+00  0.22346147897E+04  0.22346147897E+04  0.00000000000E+00 0. -1.
         -1   -1    0    0    0  501 -0.00000000000E+00 -0.00000000000E+00 -0.20046048028E+03  0.20046048028E+03  0.00000000000E+00 0.  1.
         24    2    1    2    0    0 -0.15686147570E+03 -0.32508506135E+03  0.54803042918E+03  0.66100670368E+03  0.79414679595E+02 0.  0.
        254    2    1    2    0    0  0.15686147570E+03  0.32508506135E+03  0.14861238803E+04  0.17740685663E+04  0.89914919276E+03 0.  0.
         23    2    4    4    0    0  0.58439764407E+02  0.35878960472E+03  0.10948039563E+03  0.39057048453E+03  0.91728729649E+02 0.  0.
         23    2    4    4    0    0  0.98421711294E+02 -0.33704543365E+02  0.13766434846E+04  0.13834980818E+04  0.89982381808E+02 0.  0.
          2    1    3    3  502    0  0.66380694772E+01 -0.29322145205E+02  0.29864546433E+02  0.42376211481E+02  0.00000000000E+00 0. -1.
         -1    1    3    3    0  502 -0.16349954518E+03 -0.29576291615E+03  0.51816588274E+03  0.61863049220E+03  0.00000000000E+00 0.  1.
         11    1    5    5    0    0  0.29339921395E+01  0.44895267966E+02 -0.16349873610E+02  0.47869737441E+02  0.00000000000E+00 0.  1.
        -11    1    5    5    0    0  0.55505772268E+02  0.31389433675E+03  0.12583026924E+03  0.34270074709E+03  0.00000000000E+00 0. -1.
          1    1    6    6  503    0  0.87475922390E+02 -0.94363141289E+00  0.62866336854E+03  0.63472085076E+03  0.00000000000E+00 0.  1.
         -1    1    6    6    0  503  0.10945788904E+02 -0.32760911952E+02  0.74798011609E+03  0.74877723103E+03  0.00000000000E+00 0. -1.
<mgrwt>
<rscale>  0 0.13385843E+04</rscale>
<asrwt>0</asrwt>
<pdfrwt beam="1">  1        2 0.34378687E+00 0.13385843E+04</pdfrwt>
<pdfrwt beam="2">  1       -1 0.30840075E-01 0.13385843E+04</pdfrwt>
<totfact> 0.53541297E+01</totfact>
</mgrwt>
</event>
<event>
12    6  0.1450532E-007  0.2573573E+04  0.7818608E-02  0.8377234E-01
          2   -1    0    0  501    0  0.00000000000E+00  0.00000000000E+00  0.16597451641E+04  0.16597451641E+04  0.00000000000E+00 0. -1.
         -1   -1    0    0    0  501 -0.00000000000E+00 -0.00000000000E+00 -0.99763460459E+03  0.99763460459E+03  0.00000000000E+00 0.  1.
         24    2    1    2    0    0  0.40970029939E+03 -0.64048777032E+03 -0.57169779273E+03  0.95467243238E+03  0.80511910200E+02 0.  0.
        254    2    1    2    0    0 -0.40970029939E+03  0.64048777032E+03  0.12338083522E+04  0.17027073363E+04  0.89378426023E+03 0.  0.
         23    2    4    4    0    0 -0.10748748492E+03 -0.19515241887E+03  0.46533345769E+03  0.52436046920E+03  0.93705116206E+02 0.  0.
         23    2    4    4    0    0 -0.30221281447E+03  0.83564018920E+03  0.76847489453E+03  0.11783468671E+04  0.91217129213E+02 0.  0.
          2    1    3    3  502    0  0.48330572810E+02 -0.36194842958E+02 -0.41396221045E+02  0.73209002463E+02  0.00000000000E+00 0. -1.
         -1    1    3    3    0  502  0.36136972658E+03 -0.60429292737E+03 -0.53030157168E+03  0.88146342992E+03  0.00000000000E+00 0.  1.
         11    1    5    5    0    0 -0.50036236204E+01 -0.10310077357E+03  0.17947599825E+03  0.20704212062E+03  0.00000000000E+00 0. -1.
        -11    1    5    5    0    0 -0.10248386130E+03 -0.92051645301E+02  0.28585745944E+03  0.31731834858E+03  0.00000000000E+00 0.  1.
          4    1    6    6  503    0 -0.26319063742E+03  0.61171212758E+03  0.56759011247E+03  0.87499689967E+03  0.00000000000E+00 0. -1.
         -4    1    6    6    0  503 -0.39022177053E+02  0.22392806162E+03  0.20088478206E+03  0.30334996744E+03  0.00000000000E+00 0.  1.
<mgrwt>
<rscale>  0 0.25735728E+04</rscale>
<asrwt>0</asrwt>
<pdfrwt beam="1">  1        2 0.25534541E+00 0.25735728E+04</pdfrwt>
<pdfrwt beam="2">  1       -1 0.15348225E+00 0.25735728E+04</pdfrwt>
<totfact> 0.34170946E+00</totfact>
</mgrwt>
</event>
<event>
12    6  0.1450532E-007  0.1190508E+04  0.7818608E-02  0.9121206E-01
          2   -1    0    0  501    0  0.00000000000E+00  0.00000000000E+00  0.65332539060E+03  0.65332539060E+03  0.00000000000E+00 0. -1.
         -1   -1    0    0    0  501 -0.00000000000E+00 -0.00000000000E+00 -0.54234397023E+03  0.54234397023E+03  0.00000000000E+00 0.  1.
         24    2    1    2    0    0 -0.11216532696E+03  0.55404627191E+02  0.24815710376E+03  0.28957899679E+03  0.81383744996E+02 0.  0.
        254    2    1    2    0    0  0.11216532696E+03 -0.55404627191E+02 -0.13717568339E+03  0.90609036405E+03  0.88686630696E+03 0.  0.
         23    2    4    4    0    0 -0.42197336977E+02 -0.56989753863E+02 -0.49296714595E+03  0.50662220719E+03  0.92849375525E+02 0.  0.
         23    2    4    4    0    0  0.15436266393E+03  0.15851266712E+01  0.35579146256E+03  0.39946815686E+03  0.95691686506E+02 0.  0.
          4    1    3    3  502    0 -0.10558720654E+03  0.74382316878E+02  0.21412363254E+03  0.25006062717E+03  0.00000000000E+00 0. -1.
         -3    1    3    3    0  502 -0.65781204179E+01 -0.18977689687E+02  0.34033471220E+02  0.39518369619E+02  0.00000000000E+00 0.  1.
         11    1    5    5    0    0 -0.43794930916E+02 -0.80835332955E+02 -0.36198221624E+03  0.37347486114E+03  0.00000000000E+00 0. -1.
        -11    1    5    5    0    0  0.15975939395E+01  0.23845579093E+02 -0.13098492972E+03  0.13314734605E+03  0.00000000000E+00 0.  1.
          2    1    6    6  503    0 -0.88112595728E+01  0.20119483714E+01  0.11790415581E+01  0.91146239914E+01  0.00000000000E+00 0. -1.
         -2    1    6    6    0  503  0.16317392351E+03 -0.42682170021E+00  0.35461242100E+03  0.39035353286E+03  0.00000000000E+00 0.  1.
<mgrwt>
<rscale>  0 0.11905076E+04</rscale>
<asrwt>0</asrwt>
<pdfrwt beam="1">  1        2 0.10051160E+00 0.11905076E+04</pdfrwt>
<pdfrwt beam="2">  1       -1 0.83437534E-01 0.11905076E+04</pdfrwt>
<totfact> 0.71867288E+01</totfact>
</mgrwt>
</event>
<event>
12    6  0.1450532E-007  0.2698892E+04  0.7818608E-02  0.8335365E-01
          2   -1    0    0  501    0  0.00000000000E+00  0.00000000000E+00  0.21313442693E+04  0.21313442693E+04  0.00000000000E+00 0. -1.
         -1   -1    0    0    0  501 -0.00000000000E+00 -0.00000000000E+00 -0.85439226944E+03  0.85439226944E+03  0.00000000000E+00 0.  1.
         24    2    1    2    0    0 -0.10923090997E+04  0.44693030136E+03  0.37130715340E+03  0.12398613524E+04  0.80630685665E+02 0.  0.
        254    2    1    2    0    0  0.10923090997E+04 -0.44693030136E+03  0.90564484647E+03  0.17458751863E+04  0.91378428227E+03 0.  0.
         23    2    4    4    0    0  0.10217525199E+04 -0.67373416913E+03  0.67009781010E+03  0.13983751406E+04  0.92336429380E+02 0.  0.
         23    2    4    4    0    0  0.70556579797E+02  0.22680386777E+03  0.23554703637E+03  0.34750004565E+03  0.94104463207E+02 0.  0.
          4    1    3    3  502    0 -0.10370055104E+04  0.41327219831E+03  0.36648778964E+03  0.11749415468E+04  0.00000000000E+00 0. -1.
         -3    1    3    3    0  502 -0.55303589371E+02  0.33658103050E+02  0.48193637545E+01  0.64919805647E+02  0.00000000000E+00 0.  1.
         11    1    5    5    0    0  0.53982207328E+02 -0.38179078614E+02  0.61784607770E+02  0.90493416938E+02  0.00000000000E+00 0.  1.
        -11    1    5    5    0    0  0.96777031262E+03 -0.63555509052E+03  0.60831320233E+03  0.13078817237E+04  0.00000000000E+00 0. -1.
          2    1    6    6  503    0  0.83306746222E+02  0.16868953732E+03  0.21218321729E+03  0.28358048534E+03  0.00000000000E+00 0. -1.
         -2    1    6    6    0  503 -0.12750166425E+02  0.58114330458E+02  0.23363819078E+02  0.63919560311E+02  0.00000000000E+00 0.  1.
<mgrwt>
<rscale>  0 0.26988917E+04</rscale>
<asrwt>0</asrwt>
<pdfrwt beam="1">  1        2 0.32789912E+00 0.26988917E+04</pdfrwt>
<pdfrwt beam="2">  1       -1 0.13144497E+00 0.26988917E+04</pdfrwt>
<totfact> 0.27769785E+00</totfact>
</mgrwt>
</event>
<event>
12    6  0.1450532E-007  0.1318467E+04  0.7818608E-02  0.9015048E-01
          2   -1    0    0  501    0  0.00000000000E+00  0.00000000000E+00  0.16241722705E+04  0.16241722705E+04  0.00000000000E+00 0. -1.
         -1   -1    0    0    0  501 -0.00000000000E+00 -0.00000000000E+00 -0.26757552712E+03  0.26757552712E+03  0.00000000000E+00 0.  1.
         24    2    1    2    0    0 -0.26805171361E+03  0.15080945583E+03  0.11333517469E+03  0.33716102769E+03  0.78977741400E+02 0.  0.
        254    2    1    2    0    0  0.26805171361E+03 -0.15080945583E+03  0.12432615687E+04  0.15545867699E+04  0.88116144030E+03 0.  0.
         23    2    4    4    0    0  0.29790742214E+03  0.19832329194E+03  0.14348707006E+03  0.39672442784E+03  0.93385074167E+02 0.  0.
         23    2    4    4    0    0 -0.29855708532E+02 -0.34913274777E+03  0.10997744986E+04  0.11578623420E+04  0.91412343096E+02 0.  0.
          2    1    3    3  502    0 -0.55907027200E+02  0.69625832277E+02  0.44782407097E+02  0.99894024827E+02  0.00000000000E+00 0. -1.
         -1    1    3    3    0  502 -0.21214468641E+03  0.81183623554E+02  0.68552767591E+02  0.23726700287E+03  0.00000000000E+00 0.  1.
         11    1    5    5    0    0  0.19443347008E+03  0.16494283519E+03  0.66495779010E+02  0.26349990853E+03  0.00000000000E+00 0. -1.
        -11    1    5    5    0    0  0.10347395206E+03  0.33380456748E+02  0.76991291051E+02  0.13322451931E+03  0.00000000000E+00 0.  1.
          3    1    6    6  503    0 -0.48995071874E+02 -0.29996070124E+03  0.99752768918E+03  0.10428031598E+04  0.00000000000E+00 0. -1.
         -3    1    6    6    0  503  0.19139363342E+02 -0.49172046534E+02  0.10224680942E+03  0.11505918227E+03  0.00000000000E+00 0.  1.
<mgrwt>
<rscale>  0 0.13184669E+04</rscale>
<asrwt>0</asrwt>
<pdfrwt beam="1">  1        2 0.24987265E+00 0.13184669E+04</pdfrwt>
<pdfrwt beam="2">  1       -1 0.41165467E-01 0.13184669E+04</pdfrwt>
<totfact> 0.69647796E+01</totfact>
</mgrwt>
</event>
<event>
12    6  0.1450532E-007  0.2360823E+04  0.7818608E-02  0.8454318E-01
         -3   -1    0    0    0  501 -0.00000000000E+00  0.00000000000E+00  0.21380664003E+04  0.21380664003E+04  0.00000000000E+00 0.  1.
          4   -1    0    0  501    0  0.00000000000E+00 -0.00000000000E+00 -0.65169676460E+03  0.65169676460E+03  0.00000000000E+00 0. -1.
         24    2    1    2    0    0 -0.39781728624E+03  0.50603338704E+03  0.15423260617E+04  0.16737181568E+04  0.90743626367E+02 0.  0.
        254    2    1    2    0    0  0.39781728624E+03 -0.50603338704E+03 -0.55956426063E+02  0.11160450080E+04  0.90999832765E+03 0.  0.
         23    2    4    4    0    0  0.81981901642E+02 -0.33119646829E+03  0.39603273504E+03  0.53035745331E+03  0.89582187124E+02 0.  0.
         23    2    4    4    0    0  0.31583538460E+03 -0.17483691875E+03 -0.45198916111E+03  0.58568755473E+03  0.91737515169E+02 0.  0.
          4    1    3    3  502    0 -0.52571426254E+02  0.54979015766E+02  0.26681992592E+03  0.27745147306E+03  0.00000000000E+00 0. -1.
         -3    1    3    3    0  502 -0.34524585999E+03  0.45105437128E+03  0.12755061358E+04  0.13962666838E+04  0.00000000000E+00 0.  1.
         11    1    5    5    0    0  0.55203553483E+02 -0.26618471626E+03  0.36069326022E+03  0.45166510099E+03  0.00000000000E+00 0. -1.
        -11    1    5    5    0    0  0.26778348159E+02 -0.65011752033E+02  0.35339474825E+02  0.78692352319E+02  0.00000000000E+00 0.  1.
          2    1    6    6  503    0  0.13175944755E+03 -0.24128627099E+02 -0.17925739293E+03  0.22377657515E+03  0.00000000000E+00 0. -1.
         -2    1    6    6    0  503  0.18407593705E+03 -0.15070829165E+03 -0.27273176818E+03  0.36191097959E+03  0.00000000000E+00 0.  1.
<mgrwt>
<rscale>  0 0.23608227E+04</rscale>
<asrwt>0</asrwt>
<pdfrwt beam="1">  1        4 0.10026104E+00 0.23608227E+04</pdfrwt>
<pdfrwt beam="2">  1       -3 0.32893329E+00 0.23608227E+04</pdfrwt>
<totfact> 0.44370376E-02</totfact>
</mgrwt>
</event>
<event>
12    6  0.1450532E-007  0.1690826E+04  0.7818608E-02  0.8766614E-01
          2   -1    0    0  501    0  0.00000000000E+00  0.00000000000E+00  0.23026406308E+04  0.23026406308E+04  0.00000000000E+00 0. -1.
         -1   -1    0    0    0  501 -0.00000000000E+00 -0.00000000000E+00 -0.31039279120E+03  0.31039279120E+03  0.00000000000E+00 0.  1.
         24    2    1    2    0    0  0.28503240172E+03 -0.16060598797E+03 -0.69955960314E+02  0.34418516916E+03  0.80819805047E+02 0.  0.
        254    2    1    2    0    0 -0.28503240172E+03  0.16060598797E+03  0.20622037999E+04  0.22688482528E+04  0.88766554996E+03 0.  0.
         23    2    4    4    0    0 -0.13347448124E+03 -0.12836264770E+03  0.29551084387E+02  0.20826557038E+03  0.90602840754E+02 0.  0.
         23    2    4    4    0    0 -0.15155792048E+03  0.28896863567E+03  0.20326527155E+04  0.20605826824E+04  0.88607299965E+02 0.  0.
          4    1    3    3  502    0  0.17139495385E+03 -0.76423771585E+02 -0.29306349358E+01  0.18768434055E+03  0.00000000000E+00 0. -1.
         -3    1    3    3    0  502  0.11363744787E+03 -0.84182216385E+02 -0.67025325378E+02  0.15650082861E+03  0.00000000000E+00 0.  1.
         11    1    5    5    0    0 -0.14228674274E+03 -0.96010826206E+02  0.32149791576E+02  0.17463448974E+03  0.00000000000E+00 0. -1.
        -11    1    5    5    0    0  0.88122614962E+01 -0.32351821490E+02 -0.25987071889E+01  0.33631080647E+02  0.00000000000E+00 0.  1.
          1    1    6    6  503    0 -0.16080972123E+03  0.27183192395E+03  0.19635249763E+04  0.19887641122E+04  0.00000000000E+00 0. -1.
         -1    1    6    6    0  503  0.92518007441E+01  0.17136711720E+02  0.69127739215E+02  0.71818570263E+02  0.00000000000E+00 0.  1.
<mgrwt>
<rscale>  0 0.16908259E+04</rscale>
<asrwt>0</asrwt>
<pdfrwt beam="1">  1        2 0.35425239E+00 0.16908259E+04</pdfrwt>
<pdfrwt beam="2">  1       -1 0.47752738E-01 0.16908259E+04</pdfrwt>
<totfact> 0.21477730E+01</totfact>
</mgrwt>
</event>
<event>
12    6  0.1450532E-007  0.1365853E+04  0.7818608E-02  0.8978914E-01
          2   -1    0    0  501    0  0.00000000000E+00  0.00000000000E+00  0.82866386291E+03  0.82866386291E+03  0.00000000000E+00 0. -1.
         -1   -1    0    0    0  501 -0.00000000000E+00 -0.00000000000E+00 -0.56281974333E+03  0.56281974333E+03  0.00000000000E+00 0.  1.
         24    2    1    2    0    0 -0.32446035970E+03  0.11943268677E+03 -0.78704733203E+02  0.36344195285E+03  0.79730335377E+02 0.  0.
        254    2    1    2    0    0  0.32446035970E+03 -0.11943268677E+03  0.34454885279E+03  0.10280416534E+04  0.90477457825E+03 0.  0.
         23    2    4    4    0    0  0.50809366907E+03  0.14272772094E+03 -0.18451695764E+02  0.53566342408E+03  0.89802338184E+02 0.  0.
         23    2    4    4    0    0 -0.18363330937E+03 -0.26216040771E+03  0.36300054855E+03  0.49237822931E+03  0.90651259037E+02 0.  0.
          2    1    3    3  502    0 -0.14182742805E+03  0.49113213495E+02 -0.74808151136E+02  0.16770028790E+03  0.00000000000E+00 0. -1.
         -1    1    3    3    0  502 -0.18263293165E+03  0.70319473270E+02 -0.38965820674E+01  0.19574166495E+03  0.00000000000E+00 0.  1.
         11    1    5    5    0    0  0.48570152937E+03  0.12717947015E+03  0.11658764800E+01  0.50207763596E+03  0.00000000000E+00 0. -1.
        -11    1    5    5    0    0  0.22392139704E+02  0.15548250789E+02 -0.19617572244E+02  0.33585788123E+02  0.00000000000E+00 0.  1.
          4    1    6    6  503    0 -0.11147442093E+03 -0.16775716042E+03  0.28945068281E+03  0.35263395919E+03  0.00000000000E+00 0. -1.
         -4    1    6    6    0  503 -0.72158888441E+02 -0.94403247292E+02  0.73549865740E+02  0.13974427012E+03  0.00000000000E+00 0.  1.
<mgrwt>
<rscale>  0 0.13658527E+04</rscale>
<asrwt>0</asrwt>
<pdfrwt beam="1">  1        2 0.12748675E+00 0.13658527E+04</pdfrwt>
<pdfrwt beam="2">  1       -1 0.86587653E-01 0.13658527E+04</pdfrwt>
<totfact> 0.48142462E+01</totfact>
</mgrwt>
</event>
<event>
12    6  0.1517853E-007  0.2714861E+04  0.7818608E-02  0.8330199E-01
          2   -1    0    0  501    0  0.00000000000E+00  0.00000000000E+00  0.17504304633E+04  0.17504304633E+04  0.00000000000E+00 0. -1.
         -1   -1    0    0    0  501 -0.00000000000E+00 -0.00000000000E+00 -0.10526657344E+04  0.10526657344E+04  0.00000000000E+00 0.  1.
         24    2    1    2    0    0  0.22532459505E+03  0.71660319676E+03  0.12857766391E+04  0.14912847217E+04  0.80107682412E+02 0.  0.
        254    2    1    2    0    0 -0.22532459505E+03 -0.71660319676E+03 -0.58801191013E+03  0.13118114760E+04  0.90044434993E+03 0.  0.
         23    2    4    4    0    0 -0.51917574952E+03 -0.63175991493E+03 -0.55698641782E+03  0.99351682801E+03  0.90431017378E+02 0.  0.
         23    2    4    4    0    0  0.29385115446E+03 -0.84843281830E+02 -0.31025492306E+02  0.31829464797E+03  0.82474349370E+02 0.  0.
          2    1    3    3  502    0  0.21977806238E+03  0.71693234037E+03  0.12774626632E+04  0.14812849939E+04  0.00000000000E+00 0. -1.
         -1    1    3    3    0  502  0.55465326698E+01 -0.32914361462E+00  0.83139758971E+01  0.99997277660E+01  0.00000000000E+00 0.  1.
         11    1    5    5    0    0 -0.47076832246E+03 -0.56659667760E+03 -0.53170255271E+03  0.90849447607E+03  0.00000000000E+00 0. -1.
        -11    1    5    5    0    0 -0.48407427060E+02 -0.65163237332E+02 -0.25283865108E+02  0.85022351937E+02  0.00000000000E+00 0.  1.
          4    1    6    6  503    0  0.26001601097E+03 -0.96881399275E+02 -0.42231909366E+02  0.28067394901E+03  0.00000000000E+00 0. -1.
         -4    1    6    6    0  503  0.33835143491E+02  0.12038117445E+02  0.11206417060E+02  0.37620698957E+02  0.00000000000E+00 0.  1.
<mgrwt>
<rscale>  0 0.27148614E+04</rscale>
<asrwt>0</asrwt>
<pdfrwt beam="1">  1        2 0.26929699E+00 0.27148614E+04</pdfrwt>
<pdfrwt beam="2">  1       -1 0.16194858E+00 0.27148614E+04</pdfrwt>
<totfact> 0.25903478E+00</totfact>
</mgrwt>
</event>
<event>
12    6  0.1450532E-007  0.2006695E+04  0.7818608E-02  0.8603497E-01
         -1   -1    0    0    0  501 -0.00000000000E+00  0.00000000000E+00  0.35305271758E+03  0.35305271758E+03  0.00000000000E+00 0.  1.
          2   -1    0    0  501    0  0.00000000000E+00 -0.00000000000E+00 -0.28514335507E+04  0.28514335507E+04  0.00000000000E+00 0. -1.
         24    2    1    2    0    0 -0.54097011323E+03 -0.29133876174E+03 -0.18528391924E+03  0.64607746713E+03  0.74558871442E+02 0.  0.
        254    2    1    2    0    0  0.54097011323E+03  0.29133876174E+03 -0.23130969139E+04  0.25584088012E+04  0.90416332781E+03 0.  0.
         23    2    4    4    0    0  0.58546162965E+03  0.45023778347E+03 -0.10843210877E+04  0.13151944979E+04  0.92222365448E+02 0.  0.
         23    2    4    4    0    0 -0.44491516425E+02 -0.15889902173E+03 -0.12287758262E+04  0.12432143033E+04  0.91996622817E+02 0.  0.
          4    1    3    3  502    0 -0.25187904724E+02  0.22482730147E+01 -0.46496612322E+01  0.25711954914E+02  0.00000000000E+00 0. -1.
         -3    1    3    3    0  502 -0.51578220850E+03 -0.29358703475E+03 -0.18063425801E+03  0.62036551222E+03  0.00000000000E+00 0.  1.
         11    1    5    5    0    0  0.50590511498E+03  0.41371477146E+03 -0.91288474435E+03  0.11227014091E+04  0.00000000000E+00 0. -1.
        -11    1    5    5    0    0  0.79556514671E+02  0.36523012013E+02 -0.17143634332E+03  0.19249308882E+03  0.00000000000E+00 0.  1.
          4    1    6    6  503    0 -0.37093245675E+02 -0.53436192895E+02 -0.75445437227E+03  0.75725341559E+03  0.00000000000E+00 0. -1.
         -4    1    6    6    0  503 -0.73982707496E+01 -0.10546282884E+03 -0.47432145394E+03  0.48596088767E+03  0.00000000000E+00 0.  1.
<mgrwt>
<rscale>  0 0.20066952E+04</rscale>
<asrwt>0</asrwt>
<pdfrwt beam="1">  1        2 0.43868209E+00 0.20066952E+04</pdfrwt>
<pdfrwt beam="2">  1       -1 0.54315802E-01 0.20066952E+04</pdfrwt>
<totfact> 0.77981468E+00</totfact>
</mgrwt>
</event>
<event>
12    6  0.1450532E-007  0.1400379E+04  0.7818608E-02  0.8953544E-01
         -1   -1    0    0    0  501 -0.00000000000E+00  0.00000000000E+00  0.29235370620E+03  0.29235370620E+03  0.00000000000E+00 0.  1.
          2   -1    0    0  501    0  0.00000000000E+00 -0.00000000000E+00 -0.16769590472E+04  0.16769590472E+04  0.00000000000E+00 0. -1.
         24    2    1    2    0    0  0.20004326323E+03 -0.12387481353E+03 -0.90975600782E+03  0.94305855466E+03  0.79631445846E+02 0.  0.
        254    2    1    2    0    0 -0.20004326323E+03  0.12387481353E+03 -0.47484933322E+03  0.10262541988E+04  0.87883645500E+03 0.  0.
         23    2    4    4    0    0 -0.38153144830E+03 -0.24409130493E+03 -0.36677178372E+03  0.59187824826E+03  0.10320614445E+03 0.  0.
         23    2    4    4    0    0  0.18148818507E+03  0.36796611845E+03 -0.10807754949E+03  0.43437595050E+03  0.93084284514E+02 0.  0.
          4    1    3    3  502    0  0.15133551484E+03 -0.12974137611E+03 -0.72769335313E+03  0.75450174216E+03  0.00000000000E+00 0. -1.
         -3    1    3    3    0  502  0.48707748394E+02  0.58665625836E+01 -0.18206265468E+03  0.18855681250E+03  0.00000000000E+00 0.  1.
         11    1    5    5    0    0 -0.33501600744E+03 -0.23426097273E+03 -0.28867013542E+03  0.50044417837E+03  0.00000000000E+00 0. -1.
        -11    1    5    5    0    0 -0.46515440863E+02 -0.98303321969E+01 -0.78101648301E+02  0.91434069892E+02  0.00000000000E+00 0.  1.
          3    1    6    6  503    0  0.12981759479E+03  0.20822492390E+03 -0.23825849527E+02  0.24653173823E+03  0.00000000000E+00 0. -1.
         -3    1    6    6    0  503  0.51670590278E+02  0.15974119455E+03 -0.84251699966E+02  0.18784421227E+03  0.00000000000E+00 0.  1.
<mgrwt>
<rscale>  0 0.14003788E+04</rscale>
<asrwt>0</asrwt>
<pdfrwt beam="1">  1        2 0.25799370E+00 0.14003788E+04</pdfrwt>
<pdfrwt beam="2">  1       -1 0.44977494E-01 0.14003788E+04</pdfrwt>
<totfact> 0.54901084E+01</totfact>
</mgrwt>
</event>
<event>
12    6  0.1450532E-007  0.1435103E+04  0.7818608E-02  0.8928794E-01
         -1   -1    0    0    0  501 -0.00000000000E+00  0.00000000000E+00  0.90076810952E+03  0.90076810952E+03  0.00000000000E+00 0.  1.
          2   -1    0    0  501    0  0.00000000000E+00 -0.00000000000E+00 -0.57160102777E+03  0.57160102777E+03  0.00000000000E+00 0. -1.
         24    2    1    2    0    0 -0.33249327692E+03 -0.12211895196E+03  0.34590511147E+03  0.50151674159E+03  0.80024235897E+02 0.  0.
        254    2    1    2    0    0  0.33249327692E+03  0.12211895196E+03 -0.16738029721E+02  0.97085239569E+03  0.90377507985E+03 0.  0.
         23    2    4    4    0    0  0.46636938680E+03  0.18726172349E+03 -0.33323179180E+03  0.60955721196E+03  0.89158339856E+02 0.  0.
         23    2    4    4    0    0 -0.13387610988E+03 -0.65142771524E+02  0.31649376208E+03  0.36129518373E+03  0.90551172683E+02 0.  0.
          4    1    3    3  502    0 -0.14938439255E+02 -0.26863972885E+02  0.39726967404E+02  0.50230090042E+02  0.00000000000E+00 0. -1.
         -3    1    3    3    0  502 -0.31755483766E+03 -0.95254979077E+02  0.30617814406E+03  0.45128665155E+03  0.00000000000E+00 0.  1.
         11    1    5    5    0    0  0.14751569131E+03  0.97069825521E+02 -0.87879470612E+02  0.19724662624E+03  0.00000000000E+00 0.  1.
        -11    1    5    5    0    0  0.31885369549E+03  0.90191897965E+02 -0.24535232119E+03  0.41231058572E+03  0.00000000000E+00 0. -1.
          2    1    6    6  503    0 -0.10219065640E+03 -0.74719192432E+02  0.17504276284E+03  0.21602281545E+03  0.00000000000E+00 0. -1.
         -2    1    6    6    0  503 -0.31685453478E+02  0.95764209085E+01  0.14145099924E+03  0.14527236828E+03  0.00000000000E+00 0.  1.
<mgrwt>
<rscale>  0 0.14351028E+04</rscale>
<asrwt>0</asrwt>
<pdfrwt beam="1">  1        2 0.87938619E-01 0.14351028E+04</pdfrwt>
<pdfrwt beam="2">  1       -1 0.13857971E+00 0.14351028E+04</pdfrwt>
<totfact> 0.25119513E+01</totfact>
</mgrwt>
</event>
<event>
12    6  0.1450532E-007  0.1285702E+04  0.7818608E-02  0.9040981E-01
          2   -1    0    0  501    0  0.00000000000E+00  0.00000000000E+00  0.11358043430E+04  0.11358043430E+04  0.00000000000E+00 0. -1.
         -1   -1    0    0    0  501 -0.00000000000E+00 -0.00000000000E+00 -0.36384532999E+03  0.36384532999E+03  0.00000000000E+00 0.  1.
         24    2    1    2    0    0  0.60926590708E+02 -0.14553600132E+03 -0.12675909905E+03  0.21770411059E+03  0.80214920315E+02 0.  0.
        254    2    1    2    0    0 -0.60926590708E+02  0.14553600132E+03  0.89871811210E+03  0.12819455624E+04  0.90044289264E+03 0.  0.
         23    2    4    4    0    0  0.25036918380E+03  0.39909509988E+02  0.90065718047E+03  0.94012750797E+03  0.91536207762E+02 0.  0.
         23    2    4    4    0    0 -0.31129577451E+03  0.10562649133E+03 -0.19390683699E+01  0.34181805447E+03  0.93668604525E+02 0.  0.
          4    1    3    3  502    0  0.56739797325E+01 -0.28366583731E+02  0.87631437304E+01  0.30226640677E+02  0.00000000000E+00 0. -1.
         -3    1    3    3    0  502  0.55252610976E+02 -0.11716941759E+03 -0.13552224278E+03  0.18747746991E+03  0.00000000000E+00 0.  1.
         11    1    5    5    0    0  0.25474655578E+03  0.40432962683E+02  0.89923263877E+03  0.93549450601E+03  0.00000000000E+00 0. -1.
        -11    1    5    5    0    0 -0.43773719749E+01 -0.52345269531E+00  0.14245417032E+01  0.46330019637E+01  0.00000000000E+00 0.  1.
          3    1    6    6  503    0 -0.11939402449E+03  0.52914920411E+02 -0.45135766629E+02  0.13817438009E+03  0.00000000000E+00 0. -1.
         -3    1    6    6    0  503 -0.19190175002E+03  0.52711570924E+02  0.43196698259E+02  0.20364367437E+03  0.00000000000E+00 0.  1.
<mgrwt>
<rscale>  0 0.12857015E+04</rscale>
<asrwt>0</asrwt>
<pdfrwt beam="1">  1        2 0.17473913E+00 0.12857015E+04</pdfrwt>
<pdfrwt beam="2">  1       -1 0.55976205E-01 0.12857015E+04</pdfrwt>
<totfact> 0.74800322E+01</totfact>
</mgrwt>
</event>
<event>
12    6  0.1450532E-007  0.2233333E+04  0.7818608E-02  0.8504681E-01
         -1   -1    0    0    0  501 -0.00000000000E+00  0.00000000000E+00  0.71676523636E+03  0.71676523636E+03  0.00000000000E+00 0.  1.
          2   -1    0    0  501    0  0.00000000000E+00 -0.00000000000E+00 -0.17396829749E+04  0.17396829749E+04  0.00000000000E+00 0. -1.
         24    2    1    2    0    0 -0.15002814134E+03 -0.54636831784E+03  0.38537050771E+03  0.69178613004E+03  0.95030729606E+02 0.  0.
        254    2    1    2    0    0  0.15002814134E+03  0.54636831784E+03 -0.14082882463E+04  0.17646620812E+04  0.89984981773E+03 0.  0.
         23    2    4    4    0    0  0.20296385091E+03 -0.82605270987E+02 -0.21213478317E+02  0.23810476885E+03  0.90696823084E+02 0.  0.
         23    2    4    4    0    0 -0.52935709565E+02  0.62897358883E+03 -0.13870747679E+04  0.15265573124E+04  0.89391561890E+02 0.  0.
          2    1    3    3  502    0 -0.41008385442E+02 -0.32318940942E+03  0.23046411025E+03  0.39905737451E+03  0.00000000000E+00 0. -1.
         -1    1    3    3    0  502 -0.10901975590E+03 -0.22317890843E+03  0.15490639746E+03  0.29272875553E+03  0.00000000000E+00 0.  1.
         11    1    5    5    0    0  0.15951593553E+03 -0.49423635379E+02 -0.52576380314E+02  0.17507799745E+03  0.00000000000E+00 0.  1.
        -11    1    5    5    0    0  0.43447915373E+02 -0.33181635609E+02  0.31362901997E+02  0.63026771404E+02  0.00000000000E+00 0. -1.
          4    1    6    6  503    0 -0.13896177228E+02  0.25993742476E+03 -0.67782810121E+03  0.72609331585E+03  0.00000000000E+00 0. -1.
         -4    1    6    6    0  503 -0.39039532337E+02  0.36903616406E+03 -0.70924666674E+03  0.80046399654E+03  0.00000000000E+00 0.  1.
<mgrwt>
<rscale>  0 0.22333332E+04</rscale>
<asrwt>0</asrwt>
<pdfrwt beam="1">  1        2 0.26764353E+00 0.22333332E+04</pdfrwt>
<pdfrwt beam="2">  1       -1 0.11027158E+00 0.22333332E+04</pdfrwt>
<totfact> 0.73401405E+00</totfact>
</mgrwt>
</event>
<event>
12    6  0.1450532E-007  0.1896995E+04  0.7818608E-02  0.8656354E-01
          2   -1    0    0  501    0  0.00000000000E+00  0.00000000000E+00  0.24823992988E+04  0.24823992988E+04  0.00000000000E+00 0. -1.
         -1   -1    0    0    0  501 -0.00000000000E+00 -0.00000000000E+00 -0.36241041790E+03  0.36241041790E+03  0.00000000000E+00 0.  1.
         24    2    1    2    0    0 -0.15849027465E+03  0.10449065188E+03  0.18798665005E+04  0.18911387416E+04  0.80437658198E+02 0.  0.
        254    2    1    2    0    0  0.15849027465E+03 -0.10449065188E+03  0.24012238035E+03  0.95367097504E+03  0.90321210554E+03 0.  0.
         23    2    4    4    0    0  0.21750775272E+03 -0.46796731288E+03  0.42673733847E+02  0.52578043989E+03  0.91219488016E+02 0.  0.
         23    2    4    4    0    0 -0.59017478071E+02  0.36347666100E+03  0.19744864651E+03  0.42789053515E+03  0.92227958110E+02 0.  0.
          2    1    3    3  502    0 -0.14793080342E+03  0.83741248008E+02  0.13355553377E+04  0.13463298924E+04  0.00000000000E+00 0. -1.
         -1    1    3    3    0  502 -0.10559471234E+02  0.20749403871E+02  0.54431116284E+03  0.54480884922E+03  0.00000000000E+00 0.  1.
         11    1    5    5    0    0 -0.21039854051E+01 -0.88899546054E+01 -0.10720437537E+02  0.14084950424E+02  0.00000000000E+00 0. -1.
        -11    1    5    5    0    0  0.21961173813E+03 -0.45907735827E+03  0.53394171384E+02  0.51169548946E+03  0.00000000000E+00 0.  1.
          1    1    6    6  503    0  0.20173016858E+02  0.11015601659E+03  0.80155779518E+02  0.13771800024E+03  0.00000000000E+00 0. -1.
         -1    1    6    6    0  503 -0.79190494929E+02  0.25332064441E+03  0.11729286699E+03  0.29017253491E+03  0.00000000000E+00 0.  1.
<mgrwt>
<rscale>  0 0.18969949E+04</rscale>
<asrwt>0</asrwt>
<pdfrwt beam="1">  1        2 0.38190757E+00 0.18969949E+04</pdfrwt>
<pdfrwt beam="2">  1       -1 0.55755450E-01 0.18969949E+04</pdfrwt>
<totfact> 0.12376074E+01</totfact>
</mgrwt>
</event>
<event>
12    6  0.1450532E-007  0.2251689E+04  0.7818608E-02  0.8497217E-01
          2   -1    0    0  501    0  0.00000000000E+00  0.00000000000E+00  0.11997364658E+04  0.11997364658E+04  0.00000000000E+00 0. -1.
         -1   -1    0    0    0  501 -0.00000000000E+00 -0.00000000000E+00 -0.10565038411E+04  0.10565038411E+04  0.00000000000E+00 0.  1.
         24    2    1    2    0    0  0.62432867999E+03  0.47753922852E+03  0.58166142087E+03  0.98084865597E+03  0.76837893951E+02 0.  0.
        254    2    1    2    0    0 -0.62432867999E+03 -0.47753922852E+03 -0.43842879620E+03  0.12753916509E+04  0.90364486296E+03 0.  0.
         23    2    4    4    0    0 -0.63303562405E+02 -0.58275663426E+03 -0.35191506835E+03  0.69095436454E+03  0.99805224047E+02 0.  0.
         23    2    4    4    0    0 -0.56102511759E+03  0.10521740574E+03 -0.86513727850E+02  0.58443728635E+03  0.90897918199E+02 0.  0.
          2    1    3    3  502    0  0.92438707162E+02  0.98409007311E+02  0.77065896862E+02  0.15546189167E+03  0.00000000000E+00 0. -1.
         -1    1    3    3    0  502  0.53188997283E+03  0.37913022121E+03  0.50459552401E+03  0.82538676430E+03  0.00000000000E+00 0.  1.
         11    1    5    5    0    0 -0.71055932054E+02 -0.34235305760E+03 -0.16656897615E+03  0.38729805750E+03  0.00000000000E+00 0. -1.
        -11    1    5    5    0    0  0.77523696487E+01 -0.24040357666E+03 -0.18534609220E+03  0.30365630703E+03  0.00000000000E+00 0.  1.
          2    1    6    6  503    0 -0.94226126898E+01 -0.10144259671E+02 -0.63333803930E+01  0.15225089207E+02  0.00000000000E+00 0. -1.
         -2    1    6    6    0  503 -0.55160250490E+03  0.11536166541E+03 -0.80180347457E+02  0.56921219714E+03  0.00000000000E+00 0.  1.
<mgrwt>
<rscale>  0 0.22516893E+04</rscale>
<asrwt>0</asrwt>
<pdfrwt beam="1">  1        2 0.18457484E+00 0.22516893E+04</pdfrwt>
<pdfrwt beam="2">  1       -1 0.16253905E+00 0.22516893E+04</pdfrwt>
<totfact> 0.54972994E+00</totfact>
</mgrwt>
</event>
<event>
12    6  0.1450532E-007  0.1994690E+04  0.7818608E-02  0.8609107E-01
         -1   -1    0    0    0  501 -0.00000000000E+00  0.00000000000E+00  0.64628219256E+03  0.64628219256E+03  0.00000000000E+00 0.  1.
          2   -1    0    0  501    0  0.00000000000E+00 -0.00000000000E+00 -0.15391066293E+04  0.15391066293E+04  0.00000000000E+00 0. -1.
         24    2    1    2    0    0  0.38645101968E+03 -0.67406701768E+03 -0.51403944643E+03  0.93510030515E+03  0.80407047360E+02 0.  0.
        254    2    1    2    0    0 -0.38645101968E+03  0.67406701768E+03 -0.37878499035E+03  0.12502885168E+04  0.90334521159E+03 0.  0.
         23    2    4    4    0    0  0.25046602769E+03  0.42611025590E+03 -0.17219402946E+03  0.53115909431E+03  0.90421338614E+02 0.  0.
         23    2    4    4    0    0 -0.63691704737E+03  0.24795676178E+03 -0.20659096088E+03  0.71912942245E+03  0.85565297708E+02 0.  0.
          4    1    3    3  502    0  0.61945622509E+02 -0.97172975836E+02 -0.11182800188E+03  0.16057817219E+03  0.00000000000E+00 0. -1.
         -3    1    3    3    0  502  0.32450539717E+03 -0.57689404184E+03 -0.40221144456E+03  0.77452213295E+03  0.00000000000E+00 0.  1.
         11    1    5    5    0    0  0.24747005866E+03  0.40404835995E+03 -0.14395038708E+03  0.49519513432E+03  0.00000000000E+00 0.  1.
        -11    1    5    5    0    0  0.29959690327E+01  0.22061895945E+02 -0.28243642383E+02  0.35963959991E+02  0.00000000000E+00 0. -1.
          3    1    6    6  503    0 -0.18964504882E+03  0.34644835724E+02 -0.70206719088E+02  0.20516942411E+03  0.00000000000E+00 0. -1.
         -3    1    6    6    0  503 -0.44727199855E+03  0.21331192605E+03 -0.13638424179E+03  0.51395999834E+03  0.00000000000E+00 0.  1.
<mgrwt>
<rscale>  0 0.19946902E+04</rscale>
<asrwt>0</asrwt>
<pdfrwt beam="1">  1        2 0.23678563E+00 0.19946902E+04</pdfrwt>
<pdfrwt beam="2">  1       -1 0.99428031E-01 0.19946902E+04</pdfrwt>
<totfact> 0.12338082E+01</totfact>
</mgrwt>
</event>
<event>
12    6  0.1450532E-007  0.1541875E+04  0.7818608E-02  0.8857074E-01
          2   -1    0    0  501    0  0.00000000000E+00  0.00000000000E+00  0.16860617631E+04  0.16860617631E+04  0.00000000000E+00 0. -1.
         -1   -1    0    0    0  501 -0.00000000000E+00 -0.00000000000E+00 -0.35250454633E+03  0.35250454633E+03  0.00000000000E+00 0.  1.
         24    2    1    2    0    0 -0.41242971321E+03 -0.17456161189E+03  0.13429662106E+03  0.47397724073E+03  0.77774144863E+02 0.  0.
        254    2    1    2    0    0  0.41242971321E+03  0.17456161189E+03  0.11992605957E+04  0.15645890687E+04  0.89952373666E+03 0.  0.
         23    2    4    4    0    0 -0.15611057795E+03  0.35631327482E+03  0.43494770766E+03  0.59068357944E+03  0.91640167297E+02 0.  0.
         23    2    4    4    0    0  0.56854029116E+03 -0.18175166293E+03  0.76431288804E+03  0.97390548926E+03  0.89699395393E+02 0.  0.
          4    1    3    3  502    0 -0.36565551878E+03 -0.14027010849E+03  0.92287828934E+02  0.40236389639E+03  0.00000000000E+00 0. -1.
         -3    1    3    3    0  502 -0.46774194434E+02 -0.34291503408E+02  0.42008792129E+02  0.71613344336E+02  0.00000000000E+00 0.  1.
         11    1    5    5    0    0 -0.13257179920E+03  0.20562980514E+03  0.23529030383E+03  0.33944134366E+03  0.00000000000E+00 0.  1.
        -11    1    5    5    0    0 -0.23538778750E+02  0.15068346968E+03  0.19965740383E+03  0.25124223579E+03  0.00000000000E+00 0. -1.
          3    1    6    6  503    0  0.10943615483E+03 -0.46911295402E+02  0.10172523823E+03  0.15660448817E+03  0.00000000000E+00 0. -1.
         -3    1    6    6    0  503  0.45910413633E+03 -0.13484036753E+03  0.66258764981E+03  0.81730100110E+03  0.00000000000E+00 0.  1.
<mgrwt>
<rscale>  0 0.15418748E+04</rscale>
<asrwt>0</asrwt>
<pdfrwt beam="1">  1        2 0.25939411E+00 0.15418748E+04</pdfrwt>
<pdfrwt beam="2">  1       -1 0.54231470E-01 0.15418748E+04</pdfrwt>
<totfact> 0.37613040E+01</totfact>
</mgrwt>
</event>
<event>
12    6  0.1450532E-007  0.1435898E+04  0.7818608E-02  0.8928236E-01
         -1   -1    0    0    0  501 -0.00000000000E+00  0.00000000000E+00  0.29869214556E+03  0.29869214556E+03  0.00000000000E+00 0.  1.
          2   -1    0    0  501    0  0.00000000000E+00 -0.00000000000E+00 -0.17256914801E+04  0.17256914801E+04  0.00000000000E+00 0. -1.
         24    2    1    2    0    0 -0.41556762106E+03  0.55973990237E+02 -0.57573323421E+03  0.71666360321E+03  0.79425612580E+02 0.  0.
        254    2    1    2    0    0  0.41556762106E+03 -0.55973990237E+02 -0.85126610038E+03  0.13077200225E+04  0.89980450562E+03 0.  0.
         23    2    4    4    0    0  0.38093253300E+02  0.10303727668E+03 -0.87527466720E+03  0.88690242531E+03  0.91773594507E+02 0.  0.
         23    2    4    4    0    0  0.37747436776E+03 -0.15901126692E+03  0.24008566825E+02  0.42081759718E+03  0.93485600483E+02 0.  0.
          2    1    3    3  502    0 -0.31883454999E+03  0.56973265330E+02 -0.38754350058E+03  0.50506572648E+03  0.00000000000E+00 0. -1.
         -1    1    3    3    0  502 -0.96733071069E+02 -0.99927509258E+00 -0.18818973363E+03  0.21159787672E+03  0.00000000000E+00 0.  1.
         11    1    5    5    0    0 -0.27717160555E+02  0.45513662878E+02 -0.25580806371E+03  0.26129963635E+03  0.00000000000E+00 0.  1.
        -11    1    5    5    0    0  0.65810413855E+02  0.57523613806E+02 -0.61946660350E+03  0.62560278897E+03  0.00000000000E+00 0. -1.
          1    1    6    6  503    0  0.21723612625E+03 -0.51479186599E+02  0.41406167454E+02  0.22705970999E+03  0.00000000000E+00 0. -1.
         -1    1    6    6    0  503  0.16023824151E+03 -0.10753208032E+03 -0.17397600629E+02  0.19375788719E+03  0.00000000000E+00 0.  1.
<mgrwt>
<rscale>  0 0.14358976E+04</rscale>
<asrwt>0</asrwt>
<pdfrwt beam="1">  1        2 0.26549099E+00 0.14358976E+04</pdfrwt>
<pdfrwt beam="2">  1       -1 0.45952639E-01 0.14358976E+04</pdfrwt>
<totfact> 0.49417941E+01</totfact>
</mgrwt>
</event>
<event>
12    6  0.1450532E-007  0.2260327E+04  0.7818608E-02  0.8493730E-01
         -1   -1    0    0    0  501 -0.00000000000E+00  0.00000000000E+00  0.67317219003E+03  0.67317219003E+03  0.00000000000E+00 0.  1.
          2   -1    0    0  501    0  0.00000000000E+00 -0.00000000000E+00 -0.18973892678E+04  0.18973892678E+04  0.00000000000E+00 0. -1.
         24    2    1    2    0    0  0.24991519862E+03 -0.20613595379E+03  0.49627805332E+03  0.59822024214E+03  0.81399717215E+02 0.  0.
        254    2    1    2    0    0 -0.24991519862E+03  0.20613595379E+03 -0.17204951311E+04  0.19723412157E+04  0.90833734763E+03 0.  0.
         23    2    4    4    0    0 -0.17078472798E+03 -0.28621862745E+03 -0.11876073860E+04  0.12369794230E+04  0.92834603414E+02 0.  0.
         23    2    4    4    0    0 -0.79130470638E+02  0.49235458124E+03 -0.53288774511E+03  0.73536179273E+03  0.90071928329E+02 0.  0.
          2    1    3    3  502    0  0.13900126997E+02 -0.11321731393E+02  0.77452052656E+02  0.79499783602E+02  0.00000000000E+00 0. -1.
         -1    1    3    3    0  502  0.23601507162E+03 -0.19481422240E+03  0.41882600066E+03  0.51872045854E+03  0.00000000000E+00 0.  1.
         11    1    5    5    0    0 -0.83507435834E+02 -0.21684127444E+03 -0.73578540914E+03  0.77160469053E+03  0.00000000000E+00 0. -1.
        -11    1    5    5    0    0 -0.87277292144E+02 -0.69377353014E+02 -0.45182197688E+03  0.46537473247E+03  0.00000000000E+00 0.  1.
          1    1    6    6  503    0 -0.23737624706E+02  0.93192504766E+02 -0.15798049584E+03  0.18494906011E+03  0.00000000000E+00 0. -1.
         -1    1    6    6    0  503 -0.55392845932E+02  0.39916207647E+03 -0.37490724927E+03  0.55041273262E+03  0.00000000000E+00 0.  1.
<mgrwt>
<rscale>  0 0.22603271E+04</rscale>
<asrwt>0</asrwt>
<pdfrwt beam="1">  1        2 0.29190604E+00 0.22603271E+04</pdfrwt>
<pdfrwt beam="2">  1       -1 0.10356495E+00 0.22603271E+04</pdfrwt>
<totfact> 0.69339454E+00</totfact>
</mgrwt>
</event>
<event>
12    6  0.1450532E-007  0.4414495E+04  0.7818608E-02  0.7925780E-01
          2   -1    0    0  501    0  0.00000000000E+00  0.00000000000E+00  0.20859197035E+04  0.20859197035E+04  0.00000000000E+00 0. -1.
         -1   -1    0    0    0  501 -0.00000000000E+00 -0.00000000000E+00 -0.23356318518E+04  0.23356318518E+04  0.00000000000E+00 0.  1.
         24    2    1    2    0    0  0.17840231296E+03 -0.20069183547E+04  0.52257888424E+03  0.20830181184E+04  0.79543217004E+02 0.  0.
        254    2    1    2    0    0 -0.17840231296E+03  0.20069183547E+04 -0.77229103251E+03  0.23385334370E+04  0.90153010448E+03 0.  0.
         23    2    4    4    0    0  0.14351099602E+03  0.47963163473E+03 -0.56669751122E+03  0.76151987569E+03  0.90136234792E+02 0.  0.
         23    2    4    4    0    0 -0.32191330898E+03  0.15272867200E+04 -0.20559352129E+03  0.15770135613E+04  0.92033542918E+02 0.  0.
          2    1    3    3  502    0  0.17405788515E+03 -0.18975415774E+04  0.47602776009E+03  0.19640678741E+04  0.00000000000E+00 0. -1.
         -1    1    3    3    0  502  0.43444278067E+01 -0.10937677728E+03  0.46551124155E+02  0.11895024431E+03  0.00000000000E+00 0.  1.
         11    1    5    5    0    0  0.74915683790E+02  0.21889216065E+03 -0.32826975979E+03  0.40160574307E+03  0.00000000000E+00 0.  1.
        -11    1    5    5    0    0  0.68595312231E+02  0.26073947408E+03 -0.23842775143E+03  0.35991413262E+03  0.00000000000E+00 0. -1.
          4    1    6    6  503    0 -0.20634408979E+03  0.80708802689E+03 -0.80175407465E+02  0.83689728313E+03  0.00000000000E+00 0. -1.
         -4    1    6    6    0  503 -0.11556921919E+03  0.72019869310E+03 -0.12541811382E+03  0.74011627819E+03  0.00000000000E+00 0.  1.
<mgrwt>
<rscale>  0 0.44144945E+04</rscale>
<asrwt>0</asrwt>
<pdfrwt beam="1">  1        2 0.32091072E+00 0.44144945E+04</pdfrwt>
<pdfrwt beam="2">  1       -1 0.35932798E+00 0.44144945E+04</pdfrwt>
<totfact> 0.69959611E-02</totfact>
</mgrwt>
</event>
<event>
12    6  0.1450532E-007  0.1894233E+04  0.7818608E-02  0.8657732E-01
         -1   -1    0    0    0  501 -0.00000000000E+00  0.00000000000E+00  0.13780545946E+04  0.13780545946E+04  0.00000000000E+00 0.  1.
          2   -1    0    0  501    0  0.00000000000E+00 -0.00000000000E+00 -0.65093926981E+03  0.65093926981E+03  0.00000000000E+00 0. -1.
         24    2    1    2    0    0  0.16824383857E+03 -0.61361598810E+03 -0.10727425904E+03  0.65012498627E+03  0.79524594039E+02 0.  0.
        254    2    1    2    0    0 -0.16824383857E+03  0.61361598810E+03  0.83438958383E+03  0.13788688781E+04  0.89456292981E+03 0.  0.
         23    2    4    4    0    0 -0.31659933650E+03  0.12038282318E+03 -0.47294045493E+02  0.35361455373E+03  0.89885270654E+02 0.  0.
         23    2    4    4    0    0  0.14835549793E+03  0.49323316492E+03  0.88168362932E+03  0.10252543244E+04  0.92152583974E+02 0.  0.
          4    1    3    3  502    0  0.11249227004E+03 -0.51843059547E+03 -0.97517862908E+02  0.53938346908E+03  0.00000000000E+00 0. -1.
         -3    1    3    3    0  502  0.55751568529E+02 -0.95185392634E+02 -0.97563961333E+01  0.11074151719E+03  0.00000000000E+00 0.  1.
         11    1    5    5    0    0 -0.42502664671E+01  0.21852876659E+02  0.22162271696E+01  0.22372408144E+02  0.00000000000E+00 0. -1.
        -11    1    5    5    0    0 -0.31234907004E+03  0.98529946517E+02 -0.49510272662E+02  0.33124214559E+03  0.00000000000E+00 0.  1.
          2    1    6    6  503    0  0.14404221302E+03  0.45319563052E+03  0.85014264147E+03  0.97410315137E+03  0.00000000000E+00 0.  1.
         -2    1    6    6    0  503  0.43132849145E+01  0.40037534403E+02  0.31540987850E+02  0.51151173030E+02  0.00000000000E+00 0. -1.
<mgrwt>
<rscale>  0 0.18942332E+04</rscale>
<asrwt>0</asrwt>
<pdfrwt beam="1">  1        2 0.10014450E+00 0.18942332E+04</pdfrwt>
<pdfrwt beam="2">  1       -1 0.21200840E+00 0.18942332E+04</pdfrwt>
<totfact> 0.59819618E+00</totfact>
</mgrwt>
</event>
<event>
12    6  0.1450532E-007  0.1721720E+04  0.7818608E-02  0.8749073E-01
          2   -1    0    0  501    0  0.00000000000E+00  0.00000000000E+00  0.29785804771E+04  0.29785804771E+04  0.00000000000E+00 0. -1.
         -3   -1    0    0    0  501 -0.00000000000E+00 -0.00000000000E+00 -0.24880309583E+03  0.24880309583E+03  0.00000000000E+00 0.  1.
         24    2    1    2    0    0 -0.57226703254E+03  0.53467385066E+02  0.14121544206E+04  0.15266131337E+04  0.77583726550E+02 0.  0.
        254    2    1    2    0    0  0.57226703254E+03 -0.53467385066E+02  0.13176229607E+04  0.17007704392E+04  0.90892326550E+03 0.  0.
         23    2    4    4    0    0  0.11899982120E+03  0.39931238218E+03  0.47163602842E+03  0.63594073766E+03  0.91480831325E+02 0.  0.
         23    2    4    4    0    0  0.45326721135E+03 -0.45277976725E+03  0.84598693225E+03  0.10648297015E+04  0.87793628687E+02 0.  0.
          2    1    3    3  502    0 -0.48210026151E+03  0.41063352311E+02  0.12544881736E+04  0.13445621736E+04  0.00000000000E+00 0. -1.
         -3    1    3    3    0  502 -0.90166771033E+02  0.12404032755E+02  0.15766624700E+03  0.18205096009E+03  0.00000000000E+00 0.  1.
         11    1    5    5    0    0  0.21411383042E+02  0.23113696410E+03  0.25316752730E+03  0.34347713225E+03  0.00000000000E+00 0. -1.
        -11    1    5    5    0    0  0.97588438155E+02  0.16817541808E+03  0.21846850112E+03  0.29246360541E+03  0.00000000000E+00 0.  1.
          4    1    6    6  503    0  0.28951465677E+03 -0.27675507039E+03  0.45827694503E+03  0.60862949634E+03  0.00000000000E+00 0. -1.
         -4    1    6    6    0  503  0.16375255458E+03 -0.17602469686E+03  0.38770998723E+03  0.45620020521E+03  0.00000000000E+00 0.  1.
<mgrwt>
<rscale>  0 0.17217201E+04</rscale>
<asrwt>0</asrwt>
<pdfrwt beam="1">  1        2 0.45824313E+00 0.17217201E+04</pdfrwt>
<pdfrwt beam="2">  1       -3 0.38277401E-01 0.17217201E+04</pdfrwt>
<totfact> 0.75208198E+00</totfact>
</mgrwt>
</event>
<event>
12    6  0.1450532E-007  0.1899571E+04  0.7818608E-02  0.8655070E-01
         -1   -1    0    0    0  501 -0.00000000000E+00  0.00000000000E+00  0.30738171534E+03  0.30738171534E+03  0.00000000000E+00 0.  1.
          2   -1    0    0  501    0  0.00000000000E+00 -0.00000000000E+00 -0.29347644150E+04  0.29347644150E+04  0.00000000000E+00 0. -1.
         24    2    1    2    0    0  0.62181000355E+03  0.33044446795E+03 -0.68898155457E+03  0.98841728875E+03  0.80199297125E+02 0.  0.
        254    2    1    2    0    0 -0.62181000355E+03 -0.33044446795E+03 -0.19384011451E+04  0.22537288416E+04  0.90887483473E+03 0.  0.
         23    2    4    4    0    0 -0.63707385513E+03 -0.49869201296E+03 -0.18862036127E+04  0.20542071829E+04  0.86291721784E+02 0.  0.
         23    2    4    4    0    0  0.15263851585E+02  0.16824754501E+03 -0.52197532388E+02  0.19952165863E+03  0.92434237759E+02 0.  0.
          2    1    3    3  502    0  0.11472343933E+03  0.89855923101E+02 -0.11510408533E+03  0.18570004014E+03  0.00000000000E+00 0. -1.
         -1    1    3    3    0  502  0.50708656421E+03  0.24058854485E+03 -0.57387746924E+03  0.80271724861E+03  0.00000000000E+00 0.  1.
         11    1    5    5    0    0 -0.40059609270E+03 -0.26575916849E+03 -0.10661113701E+04  0.11694864765E+04  0.00000000000E+00 0.  1.
        -11    1    5    5    0    0 -0.23647776243E+03 -0.23293284447E+03 -0.82009224255E+03  0.88472070647E+03  0.00000000000E+00 0. -1.
          3    1    6    6  503    0 -0.17909791776E+02  0.30767137547E+02  0.19893418976E+02  0.40781435885E+02  0.00000000000E+00 0. -1.
         -3    1    6    6    0  503  0.33173643362E+02  0.13748040746E+03 -0.72090951364E+02  0.15874022275E+03  0.00000000000E+00 0.  1.
<mgrwt>
<rscale>  0 0.18995714E+04</rscale>
<asrwt>0</asrwt>
<pdfrwt beam="1">  1        2 0.45150222E+00 0.18995714E+04</pdfrwt>
<pdfrwt beam="2">  1       -1 0.47289495E-01 0.18995714E+04</pdfrwt>
<totfact> 0.91200818E+00</totfact>
</mgrwt>
</event>
<event>
12    6  0.1450532E-007  0.2258253E+04  0.7818608E-02  0.8494566E-01
          2   -1    0    0  501    0  0.00000000000E+00  0.00000000000E+00  0.33709925781E+04  0.33709925781E+04  0.00000000000E+00 0. -1.
         -1   -1    0    0    0  501 -0.00000000000E+00 -0.00000000000E+00 -0.37820495970E+03  0.37820495970E+03  0.00000000000E+00 0.  1.
         24    2    1    2    0    0 -0.91584673279E+03  0.84623951383E+02  0.87547570277E+03  0.12723155084E+04  0.79953709173E+02 0.  0.
        254    2    1    2    0    0  0.91584673279E+03 -0.84623951383E+02  0.21173119156E+04  0.24768820294E+04  0.89777412998E+03 0.  0.
         23    2    4    4    0    0  0.80463394702E+03  0.25786420042E+03  0.10745497981E+04  0.13701005522E+04  0.92674269422E+02 0.  0.
         23    2    4    4    0    0  0.11121278577E+03 -0.34248815181E+03  0.10427621175E+04  0.11067814771E+04  0.89140263130E+02 0.  0.
          4    1    3    3  502    0 -0.35010153616E+03  0.10432867134E+02  0.28929381085E+03  0.45428057336E+03  0.00000000000E+00 0. -1.
         -3    1    3    3    0  502 -0.56574519662E+03  0.74191084248E+02  0.58618189192E+03  0.81803493501E+03  0.00000000000E+00 0.  1.
         11    1    5    5    0    0  0.18739353246E+03  0.76262930101E+02  0.31865863211E+03  0.37745952675E+03  0.00000000000E+00 0.  1.
        -11    1    5    5    0    0  0.61724041456E+03  0.18160127032E+03  0.75589116595E+03  0.99264102550E+03  0.00000000000E+00 0. -1.
          4    1    6    6  503    0  0.12494457528E+03 -0.29172300043E+03  0.86378544920E+03  0.92023842460E+03  0.00000000000E+00 0. -1.
         -4    1    6    6    0  503 -0.13731789511E+02 -0.50765151372E+02  0.17897666834E+03  0.18654305253E+03  0.00000000000E+00 0.  1.
<mgrwt>
<rscale>  0 0.22582525E+04</rscale>
<asrwt>0</asrwt>
<pdfrwt beam="1">  1        2 0.51861422E+00 0.22582525E+04</pdfrwt>
<pdfrwt beam="2">  1       -1 0.58185381E-01 0.22582525E+04</pdfrwt>
<totfact> 0.30979393E+00</totfact>
</mgrwt>
</event>
<event>
12    6  0.1450532E-007  0.2021971E+04  0.7818608E-02  0.8596417E-01
         -1   -1    0    0    0  501 -0.00000000000E+00  0.00000000000E+00  0.37797383603E+03  0.37797383603E+03  0.00000000000E+00 0.  1.
          2   -1    0    0  501    0  0.00000000000E+00 -0.00000000000E+00 -0.27041324897E+04  0.27041324897E+04  0.00000000000E+00 0. -1.
         24    2    1    2    0    0 -0.27579477979E+03  0.77585764862E+03 -0.95764555480E+03  0.12655359471E+04  0.80488342508E+02 0.  0.
        254    2    1    2    0    0  0.27579477979E+03 -0.77585764862E+03 -0.13685130988E+04  0.18165703786E+04  0.86549522658E+03 0.  0.
         23    2    4    4    0    0  0.31218777964E+03 -0.13120951238E+03 -0.61637810825E+02  0.35597903743E+03  0.90800382533E+02 0.  0.
         23    2    4    4    0    0 -0.36392999854E+02 -0.64464813623E+03 -0.13068752880E+04  0.14605913412E+04  0.92240866721E+02 0.  0.
          2    1    3    3  502    0 -0.20767618919E+03  0.64140895288E+03 -0.81842381416E+03  0.10603548387E+04  0.00000000000E+00 0. -1.
         -1    1    3    3    0  502 -0.68118590597E+02  0.13444869574E+03 -0.13922174064E+03  0.20518110838E+03  0.00000000000E+00 0.  1.
         11    1    5    5    0    0  0.47580955510E+02 -0.13424598448E+02 -0.43370072831E+02  0.65765723505E+02  0.00000000000E+00 0.  1.
        -11    1    5    5    0    0  0.26460682413E+03 -0.11778491394E+03 -0.18267737995E+02  0.29021331392E+03  0.00000000000E+00 0. -1.
          3    1    6    6  503    0 -0.40767112410E+02 -0.32574665523E+03 -0.75308088334E+03  0.82152520211E+03  0.00000000000E+00 0. -1.
         -3    1    6    6    0  503  0.43741125557E+01 -0.31890148100E+03 -0.55379440466E+03  0.63906613904E+03  0.00000000000E+00 0.  1.
<mgrwt>
<rscale>  0 0.20219707E+04</rscale>
<asrwt>0</asrwt>
<pdfrwt beam="1">  1        2 0.41602041E+00 0.20219707E+04</pdfrwt>
<pdfrwt beam="2">  1       -1 0.58149817E-01 0.20219707E+04</pdfrwt>
<totfact> 0.83606092E+00</totfact>
</mgrwt>
</event>
<event>
12    6  0.1450532E-007  0.2134532E+04  0.7818608E-02  0.8546182E-01
         -1   -1    0    0    0  501 -0.00000000000E+00  0.00000000000E+00  0.24039273857E+04  0.24039273857E+04  0.00000000000E+00 0.  1.
          2   -1    0    0  501    0  0.00000000000E+00 -0.00000000000E+00 -0.47383169127E+03  0.47383169127E+03  0.00000000000E+00 0. -1.
         24    2    1    2    0    0  0.32184550346E+03 -0.48183657508E+03 -0.87426957617E+02  0.59144340018E+03  0.80067530953E+02 0.  0.
        254    2    1    2    0    0 -0.32184550346E+03  0.48183657508E+03  0.20175226520E+04  0.22863156768E+04  0.90614055710E+03 0.  0.
         23    2    4    4    0    0 -0.36201322074E+03  0.70725758362E+03  0.12846460860E+04  0.15129101527E+04  0.85526032686E+02 0.  0.
         23    2    4    4    0    0  0.40167717283E+02 -0.22542100853E+03  0.73287656599E+03  0.77340552405E+03  0.92843777673E+02 0.  0.
          4    1    3    3  502    0  0.25999814970E+03 -0.41739500679E+03 -0.48916920857E+02  0.49417658250E+03  0.00000000000E+00 0. -1.
         -3    1    3    3    0  502  0.61847353756E+02 -0.64441568291E+02 -0.38510036760E+02  0.97266817681E+02  0.00000000000E+00 0.  1.
         11    1    5    5    0    0 -0.17221344682E+03  0.42411925387E+03  0.76255027687E+03  0.88939166711E+03  0.00000000000E+00 0. -1.
        -11    1    5    5    0    0 -0.18979977392E+03  0.28313832975E+03  0.52209580917E+03  0.62351848562E+03  0.00000000000E+00 0.  1.
          1    1    6    6  503    0  0.81654400804E+00 -0.12245761681E+03  0.25363328748E+03  0.28164939052E+03  0.00000000000E+00 0. -1.
         -1    1    6    6    0  503  0.39351173275E+02 -0.10296339173E+03  0.47924327850E+03  0.49175613353E+03  0.00000000000E+00 0.  1.
<mgrwt>
<rscale>  0 0.21345322E+04</rscale>
<asrwt>0</asrwt>
<pdfrwt beam="1">  1        2 0.72897185E-01 0.21345322E+04</pdfrwt>
<pdfrwt beam="2">  1       -1 0.36983497E+00 0.21345322E+04</pdfrwt>
<totfact> 0.78903383E-01</totfact>
</mgrwt>
</event>
<event>
12    6  0.1450532E-007  0.1655905E+04  0.7818608E-02  0.8786921E-01
         -1   -1    0    0    0  501 -0.00000000000E+00  0.00000000000E+00  0.57788303416E+03  0.57788303416E+03  0.00000000000E+00 0.  1.
          2   -1    0    0  501    0  0.00000000000E+00 -0.00000000000E+00 -0.11862358800E+04  0.11862358800E+04  0.00000000000E+00 0. -1.
         24    2    1    2    0    0  0.31017826760E+03 -0.37093555155E+03  0.12560920379E+03  0.50556915555E+03  0.77580653942E+02 0.  0.
        254    2    1    2    0    0 -0.31017826760E+03  0.37093555155E+03 -0.73396204959E+03  0.12585497586E+04  0.90080156721E+03 0.  0.
         23    2    4    4    0    0  0.19606407209E+03  0.80373379129E+01 -0.56870611693E+03  0.60781433843E+03  0.86636616945E+02 0.  0.
         23    2    4    4    0    0 -0.50624233970E+03  0.36289821364E+03 -0.16525593266E+03  0.65073542015E+03  0.90391613541E+02 0.  0.
          4    1    3    3  502    0  0.77787974990E+02 -0.55212097370E+02  0.54801627945E+01  0.95547773042E+02  0.00000000000E+00 0. -1.
         -3    1    3    3    0  502  0.23239029261E+03 -0.31572345418E+03  0.12012904099E+03  0.41002138251E+03  0.00000000000E+00 0.  1.
         11    1    5    5    0    0  0.12432873689E+03 -0.74711888848E+01 -0.23323478389E+03  0.26440861918E+03  0.00000000000E+00 0. -1.
        -11    1    5    5    0    0  0.71735335208E+02  0.15508526798E+02 -0.33547133304E+03  0.34340571925E+03  0.00000000000E+00 0.  1.
          1    1    6    6  503    0 -0.38248844689E+03  0.24963097490E+03 -0.15625686356E+03  0.48273102556E+03  0.00000000000E+00 0. -1.
         -1    1    6    6    0  503 -0.12375389281E+03  0.11326723874E+03 -0.89990691012E+01  0.16800439459E+03  0.00000000000E+00 0.  1.
<mgrwt>
<rscale>  0 0.16559053E+04</rscale>
<asrwt>0</asrwt>
<pdfrwt beam="1">  1        2 0.18249783E+00 0.16559053E+04</pdfrwt>
<pdfrwt beam="2">  1       -1 0.88905083E-01 0.16559053E+04</pdfrwt>
<totfact> 0.26087436E+01</totfact>
</mgrwt>
</event>
<event>
12    6  0.1450532E-007  0.1646909E+04  0.7818608E-02  0.8792237E-01
          2   -1    0    0  501    0  0.00000000000E+00  0.00000000000E+00  0.16026254260E+04  0.16026254260E+04  0.00000000000E+00 0. -1.
         -1   -1    0    0    0  501 -0.00000000000E+00 -0.00000000000E+00 -0.42310400039E+03  0.42310400039E+03  0.00000000000E+00 0.  1.
         24    2    1    2    0    0 -0.66364459758E+02 -0.55759846537E+03  0.26566416460E+03  0.62636938129E+03  0.80254989663E+02 0.  0.
        254    2    1    2    0    0  0.66364459758E+02  0.55759846537E+03  0.91385726104E+03  0.13993600451E+04  0.89875088442E+03 0.  0.
         23    2    4    4    0    0  0.34087729370E+03 -0.56946306276E+02  0.18239900048E+03  0.40120676064E+03  0.90869457212E+02 0.  0.
         23    2    4    4    0    0 -0.27451283394E+03  0.61454477164E+03  0.73145826056E+03  0.99815328448E+03  0.90863744302E+02 0.  0.
          4    1    3    3  502    0 -0.76263554284E+02 -0.36205993223E+03  0.15225498999E+03  0.40010636862E+03  0.00000000000E+00 0. -1.
         -3    1    3    3    0  502  0.98990945255E+01 -0.19553853314E+03  0.11340917461E+03  0.22626301267E+03  0.00000000000E+00 0.  1.
         11    1    5    5    0    0  0.22853875239E+03  0.55565434307E+01  0.11050948663E+03  0.25391570089E+03  0.00000000000E+00 0.  1.
        -11    1    5    5    0    0  0.11233854130E+03 -0.62502849707E+02  0.71889513843E+02  0.14729105976E+03  0.00000000000E+00 0. -1.
          1    1    6    6  503    0 -0.84558316570E+01  0.41165924065E+01  0.27894353482E+02  0.29437091878E+02  0.00000000000E+00 0. -1.
         -1    1    6    6    0  503 -0.26605700228E+03  0.61042817924E+03  0.70356390708E+03  0.96871619261E+03  0.00000000000E+00 0.  1.
<mgrwt>
<rscale>  0 0.16469089E+04</rscale>
<asrwt>0</asrwt>
<pdfrwt beam="1">  1        2 0.24655776E+00 0.16469089E+04</pdfrwt>
<pdfrwt beam="2">  1       -1 0.65092924E-01 0.16469089E+04</pdfrwt>
<totfact> 0.28949099E+01</totfact>
</mgrwt>
</event>
<event>
12    6  0.1450532E-007  0.1978803E+04  0.7818608E-02  0.8616595E-01
         -1   -1    0    0    0  501 -0.00000000000E+00  0.00000000000E+00  0.94994119600E+03  0.94994119600E+03  0.00000000000E+00 0.  1.
          2   -1    0    0  501    0  0.00000000000E+00 -0.00000000000E+00 -0.10305012093E+04  0.10305012093E+04  0.00000000000E+00 0. -1.
         24    2    1    2    0    0 -0.71102706140E+03  0.17918369219E+02 -0.35848928882E+03  0.80063925700E+03  0.81413141754E+02 0.  0.
        254    2    1    2    0    0  0.71102706140E+03 -0.17918369219E+02  0.27792927549E+03  0.11798031483E+04  0.89933877747E+03 0.  0.
         23    2    4    4    0    0  0.17563237360E+03 -0.37363456036E+02  0.53945567150E+03  0.57584826176E+03  0.91356666727E+02 0.  0.
         23    2    4    4    0    0  0.53539468780E+03  0.19445086816E+02 -0.26152639601E+03  0.60395488658E+03  0.96642982628E+02 0.  0.
          2    1    3    3  502    0 -0.28337542140E+03 -0.13220604728E+02 -0.18141457298E+03  0.33673084375E+03  0.00000000000E+00 0. -1.
         -1    1    3    3    0  502 -0.42765164000E+03  0.31138973948E+02 -0.17707471584E+03  0.46390841325E+03  0.00000000000E+00 0.  1.
         11    1    5    5    0    0  0.12701990811E+03 -0.48998452524E+02  0.27668780438E+03  0.30836836170E+03  0.00000000000E+00 0. -1.
        -11    1    5    5    0    0  0.48612465489E+02  0.11634996489E+02  0.26276786712E+03  0.26747990006E+03  0.00000000000E+00 0.  1.
          4    1    6    6  503    0  0.34891964299E+02 -0.17191347993E+02 -0.38693183646E+02  0.54864871084E+02  0.00000000000E+00 0.  1.
         -4    1    6    6    0  503  0.50050272350E+03  0.36636434809E+02 -0.22283321237E+03  0.54909001550E+03  0.00000000000E+00 0. -1.
<mgrwt>
<rscale>  0 0.19788032E+04</rscale>
<asrwt>0</asrwt>
<pdfrwt beam="1">  1        2 0.15853865E+00 0.19788032E+04</pdfrwt>
<pdfrwt beam="2">  1       -1 0.14614480E+00 0.19788032E+04</pdfrwt>
<totfact> 0.95658583E+00</totfact>
</mgrwt>
</event>
<event>
12    6  0.1450532E-007  0.1541120E+04  0.7818608E-02  0.8857560E-01
          2   -1    0    0  501    0  0.00000000000E+00  0.00000000000E+00  0.97687179987E+03  0.97687179987E+03  0.00000000000E+00 0. -1.
         -1   -1    0    0    0  501 -0.00000000000E+00 -0.00000000000E+00 -0.60782067003E+03  0.60782067003E+03  0.00000000000E+00 0.  1.
         24    2    1    2    0    0  0.46139919092E+02  0.57974568900E+01  0.64334472448E+03  0.64973416987E+03  0.78099643657E+02 0.  0.
        254    2    1    2    0    0 -0.46139919092E+02 -0.57974568900E+01 -0.27429359464E+03  0.93495830003E+03  0.89260716112E+03 0.  0.
         23    2    4    4    0    0 -0.28940867341E+03  0.31496129226E+03  0.32965126916E+01  0.43745325978E+03  0.91632372182E+02 0.  0.
         23    2    4    4    0    0  0.24326875432E+03 -0.32075874915E+03 -0.27759010734E+03  0.49750504024E+03  0.91592223415E+02 0.  0.
          4    1    3    3  502    0  0.18562416142E+02  0.36050096497E+02  0.46440068153E+03  0.46616752971E+03  0.00000000000E+00 0. -1.
         -3    1    3    3    0  502  0.27577502950E+02 -0.30252639607E+02  0.17894404296E+03  0.18356664017E+03  0.00000000000E+00 0.  1.
         11    1    5    5    0    0 -0.19539672825E+03  0.23306853942E+03  0.41722282432E+02  0.30698790584E+03  0.00000000000E+00 0. -1.
        -11    1    5    5    0    0 -0.94011945159E+02  0.81892752843E+02 -0.38425769740E+02  0.13046535395E+03  0.00000000000E+00 0.  1.
          2    1    6    6  503    0  0.22521105056E+03 -0.26857660032E+03 -0.20415617752E+03  0.40562686345E+03  0.00000000000E+00 0. -1.
         -2    1    6    6    0  503  0.18057703753E+02 -0.52182148836E+02 -0.73433929819E+02  0.91878176792E+02  0.00000000000E+00 0.  1.
<mgrwt>
<rscale>  0 0.15411202E+04</rscale>
<asrwt>0</asrwt>
<pdfrwt beam="1">  1        2 0.15028797E+00 0.15411202E+04</pdfrwt>
<pdfrwt beam="2">  1       -1 0.93510872E-01 0.15411202E+04</pdfrwt>
<totfact> 0.31796302E+01</totfact>
</mgrwt>
</event>
<event>
12    6  0.1450532E-007  0.2159337E+04  0.7818608E-02  0.8535546E-01
         -1   -1    0    0    0  501 -0.00000000000E+00  0.00000000000E+00  0.45755291146E+03  0.45755291146E+03  0.00000000000E+00 0.  1.
          2   -1    0    0  501    0  0.00000000000E+00 -0.00000000000E+00 -0.25476490991E+04  0.25476490991E+04  0.00000000000E+00 0. -1.
         24    2    1    2    0    0  0.36461912425E+03 -0.39230164507E+03  0.12923826683E+03  0.55683109964E+03  0.80688644892E+02 0.  0.
        254    2    1    2    0    0 -0.36461912425E+03  0.39230164507E+03 -0.22193344544E+04  0.24483709109E+04  0.88443598423E+03 0.  0.
         23    2    4    4    0    0  0.39768054062E+01  0.37974954940E+03 -0.30260827113E+03  0.49441789591E+03  0.93014809505E+02 0.  0.
         23    2    4    4    0    0 -0.36859592966E+03  0.12552095667E+02 -0.19167261833E+04  0.19539530150E+04  0.89847696369E+02 0.  0.
          4    1    3    3  502    0  0.27305261388E+02 -0.58215994808E+02  0.33548353223E+02  0.72527038785E+02  0.00000000000E+00 0. -1.
         -3    1    3    3    0  502  0.33731386286E+03 -0.33408565026E+03  0.95689913603E+02  0.48430406085E+03  0.00000000000E+00 0.  1.
         11    1    5    5    0    0 -0.27255607516E+02  0.32750518944E+03 -0.23881855363E+03  0.40624723853E+03  0.00000000000E+00 0. -1.
        -11    1    5    5    0    0  0.31232412922E+02  0.52244359957E+02 -0.63789717497E+02  0.88170657379E+02  0.00000000000E+00 0.  1.
          1    1    6    6  503    0 -0.34528906782E+03  0.62097255223E+01 -0.18669953421E+04  0.18986665606E+04  0.00000000000E+00 0. -1.
         -1    1    6    6    0  503 -0.23306861844E+02  0.63423701449E+01 -0.49730841206E+02  0.55286454355E+02  0.00000000000E+00 0.  1.
<mgrwt>
<rscale>  0 0.21593372E+04</rscale>
<asrwt>0</asrwt>
<pdfrwt beam="1">  1        2 0.39194602E+00 0.21593372E+04</pdfrwt>
<pdfrwt beam="2">  1       -1 0.70392755E-01 0.21593372E+04</pdfrwt>
<totfact> 0.69537309E+00</totfact>
</mgrwt>
</event>
<event>
12    6  0.1450532E-007  0.1117589E+04  0.7818608E-02  0.9188216E-01
         -1   -1    0    0    0  501 -0.00000000000E+00  0.00000000000E+00  0.20486596845E+03  0.20486596845E+03  0.00000000000E+00 0.  1.
          2   -1    0    0  501    0  0.00000000000E+00 -0.00000000000E+00 -0.15241731994E+04  0.15241731994E+04  0.00000000000E+00 0. -1.
         24    2    1    2    0    0  0.23994498658E+02  0.11127402644E+03 -0.47854726492E+03  0.49850050668E+03  0.80855584029E+02 0.  0.
        254    2    1    2    0    0 -0.23994498658E+02 -0.11127402644E+03 -0.84075996604E+03  0.12305386612E+04  0.89128583027E+03 0.  0.
         23    2    4    4    0    0  0.12940614247E+03  0.32820911633E+03 -0.59033256670E+03  0.69376470852E+03  0.91377008732E+02 0.  0.
         23    2    4    4    0    0 -0.15340064113E+03 -0.43948314277E+03 -0.25042739934E+03  0.53677395267E+03  0.93462315645E+02 0.  0.
          2    1    3    3  502    0  0.34730909319E+02  0.36376024966E+02 -0.30581724098E+03  0.30992521055E+03  0.00000000000E+00 0. -1.
         -3    1    3    3    0  502 -0.10736410661E+02  0.74898001473E+02 -0.17273002394E+03  0.18857529612E+03  0.00000000000E+00 0.  1.
         11    1    5    5    0    0  0.14163379191E+02  0.21135091942E+02 -0.10471545724E+03  0.10776186898E+03  0.00000000000E+00 0. -1.
        -11    1    5    5    0    0  0.11524276328E+03  0.30707402439E+03 -0.48561710946E+03  0.58600283954E+03  0.00000000000E+00 0.  1.
          4    1    6    6  503    0 -0.92312543973E+02 -0.24131959927E+03 -0.86595636032E+02  0.27249873201E+03  0.00000000000E+00 0. -1.
         -4    1    6    6    0  503 -0.61088097154E+02 -0.19816354350E+03 -0.16383176331E+03  0.26427522066E+03  0.00000000000E+00 0.  1.
<mgrwt>
<rscale>  0 0.11175889E+04</rscale>
<asrwt>0</asrwt>
<pdfrwt beam="1">  1        2 0.23448817E+00 0.11175889E+04</pdfrwt>
<pdfrwt beam="2">  1       -1 0.31517843E-01 0.11175889E+04</pdfrwt>
<totfact> 0.12993830E+02</totfact>
</mgrwt>
</event>
<event>
12    6  0.1450532E-007  0.1035692E+04  0.7818608E-02  0.9270242E-01
         -1   -1    0    0    0  501 -0.00000000000E+00  0.00000000000E+00  0.37961444578E+03  0.37961444578E+03  0.00000000000E+00 0.  1.
          2   -1    0    0  501    0  0.00000000000E+00 -0.00000000000E+00 -0.70641226461E+03  0.70641226461E+03  0.00000000000E+00 0. -1.
         24    2    1    2    0    0 -0.96094062053E+02  0.31849864811E+02 -0.46525593501E+02  0.13718654536E+03  0.80043954965E+02 0.  0.
        254    2    1    2    0    0  0.96094062053E+02 -0.31849864811E+02 -0.28027222533E+03  0.94884016503E+03  0.90083109174E+03 0.  0.
         23    2    4    4    0    0 -0.17773787030E+03 -0.15938673016E+02 -0.53044985633E+03  0.56662252099E+03  0.88539479187E+02 0.  0.
         23    2    4    4    0    0  0.27383193235E+03 -0.15911191795E+02  0.25017763101E+03  0.38221764405E+03  0.90908674863E+02 0.  0.
          4    1    3    3  502    0 -0.90816704732E+02  0.52757015077E+02 -0.48196499439E+02  0.11555898518E+03  0.00000000000E+00 0. -1.
         -3    1    3    3    0  502 -0.52773573207E+01 -0.20907150266E+02  0.16709059375E+01  0.21627560176E+02  0.00000000000E+00 0.  1.
         11    1    5    5    0    0 -0.15387002026E+03  0.20903175854E+02 -0.41741082161E+03  0.44535909095E+03  0.00000000000E+00 0. -1.
        -11    1    5    5    0    0 -0.23867850030E+02 -0.36841848871E+02 -0.11303903472E+03  0.12126343004E+03  0.00000000000E+00 0.  1.
          4    1    6    6  503    0  0.18357550277E+03  0.31791875689E+02  0.17296073888E+03  0.25421665125E+03  0.00000000000E+00 0. -1.
         -4    1    6    6    0  503  0.90256429579E+02 -0.47703067484E+02  0.77216892123E+02  0.12800099280E+03  0.00000000000E+00 0.  1.
<mgrwt>
<rscale>  0 0.10356917E+04</rscale>
<asrwt>0</asrwt>
<pdfrwt beam="1">  1        2 0.10867881E+00 0.10356917E+04</pdfrwt>
<pdfrwt beam="2">  1       -1 0.58402222E-01 0.10356917E+04</pdfrwt>
<totfact> 0.13692806E+02</totfact>
</mgrwt>
</event>
<event>
12    6  0.1450532E-007  0.1459750E+04  0.7818608E-02  0.8911669E-01
         -1   -1    0    0    0  501 -0.00000000000E+00  0.00000000000E+00  0.24351799550E+03  0.24351799550E+03  0.00000000000E+00 0.  1.
          2   -1    0    0  501    0  0.00000000000E+00 -0.00000000000E+00 -0.21875892941E+04  0.21875892941E+04  0.00000000000E+00 0. -1.
         24    2    1    2    0    0 -0.17356263948E+02  0.74511368986E+02 -0.13496632436E+04  0.13541599046E+04  0.79403980814E+02 0.  0.
        254    2    1    2    0    0  0.17356263948E+02 -0.74511368986E+02 -0.59440805507E+03  0.10769473850E+04  0.89478575660E+03 0.  0.
         23    2    4    4    0    0  0.75172744524E+01  0.20657722008E+03 -0.72112071389E+03  0.75578683632E+03  0.92021740276E+02 0.  0.
         23    2    4    4    0    0  0.98389894961E+01 -0.28108858907E+03  0.12671265882E+03  0.32116054873E+03  0.89333081983E+02 0.  0.
          2    1    3    3  502    0 -0.10030227203E+02  0.83504665450E+02 -0.13133235610E+04  0.13160138337E+04  0.00000000000E+00 0. -1.
         -1    1    3    3    0  502 -0.73260367459E+01 -0.89932964632E+01 -0.36339682564E+02  0.38146070892E+02  0.00000000000E+00 0.  1.
         11    1    5    5    0    0  0.38087795775E+02  0.14351078806E+03 -0.57295588284E+03  0.59188214212E+03  0.00000000000E+00 0.  1.
        -11    1    5    5    0    0 -0.30570521323E+02  0.63066432020E+02 -0.14816483105E+03  0.16390469420E+03  0.00000000000E+00 0. -1.
          3    1    6    6  503    0  0.34707650115E+02 -0.97794268118E+02  0.78183278418E+02  0.12992676736E+03  0.00000000000E+00 0. -1.
         -3    1    6    6    0  503 -0.24868660619E+02 -0.18329432095E+03  0.48529380399E+02  0.19123378136E+03  0.00000000000E+00 0.  1.
<mgrwt>
<rscale>  0 0.14597498E+04</rscale>
<asrwt>0</asrwt>
<pdfrwt beam="1">  1        2 0.33655221E+00 0.14597498E+04</pdfrwt>
<pdfrwt beam="2">  1       -1 0.37464306E-01 0.14597498E+04</pdfrwt>
<totfact> 0.39801018E+01</totfact>
</mgrwt>
</event>
<event>
12    6  0.1450532E-007  0.1558597E+04  0.7818608E-02  0.8846395E-01
         -1   -1    0    0    0  501 -0.00000000000E+00  0.00000000000E+00  0.54004497043E+03  0.54004497043E+03  0.00000000000E+00 0.  1.
          2   -1    0    0  501    0  0.00000000000E+00 -0.00000000000E+00 -0.11245474483E+04  0.11245474483E+04  0.00000000000E+00 0. -1.
         24    2    1    2    0    0 -0.30897865115E+03 -0.34774065202E+03 -0.42989856521E+03  0.63851976502E+03  0.80643325937E+02 0.  0.
        254    2    1    2    0    0  0.30897865115E+03  0.34774065202E+03 -0.15460391269E+03  0.10260726537E+04  0.90140521022E+03 0.  0.
         23    2    4    4    0    0  0.37819030420E+03 -0.18773233703E+03 -0.20167209033E+03  0.47627099144E+03  0.88831800089E+02 0.  0.
         23    2    4    4    0    0 -0.69211653050E+02  0.53547298905E+03  0.47068177636E+02  0.54980166231E+03  0.92438518029E+02 0.  0.
          4    1    3    3  502    0 -0.29642852358E+03 -0.34801670202E+03 -0.40548348868E+03  0.61106657090E+03  0.00000000000E+00 0. -1.
         -3    1    3    3    0  502 -0.12550127571E+02  0.27604999932E+00 -0.24415076526E+02  0.27453194121E+02  0.00000000000E+00 0.  1.
         11    1    5    5    0    0  0.61172601142E+02 -0.65528012190E+00 -0.12632866239E+02  0.62466837857E+02  0.00000000000E+00 0. -1.
        -11    1    5    5    0    0  0.31701770306E+03 -0.18707705690E+03 -0.18903922409E+03  0.41380415358E+03  0.00000000000E+00 0.  1.
          1    1    6    6  503    0 -0.27121922920E+02  0.24167253173E+03 -0.24721116281E+02  0.24444292766E+03  0.00000000000E+00 0. -1.
         -1    1    6    6    0  503 -0.42089730130E+02  0.29380045732E+03  0.71789293917E+02  0.30535873465E+03  0.00000000000E+00 0.  1.
<mgrwt>
<rscale>  0 0.15585971E+04</rscale>
<asrwt>0</asrwt>
<pdfrwt beam="1">  1        2 0.17300730E+00 0.15585971E+04</pdfrwt>
<pdfrwt beam="2">  1       -1 0.83083842E-01 0.15585971E+04</pdfrwt>
<totfact> 0.33209282E+01</totfact>
</mgrwt>
</event>
<event>
12    6  0.1450532E-007  0.1666670E+04  0.7818608E-02  0.8780605E-01
          2   -1    0    0  501    0  0.00000000000E+00  0.00000000000E+00  0.27316969190E+04  0.27316969190E+04  0.00000000000E+00 0. -1.
         -1   -1    0    0    0  501 -0.00000000000E+00 -0.00000000000E+00 -0.25421819566E+03  0.25421819566E+03  0.00000000000E+00 0.  1.
         24    2    1    2    0    0 -0.50508822834E+02 -0.18897533822E+03  0.18128679732E+04  0.18251161831E+04  0.79347174032E+02 0.  0.
        254    2    1    2    0    0  0.50508822834E+02  0.18897533822E+03  0.66461075011E+03  0.11607989315E+04  0.93138815248E+03 0.  0.
         23    2    4    4    0    0 -0.23473413287E+03 -0.25346290046E+03  0.47404115882E+03  0.59313727776E+03  0.88052569325E+02 0.  0.
         23    2    4    4    0    0  0.28524295571E+03  0.44243823868E+03  0.19056959129E+03  0.56766165374E+03  0.93850120825E+02 0.  0.
          4    1    3    3  502    0 -0.19911370542E+02 -0.17428890688E+03  0.15954630797E+04  0.16050780431E+04  0.00000000000E+00 0. -1.
         -1    1    3    3    0  502 -0.30597452292E+02 -0.14686431336E+02  0.21740489354E+03  0.22003814007E+03  0.00000000000E+00 0.  1.
         11    1    5    5    0    0 -0.16323616333E+03 -0.20549433913E+03  0.29744425645E+03  0.39666995617E+03  0.00000000000E+00 0.  1.
        -11    1    5    5    0    0 -0.71497969542E+02 -0.47968561335E+02  0.17659690238E+03  0.19646732160E+03  0.00000000000E+00 0. -1.
          1    1    6    6  503    0  0.25532861033E+03  0.33556750456E+03  0.13008683216E+03  0.44127183602E+03  0.00000000000E+00 0. -1.
         -1    1    6    6    0  503  0.29914345381E+02  0.10687073412E+03  0.60482759123E+02  0.12638981772E+03  0.00000000000E+00 0.  1.
<mgrwt>
<rscale>  0 0.16666698E+04</rscale>
<asrwt>0</asrwt>
<pdfrwt beam="1">  1        2 0.42026105E+00 0.16666698E+04</pdfrwt>
<pdfrwt beam="2">  1       -1 0.39110493E-01 0.16666698E+04</pdfrwt>
<totfact> 0.17582761E+01</totfact>
</mgrwt>
</event>
<event>
12    6  0.1450532E-007  0.2074236E+04  0.7818608E-02  0.8572678E-01
         -1   -1    0    0    0  501 -0.00000000000E+00  0.00000000000E+00  0.12310273315E+04  0.12310273315E+04  0.00000000000E+00 0.  1.
          2   -1    0    0  501    0  0.00000000000E+00 -0.00000000000E+00 -0.87375327862E+03  0.87375327862E+03  0.00000000000E+00 0. -1.
         24    2    1    2    0    0 -0.39403124165E+02  0.64673579692E+03  0.67717274888E+03  0.94299740317E+03  0.10421791278E+03 0.  0.
        254    2    1    2    0    0  0.39403124165E+02 -0.64673579692E+03 -0.31989869599E+03  0.11617832070E+04  0.90971712477E+03 0.  0.
         23    2    4    4    0    0  0.13665326093E+03 -0.21548749848E+03  0.29425276758E+03  0.39944692260E+03  0.88680195193E+02 0.  0.
         23    2    4    4    0    0 -0.97250136766E+02 -0.43124829844E+03 -0.61415146357E+03  0.76233628437E+03  0.92422433734E+02 0.  0.
          4    1    3    3  502    0  0.21013604602E+02  0.91435307173E+02  0.13629870940E+03  0.16546699115E+03  0.00000000000E+00 0. -1.
         -3    1    3    3    0  502 -0.60416728767E+02  0.55530048975E+03  0.54087403948E+03  0.77753041202E+03  0.00000000000E+00 0.  1.
         11    1    5    5    0    0  0.10333943855E+03 -0.11499439419E+03  0.12065756408E+03  0.19611475729E+03  0.00000000000E+00 0. -1.
        -11    1    5    5    0    0  0.33313822377E+02 -0.10049310429E+03  0.17359520350E+03  0.20333216531E+03  0.00000000000E+00 0.  1.
          3    1    6    6  503    0 -0.12540086525E+02 -0.13677338074E+03 -0.25982804615E+03  0.29389594249E+03  0.00000000000E+00 0. -1.
         -3    1    6    6    0  503 -0.84710050242E+02 -0.29447491770E+03 -0.35432341742E+03  0.46844034188E+03  0.00000000000E+00 0.  1.
<mgrwt>
<rscale>  0 0.20742364E+04</rscale>
<asrwt>0</asrwt>
<pdfrwt beam="1">  1        2 0.13442358E+00 0.20742364E+04</pdfrwt>
<pdfrwt beam="2">  1       -1 0.18938882E+00 0.20742364E+04</pdfrwt>
<totfact> 0.57453442E+00</totfact>
</mgrwt>
</event>
<event>
12    6  0.1450532E-007  0.1716498E+04  0.7818608E-02  0.8752010E-01
          2   -1    0    0  501    0  0.00000000000E+00  0.00000000000E+00  0.88251305814E+03  0.88251305814E+03  0.00000000000E+00 0. -1.
         -1   -1    0    0    0  501 -0.00000000000E+00 -0.00000000000E+00 -0.83465228631E+03  0.83465228631E+03  0.00000000000E+00 0.  1.
         24    2    1    2    0    0 -0.16970787277E+03  0.35931306553E+02  0.61164438763E+03  0.64058559680E+03  0.78417020077E+02 0.  0.
        254    2    1    2    0    0  0.16970787277E+03 -0.35931306553E+02 -0.56378361580E+03  0.10765797477E+04  0.90059989271E+03 0.  0.
         23    2    4    4    0    0  0.24478770166E+03 -0.13595840360E+03 -0.76740124838E+03  0.82074757989E+03  0.79474571247E+02 0.  0.
         23    2    4    4    0    0 -0.75079828895E+02  0.10002709705E+03  0.20361763258E+03  0.25583216777E+03  0.91364965458E+02 0.  0.
          2    1    3    3  502    0 -0.13218069061E+03  0.30541210242E+02  0.56187601675E+03  0.57802176316E+03  0.00000000000E+00 0. -1.
         -1    1    3    3    0  502 -0.37527182161E+02  0.53900963104E+01  0.49768370884E+02  0.62563833639E+02  0.00000000000E+00 0.  1.
         11    1    5    5    0    0  0.22154789935E+03 -0.13679761667E+03 -0.74175350644E+03  0.78612678618E+03  0.00000000000E+00 0. -1.
        -11    1    5    5    0    0  0.23239802314E+02  0.83921306842E+00 -0.25647741944E+02  0.34620793708E+02  0.00000000000E+00 0.  1.
          2    1    6    6  503    0  0.16705637935E+02  0.31492853830E+02  0.78394968281E+02  0.86119970001E+02  0.00000000000E+00 0. -1.
         -2    1    6    6    0  503 -0.91785466829E+02  0.68534243222E+02  0.12522266430E+03  0.16971219776E+03  0.00000000000E+00 0.  1.
<mgrwt>
<rscale>  0 0.17164982E+04</rscale>
<asrwt>0</asrwt>
<pdfrwt beam="1">  1        2 0.13577124E+00 0.17164982E+04</pdfrwt>
<pdfrwt beam="2">  1       -1 0.12840804E+00 0.17164982E+04</pdfrwt>
<totfact> 0.17103046E+01</totfact>
</mgrwt>
</event>
<event>
12    6  0.1450532E-007  0.1973962E+04  0.7818608E-02  0.8618892E-01
          2   -1    0    0  501    0  0.00000000000E+00  0.00000000000E+00  0.24053444735E+04  0.24053444735E+04  0.00000000000E+00 0. -1.
         -1   -1    0    0    0  501 -0.00000000000E+00 -0.00000000000E+00 -0.40498644806E+03  0.40498644806E+03  0.00000000000E+00 0.  1.
         24    2    1    2    0    0  0.47673134638E+03  0.36963758372E+03  0.83122205423E+02  0.61430502725E+03  0.80973116208E+02 0.  0.
        254    2    1    2    0    0 -0.47673134638E+03 -0.36963758372E+03  0.19172358200E+04  0.21960258943E+04  0.88477783598E+03 0.  0.
         23    2    4    4    0    0 -0.13725546126E+02 -0.54903669103E+03  0.85749963010E+03  0.10217754666E+04  0.84201008162E+02 0.  0.
         23    2    4    4    0    0 -0.46300580025E+03  0.17939910731E+03  0.10597361899E+04  0.11742504277E+04  0.96254163777E+02 0.  0.
          2    1    3    3  502    0  0.95500105964E+02  0.11646861098E+03  0.30249222144E+02  0.15362364084E+03  0.00000000000E+00 0. -1.
         -1    1    3    3    0  502  0.38123124041E+03  0.25316897273E+03  0.52872983279E+02  0.46068138641E+03  0.00000000000E+00 0.  1.
         11    1    5    5    0    0 -0.48054040291E+02 -0.25849160452E+03  0.41728726303E+03  0.49320965145E+03  0.00000000000E+00 0. -1.
        -11    1    5    5    0    0  0.34328494165E+02 -0.29054508651E+03  0.44021236708E+03  0.52856581514E+03  0.00000000000E+00 0.  1.
          2    1    6    6  503    0 -0.68024759028E+02  0.25422587856E+02  0.24890825702E+03  0.25928554959E+03  0.00000000000E+00 0. -1.
         -2    1    6    6    0  503 -0.39498104122E+03  0.15397651945E+03  0.81082793290E+03  0.91496487814E+03  0.00000000000E+00 0.  1.
<mgrwt>
<rscale>  0 0.19739624E+04</rscale>
<asrwt>0</asrwt>
<pdfrwt beam="1">  1        2 0.37005299E+00 0.19739624E+04</pdfrwt>
<pdfrwt beam="2">  1       -1 0.62305609E-01 0.19739624E+04</pdfrwt>
<totfact> 0.10935937E+01</totfact>
</mgrwt>
</event>
<event>
12    6  0.1450532E-007  0.1741062E+04  0.7818608E-02  0.8738286E-01
         -1   -1    0    0    0  501 -0.00000000000E+00  0.00000000000E+00  0.40031879555E+03  0.40031879555E+03  0.00000000000E+00 0.  1.
          2   -1    0    0  501    0  0.00000000000E+00 -0.00000000000E+00 -0.18930507755E+04  0.18930507755E+04  0.00000000000E+00 0. -1.
         24    2    1    2    0    0 -0.20182637536E+03  0.36319851609E+03 -0.10506345666E+04  0.11325233835E+04  0.78289040033E+02 0.  0.
        254    2    1    2    0    0  0.20182637536E+03 -0.36319851609E+03 -0.44209741332E+03  0.11608461875E+04  0.98968009999E+03 0.  0.
         23    2    4    4    0    0  0.46914602009E+03 -0.73310383344E+02 -0.55994696721E+03  0.73934590642E+03  0.87288961331E+02 0.  0.
         23    2    4    4    0    0 -0.26731964474E+03 -0.28988813275E+03  0.11784955390E+03  0.42150028109E+03  0.90989272098E+02 0.  0.
          4    1    3    3  502    0 -0.20658451090E+03  0.34646694015E+03 -0.10252517640E+04  0.11017520957E+04  0.00000000000E+00 0. -1.
         -3    1    3    3    0  502  0.47581355427E+01  0.16731575937E+02 -0.25382802670E+02  0.30771287892E+02  0.00000000000E+00 0.  1.
         11    1    5    5    0    0  0.11319653779E+03 -0.20203485390E+02 -0.19775539270E+03  0.22875496133E+03  0.00000000000E+00 0.  1.
        -11    1    5    5    0    0  0.35594948230E+03 -0.53106897953E+02 -0.36219157451E+03  0.51059094509E+03  0.00000000000E+00 0. -1.
          1    1    6    6  503    0 -0.26324341248E+03 -0.29371434361E+03  0.12374651106E+03  0.41337441727E+03  0.00000000000E+00 0. -1.
         -1    1    6    6    0  503 -0.40762322597E+01  0.38262108658E+01 -0.58969571624E+01  0.81258638186E+01  0.00000000000E+00 0.  1.
<mgrwt>
<rscale>  0 0.17410615E+04</rscale>
<asrwt>0</asrwt>
<pdfrwt beam="1">  1        2 0.29123858E+00 0.17410615E+04</pdfrwt>
<pdfrwt beam="2">  1       -1 0.61587507E-01 0.17410615E+04</pdfrwt>
<totfact> 0.22130814E+01</totfact>
</mgrwt>
</event>
<event>
12    6  0.1450532E-007  0.1874750E+04  0.7818608E-02  0.8667528E-01
          2   -1    0    0  501    0  0.00000000000E+00  0.00000000000E+00  0.11225773018E+04  0.11225773018E+04  0.00000000000E+00 0. -1.
         -1   -1    0    0    0  501 -0.00000000000E+00 -0.00000000000E+00 -0.78272720178E+03  0.78272720178E+03  0.00000000000E+00 0.  1.
         24    2    1    2    0    0 -0.10200344942E+03 -0.20161478950E+03 -0.56132240079E+03  0.60811042803E+03  0.60516345055E+02 0.  0.
        254    2    1    2    0    0  0.10200344942E+03  0.20161478950E+03  0.90117250077E+03  0.12971940755E+04  0.90528855418E+03 0.  0.
         23    2    4    4    0    0  0.32193696640E+03  0.30603497155E+02 -0.11605527102E+02  0.33846101461E+03  0.99202750876E+02 0.  0.
         23    2    4    4    0    0 -0.21993351698E+03  0.17101129234E+03  0.91277802787E+03  0.95873306089E+03  0.91595523181E+02 0.  0.
          4    1    3    3  502    0 -0.82695460282E+01 -0.37944142029E+01 -0.65319040265E+02  0.65949677723E+02  0.00000000000E+00 0. -1.
         -1    1    3    3    0  502 -0.93733903391E+02 -0.19782037529E+03 -0.49600336052E+03  0.54216075031E+03  0.00000000000E+00 0.  1.
         11    1    5    5    0    0  0.19941696363E+03  0.67024526934E+02 -0.40268861397E+01  0.21041774737E+03  0.00000000000E+00 0.  1.
        -11    1    5    5    0    0  0.12252000277E+03 -0.36421029780E+02 -0.75786409627E+01  0.12804326725E+03  0.00000000000E+00 0. -1.
          2    1    6    6  503    0 -0.20788525643E+03  0.15117212274E+03  0.71888977671E+03  0.76346041259E+03  0.00000000000E+00 0. -1.
         -2    1    6    6    0  503 -0.12048260549E+02  0.19839169601E+02  0.19388825117E+03  0.19527264830E+03  0.00000000000E+00 0.  1.
<mgrwt>
<rscale>  0 0.18747499E+04</rscale>
<asrwt>0</asrwt>
<pdfrwt beam="1">  1        2 0.17270420E+00 0.18747499E+04</pdfrwt>
<pdfrwt beam="2">  1       -1 0.12041957E+00 0.18747499E+04</pdfrwt>
<totfact> 0.13862683E+01</totfact>
</mgrwt>
</event>
<event>
12    6  0.1485850E-007  0.1724915E+04  0.7818608E-02  0.8747281E-01
          2   -1    0    0  501    0  0.00000000000E+00  0.00000000000E+00  0.33380886684E+04  0.33380886684E+04  0.00000000000E+00 0. -1.
         -1   -1    0    0    0  501 -0.00000000000E+00 -0.00000000000E+00 -0.22283188049E+03  0.22283188049E+03  0.00000000000E+00 0.  1.
         24    2    1    2    0    0  0.26790967698E+03  0.29025399139E+03  0.21151969956E+04  0.21533435069E+04  0.82504266549E+02 0.  0.
        254    2    1    2    0    0 -0.26790967698E+03 -0.29025399139E+03  0.10000597923E+04  0.14075770419E+04  0.90836697780E+03 0.  0.
         23    2    4    4    0    0  0.19095083326E+03  0.20778802214E+03  0.40327708442E+03  0.50053665169E+03  0.90920019820E+02 0.  0.
         23    2    4    4    0    0 -0.45886051024E+03 -0.49804201354E+03  0.59678270786E+03  0.90704039026E+03  0.89296439217E+02 0.  0.
          2    1    3    3  502    0  0.22795124762E+03  0.19438646618E+03  0.15892848896E+04  0.16172737338E+04  0.00000000000E+00 0. -1.
         -1    1    3    3    0  502  0.39958429361E+02  0.95867525219E+02  0.52591210601E+03  0.53606977317E+03  0.00000000000E+00 0.  1.
         11    1    5    5    0    0  0.20020451295E+03  0.18957513913E+03  0.38115128324E+03  0.47042202446E+03  0.00000000000E+00 0. -1.
        -11    1    5    5    0    0 -0.92536796967E+01  0.18212883010E+02  0.22125801181E+02  0.30114627233E+02  0.00000000000E+00 0.  1.
          1    1    6    6  503    0 -0.46005194051E+03 -0.48026644432E+03  0.58444678335E+03  0.88537093247E+03  0.00000000000E+00 0. -1.
         -1    1    6    6    0  503  0.11914302695E+01 -0.17775569221E+02  0.12335924511E+02  0.21669457787E+02  0.00000000000E+00 0.  1.
<mgrwt>
<rscale>  0 0.17249146E+04</rscale>
<asrwt>0</asrwt>
<pdfrwt beam="1">  1        2 0.51355207E+00 0.17249146E+04</pdfrwt>
<pdfrwt beam="2">  1       -1 0.34281830E-01 0.17249146E+04</pdfrwt>
<totfact> 0.92161022E+00</totfact>
</mgrwt>
</event>
<event>
12    6  0.1450532E-007  0.1633115E+04  0.7818608E-02  0.8800458E-01
         -1   -1    0    0    0  501 -0.00000000000E+00  0.00000000000E+00  0.53985937729E+03  0.53985937729E+03  0.00000000000E+00 0.  1.
          2   -1    0    0  501    0  0.00000000000E+00 -0.00000000000E+00 -0.12350742966E+04  0.12350742966E+04  0.00000000000E+00 0. -1.
         24    2    1    2    0    0  0.16236761462E+03 -0.36091829854E+03  0.22840490554E+03  0.46481299492E+03  0.85188372890E+02 0.  0.
        254    2    1    2    0    0 -0.16236761462E+03  0.36091829854E+03 -0.92361982485E+03  0.13101206790E+04  0.84066482745E+03 0.  0.
         23    2    4    4    0    0 -0.40517612844E+03  0.22115526717E+03 -0.89853685319E+03  0.10141715986E+04  0.89990042088E+02 0.  0.
         23    2    4    4    0    0  0.24280851382E+03  0.13976303137E+03 -0.25082971659E+02  0.29594908034E+03  0.92016429836E+02 0.  0.
          2    1    3    3  502    0  0.74695074114E+02 -0.75467742654E+02  0.57419199670E+02  0.12071329160E+03  0.00000000000E+00 0. -1.
         -1    1    3    3    0  502  0.87672540502E+02 -0.28545055589E+03  0.17098570587E+03  0.34409970332E+03  0.00000000000E+00 0.  1.
         11    1    5    5    0    0 -0.33671758457E+03  0.15699652434E+03 -0.77097700149E+03  0.85582251503E+03  0.00000000000E+00 0. -1.
        -11    1    5    5    0    0 -0.68458543871E+02  0.64158742829E+02 -0.12755985170E+03  0.15834908360E+03  0.00000000000E+00 0.  1.
          2    1    6    6  503    0  0.23461093153E+03  0.15135278408E+03 -0.30278711988E+02  0.28083225392E+03  0.00000000000E+00 0. -1.
         -2    1    6    6    0  503  0.81975822947E+01 -0.11589752708E+02  0.51957403284E+01  0.15116826415E+02  0.00000000000E+00 0.  1.
<mgrwt>
<rscale>  0 0.16331154E+04</rscale>
<asrwt>0</asrwt>
<pdfrwt beam="1">  1        2 0.19001143E+00 0.16331154E+04</pdfrwt>
<pdfrwt beam="2">  1       -1 0.83055289E-01 0.16331154E+04</pdfrwt>
<totfact> 0.28339476E+01</totfact>
</mgrwt>
</event>
<event>
12    6  0.1450532E-007  0.1467562E+04  0.7818608E-02  0.8906315E-01
         -1   -1    0    0    0  501 -0.00000000000E+00  0.00000000000E+00  0.20982543805E+04  0.20982543805E+04  0.00000000000E+00 0.  1.
          2   -1    0    0  501    0  0.00000000000E+00 -0.00000000000E+00 -0.25661081600E+03  0.25661081600E+03  0.00000000000E+00 0. -1.
         24    2    1    2    0    0  0.33057831495E+03  0.29501737323E+03  0.43180029227E+03  0.62371100994E+03  0.79035806341E+02 0.  0.
        254    2    1    2    0    0 -0.33057831495E+03 -0.29501737323E+03  0.14098432722E+04  0.17311541865E+04  0.90162048144E+03 0.  0.
         23    2    4    4    0    0  0.16653124558E+03 -0.70102494498E+02 -0.14586135514E+02  0.20306605057E+03  0.91520762969E+02 0.  0.
         23    2    4    4    0    0 -0.49710956053E+03 -0.22491487873E+03  0.14244294077E+04  0.15280881360E+04  0.91376123077E+02 0.  0.
          2    1    3    3  502    0  0.29520974330E+03  0.24052836675E+03  0.33525127158E+03  0.50734219502E+03  0.00000000000E+00 0. -1.
         -1    1    3    3    0  502  0.35368571648E+02  0.54489006480E+02  0.96549020698E+02  0.11636881492E+03  0.00000000000E+00 0.  1.
         11    1    5    5    0    0 -0.97622628475E+00  0.47407230384E+01 -0.18938372567E+02  0.19547107924E+02  0.00000000000E+00 0.  1.
        -11    1    5    5    0    0  0.16750747186E+03 -0.74843217536E+02  0.43522370535E+01  0.18351894264E+03  0.00000000000E+00 0. -1.
          1    1    6    6  503    0 -0.49834453908E+03 -0.21523533343E+03  0.13880141870E+04  0.14903881749E+04  0.00000000000E+00 0. -1.
         -1    1    6    6    0  503  0.12349785521E+01 -0.96795452975E+01  0.36415220666E+02  0.37699961079E+02  0.00000000000E+00 0.  1.
<mgrwt>
<rscale>  0 0.14675623E+04</rscale>
<asrwt>0</asrwt>
<pdfrwt beam="1">  1        2 0.39478588E-01 0.14675623E+04</pdfrwt>
<pdfrwt beam="2">  1       -1 0.32280835E+00 0.14675623E+04</pdfrwt>
<totfact> 0.34170577E+00</totfact>
</mgrwt>
</event>
<event>
12    6  0.1450532E-007  0.1449871E+04  0.7818608E-02  0.8918490E-01
         -1   -1    0    0    0  501 -0.00000000000E+00  0.00000000000E+00  0.84423791463E+03  0.84423791463E+03  0.00000000000E+00 0.  1.
          2   -1    0    0  501    0  0.00000000000E+00 -0.00000000000E+00 -0.62249248560E+03  0.62249248560E+03  0.00000000000E+00 0. -1.
         24    2    1    2    0    0  0.32733612677E+02  0.23769696385E+03  0.44362398698E+03  0.51069423421E+03  0.80218595172E+02 0.  0.
        254    2    1    2    0    0 -0.32733612677E+02 -0.23769696385E+03 -0.22187855795E+03  0.95603616602E+03  0.89844516818E+03 0.  0.
         23    2    4    4    0    0  0.21525392965E+03  0.84295273589E+02  0.23154004611E+03  0.34025612631E+03  0.93399631493E+02 0.  0.
         23    2    4    4    0    0 -0.24798754232E+03 -0.32199223744E+03 -0.45341860406E+03  0.61578003971E+03  0.91759493652E+02 0.  0.
          2    1    3    3  502    0  0.31009526036E+02  0.13613483139E+03  0.17742758222E+03  0.22577606152E+03  0.00000000000E+00 0. -1.
         -1    1    3    3    0  502  0.17240866408E+01  0.10156213246E+03  0.26619640475E+03  0.28491817269E+03  0.00000000000E+00 0.  1.
         11    1    5    5    0    0  0.21207742646E+02 -0.19888910427E+02  0.26288675172E+02  0.39197341089E+02  0.00000000000E+00 0.  1.
        -11    1    5    5    0    0  0.19404618700E+03  0.10418418402E+03  0.20525137094E+03  0.30105878522E+03  0.00000000000E+00 0. -1.
          1    1    6    6  503    0 -0.11430737264E+03 -0.18024062451E+03 -0.17525982185E+03  0.27616817941E+03  0.00000000000E+00 0. -1.
         -1    1    6    6    0  503 -0.13368016968E+03 -0.14175161293E+03 -0.27815878221E+03  0.33961186030E+03  0.00000000000E+00 0.  1.
<mgrwt>
<rscale>  0 0.14498714E+04</rscale>
<asrwt>0</asrwt>
<pdfrwt beam="1">  1        2 0.95768075E-01 0.14498714E+04</pdfrwt>
<pdfrwt beam="2">  1       -1 0.12988276E+00 0.14498714E+04</pdfrwt>
<totfact> 0.26716935E+01</totfact>
</mgrwt>
</event>
<event>
12    6  0.1450532E-007  0.1588632E+04  0.7818608E-02  0.8827562E-01
          2   -1    0    0  501    0  0.00000000000E+00  0.00000000000E+00  0.38977618799E+03  0.38977618799E+03  0.00000000000E+00 0. -1.
         -1   -1    0    0    0  501 -0.00000000000E+00 -0.00000000000E+00 -0.16187186816E+04  0.16187186816E+04  0.00000000000E+00 0.  1.
         24    2    1    2    0    0  0.19056104934E+03 -0.20004230400E+03  0.15779333775E+03  0.32822295492E+03  0.80629608610E+02 0.  0.
        254    2    1    2    0    0 -0.19056104934E+03  0.20004230400E+03 -0.13867358314E+04  0.16802719147E+04  0.90771526610E+03 0.  0.
         23    2    4    4    0    0 -0.48274783877E+03 -0.84375566471E+02 -0.53289313260E+03  0.72972839509E+03  0.91453418568E+02 0.  0.
         23    2    4    4    0    0  0.29218678944E+03  0.28441787047E+03 -0.85384269876E+03  0.95054351957E+03  0.90658609146E+02 0.  0.
          2    1    3    3  502    0  0.11775101048E+03 -0.17460916753E+03  0.11885008307E+03  0.24182432488E+03  0.00000000000E+00 0. -1.
         -1    1    3    3    0  502  0.72810038854E+02 -0.25433136467E+02  0.38943254675E+02  0.86398630042E+02  0.00000000000E+00 0.  1.
         11    1    5    5    0    0 -0.42927075486E+03 -0.69258703422E+02 -0.50843571746E+03  0.66901197879E+03  0.00000000000E+00 0. -1.
        -11    1    5    5    0    0 -0.53477083919E+02 -0.15116863049E+02 -0.24457415139E+02  0.60716416299E+02  0.00000000000E+00 0.  1.
          1    1    6    6  503    0  0.27908003655E+03  0.27250595519E+03 -0.75168745750E+03  0.84686433162E+03  0.00000000000E+00 0. -1.
         -1    1    6    6    0  503  0.13106752885E+02  0.11911915283E+02 -0.10215524126E+03  0.10367918795E+03  0.00000000000E+00 0.  1.
<mgrwt>
<rscale>  0 0.15886321E+04</rscale>
<asrwt>0</asrwt>
<pdfrwt beam="1">  1        2 0.59965568E-01 0.15886321E+04</pdfrwt>
<pdfrwt beam="2">  1       -1 0.24903364E+00 0.15886321E+04</pdfrwt>
<totfact> 0.63618010E+00</totfact>
</mgrwt>
</event>
<event>
12    6  0.1450532E-007  0.3416196E+04  0.7818608E-02  0.8133943E-01
         -1   -1    0    0    0  501 -0.00000000000E+00  0.00000000000E+00  0.17645724759E+04  0.17645724759E+04  0.00000000000E+00 0.  1.
          2   -1    0    0  501    0  0.00000000000E+00 -0.00000000000E+00 -0.16534312931E+04  0.16534312931E+04  0.00000000000E+00 0. -1.
         24    2    1    2    0    0  0.21939648654E+03  0.14673525019E+04 -0.52486763930E+03  0.15758043349E+04  0.80094196042E+02 0.  0.
        254    2    1    2    0    0 -0.21939648654E+03 -0.14673525019E+04  0.63600882207E+03  0.18421994341E+04  0.88765609907E+03 0.  0.
         23    2    4    4    0    0  0.76538794227E+02 -0.11692839936E+04  0.75385861920E+03  0.13963648572E+04  0.91917092750E+02 0.  0.
         23    2    4    4    0    0 -0.29593528076E+03 -0.29806850828E+03 -0.11784979713E+03  0.44583457693E+03  0.91963956359E+02 0.  0.
          2    1    3    3  502    0  0.19497583369E+03  0.10628985317E+04 -0.38178635712E+03  0.11460932278E+04  0.00000000000E+00 0. -1.
         -1    1    3    3    0  502  0.24420652845E+02  0.40445397018E+03 -0.14308128218E+03  0.42971110713E+03  0.00000000000E+00 0.  1.
         11    1    5    5    0    0  0.47516191200E+02 -0.85838687941E+03  0.59918298005E+03  0.10479055619E+04  0.00000000000E+00 0. -1.
        -11    1    5    5    0    0  0.29022603027E+02 -0.31089711416E+03  0.15467563915E+03  0.34845929522E+03  0.00000000000E+00 0.  1.
          1    1    6    6  503    0 -0.25153256345E+03 -0.23178509437E+03 -0.59947666546E+02  0.34725593324E+03  0.00000000000E+00 0. -1.
         -1    1    6    6    0  503 -0.44402717320E+02 -0.66283413911E+02 -0.57902130584E+02  0.98578643687E+02  0.00000000000E+00 0.  1.
<mgrwt>
<rscale>  0 0.34161963E+04</rscale>
<asrwt>0</asrwt>
<pdfrwt beam="1">  1        2 0.25437405E+00 0.34161963E+04</pdfrwt>
<pdfrwt beam="2">  1       -1 0.27147269E+00 0.34161963E+04</pdfrwt>
<totfact> 0.49551295E-01</totfact>
</mgrwt>
</event>
<event>
12    6  0.1450532E-007  0.3091261E+04  0.7818608E-02  0.8218140E-01
          2   -1    0    0  501    0  0.00000000000E+00  0.00000000000E+00  0.29096292979E+04  0.29096292979E+04  0.00000000000E+00 0. -1.
         -1   -1    0    0    0  501 -0.00000000000E+00 -0.00000000000E+00 -0.82105791230E+03  0.82105791230E+03  0.00000000000E+00 0.  1.
         24    2    1    2    0    0  0.10920187296E+04  0.62449103843E+03  0.23275261376E+03  0.12818379391E+04  0.80254345042E+02 0.  0.
        254    2    1    2    0    0 -0.10920187296E+04 -0.62449103843E+03  0.18558187718E+04  0.24488492711E+04  0.98504084980E+03 0.  0.
         23    2    4    4    0    0 -0.92075069963E+03 -0.79882077152E+03  0.10836770199E+04  0.16336183180E+04  0.91958956657E+02 0.  0.
         23    2    4    4    0    0 -0.17126803001E+03  0.17432973309E+03  0.77214175191E+03  0.81523095305E+03  0.93139829437E+02 0.  0.
          4    1    3    3  502    0  0.81489471419E+02  0.49568258940E+02 -0.35120156872E+01  0.95445693987E+02  0.00000000000E+00 0. -1.
         -3    1    3    3    0  502  0.10105292582E+04  0.57492277949E+03  0.23626462945E+03  0.11863922451E+04  0.00000000000E+00 0.  1.
         11    1    5    5    0    0 -0.31304886926E+03 -0.32455529568E+03  0.37445913863E+03  0.58613597484E+03  0.00000000000E+00 0. -1.
        -11    1    5    5    0    0 -0.60770183037E+03 -0.47426547583E+03  0.70921788128E+03  0.10474823432E+04  0.00000000000E+00 0.  1.
          3    1    6    6  503    0 -0.66648434266E+02  0.14184651767E+02  0.16025551287E+03  0.17414088417E+03  0.00000000000E+00 0. -1.
         -3    1    6    6    0  503 -0.10461959574E+03  0.16014508132E+03  0.61188623904E+03  0.64109006887E+03  0.00000000000E+00 0.  1.
<mgrwt>
<rscale>  0 0.30912613E+04</rscale>
<asrwt>0</asrwt>
<pdfrwt beam="1">  1        2 0.44763527E+00 0.30912613E+04</pdfrwt>
<pdfrwt beam="2">  1       -1 0.12631660E+00 0.30912613E+04</pdfrwt>
<totfact> 0.10422816E+00</totfact>
</mgrwt>
</event>
<event>
12    6  0.1450532E-007  0.1483499E+04  0.7818608E-02  0.8895501E-01
         -1   -1    0    0    0  501 -0.00000000000E+00  0.00000000000E+00  0.40438724406E+03  0.40438724406E+03  0.00000000000E+00 0.  1.
          2   -1    0    0  501    0  0.00000000000E+00 -0.00000000000E+00 -0.13605576731E+04  0.13605576731E+04  0.00000000000E+00 0. -1.
         24    2    1    2    0    0  0.10003887873E+03 -0.13541910611E+03 -0.81868265207E+03  0.83963122091E+03  0.79957431004E+02 0.  0.
        254    2    1    2    0    0 -0.10003887873E+03  0.13541910611E+03 -0.13748777694E+03  0.92531369622E+03  0.89942005540E+03 0.  0.
         23    2    4    4    0    0  0.33902977358E+03  0.14052088713E+03 -0.26095995524E+03  0.45985170719E+03  0.93146053459E+02 0.  0.
         23    2    4    4    0    0 -0.43906865230E+03 -0.51017810217E+01  0.12347217830E+03  0.46546198903E+03  0.92747910028E+02 0.  0.
          2    1    3    3  502    0  0.54076285235E+02 -0.17699058660E+02 -0.33018365921E+03  0.33505036951E+03  0.00000000000E+00 0. -1.
         -1    1    3    3    0  502  0.45962593491E+02 -0.11772004745E+03 -0.48849899286E+03  0.50458085139E+03  0.00000000000E+00 0.  1.
         11    1    5    5    0    0  0.82670016569E+01  0.19067373462E+02 -0.36720361441E+02  0.42193518358E+02  0.00000000000E+00 0. -1.
        -11    1    5    5    0    0  0.33076277192E+03  0.12145351367E+03 -0.22423959380E+03  0.41765818883E+03  0.00000000000E+00 0.  1.
          1    1    6    6  503    0 -0.23322813178E+03 -0.46058424505E+02  0.82381192903E+02  0.25160167103E+03  0.00000000000E+00 0. -1.
         -1    1    6    6    0  503 -0.20584052052E+03  0.40956643483E+02  0.41090985398E+02  0.21386031800E+03  0.00000000000E+00 0.  1.
<mgrwt>
<rscale>  0 0.14834988E+04</rscale>
<asrwt>0</asrwt>
<pdfrwt beam="1">  1        2 0.20931656E+00 0.14834988E+04</pdfrwt>
<pdfrwt beam="2">  1       -1 0.62213423E-01 0.14834988E+04</pdfrwt>
<totfact> 0.44052808E+01</totfact>
</mgrwt>
</event>
<event>
12    6  0.1450532E-007  0.1750188E+04  0.7818608E-02  0.8733247E-01
          2   -1    0    0  501    0  0.00000000000E+00  0.00000000000E+00  0.43235100611E+03  0.43235100611E+03  0.00000000000E+00 0. -1.
         -1   -1    0    0    0  501 -0.00000000000E+00 -0.00000000000E+00 -0.17712222172E+04  0.17712222172E+04  0.00000000000E+00 0.  1.
         24    2    1    2    0    0  0.25838323407E+02 -0.37881158226E+03 -0.11422264926E+04  0.12065122051E+04  0.82610573042E+02 0.  0.
        254    2    1    2    0    0 -0.25838323407E+02  0.37881158226E+03 -0.19664471840E+03  0.99706101816E+03  0.90071954284E+03 0.  0.
         23    2    4    4    0    0 -0.80727381091E+02  0.31798385403E+02 -0.50493308882E+03  0.52089699476E+03  0.94064911563E+02 0.  0.
         23    2    4    4    0    0  0.54889057685E+02  0.34701319686E+03  0.30828837042E+03  0.47616402340E+03  0.90881738525E+02 0.  0.
          2    1    3    3  502    0  0.45685354816E+02 -0.23709149521E+03 -0.79788799439E+03  0.83362148505E+03  0.00000000000E+00 0. -1.
         -1    1    3    3    0  502 -0.19847031409E+02 -0.14172008705E+03 -0.34433849825E+03  0.37289072006E+03  0.00000000000E+00 0.  1.
         11    1    5    5    0    0 -0.53457373450E+02 -0.28394881711E+02 -0.20384122634E+03  0.21263867391E+03  0.00000000000E+00 0. -1.
        -11    1    5    5    0    0 -0.27270007641E+02  0.60193267114E+02 -0.30109186248E+03  0.30825832085E+03  0.00000000000E+00 0.  1.
          2    1    6    6  503    0  0.54290895504E+02  0.12955543884E+03  0.83545464582E+02  0.16343793231E+03  0.00000000000E+00 0. -1.
         -2    1    6    6    0  503  0.59816218067E+00  0.21745775802E+03  0.22474290584E+03  0.31272609109E+03  0.00000000000E+00 0.  1.
<mgrwt>
<rscale>  0 0.17501882E+04</rscale>
<asrwt>0</asrwt>
<pdfrwt beam="1">  1        2 0.66515540E-01 0.17501882E+04</pdfrwt>
<pdfrwt beam="2">  1       -1 0.27249572E+00 0.17501882E+04</pdfrwt>
<totfact> 0.39293289E+00</totfact>
</mgrwt>
</event>
<event>
12    6  0.1450532E-007  0.1387498E+04  0.7818608E-02  0.8962918E-01
          2   -1    0    0  501    0  0.00000000000E+00  0.00000000000E+00  0.83485992909E+03  0.83485992909E+03  0.00000000000E+00 0. -1.
         -1   -1    0    0    0  501 -0.00000000000E+00 -0.00000000000E+00 -0.57648949905E+03  0.57648949905E+03  0.00000000000E+00 0.  1.
         24    2    1    2    0    0  0.16239783626E+03  0.46738209536E+02 -0.29303668764E+03  0.34756218428E+03  0.79821389252E+02 0.  0.
        254    2    1    2    0    0 -0.16239783626E+03 -0.46738209536E+02  0.55140711768E+03  0.10637872439E+04  0.89388812126E+03 0.  0.
         23    2    4    4    0    0  0.26582290995E+03 -0.98043870071E+02 -0.67142302037E+02  0.30455683105E+03  0.89288043437E+02 0.  0.
         23    2    4    4    0    0 -0.42822074621E+03  0.51305660536E+02  0.61854941972E+03  0.75923041282E+03  0.88442958091E+02 0.  0.
          4    1    3    3  502    0  0.13366845626E+02  0.21149615157E+02 -0.10555213047E+02  0.27154949931E+02  0.00000000000E+00 0. -1.
         -3    1    3    3    0  502  0.14903099063E+03  0.25588594379E+02 -0.28248147460E+03  0.32040723435E+03  0.00000000000E+00 0.  1.
         11    1    5    5    0    0  0.23350600346E+02  0.15991122736E+02  0.90201995009E-01  0.28301496061E+02  0.00000000000E+00 0. -1.
        -11    1    5    5    0    0  0.24247230960E+03 -0.11403499281E+03 -0.67232504032E+02  0.27625533499E+03  0.00000000000E+00 0.  1.
          4    1    6    6  503    0 -0.62228872137E+02  0.16584792194E+02  0.47294704401E+02  0.79901670345E+02  0.00000000000E+00 0. -1.
         -4    1    6    6    0  503 -0.36599187407E+03  0.34720868341E+02  0.57125471532E+03  0.67932874248E+03  0.00000000000E+00 0.  1.
<mgrwt>
<rscale>  0 0.13874984E+04</rscale>
<asrwt>0</asrwt>
<pdfrwt beam="1">  1        2 0.12843999E+00 0.13874984E+04</pdfrwt>
<pdfrwt beam="2">  1       -1 0.88690691E-01 0.13874984E+04</pdfrwt>
<totfact> 0.45145762E+01</totfact>
</mgrwt>
</event>
<event>
12    6  0.1450532E-007  0.2011922E+04  0.7818608E-02  0.8601067E-01
          2   -1    0    0  501    0  0.00000000000E+00  0.00000000000E+00  0.18184672857E+04  0.18184672857E+04  0.00000000000E+00 0. -1.
         -1   -1    0    0    0  501 -0.00000000000E+00 -0.00000000000E+00 -0.55648941135E+03  0.55648941135E+03  0.00000000000E+00 0.  1.
         24    2    1    2    0    0  0.28603561893E+03  0.36431358448E+03  0.12839947258E+04  0.13672599246E+04  0.78844673224E+02 0.  0.
        254    2    1    2    0    0 -0.28603561893E+03 -0.36431358448E+03 -0.22016851462E+02  0.10076967724E+04  0.89466601602E+03 0.  0.
         23    2    4    4    0    0 -0.24618024771E+02  0.28127564603E+03  0.56073897953E+02  0.30151715607E+03  0.89701043385E+02 0.  0.
         23    2    4    4    0    0 -0.26141759416E+03 -0.64558923051E+03 -0.78090749416E+02  0.70617961633E+03  0.86411065780E+02 0.  0.
          4    1    3    3  502    0  0.26603879772E+03  0.33216824225E+03  0.11009288042E+04  0.11803205560E+04  0.00000000000E+00 0. -1.
         -3    1    3    3    0  502  0.19996821205E+02  0.32145342234E+02  0.18306592160E+03  0.18693936862E+03  0.00000000000E+00 0.  1.
         11    1    5    5    0    0  0.11260622325E+02  0.22640975787E+03  0.22330427098E+02  0.22778680394E+03  0.00000000000E+00 0.  1.
        -11    1    5    5    0    0 -0.35878647096E+02  0.54865888151E+02  0.33743470855E+02  0.73730352132E+02  0.00000000000E+00 0. -1.
          3    1    6    6  503    0  0.35921828700E+01 -0.24937841028E+00  0.17278895671E+01  0.39939416269E+01  0.00000000000E+00 0. -1.
         -3    1    6    6    0  503 -0.26500977703E+03 -0.64533985210E+03 -0.79818638983E+02  0.70218567470E+03  0.00000000000E+00 0.  1.
<mgrwt>
<rscale>  0 0.20119223E+04</rscale>
<asrwt>0</asrwt>
<pdfrwt beam="1">  1        2 0.27976420E+00 0.20119223E+04</pdfrwt>
<pdfrwt beam="2">  1       -1 0.85613756E-01 0.20119223E+04</pdfrwt>
<totfact> 0.12005124E+01</totfact>
</mgrwt>
</event>
<event>
12    6  0.1450532E-007  0.1227403E+04  0.7818608E-02  0.9089203E-01
         -1   -1    0    0    0  501 -0.00000000000E+00  0.00000000000E+00  0.15492940731E+03  0.15492940731E+03  0.00000000000E+00 0.  1.
          2   -1    0    0  501    0  0.00000000000E+00 -0.00000000000E+00 -0.24309747938E+04  0.24309747938E+04  0.00000000000E+00 0. -1.
         24    2    1    2    0    0 -0.64117140742E+02  0.23480213038E+03 -0.80664527615E+03  0.84650887255E+03  0.81594249791E+02 0.  0.
        254    2    1    2    0    0  0.64117140742E+02 -0.23480213038E+03 -0.14694001103E+04  0.17393953285E+04  0.89839655864E+03 0.  0.
         23    2    4    4    0    0  0.21531215339E+03 -0.32267997141E+03 -0.18517324269E+03  0.44005630579E+03  0.94227040268E+02 0.  0.
         23    2    4    4    0    0 -0.15119501264E+03  0.87877841027E+02 -0.12842268676E+04  0.12993390227E+04  0.91982616326E+02 0.  0.
          2    1    3    3  502    0 -0.56185620727E+02  0.14241510376E+03 -0.61268145190E+03  0.63151995001E+03  0.00000000000E+00 0. -1.
         -1    1    3    3    0  502 -0.79315200148E+01  0.92387026616E+02 -0.19396382425E+03  0.21498892254E+03  0.00000000000E+00 0.  1.
         11    1    5    5    0    0  0.22287078154E+03 -0.31967239001E+03 -0.17542347843E+03  0.42735841981E+03  0.00000000000E+00 0. -1.
        -11    1    5    5    0    0 -0.75586281499E+01 -0.30075814002E+01 -0.97497642640E+01  0.12697885989E+02  0.00000000000E+00 0.  1.
          3    1    6    6  503    0 -0.12777815260E+03  0.59927691968E+02 -0.70627869515E+03  0.72024175092E+03  0.00000000000E+00 0. -1.
         -3    1    6    6    0  503 -0.23416860042E+02  0.27950149059E+02 -0.57794817248E+03  0.57909727183E+03  0.00000000000E+00 0.  1.
<mgrwt>
<rscale>  0 0.12274029E+04</rscale>
<asrwt>0</asrwt>
<pdfrwt beam="1">  1        2 0.37399608E+00 0.12274029E+04</pdfrwt>
<pdfrwt beam="2">  1       -1 0.23835296E-01 0.12274029E+04</pdfrwt>
<totfact> 0.65403749E+01</totfact>
</mgrwt>
</event>
<event>
12    6  0.1450532E-007  0.2150210E+04  0.7818608E-02  0.8539442E-01
          2   -1    0    0  501    0  0.00000000000E+00  0.00000000000E+00  0.25637240554E+04  0.25637240554E+04  0.00000000000E+00 0. -1.
         -1   -1    0    0    0  501 -0.00000000000E+00 -0.00000000000E+00 -0.45084851138E+03  0.45084851138E+03  0.00000000000E+00 0.  1.
         24    2    1    2    0    0 -0.84437656901E+03  0.23350607403E+03  0.71286654464E+03  0.11322464706E+04  0.79413366262E+02 0.  0.
        254    2    1    2    0    0  0.84437656901E+03 -0.23350607403E+03  0.14000089994E+04  0.18823260963E+04  0.90312206114E+03 0.  0.
         23    2    4    4    0    0  0.50254888215E+03 -0.36089393168E+03  0.13689731935E+04  0.15050476349E+04  0.90999835955E+02 0.  0.
         23    2    4    4    0    0  0.34182768686E+03  0.12738785765E+03  0.31035805965E+02  0.37727846133E+03  0.91115214700E+02 0.  0.
          2    1    3    3  502    0 -0.58541256791E+03  0.16717319709E+03  0.44760767873E+03  0.75565030705E+03  0.00000000000E+00 0. -1.
         -1    1    3    3    0  502 -0.25896400110E+03  0.66332876935E+02  0.26525886590E+03  0.37659616351E+03  0.00000000000E+00 0.  1.
         11    1    5    5    0    0  0.24905632743E+03 -0.15111502097E+03  0.73843335077E+03  0.79381900792E+03  0.00000000000E+00 0.  1.
        -11    1    5    5    0    0  0.25349255473E+03 -0.20977891071E+03  0.63053984269E+03  0.71122862703E+03  0.00000000000E+00 0. -1.
          1    1    6    6  503    0 -0.25894045649E+01  0.67193655700E+01  0.91983949292E+01  0.11681838851E+02  0.00000000000E+00 0. -1.
         -1    1    6    6    0  503  0.34441709142E+03  0.12066849208E+03  0.21837411036E+02  0.36559662248E+03  0.00000000000E+00 0.  1.
<mgrwt>
<rscale>  0 0.21502104E+04</rscale>
<asrwt>0</asrwt>
<pdfrwt beam="1">  1        2 0.39441908E+00 0.21502104E+04</pdfrwt>
<pdfrwt beam="2">  1       -1 0.69361311E-01 0.21502104E+04</pdfrwt>
<totfact> 0.70203752E+00</totfact>
</mgrwt>
</event>
<event>
12    6  0.1450532E-007  0.1045087E+04  0.7818608E-02  0.9260431E-01
          2   -1    0    0  501    0  0.00000000000E+00  0.00000000000E+00  0.66249060141E+03  0.66249060141E+03  0.00000000000E+00 0. -1.
         -1   -1    0    0    0  501 -0.00000000000E+00 -0.00000000000E+00 -0.41215912088E+03  0.41215912088E+03  0.00000000000E+00 0.  1.
         24    2    1    2    0    0 -0.25749225093E+02  0.14151460871E+02 -0.79260570718E+02  0.11704706079E+03  0.80959804413E+02 0.  0.
        254    2    1    2    0    0  0.25749225093E+02 -0.14151460871E+02  0.32959205125E+03  0.95760266150E+03  0.89861485110E+03 0.  0.
         23    2    4    4    0    0 -0.12959208015E+03 -0.71466813459E+01 -0.27863948094E+03  0.32275718150E+03  0.98422840734E+02 0.  0.
         23    2    4    4    0    0  0.15534130524E+03 -0.70047795254E+01  0.60823153219E+03  0.63484548000E+03  0.94356762725E+02 0.  0.
          2    1    3    3  502    0  0.12645161401E+01 -0.19105294333E+02  0.72772183668E+01  0.20483387898E+02  0.00000000000E+00 0. -1.
         -1    1    3    3    0  502 -0.27013741233E+02  0.33256755204E+02 -0.86537789085E+02  0.96563672889E+02  0.00000000000E+00 0.  1.
         11    1    5    5    0    0 -0.13488727131E+03  0.18129921465E+02 -0.24596977873E+03  0.28111279242E+03  0.00000000000E+00 0.  1.
        -11    1    5    5    0    0  0.52951911622E+01 -0.25276602810E+02 -0.32669702210E+02  0.41644389076E+02  0.00000000000E+00 0. -1.
          3    1    6    6  503    0  0.20265367439E+01  0.22435514561E+02  0.12525158755E+03  0.12726122484E+03  0.00000000000E+00 0. -1.
         -3    1    6    6    0  503  0.15331476850E+03 -0.29440294086E+02  0.48297994464E+03  0.50758425515E+03  0.00000000000E+00 0.  1.
<mgrwt>
<rscale>  0 0.10450867E+04</rscale>
<asrwt>0</asrwt>
<pdfrwt beam="1">  1        2 0.10192163E+00 0.10450867E+04</pdfrwt>
<pdfrwt beam="2">  1       -1 0.63409096E-01 0.10450867E+04</pdfrwt>
<totfact> 0.12604469E+02</totfact>
</mgrwt>
</event>
<event>
12    6  0.1450532E-007  0.1706208E+04  0.7818608E-02  0.8757832E-01
         -1   -1    0    0    0  501 -0.00000000000E+00  0.00000000000E+00  0.45000428131E+03  0.45000428131E+03  0.00000000000E+00 0.  1.
          2   -1    0    0  501    0  0.00000000000E+00 -0.00000000000E+00 -0.16172877724E+04  0.16172877724E+04  0.00000000000E+00 0. -1.
         24    2    1    2    0    0  0.15883077484E+02  0.27085988553E+03 -0.11299303776E+04  0.11646047211E+04  0.77098304231E+02 0.  0.
        254    2    1    2    0    0 -0.15883077484E+02 -0.27085988553E+03 -0.37353113485E+02  0.90268733257E+03  0.86013476593E+03 0.  0.
         23    2    4    4    0    0  0.21103828959E+03 -0.26201043408E+03  0.31701316363E+03  0.47115571706E+03  0.91124840540E+02 0.  0.
         23    2    4    4    0    0 -0.22692136708E+03 -0.88494514501E+01 -0.35436627712E+03  0.43153161551E+03  0.95249447243E+02 0.  0.
          2    1    3    3  502    0  0.14713117291E+02  0.18105271078E+03 -0.89152343252E+03  0.90984096997E+03  0.00000000000E+00 0. -1.
         -1    1    3    3    0  502  0.11699601932E+01  0.89807174743E+02 -0.23840694505E+03  0.25476375113E+03  0.00000000000E+00 0.  1.
         11    1    5    5    0    0  0.17811608967E+03 -0.26028579599E+03  0.28228563268E+03  0.42327203476E+03  0.00000000000E+00 0.  1.
        -11    1    5    5    0    0  0.32922199923E+02 -0.17246380829E+01  0.34727530954E+02  0.47883682298E+02  0.00000000000E+00 0. -1.
          3    1    6    6  503    0 -0.52049045265E+02  0.12547182645E+02 -0.27451686928E+02  0.60167516324E+02  0.00000000000E+00 0. -1.
         -3    1    6    6    0  503 -0.17487232181E+03 -0.21396634095E+02 -0.32691459019E+03  0.37136409919E+03  0.00000000000E+00 0.  1.
<mgrwt>
<rscale>  0 0.17062080E+04</rscale>
<asrwt>0</asrwt>
<pdfrwt beam="1">  1        2 0.24881350E+00 0.17062080E+04</pdfrwt>
<pdfrwt beam="2">  1       -1 0.69231428E-01 0.17062080E+04</pdfrwt>
<totfact> 0.24940815E+01</totfact>
</mgrwt>
</event>
<event>
12    6  0.1450532E-007  0.2983008E+04  0.7818608E-02  0.8248600E-01
          2   -1    0    0  501    0  0.00000000000E+00  0.00000000000E+00  0.44935186633E+04  0.44935186633E+04  0.00000000000E+00 0. -1.
         -1   -1    0    0    0  501 -0.00000000000E+00 -0.00000000000E+00 -0.49506510514E+03  0.49506510514E+03  0.00000000000E+00 0.  1.
         24    2    1    2    0    0  0.76732325124E+03  0.83632042806E+03  0.30595035510E+04  0.32642395930E+04  0.80506594913E+02 0.  0.
        254    2    1    2    0    0 -0.76732325124E+03 -0.83632042806E+03  0.93895000714E+03  0.17243441754E+04  0.89639215138E+03 0.  0.
         23    2    4    4    0    0 -0.65680684860E+03 -0.84080846718E+03  0.10819650841E+04  0.15225174606E+04  0.95167535761E+02 0.  0.
         23    2    4    4    0    0 -0.11051640264E+03  0.44880391202E+01 -0.14301507698E+03  0.20182671476E+03  0.89703360026E+02 0.  0.
          2    1    3    3  502    0  0.49512789302E+03  0.57122400912E+03  0.21245195021E+04  0.22550014665E+04  0.00000000000E+00 0. -1.
         -1    1    3    3    0  502  0.27219535821E+03  0.26509641894E+03  0.93498404885E+03  0.10092381265E+04  0.00000000000E+00 0.  1.
         11    1    5    5    0    0 -0.17561616961E+03 -0.22678397016E+03  0.23283215345E+03  0.36943581287E+03  0.00000000000E+00 0.  1.
        -11    1    5    5    0    0 -0.48119067899E+03 -0.61402449702E+03  0.84913293068E+03  0.11530816478E+04  0.00000000000E+00 0. -1.
          3    1    6    6  503    0 -0.49581243801E+02  0.35359309512E+02 -0.11050892463E+03  0.12617766415E+03  0.00000000000E+00 0. -1.
         -3    1    6    6    0  503 -0.60935158839E+02 -0.30871270391E+02 -0.32506152345E+02  0.75649050613E+02  0.00000000000E+00 0.  1.
<mgrwt>
<rscale>  0 0.29830081E+04</rscale>
<asrwt>0</asrwt>
<pdfrwt beam="1">  1        2 0.69131054E+00 0.29830081E+04</pdfrwt>
<pdfrwt beam="2">  1       -1 0.76163865E-01 0.29830081E+04</pdfrwt>
<totfact> 0.21042571E-01</totfact>
</mgrwt>
</event>
<event>
12    6  0.1450532E-007  0.1793709E+04  0.7818608E-02  0.8709652E-01
         -1   -1    0    0    0  501 -0.00000000000E+00  0.00000000000E+00  0.80271444791E+03  0.80271444791E+03  0.00000000000E+00 0.  1.
          2   -1    0    0  501    0  0.00000000000E+00 -0.00000000000E+00 -0.10020351994E+04  0.10020351994E+04  0.00000000000E+00 0. -1.
         24    2    1    2    0    0  0.65457191492E+03  0.16010522181E+03 -0.18612127262E+02  0.67883177837E+03  0.79800364634E+02 0.  0.
        254    2    1    2    0    0 -0.65457191492E+03 -0.16010522181E+03 -0.18070862421E+03  0.11259178689E+04  0.88370660674E+03 0.  0.
         23    2    4    4    0    0  0.52613178658E+02  0.24996718096E+03  0.39516018756E+02  0.27426836840E+03  0.91705419891E+02 0.  0.
         23    2    4    4    0    0 -0.70718509358E+03 -0.41007240277E+03 -0.22022464296E+03  0.85164950051E+03  0.92400466741E+02 0.  0.
          4    1    3    3  502    0  0.37258970128E+03  0.11008790901E+03 -0.45595863423E+02  0.39117951886E+03  0.00000000000E+00 0. -1.
         -3    1    3    3    0  502  0.28198221364E+03  0.50017312799E+02  0.26983736162E+02  0.28765225951E+03  0.00000000000E+00 0.  1.
         11    1    5    5    0    0 -0.24214785885E+02  0.69276137606E+02  0.24420902570E+02  0.77342870256E+02  0.00000000000E+00 0.  1.
        -11    1    5    5    0    0  0.76827964543E+02  0.18069104336E+03  0.15095116186E+02  0.19692549814E+03  0.00000000000E+00 0. -1.
          1    1    6    6  503    0 -0.32017736091E+03 -0.13682925322E+03 -0.75398615855E+02  0.35625936935E+03  0.00000000000E+00 0. -1.
         -1    1    6    6    0  503 -0.38700773266E+03 -0.27324314955E+03 -0.14482602711E+03  0.49539013116E+03  0.00000000000E+00 0.  1.
<mgrwt>
<rscale>  0 0.17937092E+04</rscale>
<asrwt>0</asrwt>
<pdfrwt beam="1">  1        2 0.15415926E+00 0.17937092E+04</pdfrwt>
<pdfrwt beam="2">  1       -1 0.12349453E+00 0.17937092E+04</pdfrwt>
<totfact> 0.15609513E+01</totfact>
</mgrwt>
</event>
<event>
12    6  0.1450532E-007  0.2307293E+04  0.7818608E-02  0.8475051E-01
          2   -1    0    0  501    0  0.00000000000E+00  0.00000000000E+00  0.18009790450E+04  0.18009790450E+04  0.00000000000E+00 0. -1.
         -1   -1    0    0    0  501 -0.00000000000E+00 -0.00000000000E+00 -0.73898704031E+03  0.73898704031E+03  0.00000000000E+00 0.  1.
         24    2    1    2    0    0 -0.39894248253E+03 -0.71975026903E+03 -0.99593939912E+02  0.83273509318E+03  0.79581583307E+02 0.  0.
        254    2    1    2    0    0  0.39894248253E+03  0.71975026903E+03  0.11615859446E+04  0.17072309921E+04  0.94242251649E+03 0.  0.
         23    2    4    4    0    0 -0.28639235870E+03  0.86587929894E+02  0.24693976340E+03  0.39757248455E+03  0.86986096581E+02 0.  0.
         23    2    4    4    0    0  0.68533484123E+03  0.63316233914E+03  0.91464618116E+03  0.13096585075E+04  0.89718322213E+02 0.  0.
          2    1    3    3  502    0 -0.51005569482E+02 -0.11318265594E+03  0.11560302410E+02  0.12468168397E+03  0.00000000000E+00 0. -1.
         -1    1    3    3    0  502 -0.34793691305E+03 -0.60656761309E+03 -0.11115424232E+03  0.70805340921E+03  0.00000000000E+00 0.  1.
         11    1    5    5    0    0 -0.19531911246E+03  0.99226085168E+02  0.18463023561E+03  0.28650252279E+03  0.00000000000E+00 0. -1.
        -11    1    5    5    0    0 -0.91073246244E+02 -0.12638155275E+02  0.62309527790E+02  0.11106996175E+03  0.00000000000E+00 0.  1.
          4    1    6    6  503    0  0.82323279119E+02  0.68098178617E+02  0.68488546385E+02  0.12690612752E+03  0.00000000000E+00 0. -1.
         -4    1    6    6    0  503  0.60301156211E+03  0.56506416052E+03  0.84615763478E+03  0.11827523800E+04  0.00000000000E+00 0.  1.
<mgrwt>
<rscale>  0 0.23072929E+04</rscale>
<asrwt>0</asrwt>
<pdfrwt beam="1">  1        2 0.27707370E+00 0.23072929E+04</pdfrwt>
<pdfrwt beam="2">  1       -1 0.11369031E+00 0.23072929E+04</pdfrwt>
<totfact> 0.62716578E+00</totfact>
</mgrwt>
</event>
<event>
12    6  0.1450532E-007  0.1993546E+04  0.7818608E-02  0.8609644E-01
          2   -1    0    0  501    0  0.00000000000E+00  0.00000000000E+00  0.98594626617E+03  0.98594626617E+03  0.00000000000E+00 0. -1.
         -1   -1    0    0    0  501 -0.00000000000E+00 -0.00000000000E+00 -0.10077190849E+04  0.10077190849E+04  0.00000000000E+00 0.  1.
         24    2    1    2    0    0  0.14109361926E+03 -0.25595660698E+03  0.72490619994E+03  0.78575302828E+03  0.80607869931E+02 0.  0.
        254    2    1    2    0    0 -0.14109361926E+03  0.25595660698E+03 -0.74667901862E+03  0.12079123227E+04  0.90338332314E+03 0.  0.
         23    2    4    4    0    0 -0.22522906179E+03  0.56512734943E+03 -0.51663590427E+03  0.80339076269E+03  0.91798739883E+02 0.  0.
         23    2    4    4    0    0  0.84135442537E+02 -0.30917074245E+03 -0.23004311435E+03  0.40452156005E+03  0.89735931498E+02 0.  0.
          4    1    3    3  502    0  0.12610894721E+03 -0.21490812081E+03  0.67443437581E+03  0.71899283322E+03  0.00000000000E+00 0. -1.
         -3    1    3    3    0  502  0.14984672046E+02 -0.41048486171E+02  0.50471824132E+02  0.66760195060E+02  0.00000000000E+00 0.  1.
         11    1    5    5    0    0 -0.21035758507E+03  0.53103795815E+03 -0.45029473298E+03  0.72733552996E+03  0.00000000000E+00 0. -1.
        -11    1    5    5    0    0 -0.14871476728E+02  0.34089391284E+02 -0.66341171288E+02  0.76055232733E+02  0.00000000000E+00 0.  1.
          4    1    6    6  503    0  0.77655474415E+02 -0.31334944816E+03 -0.21576552949E+03  0.38829500780E+03  0.00000000000E+00 0. -1.
         -4    1    6    6    0  503  0.64799681219E+01  0.41787057056E+01 -0.14277584863E+02  0.16226552245E+02  0.00000000000E+00 0.  1.
<mgrwt>
<rscale>  0 0.19935465E+04</rscale>
<asrwt>0</asrwt>
<pdfrwt beam="1">  1        2 0.15168404E+00 0.19935465E+04</pdfrwt>
<pdfrwt beam="2">  1       -1 0.15503370E+00 0.19935465E+04</pdfrwt>
<totfact> 0.86987831E+00</totfact>
</mgrwt>
</event>
<event>
12    6  0.1450532E-007  0.1550561E+04  0.7818608E-02  0.8851510E-01
          2   -1    0    0  501    0  0.00000000000E+00  0.00000000000E+00  0.74548455941E+03  0.74548455941E+03  0.00000000000E+00 0. -1.
         -1   -1    0    0    0  501 -0.00000000000E+00 -0.00000000000E+00 -0.80626694319E+03  0.80626694319E+03  0.00000000000E+00 0.  1.
         24    2    1    2    0    0 -0.22240930939E+02 -0.17837984289E+03  0.46913919924E+03  0.50825640675E+03  0.76934773575E+02 0.  0.
        254    2    1    2    0    0  0.22240930939E+02  0.17837984289E+03 -0.52992158302E+03  0.10434950958E+04  0.88076733791E+03 0.  0.
         23    2    4    4    0    0  0.39523625854E+03 -0.63368971885E+02 -0.39685747086E+03  0.57072829843E+03  0.89485260171E+02 0.  0.
         23    2    4    4    0    0 -0.37299532760E+03  0.24174881477E+03 -0.13306411216E+03  0.47276679741E+03  0.90743500736E+02 0.  0.
          4    1    3    3  502    0 -0.21431970107E+02 -0.69792293979E+02  0.10228710709E+03  0.12566998814E+03  0.00000000000E+00 0. -1.
         -3    1    3    3    0  502 -0.80896083198E+00 -0.10858754891E+03  0.36685209215E+03  0.38258641861E+03  0.00000000000E+00 0.  1.
         11    1    5    5    0    0  0.19444633147E+03  0.14050334535E+02 -0.19089075016E+03  0.27284806435E+03  0.00000000000E+00 0.  1.
        -11    1    5    5    0    0  0.20078992707E+03 -0.77419306420E+02 -0.20596672070E+03  0.29788023408E+03  0.00000000000E+00 0. -1.
          3    1    6    6  503    0 -0.11799639029E+03  0.12588176574E+03 -0.66244585778E+02  0.18481805164E+03  0.00000000000E+00 0. -1.
         -3    1    6    6    0  503 -0.25499893731E+03  0.11586704904E+03 -0.66819526382E+02  0.28794874577E+03  0.00000000000E+00 0.  1.
<mgrwt>
<rscale>  0 0.15505606E+04</rscale>
<asrwt>0</asrwt>
<pdfrwt beam="1">  1        2 0.11468993E+00 0.15505606E+04</pdfrwt>
<pdfrwt beam="2">  1       -1 0.12404107E+00 0.15505606E+04</pdfrwt>
<totfact> 0.23704103E+01</totfact>
</mgrwt>
</event>
<event>
12    6  0.1450532E-007  0.1470039E+04  0.7818608E-02  0.8904625E-01
         -1   -1    0    0    0  501 -0.00000000000E+00  0.00000000000E+00  0.20238702564E+03  0.20238702564E+03  0.00000000000E+00 0.  1.
          2   -1    0    0  501    0  0.00000000000E+00 -0.00000000000E+00 -0.26694084853E+04  0.26694084853E+04  0.00000000000E+00 0. -1.
         24    2    1    2    0    0 -0.18256717510E+03  0.36236410964E+03 -0.38585068891E+03  0.56527737934E+03  0.77583761744E+02 0.  0.
        254    2    1    2    0    0  0.18256717510E+03 -0.36236410964E+03 -0.20811707707E+04  0.23065181316E+04  0.90780812561E+03 0.  0.
         23    2    4    4    0    0 -0.18063841532E+02 -0.11262055624E+03 -0.19387428533E+04  0.19444527655E+04  0.95723632710E+02 0.  0.
         23    2    4    4    0    0  0.20063101663E+03 -0.24974355340E+03 -0.14242791746E+03  0.36206536612E+03  0.90448716830E+02 0.  0.
          2    1    3    3  502    0 -0.12603496006E+01  0.32934334567E+02 -0.12119949069E+02  0.35116264607E+02  0.00000000000E+00 0. -1.
         -1    1    3    3    0  502 -0.18130682550E+03  0.32942977508E+03 -0.37373073984E+03  0.53016111474E+03  0.00000000000E+00 0.  1.
         11    1    5    5    0    0 -0.11856622415E+02  0.16104341754E+02 -0.24692313375E+03  0.24773163565E+03  0.00000000000E+00 0. -1.
        -11    1    5    5    0    0 -0.62072191171E+01 -0.12872489799E+03 -0.16918197195E+04  0.16967211298E+04  0.00000000000E+00 0.  1.
          1    1    6    6  503    0  0.21539824798E+02 -0.51256900029E+02 -0.61141296896E+02  0.82640740794E+02  0.00000000000E+00 0. -1.
         -1    1    6    6    0  503  0.17909119183E+03 -0.19848665337E+03 -0.81286620561E+02  0.27942462533E+03  0.00000000000E+00 0.  1.
<mgrwt>
<rscale>  0 0.14700390E+04</rscale>
<asrwt>0</asrwt>
<pdfrwt beam="1">  1        2 0.41067821E+00 0.14700390E+04</pdfrwt>
<pdfrwt beam="2">  1       -1 0.31136467E-01 0.14700390E+04</pdfrwt>
<totfact> 0.29313155E+01</totfact>
</mgrwt>
</event>
<event>
12    6  0.1769168E-007  0.2512358E+04  0.7818608E-02  0.8398596E-01
          2   -1    0    0  501    0  0.00000000000E+00  0.00000000000E+00  0.24473616830E+04  0.24473616830E+04  0.00000000000E+00 0. -1.
         -1   -1    0    0    0  501 -0.00000000000E+00 -0.00000000000E+00 -0.64477006984E+03  0.64477006984E+03  0.00000000000E+00 0.  1.
         24    2    1    2    0    0  0.22739216645E+03 -0.96069524972E+03  0.13645771940E+04  0.16862219258E+04  0.81430364075E+02 0.  0.
        254    2    1    2    0    0 -0.22739216645E+03  0.96069524972E+03  0.43801441915E+03  0.14059098271E+04  0.90004624902E+03 0.  0.
         23    2    4    4    0    0 -0.65614100464E+02 -0.36779141395E+02 -0.18210274105E+03  0.21680621179E+03  0.90474359621E+02 0.  0.
         23    2    4    4    0    0 -0.16177806599E+03  0.99747439112E+03  0.62011716020E+03  0.11891036153E+04  0.91075858647E+02 0.  0.
          4    1    3    3  502    0  0.15941263793E+03 -0.68036087170E+03  0.90093100283E+03  0.11401666443E+04  0.00000000000E+00 0. -1.
         -3    1    3    3    0  502  0.67979528526E+02 -0.28033437803E+03  0.46364619122E+03  0.54605528148E+03  0.00000000000E+00 0.  1.
         11    1    5    5    0    0 -0.38139406528E+02 -0.65862835470E+02 -0.13526461398E+03  0.15520645354E+03  0.00000000000E+00 0. -1.
        -11    1    5    5    0    0 -0.27474693935E+02  0.29083694076E+02 -0.46838127077E+02  0.61599758246E+02  0.00000000000E+00 0.  1.
          3    1    6    6  503    0 -0.14236971843E+03  0.84382629119E+03  0.48534976100E+03  0.98380706286E+03  0.00000000000E+00 0. -1.
         -3    1    6    6    0  503 -0.19408347560E+02  0.15364809993E+03  0.13476739920E+03  0.20529655246E+03  0.00000000000E+00 0.  1.
<mgrwt>
<rscale>  0 0.25123579E+04</rscale>
<asrwt>0</asrwt>
<pdfrwt beam="1">  1        2 0.37651718E+00 0.25123579E+04</pdfrwt>
<pdfrwt beam="2">  1       -1 0.99195396E-01 0.25123579E+04</pdfrwt>
<totfact> 0.36729829E+00</totfact>
</mgrwt>
</event>
<event>
12    6  0.1450532E-007  0.1477568E+04  0.7818608E-02  0.8899509E-01
         -1   -1    0    0    0  501 -0.00000000000E+00  0.00000000000E+00  0.17727847443E+03  0.17727847443E+03  0.00000000000E+00 0.  1.
          2   -1    0    0  501    0  0.00000000000E+00 -0.00000000000E+00 -0.30787801019E+04  0.30787801019E+04  0.00000000000E+00 0. -1.
         24    2    1    2    0    0 -0.22734903300E+03 -0.23555917707E+03 -0.15924643234E+04  0.16276435575E+04  0.78135909647E+02 0.  0.
        254    2    1    2    0    0  0.22734903300E+03  0.23555917707E+03 -0.13090373040E+04  0.16284150188E+04  0.91158164816E+03 0.  0.
         23    2    4    4    0    0 -0.20475872054E+02 -0.14220954023E+03 -0.11156756170E+04  0.11286265643E+04  0.91777036841E+02 0.  0.
         23    2    4    4    0    0  0.24782490505E+03  0.37776871730E+03 -0.19336168704E+03  0.49978845451E+03  0.90958066808E+02 0.  0.
          4    1    3    3  502    0 -0.11617554030E+03 -0.13491010214E+03 -0.10427791173E+04  0.10578685075E+04  0.00000000000E+00 0. -1.
         -3    1    3    3    0  502 -0.11117349270E+03 -0.10064907493E+03 -0.54968520614E+03  0.56977505001E+03  0.00000000000E+00 0.  1.
         11    1    5    5    0    0 -0.41057328066E+02 -0.40743316250E+02 -0.59169087198E+03  0.59451140442E+03  0.00000000000E+00 0. -1.
        -11    1    5    5    0    0  0.20581456012E+02 -0.10146622398E+03 -0.52398474503E+03  0.53411515984E+03  0.00000000000E+00 0.  1.
          1    1    6    6  503    0  0.10720413002E+03  0.87835661974E+02 -0.55095369869E+02  0.14914197527E+03  0.00000000000E+00 0. -1.
         -1    1    6    6    0  503  0.14062077504E+03  0.28993305532E+03 -0.13826631717E+03  0.35064647924E+03  0.00000000000E+00 0.  1.
<mgrwt>
<rscale>  0 0.14775675E+04</rscale>
<asrwt>0</asrwt>
<pdfrwt beam="1">  1        2 0.47365849E+00 0.14775675E+04</pdfrwt>
<pdfrwt beam="2">  1       -1 0.27273611E-01 0.14775675E+04</pdfrwt>
<totfact> 0.20801653E+01</totfact>
</mgrwt>
</event>
<event>
12    6  0.1450532E-007  0.1500708E+04  0.7818608E-02  0.8883982E-01
         -1   -1    0    0    0  501 -0.00000000000E+00  0.00000000000E+00  0.48095275510E+03  0.48095275510E+03  0.00000000000E+00 0.  1.
          2   -1    0    0  501    0  0.00000000000E+00 -0.00000000000E+00 -0.11706579375E+04  0.11706579375E+04  0.00000000000E+00 0. -1.
         24    2    1    2    0    0  0.18327255877E+03  0.47033389137E+02  0.25957349857E+03  0.33089755526E+03  0.79459552166E+02 0.  0.
        254    2    1    2    0    0 -0.18327255877E+03 -0.47033389137E+02 -0.94927868102E+03  0.13207131374E+04  0.89852779953E+03 0.  0.
         23    2    4    4    0    0 -0.30811547385E+03 -0.40285941279E+03 -0.42114224758E+03  0.66537546300E+03  0.90182383876E+02 0.  0.
         23    2    4    4    0    0  0.12484291508E+03  0.35582602365E+03 -0.52813643344E+03  0.65533767439E+03  0.91331607859E+02 0.  0.
          4    1    3    3  502    0  0.10937994238E+03  0.53902831395E+02  0.11133663032E+03  0.16512217380E+03  0.00000000000E+00 0. -1.
         -3    1    3    3    0  502  0.73892616384E+02 -0.68694422574E+01  0.14823686825E+03  0.16577538147E+03  0.00000000000E+00 0.  1.
         11    1    5    5    0    0 -0.66200921315E+02 -0.14279240865E+03 -0.99556227033E+02  0.18623553982E+03  0.00000000000E+00 0.  1.
        -11    1    5    5    0    0 -0.24191455253E+03 -0.26006700414E+03 -0.32158602055E+03  0.47913992318E+03  0.00000000000E+00 0. -1.
          1    1    6    6  503    0  0.13139641885E+03  0.25458029266E+03 -0.38549840809E+03  0.48029695703E+03  0.00000000000E+00 0. -1.
         -1    1    6    6    0  503 -0.65535037729E+01  0.10124573100E+03 -0.14263802535E+03  0.17504071736E+03  0.00000000000E+00 0.  1.
<mgrwt>
<rscale>  0 0.15007080E+04</rscale>
<asrwt>0</asrwt>
<pdfrwt beam="1">  1        2 0.18010122E+00 0.15007080E+04</pdfrwt>
<pdfrwt beam="2">  1       -1 0.73992733E-01 0.15007080E+04</pdfrwt>
<totfact> 0.39974606E+01</totfact>
</mgrwt>
</event>
<event>
12    6  0.1450532E-007  0.1477127E+04  0.7818608E-02  0.8899807E-01
          2   -1    0    0  501    0  0.00000000000E+00  0.00000000000E+00  0.11555214474E+04  0.11555214474E+04  0.00000000000E+00 0. -1.
         -1   -1    0    0    0  501 -0.00000000000E+00 -0.00000000000E+00 -0.47206031204E+03  0.47206031204E+03  0.00000000000E+00 0.  1.
         24    2    1    2    0    0 -0.23327819339E+03  0.10841916550E+02  0.65138454975E+03  0.69639692509E+03  0.78298039299E+02 0.  0.
        254    2    1    2    0    0  0.23327819339E+03 -0.10841916550E+02  0.32076585609E+02  0.93118483435E+03  0.90085516356E+03 0.  0.
         23    2    4    4    0    0  0.44167938686E+03 -0.29381735127E+02 -0.29003870809E+03  0.53683393051E+03  0.90134619464E+02 0.  0.
         23    2    4    4    0    0 -0.20840119347E+03  0.18539818577E+02  0.32211529370E+03  0.39435090383E+03  0.89328554269E+02 0.  0.
          2    1    3    3  502    0 -0.22585164623E+03  0.23860837306E+02  0.63396599600E+03  0.67341754487E+03  0.00000000000E+00 0. -1.
         -1    1    3    3    0  502 -0.74265471560E+01 -0.13018920756E+02  0.17418553750E+02  0.22979380215E+02  0.00000000000E+00 0.  1.
         11    1    5    5    0    0  0.32247970453E+03 -0.54972427480E+02 -0.23657101128E+03  0.40370901773E+03  0.00000000000E+00 0.  1.
        -11    1    5    5    0    0  0.11919968232E+03  0.25590692353E+02 -0.53467696811E+02  0.13312491278E+03  0.00000000000E+00 0. -1.
          2    1    6    6  503    0 -0.69191010031E+02  0.48961283149E+02  0.11149808949E+03  0.14005865585E+03  0.00000000000E+00 0. -1.
         -2    1    6    6    0  503 -0.13921018344E+03 -0.30421464572E+02  0.21061720420E+03  0.25429224799E+03  0.00000000000E+00 0.  1.
<mgrwt>
<rscale>  0 0.14771267E+04</rscale>
<asrwt>0</asrwt>
<pdfrwt beam="1">  1        2 0.17777253E+00 0.14771267E+04</pdfrwt>
<pdfrwt beam="2">  1       -1 0.72624664E-01 0.14771267E+04</pdfrwt>
<totfact> 0.42520505E+01</totfact>
</mgrwt>
</event>
<event>
12    6  0.1450532E-007  0.1325605E+04  0.7818608E-02  0.9009503E-01
          2   -1    0    0  501    0  0.00000000000E+00  0.00000000000E+00  0.25893340361E+04  0.25893340361E+04  0.00000000000E+00 0. -1.
         -1   -1    0    0    0  501 -0.00000000000E+00 -0.00000000000E+00 -0.16966030949E+03  0.16966030949E+03  0.00000000000E+00 0.  1.
         24    2    1    2    0    0 -0.41192150743E+02 -0.32733682985E+03  0.88663699549E+03  0.94962027542E+03  0.82506437679E+02 0.  0.
        254    2    1    2    0    0  0.41192150743E+02  0.32733682985E+03  0.15330367311E+04  0.18093740702E+04  0.90265536799E+03 0.  0.
         23    2    4    4    0    0 -0.41358134317E+03  0.69319306654E+02  0.72197034040E+03  0.84039625007E+03  0.95760070074E+02 0.  0.
         23    2    4    4    0    0  0.45477349391E+03  0.25801752319E+03  0.81106639073E+03  0.96897782010E+03  0.87734557849E+02 0.  0.
          2    1    3    3  502    0 -0.20297433162E+02 -0.64774679359E+02  0.28289043052E+03  0.29092050556E+03  0.00000000000E+00 0. -1.
         -1    1    3    3    0  502 -0.20894717581E+02 -0.26256215049E+03  0.60374656498E+03  0.65869976986E+03  0.00000000000E+00 0.  1.
         11    1    5    5    0    0 -0.30573539626E+03  0.67241569782E+02  0.45335245099E+03  0.55093012810E+03  0.00000000000E+00 0. -1.
        -11    1    5    5    0    0 -0.10784594691E+03  0.20777368724E+01  0.26861788941E+03  0.28946612197E+03  0.00000000000E+00 0.  1.
          2    1    6    6  503    0  0.25703409717E+03  0.15043216510E+03  0.53946503073E+03  0.61621334194E+03  0.00000000000E+00 0. -1.
         -2    1    6    6    0  503  0.19773939674E+03  0.10758535809E+03  0.27160136000E+03  0.35276447816E+03  0.00000000000E+00 0.  1.
<mgrwt>
<rscale>  0 0.13256051E+04</rscale>
<asrwt>0</asrwt>
<pdfrwt beam="1">  1        2 0.39835905E+00 0.13256051E+04</pdfrwt>
<pdfrwt beam="2">  1       -1 0.26101588E-01 0.13256051E+04</pdfrwt>
<totfact> 0.44985786E+01</totfact>
</mgrwt>
</event>
<event>
12    6  0.1450532E-007  0.2156603E+04  0.7818608E-02  0.8536711E-01
          2   -1    0    0  501    0  0.00000000000E+00  0.00000000000E+00  0.11668528474E+04  0.11668528474E+04  0.00000000000E+00 0. -1.
         -1   -1    0    0    0  501 -0.00000000000E+00 -0.00000000000E+00 -0.99647017429E+03  0.99647017429E+03  0.00000000000E+00 0.  1.
         24    2    1    2    0    0 -0.54988716806E+03  0.64267833629E+03  0.33266136024E+03  0.91232595037E+03  0.79143651553E+02 0.  0.
        254    2    1    2    0    0  0.54988716806E+03 -0.64267833629E+03 -0.16227868711E+03  0.12509970713E+04  0.90733012663E+03 0.  0.
         23    2    4    4    0    0  0.76578733772E+03 -0.32756463216E+03 -0.18317856460E+03  0.85784964688E+03  0.92859007469E+02 0.  0.
         23    2    4    4    0    0 -0.21590016965E+03 -0.31511370413E+03  0.20899877492E+02  0.39314742447E+03  0.90656288825E+02 0.  0.
          4    1    3    3  502    0 -0.24854276871E+03  0.31482496309E+03  0.11882032901E+03  0.41833782503E+03  0.00000000000E+00 0. -1.
         -3    1    3    3    0  502 -0.30134439935E+03  0.32785337320E+03  0.21384103123E+03  0.49398812534E+03  0.00000000000E+00 0.  1.
         11    1    5    5    0    0  0.54041165040E+03 -0.23382611173E+03 -0.85787502540E+02  0.59504529072E+03  0.00000000000E+00 0.  1.
        -11    1    5    5    0    0  0.22537568731E+03 -0.93738520427E+02 -0.97391062063E+02  0.26280435615E+03  0.00000000000E+00 0. -1.
          4    1    6    6  503    0 -0.14892394573E+03 -0.24202408781E+03  0.52737624993E+02  0.28902466639E+03  0.00000000000E+00 0. -1.
         -4    1    6    6    0  503 -0.66976223922E+02 -0.73089616322E+02 -0.31837747501E+02  0.10412275808E+03  0.00000000000E+00 0.  1.
<mgrwt>
<rscale>  0 0.21566029E+04</rscale>
<asrwt>0</asrwt>
<pdfrwt beam="1">  1        2 0.17951582E+00 0.21566029E+04</pdfrwt>
<pdfrwt beam="2">  1       -1 0.15330310E+00 0.21566029E+04</pdfrwt>
<totfact> 0.68210687E+00</totfact>
</mgrwt>
</event>
<event>
12    6  0.1450532E-007  0.1627229E+04  0.7818608E-02  0.8803992E-01
          2   -1    0    0  501    0  0.00000000000E+00  0.00000000000E+00  0.22466331933E+04  0.22466331933E+04  0.00000000000E+00 0. -1.
         -1   -1    0    0    0  501 -0.00000000000E+00 -0.00000000000E+00 -0.29464927742E+03  0.29464927742E+03  0.00000000000E+00 0.  1.
         24    2    1    2    0    0 -0.20155725245E+03  0.96535151766E+02  0.14450873572E+04  0.14644419150E+04  0.79801571616E+02 0.  0.
        254    2    1    2    0    0  0.20155725245E+03 -0.96535151766E+02  0.50689655865E+03  0.10768405557E+04  0.92341599497E+03 0.  0.
         23    2    4    4    0    0  0.30488312977E+03 -0.25157962647E+03  0.68984995190E+03  0.79999826988E+03  0.88646739438E+02 0.  0.
         23    2    4    4    0    0 -0.10332587732E+03  0.15504447470E+03 -0.18295339324E+03  0.27684228585E+03  0.91949339725E+02 0.  0.
          2    1    3    3  502    0 -0.72365211329E+02  0.70089177472E+02  0.48605666162E+03  0.49638724290E+03  0.00000000000E+00 0. -1.
         -1    1    3    3    0  502 -0.12919204112E+03  0.26445974294E+02  0.95903069559E+03  0.96805467208E+03  0.00000000000E+00 0.  1.
         11    1    5    5    0    0  0.13378920160E+02 -0.25085150899E+02  0.10167220036E+03  0.10557223416E+03  0.00000000000E+00 0.  1.
        -11    1    5    5    0    0  0.29150420961E+03 -0.22649447557E+03  0.58817775154E+03  0.69442603573E+03  0.00000000000E+00 0. -1.
          1    1    6    6  503    0 -0.93806314484E+02  0.10402816448E+03 -0.17528826351E+03  0.22438239451E+03  0.00000000000E+00 0. -1.
         -1    1    6    6    0  503 -0.95195628398E+01  0.51016310223E+02 -0.76651297287E+01  0.52459891338E+02  0.00000000000E+00 0.  1.
<mgrwt>
<rscale>  0 0.16272294E+04</rscale>
<asrwt>0</asrwt>
<pdfrwt beam="1">  1        2 0.34563587E+00 0.16272294E+04</pdfrwt>
<pdfrwt beam="2">  1       -1 0.45330659E-01 0.16272294E+04</pdfrwt>
<totfact> 0.25610445E+01</totfact>
</mgrwt>
</event>
<event>
12    6  0.1450532E-007  0.1854078E+04  0.7818608E-02  0.8678059E-01
          2   -1    0    0  501    0  0.00000000000E+00  0.00000000000E+00  0.11886967893E+04  0.11886967893E+04  0.00000000000E+00 0. -1.
         -1   -1    0    0    0  501 -0.00000000000E+00 -0.00000000000E+00 -0.72297768790E+03  0.72297768790E+03  0.00000000000E+00 0.  1.
         24    2    1    2    0    0  0.99346066423E+02  0.39546833618E+03  0.77069871930E+03  0.87538360414E+03  0.77814475732E+02 0.  0.
        254    2    1    2    0    0 -0.99346066423E+02 -0.39546833618E+03 -0.30497961789E+03  0.10362908731E+04  0.90256377084E+03 0.  0.
         23    2    4    4    0    0  0.69440753397E+02 -0.60628540775E+03 -0.40040195306E+03  0.73556416047E+03  0.91262786840E+02 0.  0.
         23    2    4    4    0    0 -0.16878681982E+03  0.21081707157E+03  0.95422335165E+02  0.30072671260E+03  0.91642268678E+02 0.  0.
          4    1    3    3  502    0  0.63459548715E+02  0.29037430316E+03  0.48463534809E+03  0.56852068641E+03  0.00000000000E+00 0. -1.
         -3    1    3    3    0  502  0.35886517708E+02  0.10509403302E+03  0.28606337121E+03  0.30686291773E+03  0.00000000000E+00 0.  1.
         11    1    5    5    0    0  0.12741955039E+02 -0.90435466078E+01 -0.19267182340E+02  0.24806601315E+02  0.00000000000E+00 0. -1.
        -11    1    5    5    0    0  0.56698798358E+02 -0.59724186115E+03 -0.38113477072E+03  0.71075755915E+03  0.00000000000E+00 0.  1.
          2    1    6    6  503    0 -0.18678272580E+02  0.22862840727E+01  0.30292567347E+02  0.35661528261E+02  0.00000000000E+00 0. -1.
         -2    1    6    6    0  503 -0.15010854724E+03  0.20853078750E+03  0.65129767817E+02  0.26506518433E+03  0.00000000000E+00 0.  1.
<mgrwt>
<rscale>  0 0.18540779E+04</rscale>
<asrwt>0</asrwt>
<pdfrwt beam="1">  1        2 0.18287643E+00 0.18540779E+04</pdfrwt>
<pdfrwt beam="2">  1       -1 0.11122734E+00 0.18540779E+04</pdfrwt>
<totfact> 0.15330341E+01</totfact>
</mgrwt>
</event>
<event>
12    6  0.1450532E-007  0.1566391E+04  0.7818608E-02  0.8841465E-01
          2   -1    0    0  501    0  0.00000000000E+00  0.00000000000E+00  0.16611084953E+04  0.16611084953E+04  0.00000000000E+00 0. -1.
         -1   -1    0    0    0  501 -0.00000000000E+00 -0.00000000000E+00 -0.36926872758E+03  0.36926872758E+03  0.00000000000E+00 0.  1.
         24    2    1    2    0    0 -0.30153540360E+03  0.16740103348E+02  0.99085460126E+03  0.10390850043E+04  0.81859480812E+02 0.  0.
        254    2    1    2    0    0  0.30153540360E+03 -0.16740103348E+02  0.30098516648E+03  0.99129221861E+03  0.89491025335E+03 0.  0.
         23    2    4    4    0    0 -0.24601900107E+03 -0.26624702896E+01  0.34597400684E+03  0.43418125407E+03  0.91010495792E+02 0.  0.
         23    2    4    4    0    0  0.54755440467E+03 -0.14077633059E+02 -0.44988840365E+02  0.55711096454E+03  0.91294168635E+02 0.  0.
          2    1    3    3  502    0 -0.23551969188E+03 -0.21421941329E+02  0.76298176361E+03  0.79879258662E+03  0.00000000000E+00 0. -1.
         -1    1    3    3    0  502 -0.66015711722E+02  0.38162044678E+02  0.22787283765E+03  0.24029241766E+03  0.00000000000E+00 0.  1.
         11    1    5    5    0    0 -0.17941890014E+03  0.12785140749E+02  0.30609213634E+03  0.35503098102E+03  0.00000000000E+00 0. -1.
        -11    1    5    5    0    0 -0.66600100929E+02 -0.15447611039E+02  0.39881870502E+02  0.79150273058E+02  0.00000000000E+00 0.  1.
          1    1    6    6  503    0  0.53096967200E+03  0.15384188500E+01 -0.34668515284E+02  0.53210249508E+03  0.00000000000E+00 0. -1.
         -1    1    6    6    0  503  0.16584732666E+02 -0.15616051909E+02 -0.10320325081E+02  0.25008469457E+02  0.00000000000E+00 0.  1.
<mgrwt>
<rscale>  0 0.15663913E+04</rscale>
<asrwt>0</asrwt>
<pdfrwt beam="1">  1        2 0.25555515E+00 0.15663913E+04</pdfrwt>
<pdfrwt beam="2">  1       -1 0.56810574E-01 0.15663913E+04</pdfrwt>
<totfact> 0.35412706E+01</totfact>
</mgrwt>
</event>
<event>
12    6  0.1450532E-007  0.1599369E+04  0.7818608E-02  0.8820936E-01
         -1   -1    0    0    0  501 -0.00000000000E+00  0.00000000000E+00  0.51762342555E+03  0.51762342555E+03  0.00000000000E+00 0.  1.
          2   -1    0    0  501    0  0.00000000000E+00 -0.00000000000E+00 -0.12354453039E+04  0.12354453039E+04  0.00000000000E+00 0. -1.
         24    2    1    2    0    0 -0.52759475315E+03 -0.12091539417E+02 -0.11094433147E+03  0.54498534266E+03  0.78727061149E+02 0.  0.
        254    2    1    2    0    0  0.52759475315E+03  0.12091539417E+02 -0.60687754688E+03  0.12080833868E+04  0.90147805500E+03 0.  0.
         23    2    4    4    0    0  0.49128707191E+03 -0.27170983487E+03 -0.46552811771E+02  0.57071653900E+03  0.91438406667E+02 0.  0.
         23    2    4    4    0    0  0.36307681233E+02  0.28380137429E+03 -0.56032473511E+03  0.63736684778E+03  0.10203539633E+03 0.  0.
          4    1    3    3  502    0 -0.42800309272E+03 -0.15273344327E+02 -0.12044821477E+03  0.44489065495E+03  0.00000000000E+00 0. -1.
         -3    1    3    3    0  502 -0.99591660426E+02  0.31818049109E+01  0.95038833045E+01  0.10009468771E+03  0.00000000000E+00 0.  1.
         11    1    5    5    0    0  0.64049895866E+02 -0.23092977223E+02 -0.34341332692E+02  0.76256159676E+02  0.00000000000E+00 0.  1.
        -11    1    5    5    0    0  0.42723717605E+03 -0.24861685765E+03 -0.12211479079E+02  0.49446037933E+03  0.00000000000E+00 0. -1.
          1    1    6    6  503    0  0.41994822759E+02  0.29113255897E+03 -0.53736859651E+03  0.61260651364E+03  0.00000000000E+00 0. -1.
         -1    1    6    6    0  503 -0.56871415256E+01 -0.73311846797E+01 -0.22956138595E+02  0.24760334140E+02  0.00000000000E+00 0.  1.
<mgrwt>
<rscale>  0 0.15993692E+04</rscale>
<asrwt>0</asrwt>
<pdfrwt beam="1">  1        2 0.19006851E+00 0.15993692E+04</pdfrwt>
<pdfrwt beam="2">  1       -1 0.79634374E-01 0.15993692E+04</pdfrwt>
<totfact> 0.31077139E+01</totfact>
</mgrwt>
</event>
<event>
12    6  0.1450532E-007  0.1930864E+04  0.7818608E-02  0.8639644E-01
         -1   -1    0    0    0  501 -0.00000000000E+00  0.00000000000E+00  0.50727953001E+03  0.50727953001E+03  0.00000000000E+00 0.  1.
          2   -1    0    0  501    0  0.00000000000E+00 -0.00000000000E+00 -0.18373674858E+04  0.18373674858E+04  0.00000000000E+00 0. -1.
         24    2    1    2    0    0  0.59248462330E+03  0.40041691450E+03 -0.83195947556E+03  0.10999510863E+04  0.79775240838E+02 0.  0.
        254    2    1    2    0    0 -0.59248462330E+03 -0.40041691450E+03 -0.49812848026E+03  0.12446959295E+04  0.88868680638E+03 0.  0.
         23    2    4    4    0    0 -0.60761559007E+02 -0.42353657316E+03 -0.54925969034E+03  0.70217700287E+03  0.91055697671E+02 0.  0.
         23    2    4    4    0    0 -0.53172306430E+03  0.23119658656E+02  0.51131210076E+02  0.54251892664E+03  0.91915447028E+02 0.  0.
          4    1    3    3  502    0  0.56251254158E+03  0.36880030297E+03 -0.75226801038E+03  0.10091289226E+04  0.00000000000E+00 0. -1.
         -3    1    3    3    0  502  0.29972081724E+02  0.31616611534E+02 -0.79691465175E+02  0.90822163757E+02  0.00000000000E+00 0.  1.
         11    1    5    5    0    0  0.23314416101E+02 -0.97034957058E+02 -0.13995784229E+03  0.17189398625E+03  0.00000000000E+00 0. -1.
        -11    1    5    5    0    0 -0.84075975108E+02 -0.32650161610E+03 -0.40930184804E+03  0.53028301662E+03  0.00000000000E+00 0.  1.
          3    1    6    6  503    0 -0.21736555024E+03 -0.21966725631E+02  0.53532120227E+02  0.22493556269E+03  0.00000000000E+00 0. -1.
         -3    1    6    6    0  503 -0.31435751406E+03  0.45086384287E+02 -0.24009101509E+01  0.31758336395E+03  0.00000000000E+00 0.  1.
<mgrwt>
<rscale>  0 0.19308640E+04</rscale>
<asrwt>0</asrwt>
<pdfrwt beam="1">  1        2 0.28267192E+00 0.19308640E+04</pdfrwt>
<pdfrwt beam="2">  1       -1 0.78043004E-01 0.19308640E+04</pdfrwt>
<totfact> 0.14389811E+01</totfact>
</mgrwt>
</event>
<event>
12    6  0.1450532E-007  0.1760816E+04  0.7818608E-02  0.8727419E-01
         -1   -1    0    0    0  501 -0.00000000000E+00  0.00000000000E+00  0.15396092114E+04  0.15396092114E+04  0.00000000000E+00 0.  1.
          2   -1    0    0  501    0  0.00000000000E+00 -0.00000000000E+00 -0.50345147723E+03  0.50345147723E+03  0.00000000000E+00 0. -1.
         24    2    1    2    0    0 -0.47205435022E+03 -0.21815822057E+03 -0.74346633056E+02  0.53121637621E+03  0.78962635115E+02 0.  0.
        254    2    1    2    0    0  0.47205435022E+03  0.21815822057E+03  0.11105043672E+04  0.15118443124E+04  0.88432174946E+03 0.  0.
         23    2    4    4    0    0  0.12655632384E+03  0.38002504121E+02 -0.13003450495E+03  0.20836955720E+03  0.95122060890E+02 0.  0.
         23    2    4    4    0    0  0.34549802638E+03  0.18015571645E+03  0.12405388721E+04  0.13034747552E+04  0.91020743255E+02 0.  0.
          4    1    3    3  502    0 -0.29109023598E+03 -0.17400886262E+03 -0.36021079529E+02  0.34104270689E+03  0.00000000000E+00 0. -1.
         -3    1    3    3    0  502 -0.18096411424E+03 -0.44149357956E+02 -0.38325553527E+02  0.19017366932E+03  0.00000000000E+00 0.  1.
         11    1    5    5    0    0  0.13480015361E+03  0.29456601548E+02 -0.13713261767E+03  0.19453567184E+03  0.00000000000E+00 0. -1.
        -11    1    5    5    0    0 -0.82438297673E+01  0.85459025725E+01  0.70981127249E+01  0.13833885364E+02  0.00000000000E+00 0.  1.
          3    1    6    6  503    0  0.15610703729E+03  0.42212472100E+02  0.60066394748E+03  0.62205182878E+03  0.00000000000E+00 0. -1.
         -3    1    6    6    0  503  0.18939098909E+03  0.13794324435E+03  0.63987492467E+03  0.68142292641E+03  0.00000000000E+00 0.  1.
<mgrwt>
<rscale>  0 0.17608163E+04</rscale>
<asrwt>0</asrwt>
<pdfrwt beam="1">  1        2 0.77454074E-01 0.17608163E+04</pdfrwt>
<pdfrwt beam="2">  1       -1 0.23686295E+00 0.17608163E+04</pdfrwt>
<totfact> 0.56210884E+00</totfact>
</mgrwt>
</event>
<event>
12    6  0.2799639E-007  0.3164658E+04  0.7818608E-02  0.8198214E-01
          2   -1    0    0  501    0  0.00000000000E+00  0.00000000000E+00  0.20832145588E+04  0.20832145588E+04  0.00000000000E+00 0. -1.
         -1   -1    0    0    0  501 -0.00000000000E+00 -0.00000000000E+00 -0.12018757567E+04  0.12018757567E+04  0.00000000000E+00 0.  1.
         24    2    1    2    0    0  0.11045050084E+04 -0.71601991410E+03  0.87979614301E+03  0.15852436615E+04  0.79626516747E+02 0.  0.
        254    2    1    2    0    0 -0.11045050084E+04  0.71601991410E+03  0.15426590460E+01  0.16998466540E+04  0.10755744681E+04 0.  0.
         23    2    4    4    0    0 -0.45987654757E+03  0.12335235239E+03 -0.49204593040E+03  0.69066989259E+03  0.90628147169E+02 0.  0.
         23    2    4    4    0    0 -0.64462846078E+03  0.59266756172E+03  0.49358858944E+03  0.10091767614E+04  0.89483791478E+02 0.  0.
          4    1    3    3  502    0  0.10769001750E+04 -0.69129697089E+03  0.86822504690E+03  0.15464217475E+04  0.00000000000E+00 0. -1.
         -3    1    3    3    0  502  0.27604833319E+02 -0.24722943212E+02  0.11571096103E+02  0.38821914026E+02  0.00000000000E+00 0.  1.
         11    1    5    5    0    0 -0.18218603789E+02 -0.97564798980E+01 -0.38889879948E+02  0.44040086130E+02  0.00000000000E+00 0. -1.
        -11    1    5    5    0    0 -0.44165794378E+03  0.13310883228E+03 -0.45315605045E+03  0.64662980646E+03  0.00000000000E+00 0.  1.
          1    1    6    6  503    0 -0.69616007787E+02  0.77024698592E+02  0.28740088649E+02  0.10772736620E+03  0.00000000000E+00 0. -1.
         -1    1    6    6    0  503 -0.57501245300E+03  0.51564286312E+03  0.46484850080E+03  0.90144939519E+03  0.00000000000E+00 0.  1.
<mgrwt>
<rscale>  0 0.31646580E+04</rscale>
<asrwt>0</asrwt>
<pdfrwt beam="1">  1        2 0.32049455E+00 0.31646580E+04</pdfrwt>
<pdfrwt beam="2">  1       -1 0.18490396E+00 0.31646580E+04</pdfrwt>
<totfact> 0.11070550E+00</totfact>
</mgrwt>
</event>
<event>
12    6  0.1450532E-007  0.2561762E+04  0.7818608E-02  0.8381307E-01
          2   -1    0    0  501    0  0.00000000000E+00  0.00000000000E+00  0.14649465625E+04  0.14649465625E+04  0.00000000000E+00 0. -1.
         -1   -1    0    0    0  501 -0.00000000000E+00 -0.00000000000E+00 -0.11199428970E+04  0.11199428970E+04  0.00000000000E+00 0.  1.
         24    2    1    2    0    0  0.67537793508E+03  0.23149500934E+03 -0.72082727320E+03  0.10176913206E+04  0.79864708875E+02 0.  0.
        254    2    1    2    0    0 -0.67537793508E+03 -0.23149500934E+03  0.10658309387E+04  0.15671981389E+04  0.90021615290E+03 0.  0.
         23    2    4    4    0    0 -0.60210138409E+03 -0.25005677212E+03  0.12119104404E+04  0.13792035375E+04  0.91766095400E+02 0.  0.
         23    2    4    4    0    0 -0.73276550992E+02  0.18561762786E+02 -0.14607950167E+03  0.18799460137E+03  0.91042612940E+02 0.  0.
          4    1    3    3  502    0  0.37197293381E+03  0.12665956779E+03 -0.34000852521E+03  0.51962708438E+03  0.00000000000E+00 0. -1.
         -3    1    3    3    0  502  0.30340500127E+03  0.10483544154E+03 -0.38081874799E+03  0.49806423623E+03  0.00000000000E+00 0.  1.
         11    1    5    5    0    0 -0.47256382881E+03 -0.18069245467E+03  0.85890730528E+03  0.99683905147E+03  0.00000000000E+00 0.  1.
        -11    1    5    5    0    0 -0.12953755528E+03 -0.69364317453E+02  0.35300313512E+03  0.38236448601E+03  0.00000000000E+00 0. -1.
          2    1    6    6  503    0 -0.87713373504E+02  0.19648418079E+02 -0.79948448884E+02  0.12029734288E+03  0.00000000000E+00 0. -1.
         -2    1    6    6    0  503  0.14436822513E+02 -0.10866552925E+01 -0.66131052787E+02  0.67697258487E+02  0.00000000000E+00 0.  1.
<mgrwt>
<rscale>  0 0.25617623E+04</rscale>
<asrwt>0</asrwt>
<pdfrwt beam="1">  1        2 0.22537639E+00 0.25617623E+04</pdfrwt>
<pdfrwt beam="2">  1       -1 0.17229891E+00 0.25617623E+04</pdfrwt>
<totfact> 0.31789418E+00</totfact>
</mgrwt>
</event>
<event>
12    6  0.1450532E-007  0.1340109E+04  0.7818608E-02  0.8998349E-01
         -1   -1    0    0    0  501 -0.00000000000E+00  0.00000000000E+00  0.29071662618E+03  0.29071662618E+03  0.00000000000E+00 0.  1.
          2   -1    0    0  501    0  0.00000000000E+00 -0.00000000000E+00 -0.15443671049E+04  0.15443671049E+04  0.00000000000E+00 0. -1.
         24    2    1    2    0    0 -0.18772606595E+03  0.21871652799E+03 -0.53614456522E+03  0.61518221775E+03  0.88995341217E+02 0.  0.
        254    2    1    2    0    0  0.18772606595E+03 -0.21871652799E+03 -0.71750591352E+03  0.12199015133E+04  0.94353959688E+03 0.  0.
         23    2    4    4    0    0 -0.27062394241E+03 -0.15113011098E+02 -0.64365474328E+03  0.70432188003E+03  0.91171052585E+02 0.  0.
         23    2    4    4    0    0  0.45835000836E+03 -0.20360351689E+03 -0.73851170233E+02  0.51557963331E+03  0.93964039325E+02 0.  0.
          4    1    3    3  502    0 -0.11110572527E+03  0.12187743567E+03 -0.39259632780E+03  0.42582915367E+03  0.00000000000E+00 0. -1.
         -3    1    3    3    0  502 -0.76620340679E+02  0.96839092319E+02 -0.14354823742E+03  0.18935306407E+03  0.00000000000E+00 0.  1.
         11    1    5    5    0    0 -0.41308637402E+02  0.22289846934E+02 -0.17567776058E+03  0.18184035955E+03  0.00000000000E+00 0. -1.
        -11    1    5    5    0    0 -0.22931530501E+03 -0.37402858032E+02 -0.46797698271E+03  0.52248152048E+03  0.00000000000E+00 0.  1.
          2    1    6    6  503    0  0.10275875229E+03 -0.24438160999E+02 -0.49527010709E+02  0.11665980317E+03  0.00000000000E+00 0. -1.
         -2    1    6    6    0  503  0.35559125607E+03 -0.17916535590E+03 -0.24324159523E+02  0.39891983014E+03  0.00000000000E+00 0.  1.
<mgrwt>
<rscale>  0 0.13401092E+04</rscale>
<asrwt>0</asrwt>
<pdfrwt beam="1">  1        2 0.23759494E+00 0.13401092E+04</pdfrwt>
<pdfrwt beam="2">  1       -1 0.44725634E-01 0.13401092E+04</pdfrwt>
<totfact> 0.66099287E+01</totfact>
</mgrwt>
</event>
<event>
12    6  0.1450532E-007  0.2482255E+04  0.7818608E-02  0.8409335E-01
         -1   -1    0    0    0  501 -0.00000000000E+00  0.00000000000E+00  0.10257176739E+04  0.10257176739E+04  0.00000000000E+00 0.  1.
          2   -1    0    0  501    0  0.00000000000E+00 -0.00000000000E+00 -0.15017749116E+04  0.15017749116E+04  0.00000000000E+00 0. -1.
         24    2    1    2    0    0 -0.14723806755E+03 -0.49447396963E+03  0.75179419267E+03  0.91554839152E+03  0.82769522727E+02 0.  0.
        254    2    1    2    0    0  0.14723806755E+03  0.49447396963E+03 -0.12278514304E+04  0.16119441940E+04  0.90805362959E+03 0.  0.
         23    2    4    4    0    0  0.44908260140E+03  0.19057296872E+03 -0.28689632747E+03  0.57392889100E+03  0.95350038925E+02 0.  0.
         23    2    4    4    0    0 -0.30184453385E+03  0.30390100091E+03 -0.94095510295E+03  0.10380153030E+04  0.92807987442E+02 0.  0.
          4    1    3    3  502    0 -0.60242228287E+02 -0.97510573015E+02  0.13763529982E+03  0.17911145601E+03  0.00000000000E+00 0. -1.
         -3    1    3    3    0  502 -0.86995839264E+02 -0.39696339662E+03  0.61415889286E+03  0.73643693551E+03  0.00000000000E+00 0.  1.
         11    1    5    5    0    0  0.18578783757E+03  0.11499013746E+03 -0.16652922440E+03  0.27472137682E+03  0.00000000000E+00 0. -1.
        -11    1    5    5    0    0  0.26329476383E+03  0.75582831266E+02 -0.12036710307E+03  0.29920751418E+03  0.00000000000E+00 0.  1.
          2    1    6    6  503    0 -0.78061589118E+02  0.30898994569E+02 -0.15082227617E+03  0.17261436368E+03  0.00000000000E+00 0. -1.
         -2    1    6    6    0  503 -0.22378294473E+03  0.27300200634E+03 -0.79013282679E+03  0.86540093932E+03  0.00000000000E+00 0.  1.
<mgrwt>
<rscale>  0 0.24822547E+04</rscale>
<asrwt>0</asrwt>
<pdfrwt beam="1">  1        2 0.23104229E+00 0.24822547E+04</pdfrwt>
<pdfrwt beam="2">  1       -1 0.15780272E+00 0.24822547E+04</pdfrwt>
<totfact> 0.39132350E+00</totfact>
</mgrwt>
</event>
<event>
12    6  0.1450532E-007  0.3226009E+04  0.7818608E-02  0.8181982E-01
         -1   -1    0    0    0  501 -0.00000000000E+00  0.00000000000E+00  0.17172887261E+04  0.17172887261E+04  0.00000000000E+00 0.  1.
          2   -1    0    0  501    0  0.00000000000E+00 -0.00000000000E+00 -0.15150527974E+04  0.15150527974E+04  0.00000000000E+00 0. -1.
         24    2    1    2    0    0 -0.10899403108E+04  0.74395776858E+03 -0.48671350193E+03  0.14087392126E+04  0.78823178909E+02 0.  0.
        254    2    1    2    0    0  0.10899403108E+04 -0.74395776858E+03  0.68894943057E+03  0.18236023109E+04  0.10532953185E+04 0.  0.
         23    2    4    4    0    0  0.52575927129E+03  0.92595753699E+02  0.59687824586E+03  0.80629012759E+03  0.94039058404E+02 0.  0.
         23    2    4    4    0    0  0.56418103950E+03 -0.83655352228E+03  0.92071184705E+02  0.10173121833E+04  0.91241078092E+02 0.  0.
          4    1    3    3  502    0 -0.20247795361E+03  0.17536063288E+03 -0.90377525031E+02  0.28269554346E+03  0.00000000000E+00 0. -1.
         -1    1    3    3    0  502 -0.88746235718E+03  0.56859713570E+03 -0.39633597690E+03  0.11260436691E+04  0.00000000000E+00 0.  1.
         11    1    5    5    0    0  0.78395176232E+02 -0.18474644753E+02  0.75931053984E+02  0.11069164880E+03  0.00000000000E+00 0. -1.
        -11    1    5    5    0    0  0.44736409506E+03  0.11107039845E+03  0.52094719188E+03  0.69559847878E+03  0.00000000000E+00 0.  1.
          2    1    6    6  503    0  0.34220601166E+02 -0.45163342769E+02 -0.15668791114E+02  0.58790204024E+02  0.00000000000E+00 0. -1.
         -2    1    6    6    0  503  0.52996043833E+03 -0.79139017951E+03  0.10773997582E+03  0.95852197931E+03  0.00000000000E+00 0.  1.
<mgrwt>
<rscale>  0 0.32260087E+04</rscale>
<asrwt>0</asrwt>
<pdfrwt beam="1">  1        2 0.23308504E+00 0.32260087E+04</pdfrwt>
<pdfrwt beam="2">  1       -1 0.26419827E+00 0.32260087E+04</pdfrwt>
<totfact> 0.67098831E-01</totfact>
</mgrwt>
</event>
<event>
12    6  0.1450532E-007  0.1530846E+04  0.7818608E-02  0.8864196E-01
          2   -1    0    0  501    0  0.00000000000E+00  0.00000000000E+00  0.15015610583E+04  0.15015610583E+04  0.00000000000E+00 0. -1.
         -1   -1    0    0    0  501 -0.00000000000E+00 -0.00000000000E+00 -0.39017556832E+03  0.39017556832E+03  0.00000000000E+00 0.  1.
         24    2    1    2    0    0  0.37538746032E+02 -0.28910683093E+03  0.85172935789E+03  0.90376620269E+03  0.79740409313E+02 0.  0.
        254    2    1    2    0    0 -0.37538746032E+02  0.28910683093E+03  0.25965613211E+03  0.98797042395E+03  0.90756395615E+03 0.  0.
         23    2    4    4    0    0  0.19962549191E+03  0.52706629328E+03  0.28711118622E+03  0.63908320798E+03  0.91352607657E+02 0.  0.
         23    2    4    4    0    0 -0.23716423794E+03 -0.23795946235E+03 -0.27455054114E+02  0.34888721597E+03  0.89982931667E+02 0.  0.
          4    1    3    3  502    0  0.18031944542E+02 -0.18998542552E+03  0.43596361231E+03  0.47590322986E+03  0.00000000000E+00 0. -1.
         -3    1    3    3    0  502  0.19506801489E+02 -0.99121405414E+02  0.41576574558E+03  0.42786297282E+03  0.00000000000E+00 0.  1.
         11    1    5    5    0    0  0.53689597142E+02  0.18775856454E+03  0.55134528608E+02  0.20291788399E+03  0.00000000000E+00 0.  1.
        -11    1    5    5    0    0  0.14593589477E+03  0.33930772875E+03  0.23197665762E+03  0.43616532399E+03  0.00000000000E+00 0. -1.
          1    1    6    6  503    0 -0.23728334325E+03 -0.24247848289E+03 -0.19605180569E+02  0.33982872562E+03  0.00000000000E+00 0. -1.
         -1    1    6    6    0  503  0.11910530862E+00  0.45190205457E+01 -0.78498735451E+01  0.90584903511E+01  0.00000000000E+00 0.  1.
<mgrwt>
<rscale>  0 0.15308461E+04</rscale>
<asrwt>0</asrwt>
<pdfrwt beam="1">  1        2 0.23100939E+00 0.15308461E+04</pdfrwt>
<pdfrwt beam="2">  1       -1 0.60027012E-01 0.15308461E+04</pdfrwt>
<totfact> 0.39155038E+01</totfact>
</mgrwt>
</event>
<event>
12    6  0.1450532E-007  0.1576430E+04  0.7818608E-02  0.8835160E-01
         -1   -1    0    0    0  501 -0.00000000000E+00  0.00000000000E+00  0.59429911772E+03  0.59429911772E+03  0.00000000000E+00 0.  1.
          2   -1    0    0  501    0  0.00000000000E+00 -0.00000000000E+00 -0.10454045807E+04  0.10454045807E+04  0.00000000000E+00 0. -1.
         24    2    1    2    0    0  0.32904919807E+03  0.98777624244E+02  0.26675940603E+03  0.44230628828E+03  0.80273769982E+02 0.  0.
        254    2    1    2    0    0 -0.32904919807E+03 -0.98777624244E+02 -0.71786486898E+03  0.11973974101E+04  0.89465087817E+03 0.  0.
         23    2    4    4    0    0  0.22453921573E+03  0.20508902936E+03 -0.28112308167E+03  0.42417552805E+03  0.91735065173E+02 0.  0.
         23    2    4    4    0    0 -0.55358841380E+03 -0.30386665360E+03 -0.43674178731E+03  0.77322188206E+03  0.91288635880E+02 0.  0.
          4    1    3    3  502    0 -0.34919562629E+01  0.69541012040E+01  0.69151832337E+01  0.10410237329E+02  0.00000000000E+00 0. -1.
         -3    1    3    3    0  502  0.33254115433E+03  0.91823523040E+02  0.25984422280E+03  0.43189605095E+03  0.00000000000E+00 0.  1.
         11    1    5    5    0    0  0.92561191596E+02  0.11898026825E+03 -0.18858414245E+03  0.24142878289E+03  0.00000000000E+00 0. -1.
        -11    1    5    5    0    0  0.13197802414E+03  0.86108761105E+02 -0.92538939214E+02  0.18274674516E+03  0.00000000000E+00 0.  1.
          2    1    6    6  503    0 -0.30504997917E+03 -0.14717433839E+03 -0.18279885898E+03  0.38487816061E+03  0.00000000000E+00 0. -1.
         -2    1    6    6    0  503 -0.24853843463E+03 -0.15669231520E+03 -0.25394292833E+03  0.38834372144E+03  0.00000000000E+00 0.  1.
<mgrwt>
<rscale>  0 0.15764302E+04</rscale>
<asrwt>0</asrwt>
<pdfrwt beam="1">  1        2 0.16083147E+00 0.15764302E+04</pdfrwt>
<pdfrwt beam="2">  1       -1 0.91430633E-01 0.15764302E+04</pdfrwt>
<totfact> 0.30129545E+01</totfact>
</mgrwt>
</event>
<event>
12    6  0.1450532E-007  0.2351421E+04  0.7818608E-02  0.8457918E-01
         -1   -1    0    0    0  501 -0.00000000000E+00  0.00000000000E+00  0.10951995580E+04  0.10951995580E+04  0.00000000000E+00 0.  1.
          2   -1    0    0  501    0  0.00000000000E+00 -0.00000000000E+00 -0.12621400573E+04  0.12621400573E+04  0.00000000000E+00 0. -1.
         24    2    1    2    0    0 -0.41880789640E+03  0.55757407538E+03 -0.79764477396E+03  0.10625013641E+04  0.79894052655E+02 0.  0.
        254    2    1    2    0    0  0.41880789640E+03 -0.55757407538E+03  0.63070427474E+03  0.12948382512E+04  0.89024115329E+03 0.  0.
         23    2    4    4    0    0  0.32044368167E+03 -0.55671648831E+03 -0.15921627520E+01  0.64860182613E+03  0.89801962068E+02 0.  0.
         23    2    4    4    0    0  0.98364214736E+02 -0.85758706755E+00  0.63229643749E+03  0.64623642509E+03  0.90257842041E+02 0.  0.
          2    1    3    3  502    0 -0.30612892750E+03  0.39145123898E+03 -0.51328907717E+03  0.71443311058E+03  0.00000000000E+00 0. -1.
         -1    1    3    3    0  502 -0.11267896891E+03  0.16612283640E+03 -0.28435569680E+03  0.34806825352E+03  0.00000000000E+00 0.  1.
         11    1    5    5    0    0  0.21951058966E+03 -0.43829255525E+03  0.24626534839E+02  0.49080722201E+03  0.00000000000E+00 0.  1.
        -11    1    5    5    0    0  0.10093309201E+03 -0.11842393307E+03 -0.26218697591E+02  0.15779460412E+03  0.00000000000E+00 0. -1.
          4    1    6    6  503    0 -0.26395761063E+01 -0.16561960780E+02  0.23225250883E+02  0.28647481311E+02  0.00000000000E+00 0. -1.
         -4    1    6    6    0  503  0.10100379084E+03  0.15704373713E+02  0.60907118661E+03  0.61758894378E+03  0.00000000000E+00 0.  1.
<mgrwt>
<rscale>  0 0.23514210E+04</rscale>
<asrwt>0</asrwt>
<pdfrwt beam="1">  1        2 0.19417539E+00 0.23514210E+04</pdfrwt>
<pdfrwt beam="2">  1       -1 0.16849224E+00 0.23514210E+04</pdfrwt>
<totfact> 0.45194265E+00</totfact>
</mgrwt>
</event>
<event>
12    6  0.1450532E-007  0.1708755E+04  0.7818608E-02  0.8756387E-01
          2   -1    0    0  501    0  0.00000000000E+00  0.00000000000E+00  0.19088573111E+04  0.19088573111E+04  0.00000000000E+00 0. -1.
         -1   -1    0    0    0  501 -0.00000000000E+00 -0.00000000000E+00 -0.38240742849E+03  0.38240742849E+03  0.00000000000E+00 0.  1.
         24    2    1    2    0    0 -0.15922451184E+03  0.53262042422E+03  0.20492377949E+03  0.59785719873E+03  0.80015706021E+02 0.  0.
        254    2    1    2    0    0  0.15922451184E+03 -0.53262042422E+03  0.13215261032E+04  0.16934075409E+04  0.90119969859E+03 0.  0.
         23    2    4    4    0    0  0.32015384567E+03 -0.71975578543E+03  0.10370721744E+04  0.13055335598E+04  0.91390946667E+02 0.  0.
         23    2    4    4    0    0 -0.16092933384E+03  0.18713536121E+03  0.28445392873E+03  0.38787398113E+03  0.92813219758E+02 0.  0.
          2    1    3    3  502    0 -0.13585451827E+03  0.37358585634E+03  0.17507733315E+03  0.43436725794E+03  0.00000000000E+00 0. -1.
         -1    1    3    3    0  502 -0.23369993571E+02  0.15903456788E+03  0.29846446344E+02  0.16348994079E+03  0.00000000000E+00 0.  1.
         11    1    5    5    0    0 -0.47332158012E+01 -0.22651111420E+01  0.49013488900E+01  0.71803399117E+01  0.00000000000E+00 0.  1.
        -11    1    5    5    0    0  0.32488706148E+03 -0.71749067429E+03  0.10321708255E+04  0.12983532198E+04  0.00000000000E+00 0. -1.
          3    1    6    6  503    0 -0.10424283101E+03  0.79898383573E+02  0.20293349535E+03  0.24172778708E+03  0.00000000000E+00 0. -1.
         -3    1    6    6    0  503 -0.56686502829E+02  0.10723697763E+03  0.81520433388E+02  0.14614619405E+03  0.00000000000E+00 0.  1.
<mgrwt>
<rscale>  0 0.17087554E+04</rscale>
<asrwt>0</asrwt>
<pdfrwt beam="1">  1        2 0.29367035E+00 0.17087554E+04</pdfrwt>
<pdfrwt beam="2">  1       -1 0.58831913E-01 0.17087554E+04</pdfrwt>
<totfact> 0.23811481E+01</totfact>
</mgrwt>
</event>
<event>
12    6  0.1450532E-007  0.1228134E+04  0.7818608E-02  0.9088582E-01
         -1   -1    0    0    0  501 -0.00000000000E+00  0.00000000000E+00  0.39105264402E+03  0.39105264402E+03  0.00000000000E+00 0.  1.
          2   -1    0    0  501    0  0.00000000000E+00 -0.00000000000E+00 -0.96426405862E+03  0.96426405862E+03  0.00000000000E+00 0. -1.
         24    2    1    2    0    0 -0.72664063139E+01 -0.11274476714E+03 -0.45321536153E+03  0.47391703985E+03  0.80181129685E+02 0.  0.
        254    2    1    2    0    0  0.72664063139E+01  0.11274476714E+03 -0.11999605308E+03  0.88139966279E+03  0.86585341117E+03 0.  0.
         23    2    4    4    0    0  0.31902053716E+03  0.31365194170E+03  0.57322232499E+02  0.46021475486E+03  0.91433793478E+02 0.  0.
         23    2    4    4    0    0 -0.31175413085E+03 -0.20090717456E+03 -0.17731828558E+03  0.42118490793E+03  0.91654903707E+02 0.  0.
          4    1    3    3  502    0  0.20623413841E+02 -0.10652398155E+03 -0.32791593167E+03  0.34540055311E+03  0.00000000000E+00 0. -1.
         -1    1    3    3    0  502 -0.27889820155E+02 -0.62207855822E+01 -0.12529942986E+03  0.12851648674E+03  0.00000000000E+00 0.  1.
         11    1    5    5    0    0  0.74161286238E+02  0.13086603412E+03  0.73728950208E+01  0.15059938527E+03  0.00000000000E+00 0. -1.
        -11    1    5    5    0    0  0.24485925093E+03  0.18278590758E+03  0.49949337478E+02  0.30961536959E+03  0.00000000000E+00 0.  1.
          1    1    6    6  503    0 -0.10330280825E+02  0.97564920483E+01 -0.83413952981E+01  0.16476732520E+02  0.00000000000E+00 0. -1.
         -1    1    6    6    0  503 -0.30142385003E+03 -0.21066366661E+03 -0.16897689028E+03  0.40470817541E+03  0.00000000000E+00 0.  1.
<mgrwt>
<rscale>  0 0.12281336E+04</rscale>
<asrwt>0</asrwt>
<pdfrwt beam="1">  1        2 0.14834832E+00 0.12281336E+04</pdfrwt>
<pdfrwt beam="2">  1       -1 0.60161946E-01 0.12281336E+04</pdfrwt>
<totfact> 0.83645971E+01</totfact>
</mgrwt>
</event>
<event>
12    6  0.1450532E-007  0.1988189E+04  0.7818608E-02  0.8612163E-01
          2   -1    0    0  501    0  0.00000000000E+00  0.00000000000E+00  0.17160228330E+04  0.17160228330E+04  0.00000000000E+00 0. -1.
         -1   -1    0    0    0  501 -0.00000000000E+00 -0.00000000000E+00 -0.57588021633E+03  0.57588021633E+03  0.00000000000E+00 0.  1.
         24    2    1    2    0    0  0.52458883102E+03 -0.10354382326E+03  0.11169481441E+04  0.12409250505E+04  0.80044108652E+02 0.  0.
        254    2    1    2    0    0 -0.52458883102E+03  0.10354382326E+03  0.23194472621E+02  0.10509779989E+04  0.90448991463E+03 0.  0.
         23    2    4    4    0    0 -0.18631371596E+03 -0.29917841491E+03 -0.25873213764E+03  0.44684673067E+03  0.92245091774E+02 0.  0.
         23    2    4    4    0    0 -0.33827511506E+03  0.40272223817E+03  0.28192661026E+03  0.60413126824E+03  0.94216352624E+02 0.  0.
          4    1    3    3  502    0  0.24913206622E+03 -0.63990713922E+02  0.62243450334E+03  0.67348816533E+03  0.00000000000E+00 0. -1.
         -3    1    3    3    0  502  0.27545676480E+03 -0.39553109338E+02  0.49451364075E+03  0.56743688514E+03  0.00000000000E+00 0.  1.
         11    1    5    5    0    0 -0.17844811483E+03 -0.21757274330E+03 -0.18653327213E+03  0.33760374690E+03  0.00000000000E+00 0. -1.
        -11    1    5    5    0    0 -0.78656011317E+01 -0.81605671614E+02 -0.72198865509E+02  0.10924298376E+03  0.00000000000E+00 0.  1.
          2    1    6    6  503    0 -0.22234401471E+03  0.28125453366E+03  0.14223561144E+03  0.38570966121E+03  0.00000000000E+00 0. -1.
         -2    1    6    6    0  503 -0.11593110034E+03  0.12146770451E+03  0.13969099883E+03  0.21842160703E+03  0.00000000000E+00 0.  1.
<mgrwt>
<rscale>  0 0.19881887E+04</rscale>
<asrwt>0</asrwt>
<pdfrwt beam="1">  1        2 0.26400351E+00 0.19881887E+04</pdfrwt>
<pdfrwt beam="2">  1       -1 0.88596957E-01 0.19881887E+04</pdfrwt>
<totfact> 0.12724696E+01</totfact>
</mgrwt>
</event>
<event>
12    6  0.1450532E-007  0.1203086E+04  0.7818608E-02  0.9110160E-01
          2   -1    0    0  501    0  0.00000000000E+00  0.00000000000E+00  0.77309855751E+03  0.77309855751E+03  0.00000000000E+00 0. -1.
         -1   -1    0    0    0  501 -0.00000000000E+00 -0.00000000000E+00 -0.46805649040E+03  0.46805649040E+03  0.00000000000E+00 0.  1.
         24    2    1    2    0    0  0.11510889962E+03  0.12487127390E+03 -0.13303353619E+03  0.23145946777E+03  0.83861013877E+02 0.  0.
        254    2    1    2    0    0 -0.11510889962E+03 -0.12487127390E+03  0.43807560329E+03  0.10096955801E+04  0.89371809679E+03 0.  0.
         23    2    4    4    0    0 -0.39202183897E+03 -0.14290100942E+03  0.55176601325E+03  0.69763689531E+03  0.90275598062E+02 0.  0.
         23    2    4    4    0    0  0.27691293934E+03  0.18029735520E+02 -0.11369040996E+03  0.31205868483E+03  0.86309131163E+02 0.  0.
          4    1    3    3  502    0  0.19915197967E+02  0.76384415185E+02 -0.34576940455E+02  0.86178644712E+02  0.00000000000E+00 0. -1.
         -3    1    3    3    0  502  0.95193701656E+02  0.48486858719E+02 -0.98456595735E+02  0.14528082305E+03  0.00000000000E+00 0.  1.
         11    1    5    5    0    0 -0.32195611040E+03 -0.89165112335E+02  0.39156276917E+03  0.51471113887E+03  0.00000000000E+00 0.  1.
        -11    1    5    5    0    0 -0.70065728570E+02 -0.53735897088E+02  0.16020324408E+03  0.18292575645E+03  0.00000000000E+00 0. -1.
          3    1    6    6  503    0 -0.65459283940E+01 -0.12559702484E+00 -0.31762679999E+01  0.72769245948E+01  0.00000000000E+00 0. -1.
         -3    1    6    6    0  503  0.28345886774E+03  0.18155332545E+02 -0.11051414196E+03  0.30478176023E+03  0.00000000000E+00 0.  1.
<mgrwt>
<rscale>  0 0.12030857E+04</rscale>
<asrwt>0</asrwt>
<pdfrwt beam="1">  1        2 0.11893824E+00 0.12030857E+04</pdfrwt>
<pdfrwt beam="2">  1       -1 0.72008691E-01 0.12030857E+04</pdfrwt>
<totfact> 0.79038478E+01</totfact>
</mgrwt>
</event>
<event>
12    6  0.1450532E-007  0.1665034E+04  0.7818608E-02  0.8781562E-01
          2   -1    0    0  501    0  0.00000000000E+00  0.00000000000E+00  0.11746048522E+04  0.11746048522E+04  0.00000000000E+00 0. -1.
         -1   -1    0    0    0  501 -0.00000000000E+00 -0.00000000000E+00 -0.59005729456E+03  0.59005729456E+03  0.00000000000E+00 0.  1.
         24    2    1    2    0    0 -0.38283275383E+03  0.16119609309E+03  0.65464348441E+03  0.77934028580E+03  0.79171279897E+02 0.  0.
        254    2    1    2    0    0  0.38283275383E+03 -0.16119609309E+03 -0.70095926743E+02  0.98532186098E+03  0.89073039296E+03 0.  0.
         23    2    4    4    0    0  0.47110723064E+03 -0.37022626041E+03  0.18331988575E+03  0.63317128416E+03  0.91050469054E+02 0.  0.
         23    2    4    4    0    0 -0.88274476805E+02  0.20903016731E+03 -0.25341581249E+03  0.35215057682E+03  0.91128813412E+02 0.  0.
          2    1    3    3  502    0 -0.32474107271E+03  0.16134349847E+03  0.53455899639E+03  0.64594257440E+03  0.00000000000E+00 0. -1.
         -1    1    3    3    0  502 -0.58091681119E+02 -0.14740537958E+00  0.12008448802E+03  0.13339771140E+03  0.00000000000E+00 0.  1.
         11    1    5    5    0    0  0.41454442979E+03 -0.32969014877E+03  0.12967402401E+03  0.54530544741E+03  0.00000000000E+00 0.  1.
        -11    1    5    5    0    0  0.56562800847E+02 -0.40536111633E+02  0.53645861738E+02  0.87865836749E+02  0.00000000000E+00 0. -1.
          4    1    6    6  503    0 -0.26065074872E+02  0.68019271821E+01 -0.58796710460E+02  0.64673854860E+02  0.00000000000E+00 0. -1.
         -4    1    6    6    0  503 -0.62209401933E+02  0.20222824013E+03 -0.19461910203E+03  0.28747672197E+03  0.00000000000E+00 0.  1.
<mgrwt>
<rscale>  0 0.16650335E+04</rscale>
<asrwt>0</asrwt>
<pdfrwt beam="1">  1        2 0.18070844E+00 0.16650335E+04</pdfrwt>
<pdfrwt beam="2">  1       -1 0.90778046E-01 0.16650335E+04</pdfrwt>
<totfact> 0.25301088E+01</totfact>
</mgrwt>
</event>
<event>
12    6  0.1573771E-007  0.1705209E+04  0.7818608E-02  0.8758399E-01
         -1   -1    0    0    0  501 -0.00000000000E+00  0.00000000000E+00  0.24987469824E+03  0.24987469824E+03  0.00000000000E+00 0.  1.
          2   -1    0    0  501    0  0.00000000000E+00 -0.00000000000E+00 -0.29091942069E+04  0.29091942069E+04  0.00000000000E+00 0. -1.
         24    2    1    2    0    0 -0.22729219089E+03 -0.20692762094E+03  0.23393026145E+02  0.31867776120E+03  0.80792954283E+02 0.  0.
        254    2    1    2    0    0  0.22729219089E+03  0.20692762094E+03 -0.26827125348E+04  0.28403911440E+04  0.88113252457E+03 0.  0.
         23    2    4    4    0    0 -0.29222826760E+03 -0.58365598640E+02 -0.12979327508E+04  0.13349298335E+04  0.92759534846E+02 0.  0.
         23    2    4    4    0    0  0.51952045849E+03  0.26529321958E+03 -0.13847797840E+04  0.15054613105E+04  0.92286011370E+02 0.  0.
          4    1    3    3  502    0 -0.94333622435E+01  0.39123593026E+01 -0.92116116044E+01  0.13753132984E+02  0.00000000000E+00 0. -1.
         -3    1    3    3    0  502 -0.21785882865E+03 -0.21083998024E+03  0.32604637750E+02  0.30492462822E+03  0.00000000000E+00 0.  1.
         11    1    5    5    0    0 -0.26956940149E+03 -0.35801251521E+02 -0.10377034589E+04  0.10727431475E+04  0.00000000000E+00 0.  1.
        -11    1    5    5    0    0 -0.22658866111E+02 -0.22564347119E+02 -0.26022929186E+03  0.26218668600E+03  0.00000000000E+00 0. -1.
          1    1    6    6  503    0  0.42804502480E+02  0.13108772606E+02 -0.58050268275E+02  0.73306882341E+02  0.00000000000E+00 0. -1.
         -1    1    6    6    0  503  0.47671595601E+03  0.25218444698E+03 -0.13267295158E+04  0.14321544281E+04  0.00000000000E+00 0.  1.
<mgrwt>
<rscale>  0 0.17052085E+04</rscale>
<asrwt>0</asrwt>
<pdfrwt beam="1">  1        2 0.44756835E+00 0.17052085E+04</pdfrwt>
<pdfrwt beam="2">  1       -1 0.38442261E-01 0.17052085E+04</pdfrwt>
<totfact> 0.14122937E+01</totfact>
</mgrwt>
</event>
<event>
12    6  0.1450532E-007  0.2518042E+04  0.7818608E-02  0.8396586E-01
         -1   -1    0    0    0  501 -0.00000000000E+00  0.00000000000E+00  0.20523511946E+04  0.20523511946E+04  0.00000000000E+00 0.  1.
          2   -1    0    0  501    0  0.00000000000E+00 -0.00000000000E+00 -0.77234999799E+03  0.77234999799E+03  0.00000000000E+00 0. -1.
         24    2    1    2    0    0 -0.50689939650E+03  0.96941371747E+03  0.46934185151E+03  0.11946287803E+04  0.10072832477E+03 0.  0.
        254    2    1    2    0    0  0.50689939650E+03 -0.96941371747E+03  0.81065934507E+03  0.16300724122E+04  0.89624636212E+03 0.  0.
         23    2    4    4    0    0  0.14459797671E+03 -0.10054245514E+04  0.70431180790E+03  0.12396985749E+04  0.94922761380E+02 0.  0.
         23    2    4    4    0    0  0.36230141979E+03  0.36010833891E+02  0.10634753718E+03  0.39037383730E+03  0.92319203022E+02 0.  0.
          4    1    3    3  502    0 -0.12936727569E+03  0.26786594664E+03  0.80778493308E+02  0.30824214891E+03  0.00000000000E+00 0. -1.
         -1    1    3    3    0  502 -0.37753212082E+03  0.70154777083E+03  0.38856335820E+03  0.88638663141E+03  0.00000000000E+00 0.  1.
         11    1    5    5    0    0  0.91960854191E+02 -0.45763450062E+03  0.37152388441E+03  0.59658706954E+03  0.00000000000E+00 0. -1.
        -11    1    5    5    0    0  0.52637122524E+02 -0.54779005074E+03  0.33278792349E+03  0.64311150540E+03  0.00000000000E+00 0.  1.
          4    1    6    6  503    0 -0.32412085909E+01  0.11051237009E+01  0.10243361848E+02  0.10800610792E+02  0.00000000000E+00 0. -1.
         -4    1    6    6    0  503  0.36554262838E+03  0.34905710190E+02  0.96104175327E+02  0.37957322651E+03  0.00000000000E+00 0.  1.
<mgrwt>
<rscale>  0 0.25180417E+04</rscale>
<asrwt>0</asrwt>
<pdfrwt beam="1">  1        2 0.11882308E+00 0.25180417E+04</pdfrwt>
<pdfrwt beam="2">  1       -1 0.31574634E+00 0.25180417E+04</pdfrwt>
<totfact> 0.95650824E-01</totfact>
</mgrwt>
</event>
<event>
12    6  0.1450532E-007  0.1786279E+04  0.7818608E-02  0.8713631E-01
         -1   -1    0    0    0  501 -0.00000000000E+00  0.00000000000E+00  0.21369801844E+03  0.21369801844E+03  0.00000000000E+00 0.  1.
          2   -1    0    0  501    0  0.00000000000E+00 -0.00000000000E+00 -0.37328276067E+04  0.37328276067E+04  0.00000000000E+00 0. -1.
         24    2    1    2    0    0 -0.54705083762E+03  0.25862305028E+03 -0.18866162227E+04  0.19829054232E+04  0.80266086069E+02 0.  0.
        254    2    1    2    0    0  0.54705083762E+03 -0.25862305028E+03 -0.16325133656E+04  0.19636202020E+04  0.90804950727E+03 0.  0.
         23    2    4    4    0    0 -0.19566003899E+03  0.26636806147E+02 -0.70675616141E+03  0.73945610162E+03  0.91097114304E+02 0.  0.
         23    2    4    4    0    0  0.74271087661E+03 -0.28525985643E+03 -0.92575720422E+03  0.12241641004E+04  0.92513304756E+02 0.  0.
          4    1    3    3  502    0 -0.37983398341E+03  0.16464615926E+03 -0.11708301729E+04  0.12418637230E+04  0.00000000000E+00 0. -1.
         -3    1    3    3    0  502 -0.16721685421E+03  0.93976891017E+02 -0.71578604974E+03  0.74104170017E+03  0.00000000000E+00 0.  1.
         11    1    5    5    0    0 -0.70523255116E+02 -0.23815875873E+02 -0.35479594060E+03  0.36252018553E+03  0.00000000000E+00 0. -1.
        -11    1    5    5    0    0 -0.12513678388E+03  0.50452682020E+02 -0.35196022081E+03  0.37693591608E+03  0.00000000000E+00 0.  1.
          3    1    6    6  503    0  0.59850967756E+03 -0.23430656797E+03 -0.68848712766E+03  0.94187468746E+03  0.00000000000E+00 0. -1.
         -3    1    6    6    0  503  0.14420119905E+03 -0.50953288454E+02 -0.23727007656E+03  0.28228941291E+03  0.00000000000E+00 0.  1.
<mgrwt>
<rscale>  0 0.17862787E+04</rscale>
<asrwt>0</asrwt>
<pdfrwt beam="1">  1        2 0.57428110E+00 0.17862787E+04</pdfrwt>
<pdfrwt beam="2">  1       -1 0.32876622E-01 0.17862787E+04</pdfrwt>
<totfact> 0.52108966E+00</totfact>
</mgrwt>
</event>
<event>
12    6  0.1450532E-007  0.1203486E+04  0.7818608E-02  0.9109810E-01
         -1   -1    0    0    0  501 -0.00000000000E+00  0.00000000000E+00  0.13469551880E+03  0.13469551880E+03  0.00000000000E+00 0.  1.
          2   -1    0    0  501    0  0.00000000000E+00 -0.00000000000E+00 -0.26882473665E+04  0.26882473665E+04  0.00000000000E+00 0. -1.
         24    2    1    2    0    0  0.85306240392E+02 -0.10359326068E+03 -0.10889203683E+04  0.11000577794E+04  0.79817486357E+02 0.  0.
        254    2    1    2    0    0 -0.85306240392E+02  0.10359326068E+03 -0.14646314794E+04  0.17228851059E+04  0.89731766921E+03 0.  0.
         23    2    4    4    0    0  0.27177819927E+03  0.23841828029E+03 -0.26025254174E+03  0.45627659971E+03  0.98743526297E+02 0.  0.
         23    2    4    4    0    0 -0.35708443966E+03 -0.13482501961E+03 -0.12043789376E+04  0.12666085062E+04  0.89896604967E+02 0.  0.
          4    1    3    3  502    0  0.10040160220E+03 -0.90900921071E+02 -0.90413741685E+03  0.91422531562E+03  0.00000000000E+00 0. -1.
         -3    1    3    3    0  502 -0.15095361811E+02 -0.12692339611E+02 -0.18478295148E+03  0.18583246377E+03  0.00000000000E+00 0.  1.
         11    1    5    5    0    0  0.23539543180E+03  0.21429965752E+03 -0.26244802120E+03  0.41257037746E+03  0.00000000000E+00 0.  1.
        -11    1    5    5    0    0  0.36382767477E+02  0.24118622777E+02  0.21954794601E+01  0.43706222257E+02  0.00000000000E+00 0. -1.
          4    1    6    6  503    0 -0.88248709298E+01  0.11074859411E+02 -0.55185266403E+02  0.56973190940E+02  0.00000000000E+00 0. -1.
         -4    1    6    6    0  503 -0.34825956874E+03 -0.14589987902E+03 -0.11491936712E+04  0.12096353153E+04  0.00000000000E+00 0.  1.
<mgrwt>
<rscale>  0 0.12034864E+04</rscale>
<asrwt>0</asrwt>
<pdfrwt beam="1">  1        2 0.41357649E+00 0.12034864E+04</pdfrwt>
<pdfrwt beam="2">  1       -1 0.20722389E-01 0.12034864E+04</pdfrwt>
<totfact> 0.58966699E+01</totfact>
</mgrwt>
</event>
<event>
12    6  0.1450532E-007  0.1946458E+04  0.7818608E-02  0.8632071E-01
          2   -1    0    0  501    0  0.00000000000E+00  0.00000000000E+00  0.70428512917E+03  0.70428512917E+03  0.00000000000E+00 0. -1.
         -1   -1    0    0    0  501 -0.00000000000E+00 -0.00000000000E+00 -0.13448739189E+04  0.13448739189E+04  0.00000000000E+00 0.  1.
         24    2    1    2    0    0  0.55004843073E+03  0.44032203731E+03  0.56242842723E+02  0.71127712909E+03  0.79467756477E+02 0.  0.
        254    2    1    2    0    0 -0.55004843073E+03 -0.44032203731E+03 -0.69683163249E+03  0.13378819190E+04  0.89884199530E+03 0.  0.
         23    2    4    4    0    0 -0.39534303739E+03  0.16006041846E+03 -0.52015724391E+02  0.43959871467E+03  0.92875936533E+02 0.  0.
         23    2    4    4    0    0 -0.15470539334E+03 -0.60038245577E+03 -0.64481590810E+03  0.89828320435E+03  0.82050642593E+02 0.  0.
          4    1    3    3  502    0  0.48978099597E+03  0.39903053938E+03  0.74064749029E+02  0.63607891210E+03  0.00000000000E+00 0. -1.
         -3    1    3    3    0  502  0.60267434763E+02  0.41291497929E+02 -0.17821906306E+02  0.75198216991E+02  0.00000000000E+00 0.  1.
         11    1    5    5    0    0 -0.33496466604E+02  0.44155854690E+02 -0.17295442028E+02  0.58059323913E+02  0.00000000000E+00 0.  1.
        -11    1    5    5    0    0 -0.36184657079E+03  0.11590456376E+03 -0.34720282363E+02  0.38153939076E+03  0.00000000000E+00 0. -1.
          3    1    6    6  503    0 -0.14829108287E+03 -0.52158797181E+03 -0.52519850378E+03  0.75490246123E+03  0.00000000000E+00 0. -1.
         -3    1    6    6    0  503 -0.64143104690E+01 -0.78794483960E+02 -0.11961740432E+03  0.14338074312E+03  0.00000000000E+00 0.  1.
<mgrwt>
<rscale>  0 0.19464580E+04</rscale>
<asrwt>0</asrwt>
<pdfrwt beam="1">  1        2 0.10835156E+00 0.19464580E+04</pdfrwt>
<pdfrwt beam="2">  1       -1 0.20690368E+00 0.19464580E+04</pdfrwt>
<totfact> 0.58437558E+00</totfact>
</mgrwt>
</event>
<event>
12    6  0.1450532E-007  0.1598422E+04  0.7818608E-02  0.8821518E-01
          2   -1    0    0  501    0  0.00000000000E+00  0.00000000000E+00  0.44852681727E+03  0.44852681727E+03  0.00000000000E+00 0. -1.
         -1   -1    0    0    0  501 -0.00000000000E+00 -0.00000000000E+00 -0.14240795798E+04  0.14240795798E+04  0.00000000000E+00 0.  1.
         24    2    1    2    0    0  0.43475587780E+03 -0.19641409986E+03 -0.35350383379E+02  0.48493517106E+03  0.79506594847E+02 0.  0.
        254    2    1    2    0    0 -0.43475587780E+03  0.19641409986E+03 -0.94020237911E+03  0.13876712260E+04  0.90225259532E+03 0.  0.
         23    2    4    4    0    0 -0.54307344050E+03 -0.17513986415E+03 -0.75095976031E+03  0.94721260423E+03  0.87569527971E+02 0.  0.
         23    2    4    4    0    0  0.10831756270E+03  0.37155396401E+03 -0.18924261880E+03  0.44045862173E+03  0.91684165044E+02 0.  0.
          2    1    3    3  502    0  0.32453905184E+03 -0.16711170580E+03 -0.55163356832E+02  0.36918141113E+03  0.00000000000E+00 0. -1.
         -1    1    3    3    0  502  0.11021682596E+03 -0.29302394057E+02  0.19812973453E+02  0.11575375994E+03  0.00000000000E+00 0.  1.
         11    1    5    5    0    0 -0.96933258718E+02 -0.68007821817E+02 -0.15973977139E+03  0.19884143189E+03  0.00000000000E+00 0. -1.
        -11    1    5    5    0    0 -0.44614018178E+03 -0.10713204233E+03 -0.59121998892E+03  0.74837117234E+03  0.00000000000E+00 0.  1.
          1    1    6    6  503    0  0.26170522156E+02  0.12248389530E+03 -0.16302009403E+02  0.12630501316E+03  0.00000000000E+00 0. -1.
         -1    1    6    6    0  503  0.82147040542E+02  0.24907006871E+03 -0.17294060940E+03  0.31415360857E+03  0.00000000000E+00 0.  1.
<mgrwt>
<rscale>  0 0.15984216E+04</rscale>
<asrwt>0</asrwt>
<pdfrwt beam="1">  1        2 0.69004127E-01 0.15984216E+04</pdfrwt>
<pdfrwt beam="2">  1       -1 0.21908916E+00 0.15984216E+04</pdfrwt>
<totfact> 0.85437643E+00</totfact>
</mgrwt>
</event>
<event>
12    6  0.1450532E-007  0.2637969E+04  0.7818608E-02  0.8355417E-01
         -1   -1    0    0    0  501 -0.00000000000E+00  0.00000000000E+00  0.60928655324E+03  0.60928655324E+03  0.00000000000E+00 0.  1.
          2   -1    0    0  501    0  0.00000000000E+00 -0.00000000000E+00 -0.28553399363E+04  0.28553399363E+04  0.00000000000E+00 0. -1.
         24    2    1    2    0    0 -0.80606960810E+03  0.71408728827E+03 -0.15700687374E+04  0.19053938050E+04  0.75768353397E+02 0.  0.
        254    2    1    2    0    0  0.80606960810E+03 -0.71408728827E+03 -0.67598464565E+03  0.15592326846E+04  0.90254221794E+03 0.  0.
         23    2    4    4    0    0 -0.17120553713E+03 -0.24310145029E+03 -0.20514578840E+03  0.37314376357E+03  0.93497715002E+02 0.  0.
         23    2    4    4    0    0  0.97727514524E+03 -0.47098583798E+03 -0.47083885724E+03  0.11860889210E+04  0.90682578311E+02 0.  0.
          4    1    3    3  502    0 -0.33171118388E+03  0.34147500315E+03 -0.71384703573E+03  0.85802976505E+03  0.00000000000E+00 0. -1.
         -3    1    3    3    0  502 -0.47435842423E+03  0.37261228511E+03 -0.85622170169E+03  0.10473640399E+04  0.00000000000E+00 0.  1.
         11    1    5    5    0    0 -0.34062473950E+02 -0.24319291045E+01 -0.29675163383E+02  0.45241371914E+02  0.00000000000E+00 0. -1.
        -11    1    5    5    0    0 -0.13714306318E+03 -0.24066952118E+03 -0.17547062502E+03  0.32790239165E+03  0.00000000000E+00 0.  1.
          4    1    6    6  503    0  0.97843966723E+03 -0.46984110170E+03 -0.46641103730E+03  0.11813695861E+04  0.00000000000E+00 0. -1.
         -4    1    6    6    0  503 -0.11645219923E+01 -0.11447362777E+01 -0.44278199464E+01  0.47193349207E+01  0.00000000000E+00 0.  1.
<mgrwt>
<rscale>  0 0.26379691E+04</rscale>
<asrwt>0</asrwt>
<pdfrwt beam="1">  1        2 0.43928308E+00 0.26379691E+04</pdfrwt>
<pdfrwt beam="2">  1       -1 0.93736391E-01 0.26379691E+04</pdfrwt>
<totfact> 0.23666989E+00</totfact>
</mgrwt>
</event>
<event>
12    6  0.1450532E-007  0.1542999E+04  0.7818608E-02  0.8856352E-01
         -1   -1    0    0    0  501 -0.00000000000E+00  0.00000000000E+00  0.50595392388E+03  0.50595392388E+03  0.00000000000E+00 0.  1.
          2   -1    0    0  501    0  0.00000000000E+00 -0.00000000000E+00 -0.11764146319E+04  0.11764146319E+04  0.00000000000E+00 0. -1.
         24    2    1    2    0    0  0.23102041768E+03 -0.84434981546E+02 -0.70853781241E+03  0.75471172076E+03  0.84049094839E+02 0.  0.
        254    2    1    2    0    0 -0.23102041768E+03  0.84434981546E+02  0.38077104386E+02  0.92765683501E+03  0.89364290305E+03 0.  0.
         23    2    4    4    0    0  0.31777521575E+03  0.12400111853E+03 -0.68124932944E+02  0.35997573100E+03  0.92650716560E+02 0.  0.
         23    2    4    4    0    0 -0.54879563343E+03 -0.39566136983E+02  0.10620203733E+03  0.56768110402E+03  0.90779054097E+02 0.  0.
          2    1    3    3  502    0  0.17721934765E+03 -0.65284230850E+02 -0.62936841325E+03  0.65709461083E+03  0.00000000000E+00 0. -1.
         -1    1    3    3    0  502  0.53801070030E+02 -0.19150750696E+02 -0.79169399162E+02  0.97617109936E+02  0.00000000000E+00 0.  1.
         11    1    5    5    0    0  0.26452540066E+02  0.12892885109E+02 -0.36054621514E+02  0.46539221039E+02  0.00000000000E+00 0. -1.
        -11    1    5    5    0    0  0.29132267568E+03  0.11110823342E+03 -0.32070311429E+02  0.31343650996E+03  0.00000000000E+00 0.  1.
          2    1    6    6  503    0 -0.41728260937E+03 -0.42698447479E+02  0.11760873109E+03  0.43563717372E+03  0.00000000000E+00 0.  1.
         -2    1    6    6    0  503 -0.13151302406E+03  0.31323104953E+01 -0.11406693761E+02  0.13204393030E+03  0.00000000000E+00 0. -1.
<mgrwt>
<rscale>  0 0.15429992E+04</rscale>
<asrwt>0</asrwt>
<pdfrwt beam="1">  1        2 0.18098686E+00 0.15429992E+04</pdfrwt>
<pdfrwt beam="2">  1       -1 0.77839067E-01 0.15429992E+04</pdfrwt>
<totfact> 0.35536640E+01</totfact>
</mgrwt>
</event>
<event>
12    6  0.1450532E-007  0.1219984E+04  0.7818608E-02  0.9095542E-01
          2   -1    0    0  501    0  0.00000000000E+00  0.00000000000E+00  0.55908699086E+03  0.55908699086E+03  0.00000000000E+00 0. -1.
         -1   -1    0    0    0  501 -0.00000000000E+00 -0.00000000000E+00 -0.66553229474E+03  0.66553229474E+03  0.00000000000E+00 0.  1.
         24    2    1    2    0    0  0.14725067121E+03 -0.42979899349E+02  0.19342917641E+03  0.25953155200E+03  0.80073393081E+02 0.  0.
        254    2    1    2    0    0 -0.14725067121E+03  0.42979899349E+02 -0.29987448029E+03  0.96508773359E+03  0.90440013140E+03 0.  0.
         23    2    4    4    0    0  0.28975837171E+03  0.19165780321E+03  0.70230213040E+02  0.36639141855E+03  0.92831897850E+02 0.  0.
         23    2    4    4    0    0 -0.43700904292E+03 -0.14867790386E+03 -0.37010469333E+03  0.59869631505E+03  0.91530164081E+02 0.  0.
          2    1    3    3  502    0  0.53226931449E+02 -0.31176551544E+02  0.13442215742E+03  0.14789996620E+03  0.00000000000E+00 0. -1.
         -1    1    3    3    0  502  0.94023739762E+02 -0.11803347805E+02  0.59007018986E+02  0.11163158580E+03  0.00000000000E+00 0.  1.
         11    1    5    5    0    0  0.54683414511E+02  0.59898211096E+02  0.51892870581E+02  0.96285728601E+02  0.00000000000E+00 0. -1.
        -11    1    5    5    0    0  0.23507495720E+03  0.13175959211E+03  0.18337342459E+02  0.27010568995E+03  0.00000000000E+00 0.  1.
          1    1    6    6  503    0 -0.12266778012E+03 -0.50480104335E+02 -0.16095725839E+03  0.20857340253E+03  0.00000000000E+00 0. -1.
         -1    1    6    6    0  503 -0.31434126280E+03 -0.98197799522E+02 -0.20914743494E+03  0.39012291252E+03  0.00000000000E+00 0.  1.
<mgrwt>
<rscale>  0 0.12199843E+04</rscale>
<asrwt>0</asrwt>
<pdfrwt beam="1">  1        2 0.86013383E-01 0.12199843E+04</pdfrwt>
<pdfrwt beam="2">  1       -1 0.10238958E+00 0.12199843E+04</pdfrwt>
<totfact> 0.54927591E+01</totfact>
</mgrwt>
</event>
<event>
12    6  0.1450532E-007  0.2126203E+04  0.7818608E-02  0.8549788E-01
         -1   -1    0    0    0  501 -0.00000000000E+00  0.00000000000E+00  0.94562532455E+03  0.94562532455E+03  0.00000000000E+00 0.  1.
          2   -1    0    0  501    0  0.00000000000E+00 -0.00000000000E+00 -0.11951723640E+04  0.11951723640E+04  0.00000000000E+00 0. -1.
         24    2    1    2    0    0 -0.74876521532E+03  0.22846981106E+03  0.27854920357E+03  0.83475961353E+03  0.79913398907E+02 0.  0.
        254    2    1    2    0    0  0.74876521532E+03 -0.22846981106E+03 -0.52809624304E+03  0.13060380750E+04  0.90222059901E+03 0.  0.
         23    2    4    4    0    0 -0.32439511640E+02  0.18450855886E+03 -0.33921531800E+03  0.39786212294E+03  0.90174867314E+02 0.  0.
         23    2    4    4    0    0  0.78120472696E+03 -0.41297836992E+03 -0.18888092504E+03  0.90817595209E+03  0.90970306529E+02 0.  0.
          4    1    3    3  502    0 -0.92799744414E+02  0.49340171222E+01  0.46644808414E+02  0.10398016753E+03  0.00000000000E+00 0. -1.
         -3    1    3    3    0  502 -0.65596547091E+03  0.22353579394E+03  0.23190439516E+03  0.73077944599E+03  0.00000000000E+00 0.  1.
         11    1    5    5    0    0 -0.32125147903E+02  0.19024159672E+03 -0.29001727543E+03  0.34833017426E+03  0.00000000000E+00 0.  1.
        -11    1    5    5    0    0 -0.31436373645E+00 -0.57330378560E+01 -0.49198042569E+02  0.49531948682E+02  0.00000000000E+00 0. -1.
          4    1    6    6  503    0  0.26425174587E+03 -0.15677120592E+03 -0.10742826931E+03  0.32549505257E+03  0.00000000000E+00 0. -1.
         -4    1    6    6    0  503  0.51695298109E+03 -0.25620716400E+03 -0.81452655726E+02  0.58268089952E+03  0.00000000000E+00 0.  1.
<mgrwt>
<rscale>  0 0.21262034E+04</rscale>
<asrwt>0</asrwt>
<pdfrwt beam="1">  1        2 0.18387267E+00 0.21262034E+04</pdfrwt>
<pdfrwt beam="2">  1       -1 0.14548082E+00 0.21262034E+04</pdfrwt>
<totfact> 0.75712834E+00</totfact>
</mgrwt>
</event>
<event>
12    6  0.1450532E-007  0.1545034E+04  0.7818608E-02  0.8855046E-01
         -1   -1    0    0    0  501 -0.00000000000E+00  0.00000000000E+00  0.38318417069E+03  0.38318417069E+03  0.00000000000E+00 0.  1.
          2   -1    0    0  501    0  0.00000000000E+00 -0.00000000000E+00 -0.15574294780E+04  0.15574294780E+04  0.00000000000E+00 0. -1.
         24    2    1    2    0    0 -0.73449645116E+02  0.49487956932E+03 -0.31971857795E+03  0.59835856912E+03  0.74245334206E+02 0.  0.
        254    2    1    2    0    0  0.73449645116E+02 -0.49487956932E+03 -0.85452672932E+03  0.13422550795E+04  0.90616341181E+03 0.  0.
         23    2    4    4    0    0 -0.37769422652E+02 -0.31855324988E+03 -0.10122637161E+04  0.10657787884E+04  0.91125696597E+02 0.  0.
         23    2    4    4    0    0  0.11121906777E+03 -0.17632631945E+03  0.15773698674E+03  0.27647629116E+03  0.89986280191E+02 0.  0.
          4    1    3    3  502    0 -0.21377777295E+02  0.38441875802E+02 -0.12594488646E+02  0.45753779314E+02  0.00000000000E+00 0. -1.
         -3    1    3    3    0  502 -0.52071867821E+02  0.45643769352E+03 -0.30712408931E+03  0.55260478981E+03  0.00000000000E+00 0.  1.
         11    1    5    5    0    0  0.28079242420E+02 -0.10642388568E+03 -0.38093891980E+03  0.39652105608E+03  0.00000000000E+00 0.  1.
        -11    1    5    5    0    0 -0.65848665072E+02 -0.21212936420E+03 -0.63132479626E+03  0.66925773228E+03  0.00000000000E+00 0. -1.
          2    1    6    6  503    0  0.13386076700E+02 -0.75998450386E+02  0.19410121781E+02  0.79572007251E+02  0.00000000000E+00 0. -1.
         -2    1    6    6    0  503  0.97832991068E+02 -0.10032786906E+03  0.13832686496E+03  0.19690428391E+03  0.00000000000E+00 0.  1.
<mgrwt>
<rscale>  0 0.15450338E+04</rscale>
<asrwt>0</asrwt>
<pdfrwt beam="1">  1        2 0.23960453E+00 0.15450338E+04</pdfrwt>
<pdfrwt beam="2">  1       -1 0.58951411E-01 0.15450338E+04</pdfrwt>
<totfact> 0.37700330E+01</totfact>
</mgrwt>
</event>
<event>
12    6  0.1450532E-007  0.2274310E+04  0.7818608E-02  0.8488120E-01
         -1   -1    0    0    0  501 -0.00000000000E+00  0.00000000000E+00  0.66382603428E+03  0.66382603428E+03  0.00000000000E+00 0.  1.
          2   -1    0    0  501    0  0.00000000000E+00 -0.00000000000E+00 -0.19479833389E+04  0.19479833389E+04  0.00000000000E+00 0. -1.
         24    2    1    2    0    0 -0.41697741939E+03 -0.82975944708E+03 -0.28884369116E+03  0.97624600655E+03  0.85174403973E+02 0.  0.
        254    2    1    2    0    0  0.41697741939E+03  0.82975944708E+03 -0.99531361348E+03  0.16355633666E+04  0.90666831247E+03 0.  0.
         23    2    4    4    0    0  0.10314034831E+03  0.94179491395E+03 -0.72539046661E+03  0.11963560245E+04  0.86376021103E+02 0.  0.
         23    2    4    4    0    0  0.31383707107E+03 -0.11203546687E+03 -0.26992314687E+03  0.43920734210E+03  0.94862696145E+02 0.  0.
          4    1    3    3  502    0 -0.21742791265E+03 -0.50555373798E+03 -0.19799484243E+03  0.58486018570E+03  0.00000000000E+00 0. -1.
         -3    1    3    3    0  502 -0.19954950673E+03 -0.32420570910E+03 -0.90848848726E+02  0.39138582085E+03  0.00000000000E+00 0.  1.
         11    1    5    5    0    0  0.20705062758E+02  0.10101646149E+03 -0.49175723735E+02  0.11424218538E+03  0.00000000000E+00 0.  1.
        -11    1    5    5    0    0  0.82435285553E+02  0.84077845246E+03 -0.67621474287E+03  0.10821138392E+04  0.00000000000E+00 0. -1.
          1    1    6    6  503    0  0.24054410347E+03 -0.91876317941E+02 -0.25370515104E+03  0.36148171071E+03  0.00000000000E+00 0. -1.
         -1    1    6    6    0  503  0.73292967606E+02 -0.20159148930E+02 -0.16217995825E+02  0.77725631388E+02  0.00000000000E+00 0.  1.
<mgrwt>
<rscale>  0 0.22743105E+04</rscale>
<asrwt>0</asrwt>
<pdfrwt beam="1">  1        2 0.29968975E+00 0.22743105E+04</pdfrwt>
<pdfrwt beam="2">  1       -1 0.10212708E+00 0.22743105E+04</pdfrwt>
<totfact> 0.67051867E+00</totfact>
</mgrwt>
</event>
<event>
12    6  0.1450532E-007  0.1283585E+04  0.7818608E-02  0.9042684E-01
         -3   -1    0    0    0  501 -0.00000000000E+00  0.00000000000E+00  0.76423180025E+03  0.76423180025E+03  0.00000000000E+00 0.  1.
          4   -1    0    0  501    0  0.00000000000E+00 -0.00000000000E+00 -0.53896986071E+03  0.53896986071E+03  0.00000000000E+00 0. -1.
         24    2    1    2    0    0  0.31314945039E+02 -0.28328561352E+03  0.21111259788E+03  0.36286305550E+03  0.76613989922E+02 0.  0.
        254    2    1    2    0    0 -0.31314945039E+02  0.28328561352E+03  0.14149341664E+02  0.94033860546E+03  0.89599393103E+03 0.  0.
         23    2    4    4    0    0 -0.58971218449E+02 -0.21146827553E+03  0.28283707840E+03  0.36936808650E+03  0.90771880223E+02 0.  0.
         23    2    4    4    0    0  0.27656273410E+02  0.49475388906E+03 -0.26868773674E+03  0.57097051897E+03  0.90928287438E+02 0.  0.
          4    1    3    3  502    0  0.48674259225E+02 -0.19649994788E+03  0.11764126698E+03  0.23413859298E+03  0.00000000000E+00 0. -1.
         -3    1    3    3    0  502 -0.17359314186E+02 -0.86785665643E+02  0.93471330896E+02  0.12872446251E+03  0.00000000000E+00 0.  1.
         11    1    5    5    0    0 -0.42544134082E+02 -0.26515841229E+02  0.79704397236E+02  0.94158823908E+02  0.00000000000E+00 0.  1.
        -11    1    5    5    0    0 -0.16427084367E+02 -0.18495243431E+03  0.20313268117E+03  0.27520926259E+03  0.00000000000E+00 0. -1.
          4    1    6    6  503    0  0.43773617678E+01  0.38204919820E+03 -0.16541925481E+03  0.41634634741E+03  0.00000000000E+00 0. -1.
         -4    1    6    6    0  503  0.23278911642E+02  0.11270469086E+03 -0.10326848193E+03  0.15462417156E+03  0.00000000000E+00 0.  1.
<mgrwt>
<rscale>  0 0.12835855E+04</rscale>
<asrwt>0</asrwt>
<pdfrwt beam="1">  1        4 0.82918440E-01 0.12835855E+04</pdfrwt>
<pdfrwt beam="2">  1       -3 0.11757412E+00 0.12835855E+04</pdfrwt>
<totfact> 0.17052738E+00</totfact>
</mgrwt>
</event>
<event>
12    6  0.1450532E-007  0.1972200E+04  0.7818608E-02  0.8619729E-01
          2   -1    0    0  501    0  0.00000000000E+00  0.00000000000E+00  0.11695340991E+04  0.11695340991E+04  0.00000000000E+00 0. -1.
         -1   -1    0    0    0  501 -0.00000000000E+00 -0.00000000000E+00 -0.83143677467E+03  0.83143677467E+03  0.00000000000E+00 0.  1.
         24    2    1    2    0    0 -0.44510671198E+03 -0.31556778856E+03  0.69396731413E+03  0.88642330361E+03  0.80328238361E+02 0.  0.
        254    2    1    2    0    0  0.44510671198E+03  0.31556778856E+03 -0.35586998967E+03  0.11145475702E+04  0.90436155516E+03 0.  0.
         23    2    4    4    0    0  0.17116021801E+03  0.50438859441E+03  0.91773659103E+02  0.54904218585E+03  0.96546584283E+02 0.  0.
         23    2    4    4    0    0  0.27394649397E+03 -0.18882080585E+03 -0.44764364877E+03  0.56550538435E+03  0.93335551444E+02 0.  0.
          2    1    3    3  502    0 -0.43185973662E+03 -0.31208387593E+03  0.69071446555E+03  0.87234491496E+03  0.00000000000E+00 0. -1.
         -1    1    3    3    0  502 -0.13246975355E+02 -0.34839126334E+01  0.32528485848E+01  0.14078388658E+02  0.00000000000E+00 0.  1.
         11    1    5    5    0    0  0.18178696789E+03  0.48854635762E+03  0.94512247900E+02  0.52977033726E+03  0.00000000000E+00 0.  1.
        -11    1    5    5    0    0 -0.10626749877E+02  0.15842236794E+02 -0.27385887971E+01  0.19271848593E+02  0.00000000000E+00 0. -1.
          4    1    6    6  503    0  0.18266003950E+03 -0.16166946434E+03 -0.26948648499E+03  0.36348957526E+03  0.00000000000E+00 0. -1.
         -4    1    6    6    0  503  0.91286454471E+02 -0.27151341504E+02 -0.17815716378E+03  0.20201580908E+03  0.00000000000E+00 0.  1.
<mgrwt>
<rscale>  0 0.19722005E+04</rscale>
<asrwt>0</asrwt>
<pdfrwt beam="1">  1        2 0.17992832E+00 0.19722005E+04</pdfrwt>
<pdfrwt beam="2">  1       -1 0.12791335E+00 0.19722005E+04</pdfrwt>
<totfact> 0.11082332E+01</totfact>
</mgrwt>
</event>
<event>
12    6  0.1450532E-007  0.2013147E+04  0.7818608E-02  0.8600498E-01
          2   -1    0    0  501    0  0.00000000000E+00  0.00000000000E+00  0.33669837845E+04  0.33669837845E+04  0.00000000000E+00 0. -1.
         -1   -1    0    0    0  501 -0.00000000000E+00 -0.00000000000E+00 -0.30091933950E+03  0.30091933950E+03  0.00000000000E+00 0.  1.
         24    2    1    2    0    0 -0.15673666600E+03 -0.25083926304E+03 -0.13266254384E+03  0.33242480260E+03  0.73621875111E+02 0.  0.
        254    2    1    2    0    0  0.15673666600E+03  0.25083926304E+03  0.31987269889E+04  0.33354783214E+04  0.89781655422E+03 0.  0.
         23    2    4    4    0    0  0.51241649314E+03  0.16677609406E+03  0.15249515867E+04  0.16198373920E+04  0.89503667698E+02 0.  0.
         23    2    4    4    0    0 -0.35567982715E+03  0.84063168987E+02  0.16737754021E+04  0.17156409294E+04  0.91241143314E+02 0.  0.
          4    1    3    3  502    0 -0.20847966273E+02 -0.41370620158E+02  0.61724951794E+01  0.46736127425E+02  0.00000000000E+00 0. -1.
         -3    1    3    3    0  502 -0.13588869972E+03 -0.20946864289E+03 -0.13883503902E+03  0.28568867517E+03  0.00000000000E+00 0.  1.
         11    1    5    5    0    0  0.44424115873E+03  0.14681604973E+03  0.12179672467E+04  0.13047411136E+04  0.00000000000E+00 0. -1.
        -11    1    5    5    0    0  0.68175334411E+02  0.19960044327E+02  0.30698434008E+03  0.31509627837E+03  0.00000000000E+00 0.  1.
          1    1    6    6  503    0 -0.32918403146E+03  0.85165262772E+02  0.14049284876E+04  0.14454892957E+04  0.00000000000E+00 0. -1.
         -1    1    6    6    0  503 -0.26495795686E+02 -0.11020937844E+01  0.26884691450E+03  0.27015163379E+03  0.00000000000E+00 0.  1.
<mgrwt>
<rscale>  0 0.20131473E+04</rscale>
<asrwt>0</asrwt>
<pdfrwt beam="1">  1        2 0.51799748E+00 0.20131473E+04</pdfrwt>
<pdfrwt beam="2">  1       -1 0.46295285E-01 0.20131473E+04</pdfrwt>
<totfact> 0.49471738E+00</totfact>
</mgrwt>
</event>
<event>
12    6  0.1450532E-007  0.1314215E+04  0.7818608E-02  0.9018368E-01
         -1   -1    0    0    0  501 -0.00000000000E+00  0.00000000000E+00  0.18437248024E+03  0.18437248024E+03  0.00000000000E+00 0.  1.
          2   -1    0    0  501    0  0.00000000000E+00 -0.00000000000E+00 -0.23419453787E+04  0.23419453787E+04  0.00000000000E+00 0. -1.
         24    2    1    2    0    0 -0.15378987297E+03 -0.26555532901E+03 -0.86992078526E+03  0.92607209603E+03  0.81709220010E+02 0.  0.
        254    2    1    2    0    0  0.15378987297E+03  0.26555532901E+03 -0.12876521132E+04  0.16002457629E+04  0.89920385859E+03 0.  0.
         23    2    4    4    0    0  0.50275749087E+03  0.12342930110E+03 -0.95246174588E+03  0.10880263607E+04  0.92833707265E+02 0.  0.
         23    2    4    4    0    0 -0.34896761791E+03  0.14212602791E+03 -0.33519036732E+03  0.51221940222E+03  0.89654489606E+02 0.  0.
          4    1    3    3  502    0  0.47026045404E+01  0.14402162402E+01 -0.33907057083E+02  0.34261891838E+02  0.00000000000E+00 0. -1.
         -3    1    3    3    0  502 -0.15849247751E+03 -0.26699554525E+03 -0.83601372817E+03  0.89181020419E+03  0.00000000000E+00 0.  1.
         11    1    5    5    0    0  0.47974359307E+03  0.11211492892E+03 -0.85051470034E+03  0.98290331563E+03  0.00000000000E+00 0. -1.
        -11    1    5    5    0    0  0.23013897804E+02  0.11314372173E+02 -0.10194704554E+03  0.10512304507E+03  0.00000000000E+00 0.  1.
          1    1    6    6  503    0 -0.27397738163E+03  0.13423375589E+03 -0.22670276552E+03  0.38010057979E+03  0.00000000000E+00 0. -1.
         -1    1    6    6    0  503 -0.74990236278E+02  0.78922720238E+01 -0.10848760180E+03  0.13211882243E+03  0.00000000000E+00 0.  1.
<mgrwt>
<rscale>  0 0.13142150E+04</rscale>
<asrwt>0</asrwt>
<pdfrwt beam="1">  1        2 0.36029929E+00 0.13142150E+04</pdfrwt>
<pdfrwt beam="2">  1       -1 0.28364997E-01 0.13142150E+04</pdfrwt>
<totfact> 0.54042503E+01</totfact>
</mgrwt>
</event>
<event>
12    6  0.1450532E-007  0.1331192E+04  0.7818608E-02  0.9005189E-01
         -1   -1    0    0    0  501 -0.00000000000E+00  0.00000000000E+00  0.18671744594E+03  0.18671744594E+03  0.00000000000E+00 0.  1.
          2   -1    0    0  501    0  0.00000000000E+00 -0.00000000000E+00 -0.23726651083E+04  0.23726651083E+04  0.00000000000E+00 0. -1.
         24    2    1    2    0    0  0.81473759029E+02 -0.24546790902E+03 -0.13191220100E+03  0.30113281018E+03  0.79922918034E+02 0.  0.
        254    2    1    2    0    0 -0.81473759029E+02  0.24546790902E+03 -0.20540354614E+04  0.22582497441E+04  0.90207414455E+03 0.  0.
         23    2    4    4    0    0 -0.41734805627E+03 -0.10900472295E+03 -0.92733285987E+03  0.10268892712E+04  0.92162424737E+02 0.  0.
         23    2    4    4    0    0  0.33587429725E+03  0.35447263196E+03 -0.11267026015E+04  0.12313604729E+04  0.91254981536E+02 0.  0.
          4    1    3    3  502    0  0.10440427834E+02 -0.53471826409E+02  0.52211207282E+01  0.54731150678E+02  0.00000000000E+00 0. -1.
         -3    1    3    3    0  502  0.71033331195E+02 -0.19199608261E+03 -0.13713332173E+03  0.24640165950E+03  0.00000000000E+00 0.  1.
         11    1    5    5    0    0 -0.27799357993E+03 -0.27097771336E+02 -0.57529757508E+03  0.63951702056E+03  0.00000000000E+00 0. -1.
        -11    1    5    5    0    0 -0.13935447634E+03 -0.81906951610E+02 -0.35203528479E+03  0.38737225060E+03  0.00000000000E+00 0.  1.
          3    1    6    6  503    0  0.31646214886E+03  0.32951154575E+03 -0.10954461568E+04  0.11868986616E+04  0.00000000000E+00 0. -1.
         -3    1    6    6    0  503  0.19412148390E+02  0.24961086212E+02 -0.31256444685E+02  0.44461811303E+02  0.00000000000E+00 0.  1.
<mgrwt>
<rscale>  0 0.13311919E+04</rscale>
<asrwt>0</asrwt>
<pdfrwt beam="1">  1        2 0.36502537E+00 0.13311919E+04</pdfrwt>
<pdfrwt beam="2">  1       -1 0.28725763E-01 0.13311919E+04</pdfrwt>
<totfact> 0.50715410E+01</totfact>
</mgrwt>
</event>
<event>
12    6  0.1450532E-007  0.1012198E+04  0.7818608E-02  0.9295266E-01
         -1   -1    0    0    0  501 -0.00000000000E+00  0.00000000000E+00  0.19772459862E+03  0.19772459862E+03  0.00000000000E+00 0.  1.
          2   -1    0    0  501    0  0.00000000000E+00 -0.00000000000E+00 -0.12954201812E+04  0.12954201812E+04  0.00000000000E+00 0. -1.
         24    2    1    2    0    0 -0.83259773596E+02  0.89519074634E+02 -0.20740335703E+03  0.25341882183E+03  0.79114424256E+02 0.  0.
        254    2    1    2    0    0  0.83259773596E+02 -0.89519074634E+02 -0.89029222558E+03  0.12397259580E+04  0.85402245255E+03 0.  0.
         23    2    4    4    0    0  0.92505743579E+02 -0.33786968296E+03 -0.90634575445E+03  0.97596421680E+03  0.91270425675E+02 0.  0.
         23    2    4    4    0    0 -0.92459699828E+01  0.24835060833E+03  0.16053528875E+02  0.26376174122E+03  0.86885140998E+02 0.  0.
          2    1    3    3  502    0  0.11868781824E+02  0.11654095533E+01 -0.49491325928E+01  0.12912012811E+02  0.00000000000E+00 0. -1.
         -1    1    3    3    0  502 -0.95128555420E+02  0.88353665080E+02 -0.20245422444E+03  0.24050680902E+03  0.00000000000E+00 0.  1.
         11    1    5    5    0    0  0.31858677203E+02 -0.44147881423E+02 -0.79067111439E+02  0.95998014867E+02  0.00000000000E+00 0.  1.
        -11    1    5    5    0    0  0.60647066377E+02 -0.29372180154E+03 -0.82727864302E+03  0.87996620194E+03  0.00000000000E+00 0. -1.
          1    1    6    6  503    0  0.32207629899E+02  0.42884954122E+02  0.49926778860E+01  0.53864436749E+02  0.00000000000E+00 0. -1.
         -1    1    6    6    0  503 -0.41453599882E+02  0.20546565421E+03  0.11060850989E+02  0.20989730447E+03  0.00000000000E+00 0.  1.
<mgrwt>
<rscale>  0 0.10121985E+04</rscale>
<asrwt>0</asrwt>
<pdfrwt beam="1">  1        2 0.19929541E+00 0.10121985E+04</pdfrwt>
<pdfrwt beam="2">  1       -1 0.30419170E-01 0.10121985E+04</pdfrwt>
<totfact> 0.18807804E+02</totfact>
</mgrwt>
</event>
<event>
12    6  0.1450532E-007  0.2752126E+04  0.7818608E-02  0.8318287E-01
         -1   -1    0    0    0  501 -0.00000000000E+00  0.00000000000E+00  0.59134515613E+03  0.59134515613E+03  0.00000000000E+00 0.  1.
          2   -1    0    0  501    0  0.00000000000E+00 -0.00000000000E+00 -0.32021057885E+04  0.32021057885E+04  0.00000000000E+00 0. -1.
         24    2    1    2    0    0 -0.10051485660E+04 -0.68576413210E+03 -0.10571216552E+04  0.16138568223E+04  0.80197035708E+02 0.  0.
        254    2    1    2    0    0  0.10051485660E+04  0.68576413210E+03 -0.15536389772E+04  0.21795941223E+04  0.92533257913E+03 0.  0.
         23    2    4    4    0    0  0.80297117548E+03  0.79842025594E+02 -0.52822683281E+03  0.96802804424E+03  0.83170005578E+02 0.  0.
         23    2    4    4    0    0  0.20217739050E+03  0.60592210650E+03 -0.10254121444E+04  0.12115660781E+04  0.91678783246E+02 0.  0.
          2    1    3    3  502    0 -0.23215454676E+02 -0.94875672986E+01 -0.37118953615E+02  0.44797187261E+02  0.00000000000E+00 0. -1.
         -1    1    3    3    0  502 -0.98193311131E+03 -0.67627656480E+03 -0.10200027015E+04  0.15690596350E+04  0.00000000000E+00 0.  1.
         11    1    5    5    0    0  0.71087470653E+03  0.47110425177E+02 -0.47991534475E+03  0.85899998759E+03  0.00000000000E+00 0. -1.
        -11    1    5    5    0    0  0.92096468952E+02  0.32731600418E+02 -0.48311488060E+02  0.10902805665E+03  0.00000000000E+00 0.  1.
          2    1    6    6  503    0  0.16891647820E+03  0.55466368640E+03 -0.88006437766E+03  0.10538965274E+04  0.00000000000E+00 0. -1.
         -2    1    6    6    0  503  0.33260912307E+02  0.51258420105E+02 -0.14534776677E+03  0.15766955072E+03  0.00000000000E+00 0.  1.
<mgrwt>
<rscale>  0 0.27521263E+04</rscale>
<asrwt>0</asrwt>
<pdfrwt beam="1">  1        2 0.49263166E+00 0.27521263E+04</pdfrwt>
<pdfrwt beam="2">  1       -1 0.90976177E-01 0.27521263E+04</pdfrwt>
<totfact> 0.15133937E+00</totfact>
</mgrwt>
</event>
<event>
12    6  0.1450532E-007  0.2014092E+04  0.7818608E-02  0.8600060E-01
          2   -1    0    0  501    0  0.00000000000E+00  0.00000000000E+00  0.15788379617E+04  0.15788379617E+04  0.00000000000E+00 0. -1.
         -1   -1    0    0    0  501 -0.00000000000E+00 -0.00000000000E+00 -0.64233451764E+03  0.64233451764E+03  0.00000000000E+00 0.  1.
         24    2    1    2    0    0 -0.24297376905E+03 -0.44045749316E+03  0.10715948258E+04  0.11867545608E+04  0.83856192538E+02 0.  0.
        254    2    1    2    0    0  0.24297376905E+03  0.44045749316E+03 -0.13509138172E+03  0.10344179186E+04  0.89371790472E+03 0.  0.
         23    2    4    4    0    0  0.46796980105E+03  0.47254262512E+03 -0.30359679165E+03  0.73662141743E+03  0.90265350326E+02 0.  0.
         23    2    4    4    0    0 -0.22499603201E+03 -0.32085131960E+02  0.16850540993E+03  0.29779650119E+03  0.92930150279E+02 0.  0.
          4    1    3    3  502    0 -0.16259579590E+03 -0.36295952287E+03  0.81210768930E+03  0.90426539639E+03  0.00000000000E+00 0. -1.
         -3    1    3    3    0  502 -0.80377973142E+02 -0.77497970294E+02  0.25948713652E+03  0.28248916437E+03  0.00000000000E+00 0.  1.
         11    1    5    5    0    0  0.40629599707E+03  0.36933600679E+03 -0.26949974869E+03  0.61164993067E+03  0.00000000000E+00 0.  1.
        -11    1    5    5    0    0  0.61673803983E+02  0.10320661833E+03 -0.34097042960E+02  0.12497148676E+03  0.00000000000E+00 0. -1.
          4    1    6    6  503    0 -0.15784289534E+03 -0.63473209348E+02  0.10302556493E+03  0.19889066077E+03  0.00000000000E+00 0.  1.
         -4    1    6    6    0  503 -0.67153136670E+02  0.31388077388E+02  0.65479844997E+02  0.98905840412E+02  0.00000000000E+00 0. -1.
<mgrwt>
<rscale>  0 0.20140925E+04</rscale>
<asrwt>0</asrwt>
<pdfrwt beam="1">  1        2 0.24289815E+00 0.20140925E+04</pdfrwt>
<pdfrwt beam="2">  1       -1 0.98820696E-01 0.20140925E+04</pdfrwt>
<totfact> 0.11865068E+01</totfact>
</mgrwt>
</event>
<event>
12    6  0.1450532E-007  0.2052144E+04  0.7818608E-02  0.8582622E-01
         -1   -1    0    0    0  501 -0.00000000000E+00  0.00000000000E+00  0.15829951827E+04  0.15829951827E+04  0.00000000000E+00 0.  1.
          2   -1    0    0  501    0  0.00000000000E+00 -0.00000000000E+00 -0.66508342232E+03  0.66508342232E+03  0.00000000000E+00 0. -1.
         24    2    1    2    0    0 -0.42850637625E+03 -0.47157991626E+03 -0.20711498177E+03  0.67498989345E+03  0.81910980208E+02 0.  0.
        254    2    1    2    0    0  0.42850637625E+03  0.47157991626E+03  0.11250267421E+04  0.15730887116E+04  0.89605669019E+03 0.  0.
         23    2    4    4    0    0 -0.44954698243E+02  0.30494704879E+03  0.99836394493E+03  0.10478715738E+04  0.79313562904E+02 0.  0.
         23    2    4    4    0    0  0.47346107449E+03  0.16663286747E+03  0.12666279721E+03  0.52521713773E+03  0.88756272943E+02 0.  0.
          4    1    3    3  502    0 -0.39407285294E+03 -0.39261121784E+03 -0.18053965579E+03  0.58483463399E+03  0.00000000000E+00 0. -1.
         -3    1    3    3    0  502 -0.34433523308E+02 -0.78968698420E+02 -0.26575325980E+02  0.90155259461E+02  0.00000000000E+00 0.  1.
         11    1    5    5    0    0  0.17157392752E+02  0.10885155444E+03  0.41166781110E+03  0.42616126493E+03  0.00000000000E+00 0. -1.
        -11    1    5    5    0    0 -0.62112090995E+02  0.19609549435E+03  0.58669613383E+03  0.62171030891E+03  0.00000000000E+00 0.  1.
          1    1    6    6  503    0  0.21265491982E+03  0.90696358507E+02  0.15474043203E+02  0.23170539567E+03  0.00000000000E+00 0. -1.
         -1    1    6    6    0  503  0.26080615467E+03  0.75936508963E+02  0.11118875401E+03  0.29351174206E+03  0.00000000000E+00 0.  1.
<mgrwt>
<rscale>  0 0.20521441E+04</rscale>
<asrwt>0</asrwt>
<pdfrwt beam="1">  1        2 0.10232053E+00 0.20521441E+04</pdfrwt>
<pdfrwt beam="2">  1       -1 0.24353772E+00 0.20521441E+04</pdfrwt>
<totfact> 0.35466551E+00</totfact>
</mgrwt>
</event>
<event>
12    6  0.1450532E-007  0.2115496E+04  0.7818608E-02  0.8554448E-01
          2   -1    0    0  501    0  0.00000000000E+00  0.00000000000E+00  0.94178242578E+03  0.94178242578E+03  0.00000000000E+00 0. -1.
         -1   -1    0    0    0  501 -0.00000000000E+00 -0.00000000000E+00 -0.11879933273E+04  0.11879933273E+04  0.00000000000E+00 0.  1.
         24    2    1    2    0    0  0.55019564393E+03 -0.47104609994E+03 -0.57773561667E+03  0.92990248655E+03  0.79627362501E+02 0.  0.
        254    2    1    2    0    0 -0.55019564393E+03  0.47104609994E+03  0.33152471514E+03  0.11998732665E+04  0.89732243041E+03 0.  0.
         23    2    4    4    0    0 -0.45488861152E+03  0.48849890493E+03  0.59926499158E+03  0.90113563064E+03  0.85860734089E+02 0.  0.
         23    2    4    4    0    0 -0.95307032412E+02 -0.17452804995E+02 -0.26774027644E+03  0.29873763590E+03  0.90395180436E+02 0.  0.
          2    1    3    3  502    0  0.35545385017E+03 -0.31431558765E+03 -0.33000702222E+03  0.57796744109E+03  0.00000000000E+00 0. -1.
         -1    1    3    3    0  502  0.19474179376E+03 -0.15673051229E+03 -0.24772859445E+03  0.35193504546E+03  0.00000000000E+00 0.  1.
         11    1    5    5    0    0 -0.17890549335E+03  0.25490944521E+03  0.27915005011E+03  0.41822332704E+03  0.00000000000E+00 0. -1.
        -11    1    5    5    0    0 -0.27598311817E+03  0.23358945973E+03  0.32011494147E+03  0.48291230359E+03  0.00000000000E+00 0.  1.
          4    1    6    6  503    0 -0.10004179121E+03 -0.31749600529E+02 -0.16961540037E+03  0.19946373396E+03  0.00000000000E+00 0. -1.
         -4    1    6    6    0  503  0.47347587935E+01  0.14296795535E+02 -0.98124876068E+02  0.99273901942E+02  0.00000000000E+00 0.  1.
<mgrwt>
<rscale>  0 0.21154964E+04</rscale>
<asrwt>0</asrwt>
<pdfrwt beam="1">  1        2 0.14488960E+00 0.21154964E+04</pdfrwt>
<pdfrwt beam="2">  1       -1 0.18276820E+00 0.21154964E+04</pdfrwt>
<totfact> 0.57384242E+00</totfact>
</mgrwt>
</event>
<event>
12    6  0.1450532E-007  0.4325223E+04  0.7818608E-02  0.7941970E-01
         -1   -1    0    0    0  501 -0.00000000000E+00  0.00000000000E+00  0.25153201003E+04  0.25153201003E+04  0.00000000000E+00 0.  1.
          2   -1    0    0  501    0  0.00000000000E+00 -0.00000000000E+00 -0.18593613871E+04  0.18593613871E+04  0.00000000000E+00 0. -1.
         24    2    1    2    0    0  0.17501311752E+04  0.10850564260E+04  0.12628639821E+03  0.20646034182E+04  0.79576643982E+02 0.  0.
        254    2    1    2    0    0 -0.17501311752E+04 -0.10850564260E+04  0.52967231499E+03  0.23100780692E+04  0.90310649787E+03 0.  0.
         23    2    4    4    0    0 -0.13208308320E+04 -0.60078567483E+03  0.72962881932E+03  0.16265334680E+04  0.87837318829E+02 0.  0.
         23    2    4    4    0    0 -0.42930034317E+03 -0.48427075117E+03 -0.19995650433E+03  0.68354460121E+03  0.91835032162E+02 0.  0.
          2    1    3    3  502    0  0.10676712247E+03  0.79869887109E+02 -0.75754449718E+01  0.13355075692E+03  0.00000000000E+00 0. -1.
         -1    1    3    3    0  502  0.16433640527E+04  0.10051865389E+04  0.13386184318E+03  0.19310526613E+04  0.00000000000E+00 0.  1.
         11    1    5    5    0    0 -0.66961789802E+03 -0.33199635290E+03  0.41597538227E+03  0.85536262856E+03  0.00000000000E+00 0. -1.
        -11    1    5    5    0    0 -0.65121293400E+03 -0.26878932193E+03  0.31365343705E+03  0.77117083942E+03  0.00000000000E+00 0.  1.
          4    1    6    6  503    0 -0.11002870401E+03 -0.15941712642E+03 -0.23687516730E+02  0.19514413737E+03  0.00000000000E+00 0.  1.
         -4    1    6    6    0  503 -0.31927163916E+03 -0.32485362475E+03 -0.17626898760E+03  0.48840046384E+03  0.00000000000E+00 0. -1.
<mgrwt>
<rscale>  0 0.43252233E+04</rscale>
<asrwt>0</asrwt>
<pdfrwt beam="1">  1        2 0.28605560E+00 0.43252233E+04</pdfrwt>
<pdfrwt beam="2">  1       -1 0.38697232E+00 0.43252233E+04</pdfrwt>
<totfact> 0.61386830E-02</totfact>
</mgrwt>
</event>
<event>
12    6  0.1450532E-007  0.1829959E+04  0.7818608E-02  0.8690528E-01
          2   -1    0    0  501    0  0.00000000000E+00  0.00000000000E+00  0.71823062120E+03  0.71823062120E+03  0.00000000000E+00 0. -1.
         -1   -1    0    0    0  501 -0.00000000000E+00 -0.00000000000E+00 -0.11656249973E+04  0.11656249973E+04  0.00000000000E+00 0.  1.
         24    2    1    2    0    0  0.66085102298E+03  0.12079107695E+03 -0.99270584234E+00  0.67692177511E+03  0.83111643637E+02 0.  0.
        254    2    1    2    0    0 -0.66085102298E+03 -0.12079107695E+03 -0.44640167030E+03  0.12069338434E+04  0.89783088182E+03 0.  0.
         23    2    4    4    0    0 -0.60751885614E+03 -0.31936658537E+03  0.16565207398E+02  0.69258203107E+03  0.91221089897E+02 0.  0.
         23    2    4    4    0    0 -0.53332166842E+02  0.19857550842E+03 -0.46296687770E+03  0.51435181238E+03  0.89122973926E+02 0.  0.
          4    1    3    3  502    0  0.60422970198E+03  0.11087500379E+03  0.22723995173E+02  0.61473830137E+03  0.00000000000E+00 0. -1.
         -3    1    3    3    0  502  0.56621321005E+02  0.99160731579E+01 -0.23716701016E+02  0.62183473739E+02  0.00000000000E+00 0.  1.
         11    1    5    5    0    0 -0.49400931888E+03 -0.26390702353E+03 -0.21936732095E+02  0.56051168090E+03  0.00000000000E+00 0.  1.
        -11    1    5    5    0    0 -0.11350953726E+03 -0.55459561839E+02  0.38501939493E+02  0.13207035017E+03  0.00000000000E+00 0. -1.
          4    1    6    6  503    0  0.10095248105E+02  0.27336271377E+02 -0.20343415594E+02  0.35539278625E+02  0.00000000000E+00 0. -1.
         -4    1    6    6    0  503 -0.63427414947E+02  0.17123923704E+03 -0.44262346211E+03  0.47881253375E+03  0.00000000000E+00 0.  1.
<mgrwt>
<rscale>  0 0.18299591E+04</rscale>
<asrwt>0</asrwt>
<pdfrwt beam="1">  1        2 0.11049702E+00 0.18299591E+04</pdfrwt>
<pdfrwt beam="2">  1       -1 0.17932692E+00 0.18299591E+04</pdfrwt>
<totfact> 0.89722797E+00</totfact>
</mgrwt>
</event>
<event>
12    6  0.1450532E-007  0.2685137E+04  0.7818608E-02  0.8339844E-01
         -1   -1    0    0    0  501 -0.00000000000E+00  0.00000000000E+00  0.16098956723E+04  0.16098956723E+04  0.00000000000E+00 0.  1.
          2   -1    0    0  501    0  0.00000000000E+00 -0.00000000000E+00 -0.11196317506E+04  0.11196317506E+04  0.00000000000E+00 0. -1.
         24    2    1    2    0    0  0.59733113787E+03  0.66136482080E+03  0.10222105167E+04  0.13603104580E+04  0.10640623649E+03 0.  0.
        254    2    1    2    0    0 -0.59733113787E+03 -0.66136482080E+03 -0.53194659495E+03  0.13692169649E+04  0.89307334680E+03 0.  0.
         23    2    4    4    0    0 -0.42704408755E+03 -0.70812352716E+03 -0.71766725120E+03  0.10986832796E+04  0.90846480270E+02 0.  0.
         23    2    4    4    0    0 -0.17028705031E+03  0.46758706356E+02  0.18572065625E+03  0.27053368536E+03  0.86673275177E+02 0.  0.
          4    1    3    3  502    0  0.28666871790E+02  0.32640095476E+02  0.92078045065E+02  0.10181125554E+03  0.00000000000E+00 0. -1.
         -3    1    3    3    0  502  0.56866426608E+03  0.62872472532E+03  0.93013247163E+03  0.12584992024E+04  0.00000000000E+00 0.  1.
         11    1    5    5    0    0 -0.27981341477E+03 -0.40636183449E+03 -0.38272906896E+03  0.62442535810E+03  0.00000000000E+00 0.  1.
        -11    1    5    5    0    0 -0.14723067278E+03 -0.30176169266E+03 -0.33493818224E+03  0.47425792148E+03  0.00000000000E+00 0. -1.
          2    1    6    6  503    0 -0.16633530114E+03  0.40908609357E+02  0.13174025897E+03  0.21609359675E+03  0.00000000000E+00 0. -1.
         -2    1    6    6    0  503 -0.39517491746E+01  0.58500969993E+01  0.53980397283E+02  0.54440088605E+02  0.00000000000E+00 0.  1.
<mgrwt>
<rscale>  0 0.26851371E+04</rscale>
<asrwt>0</asrwt>
<pdfrwt beam="1">  1        2 0.17225104E+00 0.26851371E+04</pdfrwt>
<pdfrwt beam="2">  1       -1 0.24767626E+00 0.26851371E+04</pdfrwt>
<totfact> 0.15313633E+00</totfact>
</mgrwt>
</event>
<event>
12    6  0.1450532E-007  0.2224103E+04  0.7818608E-02  0.8508462E-01
         -1   -1    0    0    0  501 -0.00000000000E+00  0.00000000000E+00  0.41978425486E+03  0.41978425486E+03  0.00000000000E+00 0.  1.
          2   -1    0    0  501    0  0.00000000000E+00 -0.00000000000E+00 -0.29459385760E+04  0.29459385760E+04  0.00000000000E+00 0. -1.
         24    2    1    2    0    0  0.64343654084E+03 -0.31877334412E+03 -0.18881350257E+04  0.20216638727E+04  0.80273982159E+02 0.  0.
        254    2    1    2    0    0 -0.64343654084E+03  0.31877334412E+03 -0.63801929551E+03  0.13440589581E+04  0.94010575710E+03 0.  0.
         23    2    4    4    0    0 -0.72412375933E+03  0.26429178760E+03 -0.92121316392E+02  0.78245241093E+03  0.97673285066E+02 0.  0.
         23    2    4    4    0    0  0.80687218499E+02  0.54481556511E+02 -0.54589797911E+03  0.56160654721E+03  0.88986757678E+02 0.  0.
          2    1    3    3  502    0  0.47724725292E+03 -0.26037247117E+03 -0.13467029283E+04  0.14522973322E+04  0.00000000000E+00 0. -1.
         -1    1    3    3    0  502  0.16618928791E+03 -0.58400872949E+02 -0.54143209737E+03  0.56936654050E+03  0.00000000000E+00 0.  1.
         11    1    5    5    0    0 -0.65900995043E+03  0.25825160724E+03 -0.10572918120E+03  0.71565820554E+03  0.00000000000E+00 0.  1.
        -11    1    5    5    0    0 -0.65113808906E+02  0.60401803647E+01  0.13607864808E+02  0.66794205390E+02  0.00000000000E+00 0. -1.
          2    1    6    6  503    0  0.65996078359E+02  0.11478805501E+02 -0.45581071750E+03  0.46070669143E+03  0.00000000000E+00 0.  1.
         -2    1    6    6    0  503  0.14691140139E+02  0.43002751010E+02 -0.90087261610E+02  0.10089985579E+03  0.00000000000E+00 0. -1.
<mgrwt>
<rscale>  0 0.22241031E+04</rscale>
<asrwt>0</asrwt>
<pdfrwt beam="1">  1        2 0.45322131E+00 0.22241031E+04</pdfrwt>
<pdfrwt beam="2">  1       -1 0.64582195E-01 0.22241031E+04</pdfrwt>
<totfact> 0.47531346E+00</totfact>
</mgrwt>
</event>
<event>
12    6  0.1450532E-007  0.1945093E+04  0.7818608E-02  0.8632731E-01
          2   -1    0    0  501    0  0.00000000000E+00  0.00000000000E+00  0.11801571992E+04  0.11801571992E+04  0.00000000000E+00 0. -1.
         -1   -1    0    0    0  501 -0.00000000000E+00 -0.00000000000E+00 -0.80145840503E+03  0.80145840503E+03  0.00000000000E+00 0.  1.
         24    2    1    2    0    0 -0.52542538314E+03 -0.94579252039E+02  0.70552897843E+03  0.88802535590E+03  0.76163148279E+02 0.  0.
        254    2    1    2    0    0  0.52542538314E+03  0.94579252039E+02 -0.32683018423E+03  0.10935902484E+04  0.89671879306E+03 0.  0.
         23    2    4    4    0    0  0.20724395616E+03  0.53399746804E+02 -0.61138247805E+03  0.65421646084E+03  0.91700887929E+02 0.  0.
         23    2    4    4    0    0  0.31818142698E+03  0.41179505236E+02  0.28455229382E+03  0.43937378752E+03  0.95625023470E+02 0.  0.
          2    1    3    3  502    0 -0.32075792110E+03 -0.54362353932E+02  0.48935360740E+03  0.58762901779E+03  0.00000000000E+00 0. -1.
         -1    1    3    3    0  502 -0.20466746204E+03 -0.40216898107E+02  0.21617537103E+03  0.30039633811E+03  0.00000000000E+00 0.  1.
         11    1    5    5    0    0  0.10484502471E+03  0.50855457821E+02 -0.43411960466E+03  0.44948702757E+03  0.00000000000E+00 0. -1.
        -11    1    5    5    0    0  0.10239893145E+03  0.25442889826E+01 -0.17726287339E+03  0.20472943328E+03  0.00000000000E+00 0.  1.
          1    1    6    6  503    0  0.31717337846E+03  0.27288389275E+02  0.25950464757E+03  0.41071434148E+03  0.00000000000E+00 0. -1.
         -1    1    6    6    0  503  0.10080485269E+01  0.13891115960E+02  0.25047646249E+02  0.28659446036E+02  0.00000000000E+00 0.  1.
<mgrwt>
<rscale>  0 0.19450932E+04</rscale>
<asrwt>0</asrwt>
<pdfrwt beam="1">  1        2 0.18156265E+00 0.19450932E+04</pdfrwt>
<pdfrwt beam="2">  1       -1 0.12330129E+00 0.19450932E+04</pdfrwt>
<totfact> 0.11994714E+01</totfact>
</mgrwt>
</event>
<event>
12    6  0.1450532E-007  0.1393995E+04  0.7818608E-02  0.8958176E-01
         -1   -1    0    0    0  501 -0.00000000000E+00  0.00000000000E+00  0.54474276363E+03  0.54474276363E+03  0.00000000000E+00 0.  1.
          2   -1    0    0  501    0  0.00000000000E+00 -0.00000000000E+00 -0.89180778102E+03  0.89180778102E+03  0.00000000000E+00 0. -1.
         24    2    1    2    0    0 -0.27733729082E+03  0.22132644708E+03  0.91958610442E+02  0.37500534049E+03  0.79191226172E+02 0.  0.
        254    2    1    2    0    0  0.27733729082E+03 -0.22132644708E+03 -0.43902362783E+03  0.10615452042E+04  0.89901896845E+03 0.  0.
         23    2    4    4    0    0  0.59657585715E+03 -0.19121843588E+03 -0.29238157531E+03  0.69737357160E+03  0.91518682426E+02 0.  0.
         23    2    4    4    0    0 -0.31923856633E+03 -0.30108011198E+02 -0.14664205252E+03  0.36417163256E+03  0.91089691087E+02 0.  0.
          4    1    3    3  502    0 -0.11390380439E+03  0.70090378411E+02 -0.90686356018E+00  0.13374438381E+03  0.00000000000E+00 0. -1.
         -3    1    3    3    0  502 -0.16343348643E+03  0.15123606866E+03  0.92865474002E+02  0.24126095667E+03  0.00000000000E+00 0.  1.
         11    1    5    5    0    0  0.17229062227E+03 -0.73592492821E+02 -0.13027115768E+03  0.22818958794E+03  0.00000000000E+00 0. -1.
        -11    1    5    5    0    0  0.42428523488E+03 -0.11762594306E+03 -0.16211041763E+03  0.46918398366E+03  0.00000000000E+00 0.  1.
          4    1    6    6  503    0 -0.20815186056E+03  0.24251455995E+02 -0.87714408554E+02  0.22717646806E+03  0.00000000000E+00 0. -1.
         -4    1    6    6    0  503 -0.11108670577E+03 -0.54359467193E+02 -0.58927643971E+02  0.13699516450E+03  0.00000000000E+00 0.  1.
<mgrwt>
<rscale>  0 0.13939955E+04</rscale>
<asrwt>0</asrwt>
<pdfrwt beam="1">  1        2 0.13720120E+00 0.13939955E+04</pdfrwt>
<pdfrwt beam="2">  1       -1 0.83806579E-01 0.13939955E+04</pdfrwt>
<totfact> 0.46610555E+01</totfact>
</mgrwt>
</event>
<event>
12    6  0.1450532E-007  0.1381376E+04  0.7818608E-02  0.8967411E-01
          2   -1    0    0  501    0  0.00000000000E+00  0.00000000000E+00  0.33299858866E+03  0.33299858866E+03  0.00000000000E+00 0. -1.
         -1   -1    0    0    0  501 -0.00000000000E+00 -0.00000000000E+00 -0.14325877818E+04  0.14325877818E+04  0.00000000000E+00 0.  1.
         24    2    1    2    0    0 -0.51361769242E+01 -0.38566239332E+03 -0.21878979436E+03  0.45173653201E+03  0.86226784118E+02 0.  0.
        254    2    1    2    0    0  0.51361769242E+01  0.38566239332E+03 -0.88079939874E+03  0.13138498384E+04  0.89533901689E+03 0.  0.
         23    2    4    4    0    0 -0.21584048999E+03 -0.17137840963E+03 -0.64904067212E+02  0.29719471729E+03  0.90302190681E+02 0.  0.
         23    2    4    4    0    0  0.22097666691E+03  0.55704080295E+03 -0.81589533153E+03  0.10166551211E+04  0.93687244811E+02 0.  0.
          2    1    3    3  502    0  0.91772125242E+01 -0.15472052837E+02  0.53176909319E+01  0.18758557662E+02  0.00000000000E+00 0. -1.
         -1    1    3    3    0  502 -0.14313389448E+02 -0.37019034048E+03 -0.22410748530E+03  0.43297797435E+03  0.00000000000E+00 0.  1.
         11    1    5    5    0    0 -0.53024536679E+02 -0.31160849447E+02 -0.54329287391E+02  0.82062607178E+02  0.00000000000E+00 0.  1.
        -11    1    5    5    0    0 -0.16281595331E+03 -0.14021756018E+03 -0.10574779821E+02  0.21513211012E+03  0.00000000000E+00 0. -1.
          1    1    6    6  503    0  0.18233978360E+03  0.51920734077E+03 -0.76524965210E+03  0.94256622549E+03  0.00000000000E+00 0. -1.
         -1    1    6    6    0  503  0.38636883311E+02  0.37833462176E+02 -0.50645679423E+02  0.74088895635E+02  0.00000000000E+00 0.  1.
<mgrwt>
<rscale>  0 0.13813757E+04</rscale>
<asrwt>0</asrwt>
<pdfrwt beam="1">  1        2 0.51230553E-01 0.13813757E+04</pdfrwt>
<pdfrwt beam="2">  1       -1 0.22039812E+00 0.13813757E+04</pdfrwt>
<totfact> 0.11928608E+01</totfact>
</mgrwt>
</event>
<event>
12    6  0.1450532E-007  0.1689594E+04  0.7818608E-02  0.8767321E-01
          2   -1    0    0  501    0  0.00000000000E+00  0.00000000000E+00  0.14835852868E+04  0.14835852868E+04  0.00000000000E+00 0. -1.
         -1   -1    0    0    0  501 -0.00000000000E+00 -0.00000000000E+00 -0.48105235803E+03  0.48105235803E+03  0.00000000000E+00 0.  1.
         24    2    1    2    0    0 -0.36023160869E+02  0.16918388896E+02 -0.34202321114E+03  0.35298154827E+03  0.77667216145E+02 0.  0.
        254    2    1    2    0    0  0.36023160869E+02 -0.16918388896E+02  0.13445561399E+04  0.16116560965E+04  0.88770505248E+03 0.  0.
         23    2    4    4    0    0  0.12672189304E+03  0.41152315726E+03  0.61467802687E+03  0.75566254789E+03  0.88244333713E+02 0.  0.
         23    2    4    4    0    0 -0.90698732176E+02 -0.42844154615E+03  0.72987811300E+03  0.85599354863E+03  0.90633751829E+02 0.  0.
          4    1    3    3  502    0  0.10644452131E+02  0.32995213542E+01 -0.45702685579E+01  0.12044856040E+02  0.00000000000E+00 0. -1.
         -3    1    3    3    0  502 -0.46667613000E+02  0.13618867542E+02 -0.33745294258E+03  0.34093669223E+03  0.00000000000E+00 0.  1.
         11    1    5    5    0    0  0.27654082769E+02  0.63929287360E+02  0.52094337490E+02  0.86980009627E+02  0.00000000000E+00 0. -1.
        -11    1    5    5    0    0  0.99067810276E+02  0.34759386990E+03  0.56258368938E+03  0.66868253826E+03  0.00000000000E+00 0.  1.
          3    1    6    6  503    0 -0.30447609399E+02 -0.25509879294E+02  0.69664521352E+02  0.80193244073E+02  0.00000000000E+00 0. -1.
         -3    1    6    6    0  503 -0.60251122777E+02 -0.40293166686E+03  0.66021359165E+03  0.77580030456E+03  0.00000000000E+00 0.  1.
<mgrwt>
<rscale>  0 0.16895943E+04</rscale>
<asrwt>0</asrwt>
<pdfrwt beam="1">  1        2 0.22824389E+00 0.16895943E+04</pdfrwt>
<pdfrwt beam="2">  1       -1 0.74008056E-01 0.16895943E+04</pdfrwt>
<totfact> 0.25871844E+01</totfact>
</mgrwt>
</event>
<event>
12    6  0.1450532E-007  0.1797716E+04  0.7818608E-02  0.8707515E-01
          2   -1    0    0  501    0  0.00000000000E+00  0.00000000000E+00  0.14794009662E+04  0.14794009662E+04  0.00000000000E+00 0. -1.
         -1   -1    0    0    0  501 -0.00000000000E+00 -0.00000000000E+00 -0.54613037058E+03  0.54613037058E+03  0.00000000000E+00 0.  1.
         24    2    1    2    0    0  0.51639330020E+03 -0.42231261496E+03  0.54174640782E+03  0.86292503569E+03  0.78361097509E+02 0.  0.
        254    2    1    2    0    0 -0.51639330020E+03  0.42231261496E+03  0.39152418781E+03  0.11626063011E+04  0.86795866058E+03 0.  0.
         23    2    4    4    0    0  0.77863131309E+02 -0.41308648822E+02  0.38249255316E+03  0.40281041050E+03  0.90479842488E+02 0.  0.
         23    2    4    4    0    0 -0.59425643151E+03  0.46362126378E+03  0.90316346450E+01  0.75979589060E+03  0.95513571448E+02 0.  0.
          2    1    3    3  502    0  0.42981577755E+03 -0.31069906362E+03  0.43274802246E+03  0.68450446435E+03  0.00000000000E+00 0. -1.
         -1    1    3    3    0  502  0.86577522647E+02 -0.11161355133E+03  0.10899838535E+03  0.17842057134E+03  0.00000000000E+00 0.  1.
         11    1    5    5    0    0  0.30072777316E+02 -0.25508047006E+02  0.32068289145E+03  0.32309835851E+03  0.00000000000E+00 0. -1.
        -11    1    5    5    0    0  0.47790353993E+02 -0.15800601816E+02  0.61809661710E+02  0.79712051995E+02  0.00000000000E+00 0.  1.
          3    1    6    6  503    0 -0.57205725812E+03  0.45691152408E+03 -0.60046797235E+01  0.73215688454E+03  0.00000000000E+00 0. -1.
         -3    1    6    6    0  503 -0.22199173388E+02  0.67097396959E+01  0.15036314369E+02  0.27639006055E+02  0.00000000000E+00 0.  1.
<mgrwt>
<rscale>  0 0.17977161E+04</rscale>
<asrwt>0</asrwt>
<pdfrwt beam="1">  1        2 0.22760015E+00 0.17977161E+04</pdfrwt>
<pdfrwt beam="2">  1       -1 0.84020058E-01 0.17977161E+04</pdfrwt>
<totfact> 0.19697253E+01</totfact>
</mgrwt>
</event>
<event>
12    6  0.1450532E-007  0.3464630E+04  0.7818608E-02  0.8122224E-01
          2   -1    0    0  501    0  0.00000000000E+00  0.00000000000E+00  0.20985902516E+04  0.20985902516E+04  0.00000000000E+00 0. -1.
         -1   -1    0    0    0  501 -0.00000000000E+00 -0.00000000000E+00 -0.14299672087E+04  0.14299672087E+04  0.00000000000E+00 0.  1.
         24    2    1    2    0    0 -0.11451881203E+04  0.89622553803E+03 -0.38421123372E+03  0.15068426756E+04  0.90997423463E+02 0.  0.
        254    2    1    2    0    0  0.11451881203E+04 -0.89622553803E+03  0.10528342766E+04  0.20217147847E+04  0.92962068106E+03 0.  0.
         23    2    4    4    0    0  0.18911346276E+03 -0.59817936032E+03  0.10922424176E+03  0.64262565795E+03  0.86344382319E+02 0.  0.
         23    2    4    4    0    0  0.95607465755E+03 -0.29804617772E+03  0.94361003482E+03  0.13790891267E+04  0.92610187054E+02 0.  0.
          2    1    3    3  502    0 -0.53567271512E+02  0.20358325588E+02 -0.10709925063E+02  0.58297654266E+02  0.00000000000E+00 0. -1.
         -1    1    3    3    0  502 -0.10916208488E+04  0.87586721244E+03 -0.37350130866E+03  0.14485450214E+04  0.00000000000E+00 0.  1.
         11    1    5    5    0    0 -0.54216570741E+00 -0.13513056099E+00 -0.49020152043E+01  0.49337568835E+01  0.00000000000E+00 0.  1.
        -11    1    5    5    0    0  0.18965562847E+03 -0.59804422976E+03  0.11412625696E+03  0.63769190106E+03  0.00000000000E+00 0. -1.
          1    1    6    6  503    0  0.95192604551E+03 -0.28755932048E+03  0.93172574272E+03  0.13627055509E+04  0.00000000000E+00 0. -1.
         -1    1    6    6    0  503  0.41486120485E+01 -0.10486857236E+02  0.11884292093E+02  0.16383575775E+02  0.00000000000E+00 0.  1.
<mgrwt>
<rscale>  0 0.34646300E+04</rscale>
<asrwt>0</asrwt>
<pdfrwt beam="1">  1        2 0.32286004E+00 0.34646300E+04</pdfrwt>
<pdfrwt beam="2">  1       -1 0.21999496E+00 0.34646300E+04</pdfrwt>
<totfact> 0.60718491E-01</totfact>
</mgrwt>
</event>
<event>
12    6  0.1450532E-007  0.1775269E+04  0.7818608E-02  0.8719563E-01
          2   -1    0    0  501    0  0.00000000000E+00  0.00000000000E+00  0.22051053140E+04  0.22051053140E+04  0.00000000000E+00 0. -1.
         -1   -1    0    0    0  501 -0.00000000000E+00 -0.00000000000E+00 -0.35730500622E+03  0.35730500622E+03  0.00000000000E+00 0.  1.
         24    2    1    2    0    0  0.54580490510E+03  0.25721506046E+03  0.47133987285E+03  0.77021248788E+03  0.83686432507E+02 0.  0.
        254    2    1    2    0    0 -0.54580490510E+03 -0.25721506046E+03  0.13764604349E+04  0.17921978323E+04  0.97635401342E+03 0.  0.
         23    2    4    4    0    0 -0.28838416044E+03 -0.48978970859E+03  0.13051173380E+04  0.14265681587E+04  0.93306284482E+02 0.  0.
         23    2    4    4    0    0 -0.25742074466E+03  0.23257464812E+03  0.71343096925E+02  0.36562967367E+03  0.90767913163E+02 0.  0.
          2    1    3    3  502    0  0.43680318287E+03  0.18585934478E+03  0.33090140444E+03  0.57865054745E+03  0.00000000000E+00 0. -1.
         -1    1    3    3    0  502  0.10900172222E+03  0.71355715684E+02  0.14043846841E+03  0.19156194042E+03  0.00000000000E+00 0.  1.
         11    1    5    5    0    0 -0.29273649546E+03 -0.48663336736E+03  0.12719690760E+04  0.13929867265E+04  0.00000000000E+00 0. -1.
        -11    1    5    5    0    0  0.43523350141E+01 -0.31563412246E+01  0.33148261994E+02  0.33581432119E+02  0.00000000000E+00 0.  1.
          2    1    6    6  503    0 -0.23652348172E+03  0.18019562339E+03  0.37091446662E+02  0.29964912066E+03  0.00000000000E+00 0. -1.
         -2    1    6    6    0  503 -0.20897262934E+02  0.52379024733E+02  0.34251650264E+02  0.65980553013E+02  0.00000000000E+00 0.  1.
<mgrwt>
<rscale>  0 0.17752692E+04</rscale>
<asrwt>0</asrwt>
<pdfrwt beam="1">  1        2 0.33924696E+00 0.17752692E+04</pdfrwt>
<pdfrwt beam="2">  1       -1 0.54970003E-01 0.17752692E+04</pdfrwt>
<totfact> 0.18487829E+01</totfact>
</mgrwt>
</event>
<event>
12    6  0.1450532E-007  0.4110605E+04  0.7818608E-02  0.7982598E-01
         -1   -1    0    0    0  501 -0.00000000000E+00  0.00000000000E+00  0.17625989854E+04  0.17625989854E+04  0.00000000000E+00 0.  1.
          2   -1    0    0  501    0  0.00000000000E+00 -0.00000000000E+00 -0.23966133299E+04  0.23966133299E+04  0.00000000000E+00 0. -1.
         24    2    1    2    0    0  0.40696169573E+03  0.71360237429E+01  0.16383716150E+04  0.16899555102E+04  0.77584360824E+02 0.  0.
        254    2    1    2    0    0 -0.40696169573E+03 -0.71360237429E+01 -0.22723859595E+04  0.24692568051E+04  0.87625480097E+03 0.  0.
         23    2    4    4    0    0  0.93065387136E+02 -0.10158785399E+03 -0.16596533947E+04  0.16677759351E+04  0.89699057191E+02 0.  0.
         23    2    4    4    0    0 -0.50002708286E+03  0.94451830246E+02 -0.61273256482E+03  0.80148087005E+03  0.89342919323E+02 0.  0.
          4    1    3    3  502    0  0.49204125191E+02  0.19323477177E+01  0.32544235064E+03  0.32914662917E+03  0.00000000000E+00 0. -1.
         -1    1    3    3    0  502  0.35775757053E+03  0.52036760253E+01  0.13129292644E+04  0.13608088811E+04  0.00000000000E+00 0.  1.
         11    1    5    5    0    0  0.60283232274E+02 -0.71542443502E+02 -0.14702091662E+04  0.14731827387E+04  0.00000000000E+00 0.  1.
        -11    1    5    5    0    0  0.32782154861E+02 -0.30045410488E+02 -0.18944422852E+03  0.19459319640E+03  0.00000000000E+00 0. -1.
          2    1    6    6  503    0 -0.23604121907E+02  0.21064441544E+02 -0.19784687807E+02  0.37313524896E+02  0.00000000000E+00 0. -1.
         -2    1    6    6    0  503 -0.47642296095E+03  0.73387388702E+02 -0.59294787701E+03  0.76416734515E+03  0.00000000000E+00 0.  1.
<mgrwt>
<rscale>  0 0.41106049E+04</rscale>
<asrwt>0</asrwt>
<pdfrwt beam="1">  1        2 0.36870974E+00 0.41106049E+04</pdfrwt>
<pdfrwt beam="2">  1       -1 0.27116908E+00 0.41106049E+04</pdfrwt>
<totfact> 0.18024613E-01</totfact>
</mgrwt>
</event>
<event>
12    6  0.1450532E-007  0.1986214E+04  0.7818608E-02  0.8613093E-01
         -1   -1    0    0    0  501 -0.00000000000E+00  0.00000000000E+00  0.10924979226E+04  0.10924979226E+04  0.00000000000E+00 0.  1.
          2   -1    0    0  501    0  0.00000000000E+00 -0.00000000000E+00 -0.90275864235E+03  0.90275864235E+03  0.00000000000E+00 0. -1.
         24    2    1    2    0    0 -0.54764872561E+03 -0.16873305015E+03 -0.46658118631E+03  0.74309558991E+03  0.78122234026E+02 0.  0.
        254    2    1    2    0    0  0.54764872561E+03  0.16873305015E+03  0.65632046651E+03  0.12521609750E+04  0.89931117177E+03 0.  0.
         23    2    4    4    0    0  0.69898401139E+03  0.33835886501E+03  0.63351259094E+03  0.10061209167E+04  0.88745289309E+02 0.  0.
         23    2    4    4    0    0 -0.15133528578E+03 -0.16962581486E+03  0.22807875569E+02  0.24604005832E+03  0.91324834097E+02 0.  0.
          4    1    3    3  502    0 -0.51292189447E+03 -0.17212660985E+03 -0.45305387073E+03  0.70567290541E+03  0.00000000000E+00 0. -1.
         -3    1    3    3    0  502 -0.34726831138E+02  0.33935597021E+01 -0.13527315584E+02  0.37422684500E+02  0.00000000000E+00 0.  1.
         11    1    5    5    0    0  0.25691000645E+03  0.10962466146E+03  0.28086900019E+03  0.39611578242E+03  0.00000000000E+00 0. -1.
        -11    1    5    5    0    0  0.44207400494E+03  0.22873420355E+03  0.35264359076E+03  0.61000513426E+03  0.00000000000E+00 0.  1.
          2    1    6    6  503    0 -0.15402698802E+03 -0.17706799374E+03  0.15384631333E+02  0.23518944348E+03  0.00000000000E+00 0. -1.
         -2    1    6    6    0  503  0.26917022373E+01  0.74421788798E+01  0.74232442366E+01  0.10850614840E+02  0.00000000000E+00 0.  1.
<mgrwt>
<rscale>  0 0.19862144E+04</rscale>
<asrwt>0</asrwt>
<pdfrwt beam="1">  1        2 0.13888594E+00 0.19862144E+04</pdfrwt>
<pdfrwt beam="2">  1       -1 0.16807660E+00 0.19862144E+04</pdfrwt>
<totfact> 0.78771029E+00</totfact>
</mgrwt>
</event>
<event>
12    6  0.1450532E-007  0.1503966E+04  0.7818608E-02  0.8881820E-01
         -1   -1    0    0    0  501 -0.00000000000E+00  0.00000000000E+00  0.50994171808E+03  0.50994171808E+03  0.00000000000E+00 0.  1.
          2   -1    0    0  501    0  0.00000000000E+00 -0.00000000000E+00 -0.11089078294E+04  0.11089078294E+04  0.00000000000E+00 0. -1.
         24    2    1    2    0    0 -0.48018097976E+03  0.56255035180E+02 -0.20760300941E+03  0.53228841653E+03  0.80582544940E+02 0.  0.
        254    2    1    2    0    0  0.48018097976E+03 -0.56255035180E+02 -0.39136310187E+03  0.10865611309E+04  0.89090493961E+03 0.  0.
         23    2    4    4    0    0 -0.89591997694E+02  0.27282521366E+03 -0.28193836153E+03  0.41343844136E+03  0.94772263001E+02 0.  0.
         23    2    4    4    0    0  0.56977297745E+03 -0.32908024884E+03 -0.10942474035E+03  0.67312268956E+03  0.90472788140E+02 0.  0.
          4    1    3    3  502    0 -0.41779409195E+03  0.45264189316E+02 -0.14865594516E+03  0.44575704159E+03  0.00000000000E+00 0. -1.
         -3    1    3    3    0  502 -0.62386887812E+02  0.10990845864E+02 -0.58947064259E+02  0.86531374936E+02  0.00000000000E+00 0.  1.
         11    1    5    5    0    0 -0.15973610617E+02  0.15899974614E+03 -0.10781644958E+03  0.19277049128E+03  0.00000000000E+00 0.  1.
        -11    1    5    5    0    0 -0.73618387077E+02  0.11382546752E+03 -0.17412191195E+03  0.22066795008E+03  0.00000000000E+00 0. -1.
          1    1    6    6  503    0  0.44569445981E+03 -0.23465598685E+03 -0.49642803562E+02  0.50613376850E+03  0.00000000000E+00 0. -1.
         -1    1    6    6    0  503  0.12407851764E+03 -0.94424261989E+02 -0.59781936783E+02  0.16698892107E+03  0.00000000000E+00 0.  1.
<mgrwt>
<rscale>  0 0.15039659E+04</rscale>
<asrwt>0</asrwt>
<pdfrwt beam="1">  1        2 0.17060120E+00 0.15039659E+04</pdfrwt>
<pdfrwt beam="2">  1       -1 0.78452573E-01 0.15039659E+04</pdfrwt>
<totfact> 0.38542537E+01</totfact>
</mgrwt>
</event>
<event>
12    6  0.1450532E-007  0.2094632E+04  0.7818608E-02  0.8563612E-01
         -1   -1    0    0    0  501 -0.00000000000E+00  0.00000000000E+00  0.49079611828E+03  0.49079611828E+03  0.00000000000E+00 0.  1.
          2   -1    0    0  501    0  0.00000000000E+00 -0.00000000000E+00 -0.22348798819E+04  0.22348798819E+04  0.00000000000E+00 0. -1.
         24    2    1    2    0    0 -0.32081788967E+03 -0.56239103596E+02 -0.17315315258E+04  0.17638562634E+04  0.83069476466E+02 0.  0.
        254    2    1    2    0    0  0.32081788967E+03  0.56239103596E+02 -0.12552237769E+02  0.96181973675E+03  0.90490479733E+03 0.  0.
         23    2    4    4    0    0 -0.79254828936E+02  0.25872725647E+03 -0.30547371793E+03  0.41812140455E+03  0.91050510405E+02 0.  0.
         23    2    4    4    0    0  0.40007271861E+03 -0.20248815288E+03  0.29292148016E+03  0.54369833220E+03  0.93516045014E+02 0.  0.
          4    1    3    3  502    0 -0.28802833754E+03 -0.60704206848E+02 -0.16466392324E+04  0.16727420858E+04  0.00000000000E+00 0. -1.
         -3    1    3    3    0  502 -0.32789552133E+02  0.44651032519E+01 -0.84892293417E+02  0.91114177589E+02  0.00000000000E+00 0.  1.
         11    1    5    5    0    0  0.87677036903E+01  0.43619385519E+02 -0.16910079189E+02  0.47596997797E+02  0.00000000000E+00 0.  1.
        -11    1    5    5    0    0 -0.88022532627E+02  0.21510787095E+03 -0.28856363874E+03  0.37052440675E+03  0.00000000000E+00 0. -1.
          4    1    6    6  503    0  0.91690788781E+02 -0.21820655018E+02  0.10051317181E+03  0.13779056368E+03  0.00000000000E+00 0. -1.
         -4    1    6    6    0  503  0.30838192982E+03 -0.18066749786E+03  0.19240830835E+03  0.40590776852E+03  0.00000000000E+00 0.  1.
<mgrwt>
<rscale>  0 0.20946316E+04</rscale>
<asrwt>0</asrwt>
<pdfrwt beam="1">  1        2 0.34382767E+00 0.20946316E+04</pdfrwt>
<pdfrwt beam="2">  1       -1 0.75507096E-01 0.20946316E+04</pdfrwt>
<totfact> 0.91298132E+00</totfact>
</mgrwt>
</event>
<event>
12    6  0.1450532E-007  0.1448511E+04  0.7818608E-02  0.8919433E-01
         -1   -1    0    0    0  501 -0.00000000000E+00  0.00000000000E+00  0.16422374565E+03  0.16422374565E+03  0.00000000000E+00 0.  1.
          2   -1    0    0  501    0  0.00000000000E+00 -0.00000000000E+00 -0.31940948708E+04  0.31940948708E+04  0.00000000000E+00 0. -1.
         24    2    1    2    0    0 -0.40975543629E+03  0.11770709307E+03 -0.67874857795E+03  0.80544429455E+03  0.79286835118E+02 0.  0.
        254    2    1    2    0    0  0.40975543629E+03 -0.11770709307E+03 -0.23511225472E+04  0.25528743219E+04  0.89868548123E+03 0.  0.
         23    2    4    4    0    0  0.44540658464E+03 -0.24221205827E+03 -0.23396760816E+04  0.23957435607E+04  0.91920265198E+02 0.  0.
         23    2    4    4    0    0 -0.35651148354E+02  0.12450496520E+03 -0.11446465572E+02  0.15713076115E+03  0.88241508311E+02 0.  0.
          4    1    3    3  502    0 -0.38515413910E+02 -0.11325085151E+02 -0.52650264625E+02  0.66209855969E+02  0.00000000000E+00 0. -1.
         -3    1    3    3    0  502 -0.37124002238E+03  0.12903217822E+03 -0.62609831333E+03  0.73923443858E+03  0.00000000000E+00 0.  1.
         11    1    5    5    0    0  0.73066194542E+02 -0.43528474215E+02 -0.25603090082E+03  0.26978735891E+03  0.00000000000E+00 0. -1.
        -11    1    5    5    0    0  0.37234039010E+03 -0.19868358405E+03 -0.20836451808E+04  0.21259562018E+04  0.00000000000E+00 0.  1.
          3    1    6    6  503    0  0.88074230602E+01  0.24181958259E+01 -0.24884744883E+02  0.26507902594E+02  0.00000000000E+00 0. -1.
         -3    1    6    6    0  503 -0.44458571414E+02  0.12208676937E+03  0.13438279311E+02  0.13062285856E+03  0.00000000000E+00 0.  1.
<mgrwt>
<rscale>  0 0.14485113E+04</rscale>
<asrwt>0</asrwt>
<pdfrwt beam="1">  1        2 0.49139922E+00 0.14485113E+04</pdfrwt>
<pdfrwt beam="2">  1       -1 0.25265191E-01 0.14485113E+04</pdfrwt>
<totfact> 0.20093130E+01</totfact>
</mgrwt>
</event>
<event>
12    6  0.1450532E-007  0.3273925E+04  0.7818608E-02  0.8169562E-01
         -1   -1    0    0    0  501 -0.00000000000E+00  0.00000000000E+00  0.16762784406E+04  0.16762784406E+04  0.00000000000E+00 0.  1.
          2   -1    0    0  501    0  0.00000000000E+00 -0.00000000000E+00 -0.15985685862E+04  0.15985685862E+04  0.00000000000E+00 0. -1.
         24    2    1    2    0    0 -0.95418082737E+03  0.24235081488E+03 -0.11122905815E+04  0.14874222947E+04  0.77715997908E+02 0.  0.
        254    2    1    2    0    0  0.95418082737E+03 -0.24235081488E+03  0.11900004359E+04  0.17874247321E+04  0.89977284172E+03 0.  0.
         23    2    4    4    0    0  0.47760435233E+03 -0.47480789515E+03  0.29074058345E+03  0.73947565022E+03  0.93518424617E+02 0.  0.
         23    2    4    4    0    0  0.47657647504E+03  0.23245708028E+03  0.89925985246E+03  0.10479490819E+04  0.91474396688E+02 0.  0.
          2    1    3    3  502    0 -0.72103751552E+03  0.17468305038E+03 -0.78744983810E+03  0.10818902506E+04  0.00000000000E+00 0. -1.
         -1    1    3    3    0  502 -0.23314331185E+03  0.67667764500E+02 -0.32484074335E+03  0.40553204405E+03  0.00000000000E+00 0.  1.
         11    1    5    5    0    0  0.17660456281E+03 -0.24078066165E+03  0.12351020797E+03  0.32313970679E+03  0.00000000000E+00 0.  1.
        -11    1    5    5    0    0  0.30099978952E+03 -0.23402723350E+03  0.16723037547E+03  0.41633594343E+03  0.00000000000E+00 0. -1.
          3    1    6    6  503    0  0.83498494560E+01  0.97117727075E+01  0.60657688220E+02  0.61995109930E+02  0.00000000000E+00 0. -1.
         -3    1    6    6    0  503  0.46822662558E+03  0.22274530757E+03  0.83860216424E+03  0.98595397195E+03  0.00000000000E+00 0.  1.
<mgrwt>
<rscale>  0 0.32739249E+04</rscale>
<asrwt>0</asrwt>
<pdfrwt beam="1">  1        2 0.24593363E+00 0.32739249E+04</pdfrwt>
<pdfrwt beam="2">  1       -1 0.25788899E+00 0.32739249E+04</pdfrwt>
<totfact> 0.65920431E-01</totfact>
</mgrwt>
</event>
<event>
12    6  0.1450532E-007  0.2870537E+04  0.7818608E-02  0.8281698E-01
          2   -1    0    0  501    0  0.00000000000E+00  0.00000000000E+00  0.19803121268E+04  0.19803121268E+04  0.00000000000E+00 0. -1.
         -1   -1    0    0    0  501 -0.00000000000E+00 -0.00000000000E+00 -0.10402375074E+04  0.10402375074E+04  0.00000000000E+00 0.  1.
         24    2    1    2    0    0  0.13202045196E+03 -0.51531172640E+03  0.16646509549E+04  0.17493966718E+04  0.79689011364E+02 0.  0.
        254    2    1    2    0    0 -0.13202045196E+03  0.51531172640E+03 -0.72457633554E+03  0.12711529624E+04  0.89880109742E+03 0.  0.
         23    2    4    4    0    0 -0.23254592994E+03  0.25347460276E+03 -0.87134825138E+03  0.94138777778E+03  0.92931099159E+02 0.  0.
         23    2    4    4    0    0  0.10052547799E+03  0.26183712364E+03  0.14677191584E+03  0.32976518463E+03  0.92406875679E+02 0.  0.
          2    1    3    3  502    0  0.13517449907E+03 -0.48755734018E+03  0.16153608589E+04  0.16927418614E+04  0.00000000000E+00 0. -1.
         -1    1    3    3    0  502 -0.31540471078E+01 -0.27754386220E+02  0.49290096035E+02  0.56654810341E+02  0.00000000000E+00 0.  1.
         11    1    5    5    0    0 -0.60893892296E+02  0.54178812066E+02 -0.32437576113E+03  0.33445933117E+03  0.00000000000E+00 0.  1.
        -11    1    5    5    0    0 -0.17165203765E+03  0.19929579069E+03 -0.54697249025E+03  0.60692844661E+03  0.00000000000E+00 0. -1.
          3    1    6    6  503    0  0.11281175035E+03  0.18958375403E+03  0.12372976098E+03  0.25293782747E+03  0.00000000000E+00 0. -1.
         -3    1    6    6    0  503 -0.12286272364E+02  0.72253369604E+02  0.23042154864E+02  0.76827357162E+02  0.00000000000E+00 0.  1.
<mgrwt>
<rscale>  0 0.28705365E+04</rscale>
<asrwt>0</asrwt>
<pdfrwt beam="1">  1        2 0.30466340E+00 0.28705365E+04</pdfrwt>
<pdfrwt beam="2">  1       -1 0.16003654E+00 0.28705365E+04</pdfrwt>
<totfact> 0.19695456E+00</totfact>
</mgrwt>
</event>
<event>
12    6  0.1450532E-007  0.1950295E+04  0.7818608E-02  0.8630219E-01
          2   -1    0    0  501    0  0.00000000000E+00  0.00000000000E+00  0.72980914360E+03  0.72980914360E+03  0.00000000000E+00 0. -1.
         -1   -1    0    0    0  501 -0.00000000000E+00 -0.00000000000E+00 -0.13029601312E+04  0.13029601312E+04  0.00000000000E+00 0.  1.
         24    2    1    2    0    0  0.75658372744E+03 -0.54908087511E+02 -0.18067653265E+03  0.78359046426E+03  0.77046554309E+02 0.  0.
        254    2    1    2    0    0 -0.75658372744E+03  0.54908087511E+02 -0.39247445499E+03  0.12491788106E+04  0.91157976518E+03 0.  0.
         23    2    4    4    0    0 -0.55043203112E+03  0.40814259878E+03 -0.24641442674E+02  0.69154963418E+03  0.89877105058E+02 0.  0.
         23    2    4    4    0    0 -0.20615169632E+03 -0.35323451127E+03 -0.36783301232E+03  0.55762917640E+03  0.91520662027E+02 0.  0.
          4    1    3    3  502    0  0.84058722175E+02  0.49834649431E-01 -0.44899331825E+02  0.95298589997E+02  0.00000000000E+00 0. -1.
         -3    1    3    3    0  502  0.67252500526E+03 -0.54957922160E+02 -0.13577720083E+03  0.68829187426E+03  0.00000000000E+00 0.  1.
         11    1    5    5    0    0 -0.20793859906E+03  0.17257596738E+03 -0.51144970575E+02  0.27502133283E+03  0.00000000000E+00 0. -1.
        -11    1    5    5    0    0 -0.34249343206E+03  0.23556663140E+03  0.26503527901E+02  0.41652830135E+03  0.00000000000E+00 0.  1.
          3    1    6    6  503    0 -0.52503666042E+02 -0.10133025437E+03 -0.52011934030E+02  0.12541808753E+03  0.00000000000E+00 0. -1.
         -3    1    6    6    0  503 -0.15364803028E+03 -0.25190425690E+03 -0.31582107829E+03  0.43221108887E+03  0.00000000000E+00 0.  1.
<mgrwt>
<rscale>  0 0.19502946E+04</rscale>
<asrwt>0</asrwt>
<pdfrwt beam="1">  1        2 0.11227833E+00 0.19502946E+04</pdfrwt>
<pdfrwt beam="2">  1       -1 0.20045540E+00 0.19502946E+04</pdfrwt>
<totfact> 0.61799638E+00</totfact>
</mgrwt>
</event>
<event>
12    6  0.1450532E-007  0.1166045E+04  0.7818608E-02  0.9143108E-01
         -1   -1    0    0    0  501 -0.00000000000E+00  0.00000000000E+00  0.31550823304E+03  0.31550823304E+03  0.00000000000E+00 0.  1.
          2   -1    0    0  501    0  0.00000000000E+00 -0.00000000000E+00 -0.10773574952E+04  0.10773574952E+04  0.00000000000E+00 0. -1.
         24    2    1    2    0    0  0.34401149393E+02  0.10959458196E+01 -0.44203095072E+03  0.45049709592E+03  0.79822502188E+02 0.  0.
        254    2    1    2    0    0 -0.34401149393E+02 -0.10959458196E+01 -0.31981831144E+03  0.94236863233E+03  0.88577098998E+03 0.  0.
         23    2    4    4    0    0 -0.26636861412E+03 -0.39741261038E+02 -0.53836854238E+03  0.60858295636E+03  0.89447867143E+02 0.  0.
         23    2    4    4    0    0  0.23196746472E+03  0.38645315218E+02  0.21855023093E+03  0.33378567597E+03  0.91358135730E+02 0.  0.
          2    1    3    3  502    0  0.11667089405E+02 -0.45572950670E+01 -0.41301419473E+03  0.41320408391E+03  0.00000000000E+00 0. -1.
         -1    1    3    3    0  502  0.22734059988E+02  0.56532408867E+01 -0.29016755998E+02  0.37293012009E+02  0.00000000000E+00 0.  1.
         11    1    5    5    0    0 -0.72834899203E+02  0.19769961821E+02 -0.96289557115E+02  0.12234154136E+03  0.00000000000E+00 0. -1.
        -11    1    5    5    0    0 -0.19353371492E+03 -0.59511222858E+02 -0.44207898526E+03  0.48624141500E+03  0.00000000000E+00 0.  1.
          3    1    6    6  503    0  0.61210482853E+02 -0.22742385595E+02  0.90919847527E+02  0.11193908159E+03  0.00000000000E+00 0. -1.
         -3    1    6    6    0  503  0.17075698187E+03  0.61387700813E+02  0.12763038341E+03  0.22184659438E+03  0.00000000000E+00 0.  1.
<mgrwt>
<rscale>  0 0.11660449E+04</rscale>
<asrwt>0</asrwt>
<pdfrwt beam="1">  1        2 0.16574731E+00 0.11660449E+04</pdfrwt>
<pdfrwt beam="2">  1       -1 0.48539728E-01 0.11660449E+04</pdfrwt>
<totfact> 0.10771789E+02</totfact>
</mgrwt>
</event>
<event>
12    6  0.1450532E-007  0.1794212E+04  0.7818608E-02  0.8709384E-01
          2   -1    0    0  501    0  0.00000000000E+00  0.00000000000E+00  0.44786651014E+04  0.44786651014E+04  0.00000000000E+00 0. -1.
         -1   -1    0    0    0  501 -0.00000000000E+00 -0.00000000000E+00 -0.17969614830E+03  0.17969614830E+03  0.00000000000E+00 0.  1.
         24    2    1    2    0    0 -0.20219001970E+03  0.60328403863E+03  0.20789147864E+04  0.21755831813E+04  0.80268637491E+02 0.  0.
        254    2    1    2    0    0  0.20219001970E+03 -0.60328403863E+03  0.22200541667E+04  0.24827780684E+04  0.91143513135E+03 0.  0.
         23    2    4    4    0    0 -0.16613342341E+03  0.16701138869E+03  0.53317347311E+03  0.58980778400E+03  0.90034167428E+02 0.  0.
         23    2    4    4    0    0  0.36832344311E+03 -0.77029542732E+03  0.16868806936E+04  0.18929702844E+04  0.93556502984E+02 0.  0.
          2    1    3    3  502    0 -0.16283322050E+03  0.44015598906E+03  0.16345062540E+04  0.17005477490E+04  0.00000000000E+00 0. -1.
         -1    1    3    3    0  502 -0.39356799196E+02  0.16312804957E+03  0.44440853240E+03  0.47503543223E+03  0.00000000000E+00 0.  1.
         11    1    5    5    0    0 -0.81922737929E+02  0.22634736421E+02  0.18564135875E+03  0.20417242801E+03  0.00000000000E+00 0. -1.
        -11    1    5    5    0    0 -0.84210685485E+02  0.14437665227E+03  0.34753211437E+03  0.38563535599E+03  0.00000000000E+00 0.  1.
          2    1    6    6  503    0  0.10717666108E+03 -0.20432368704E+03  0.37040020977E+03  0.43638437319E+03  0.00000000000E+00 0. -1.
         -2    1    6    6    0  503  0.26114678203E+03 -0.56597174028E+03  0.13164804838E+04  0.14565859113E+04  0.00000000000E+00 0.  1.
<mgrwt>
<rscale>  0 0.17942117E+04</rscale>
<asrwt>0</asrwt>
<pdfrwt beam="1">  1        2 0.68902532E+00 0.17942117E+04</pdfrwt>
<pdfrwt beam="2">  1       -1 0.27645565E-01 0.17942117E+04</pdfrwt>
<totfact> 0.16714083E+00</totfact>
</mgrwt>
</event>
<event>
12    6  0.1450532E-007  0.2347074E+04  0.7818608E-02  0.8459588E-01
          2   -1    0    0  501    0  0.00000000000E+00  0.00000000000E+00  0.11924374394E+04  0.11924374394E+04  0.00000000000E+00 0. -1.
         -1   -1    0    0    0  501 -0.00000000000E+00 -0.00000000000E+00 -0.11549358681E+04  0.11549358681E+04  0.00000000000E+00 0.  1.
         24    2    1    2    0    0  0.23223848170E+03 -0.59921693282E+03 -0.75443415963E+03  0.99481401205E+03  0.86535382265E+02 0.  0.
        254    2    1    2    0    0 -0.23223848170E+03  0.59921693282E+03  0.79193573091E+03  0.13525592955E+04  0.88840238690E+03 0.  0.
         23    2    4    4    0    0 -0.42918540237E+03 -0.47146825295E+01  0.43076504873E+03  0.61620992466E+03  0.99668481492E+02 0.  0.
         23    2    4    4    0    0  0.19694692066E+03  0.60393161535E+03  0.36117068218E+03  0.73634937087E+03  0.90800048080E+02 0.  0.
          4    1    3    3  502    0  0.98361627315E+02 -0.23471003466E+03 -0.23596229434E+03  0.34704756799E+03  0.00000000000E+00 0. -1.
         -1    1    3    3    0  502  0.13387685439E+03 -0.36450689816E+03 -0.51847186528E+03  0.64776644405E+03  0.00000000000E+00 0.  1.
         11    1    5    5    0    0 -0.41455410494E+03  0.12968901521E+02  0.38941807924E+03  0.56891979994E+03  0.00000000000E+00 0. -1.
        -11    1    5    5    0    0 -0.14631297425E+02 -0.17683584050E+02  0.41346969495E+02  0.47290124716E+02  0.00000000000E+00 0.  1.
          2    1    6    6  503    0  0.26478601261E+02  0.20993395212E+03  0.10212399208E+03  0.23495252784E+03  0.00000000000E+00 0.  1.
         -2    1    6    6    0  503  0.17046831940E+03  0.39399766323E+03  0.25904669010E+03  0.50139684303E+03  0.00000000000E+00 0. -1.
<mgrwt>
<rscale>  0 0.23470737E+04</rscale>
<asrwt>0</asrwt>
<pdfrwt beam="1">  1        2 0.18345191E+00 0.23470737E+04</pdfrwt>
<pdfrwt beam="2">  1       -1 0.17768244E+00 0.23470737E+04</pdfrwt>
<totfact> 0.42614066E+00</totfact>
</mgrwt>
</event>
<event>
12    6  0.1450532E-007  0.1492587E+04  0.7818608E-02  0.8889398E-01
         -1   -1    0    0    0  501 -0.00000000000E+00  0.00000000000E+00  0.88721867663E+03  0.88721867663E+03  0.00000000000E+00 0.  1.
          2   -1    0    0  501    0  0.00000000000E+00 -0.00000000000E+00 -0.62775258365E+03  0.62775258365E+03  0.00000000000E+00 0. -1.
         24    2    1    2    0    0 -0.26922370697E+03 -0.16838800484E+03  0.41069486092E+03  0.52503737608E+03  0.78473262490E+02 0.  0.
        254    2    1    2    0    0  0.26922370697E+03  0.16838800484E+03 -0.15122876793E+03  0.98993388419E+03  0.92534481695E+03 0.  0.
         23    2    4    4    0    0  0.57527319513E+03 -0.13005001101E+02  0.23827784135E+02  0.58297443464E+03  0.90460207009E+02 0.  0.
         23    2    4    4    0    0 -0.30604948816E+03  0.18139300594E+03 -0.17505655207E+03  0.40695944956E+03  0.91659616808E+02 0.  0.
          2    1    3    3  502    0 -0.11883729334E+03 -0.30437254871E+02  0.16608202775E+03  0.20647510434E+03  0.00000000000E+00 0. -1.
         -1    1    3    3    0  502 -0.15038641363E+03 -0.13795074997E+03  0.24461283317E+03  0.31856227174E+03  0.00000000000E+00 0.  1.
         11    1    5    5    0    0  0.75237774577E+02  0.18385908267E+02  0.26765480617E+02  0.81946051148E+02  0.00000000000E+00 0.  1.
        -11    1    5    5    0    0  0.50003542056E+03 -0.31390909367E+02 -0.29376964819E+01  0.50102838349E+03  0.00000000000E+00 0. -1.
          3    1    6    6  503    0 -0.14544074294E+03  0.36036251584E+02 -0.57455375554E+02  0.16047660675E+03  0.00000000000E+00 0. -1.
         -3    1    6    6    0  503 -0.16060874522E+03  0.14535675436E+03 -0.11760117652E+03  0.24648284281E+03  0.00000000000E+00 0.  1.
<mgrwt>
<rscale>  0 0.14925868E+04</rscale>
<asrwt>0</asrwt>
<pdfrwt beam="1">  1        2 0.96577320E-01 0.14925868E+04</pdfrwt>
<pdfrwt beam="2">  1       -1 0.13649518E+00 0.14925868E+04</pdfrwt>
<totfact> 0.23217144E+01</totfact>
</mgrwt>
</event>
<event>
12    6  0.1450532E-007  0.2090737E+04  0.7818608E-02  0.8565335E-01
          2   -1    0    0  501    0  0.00000000000E+00  0.00000000000E+00  0.76774375582E+03  0.76774375582E+03  0.00000000000E+00 0. -1.
         -1   -1    0    0    0  501 -0.00000000000E+00 -0.00000000000E+00 -0.14233856272E+04  0.14233856272E+04  0.00000000000E+00 0.  1.
         24    2    1    2    0    0 -0.13537268499E+03  0.15455074683E+03  0.60799264068E+03  0.64691565697E+03  0.81443961868E+02 0.  0.
        254    2    1    2    0    0  0.13537268499E+03 -0.15455074683E+03 -0.12636345121E+04  0.15442137261E+04  0.86348836383E+03 0.  0.
         23    2    4    4    0    0  0.93289696608E+02  0.34216088390E+03 -0.67105892116E+03  0.76451100070E+03  0.91542102620E+02 0.  0.
         23    2    4    4    0    0  0.42082988378E+02 -0.49671163074E+03 -0.59257559094E+03  0.77970272539E+03  0.91088347088E+02 0.  0.
          4    1    3    3  502    0 -0.13756874520E+03  0.16164252901E+03  0.57076479271E+03  0.60895477290E+03  0.00000000000E+00 0. -1.
         -3    1    3    3    0  502  0.21960602098E+01 -0.70917821783E+01  0.37227847971E+02  0.37960884071E+02  0.00000000000E+00 0.  1.
         11    1    5    5    0    0 -0.19348454508E+01  0.13964192924E+01  0.26360727745E+01  0.35556284158E+01  0.00000000000E+00 0. -1.
        -11    1    5    5    0    0  0.95224542059E+02  0.34076446461E+03 -0.67369499394E+03  0.76095537228E+03  0.00000000000E+00 0.  1.
          2    1    6    6  503    0  0.38108186395E+02 -0.11874948514E+03 -0.19198048833E+03  0.22893270188E+03  0.00000000000E+00 0. -1.
         -2    1    6    6    0  503  0.39748019837E+01 -0.37796214560E+03 -0.40059510262E+03  0.55077002351E+03  0.00000000000E+00 0.  1.
<mgrwt>
<rscale>  0 0.20907371E+04</rscale>
<asrwt>0</asrwt>
<pdfrwt beam="1">  1        2 0.11811443E+00 0.20907371E+04</pdfrwt>
<pdfrwt beam="2">  1       -1 0.21898240E+00 0.20907371E+04</pdfrwt>
<totfact> 0.42792198E+00</totfact>
</mgrwt>
</event>
<event>
12    6  0.1450532E-007  0.1314591E+04  0.7818608E-02  0.9018074E-01
          2   -1    0    0  501    0  0.00000000000E+00  0.00000000000E+00  0.54479457661E+03  0.54479457661E+03  0.00000000000E+00 0. -1.
         -1   -1    0    0    0  501 -0.00000000000E+00 -0.00000000000E+00 -0.79302802797E+03  0.79302802797E+03  0.00000000000E+00 0.  1.
         24    2    1    2    0    0  0.23442291140E+02  0.74501163606E+01  0.28842671053E+03  0.30025188163E+03  0.79725653506E+02 0.  0.
        254    2    1    2    0    0 -0.23442291140E+02 -0.74501163606E+01 -0.53666016190E+03  0.10375707229E+04  0.88766200240E+03 0.  0.
         23    2    4    4    0    0 -0.23466631555E+03  0.35198594060E+03 -0.40188219912E+03  0.59058677503E+03  0.91219816035E+02 0.  0.
         23    2    4    4    0    0  0.21122402441E+03 -0.35943605697E+03 -0.13477796278E+03  0.44698394792E+03  0.88428971003E+02 0.  0.
          2    1    3    3  502    0  0.13384301712E+02  0.36947424947E+02  0.23609642951E+03  0.23934447094E+03  0.00000000000E+00 0. -1.
         -1    1    3    3    0  502  0.10057989428E+02 -0.29497308587E+02  0.52330281026E+02  0.60907410694E+02  0.00000000000E+00 0.  1.
         11    1    5    5    0    0 -0.21440302920E+03  0.25779586913E+03 -0.29394167224E+03  0.44590254064E+03  0.00000000000E+00 0.  1.
        -11    1    5    5    0    0 -0.20263286344E+02  0.94190071472E+02 -0.10794052688E+03  0.14468423439E+03  0.00000000000E+00 0. -1.
          2    1    6    6  503    0  0.11962683194E+03 -0.15895128494E+03 -0.10383180818E+03  0.22440395339E+03  0.00000000000E+00 0.  1.
         -2    1    6    6    0  503  0.91597192463E+02 -0.20048477203E+03 -0.30946154595E+02  0.22257999453E+03  0.00000000000E+00 0. -1.
<mgrwt>
<rscale>  0 0.13145910E+04</rscale>
<asrwt>0</asrwt>
<pdfrwt beam="1">  1        2 0.83814551E-01 0.13145910E+04</pdfrwt>
<pdfrwt beam="2">  1       -1 0.12200431E+00 0.13145910E+04</pdfrwt>
<totfact> 0.37055248E+01</totfact>
</mgrwt>
</event>
<event>
12    6  0.1450532E-007  0.1854575E+04  0.7818608E-02  0.8677804E-01
          2   -1    0    0  501    0  0.00000000000E+00  0.00000000000E+00  0.21741118753E+04  0.21741118753E+04  0.00000000000E+00 0. -1.
         -1   -1    0    0    0  501 -0.00000000000E+00 -0.00000000000E+00 -0.39550028420E+03  0.39550028420E+03  0.00000000000E+00 0.  1.
         24    2    1    2    0    0 -0.50585161730E+03  0.46937507078E+03  0.75338981578E+03  0.10248403708E+04  0.80639663165E+02 0.  0.
        254    2    1    2    0    0  0.50585161730E+03 -0.46937507078E+03  0.10252217753E+04  0.15447717887E+04  0.92684484937E+03 0.  0.
         23    2    4    4    0    0  0.52008869930E+03  0.12784950109E+02  0.89153087019E+03  0.10362246615E+04  0.90986518555E+02 0.  0.
         23    2    4    4    0    0 -0.14237082003E+02 -0.48216002089E+03  0.13369090512E+03  0.50854712718E+03  0.89810590690E+02 0.  0.
          2    1    3    3  502    0 -0.16745311298E+03  0.14249380609E+03  0.29536123263E+03  0.36821635972E+03  0.00000000000E+00 0. -1.
         -1    1    3    3    0  502 -0.33839850432E+03  0.32688126469E+03  0.45802858314E+03  0.65662401107E+03  0.00000000000E+00 0.  1.
         11    1    5    5    0    0  0.32549020423E+03 -0.32252896712E+02  0.58844797412E+03  0.67324225999E+03  0.00000000000E+00 0.  1.
        -11    1    5    5    0    0  0.19459849508E+03  0.45037846821E+02  0.30308289607E+03  0.36298240154E+03  0.00000000000E+00 0. -1.
          2    1    6    6  503    0  0.26243972648E+02 -0.48768849085E+02  0.14939592487E+02  0.57361469342E+02  0.00000000000E+00 0.  1.
         -2    1    6    6    0  503 -0.40481054650E+02 -0.43339117181E+03  0.11875131264E+03  0.45118565784E+03  0.00000000000E+00 0. -1.
<mgrwt>
<rscale>  0 0.18545747E+04</rscale>
<asrwt>0</asrwt>
<pdfrwt beam="1">  1        2 0.33447874E+00 0.18545747E+04</pdfrwt>
<pdfrwt beam="2">  1       -1 0.60846199E-01 0.18545747E+04</pdfrwt>
<totfact> 0.15658289E+01</totfact>
</mgrwt>
</event>
<event>
12    6  0.1450532E-007  0.1227452E+04  0.7818608E-02  0.9089161E-01
          2   -1    0    0  501    0  0.00000000000E+00  0.00000000000E+00  0.37782111766E+03  0.37782111766E+03  0.00000000000E+00 0. -1.
         -1   -1    0    0    0  501 -0.00000000000E+00 -0.00000000000E+00 -0.99692617043E+03  0.99692617043E+03  0.00000000000E+00 0.  1.
         24    2    1    2    0    0 -0.20870032347E+03  0.45737132862E+02  0.31300482544E+02  0.23032360780E+03  0.80134472998E+02 0.  0.
        254    2    1    2    0    0  0.20870032347E+03 -0.45737132862E+02 -0.65040553531E+03  0.11444236803E+04  0.91707714469E+03 0.  0.
         23    2    4    4    0    0  0.50674864240E+03  0.42175904715E+02 -0.63529539880E+03  0.81882918093E+03  0.91148177660E+02 0.  0.
         23    2    4    4    0    0 -0.29804831894E+03 -0.87913037577E+02 -0.15110136510E+02  0.32559449936E+03  0.96031032443E+02 0.  0.
          2    1    3    3  502    0 -0.15336724838E+03  0.60308329892E+02  0.46284085449E+02  0.17117483488E+03  0.00000000000E+00 0. -1.
         -1    1    3    3    0  502 -0.55333075091E+02 -0.14571197030E+02 -0.14983602905E+02  0.59148772919E+02  0.00000000000E+00 0.  1.
         11    1    5    5    0    0  0.45032448386E+03  0.65115950026E+02 -0.57330451645E+03  0.73192232941E+03  0.00000000000E+00 0.  1.
        -11    1    5    5    0    0  0.56424158548E+02 -0.22940045310E+02 -0.61990882354E+02  0.86906851523E+02  0.00000000000E+00 0. -1.
          1    1    6    6  503    0 -0.60945039890E+01  0.39417665876E+01 -0.18117297044E+02  0.19517093914E+02  0.00000000000E+00 0. -1.
         -1    1    6    6    0  503 -0.29195381495E+03 -0.91854804165E+02  0.30071605331E+01  0.30607740545E+03  0.00000000000E+00 0.  1.
<mgrwt>
<rscale>  0 0.12274523E+04</rscale>
<asrwt>0</asrwt>
<pdfrwt beam="1">  1        2 0.58126327E-01 0.12274523E+04</pdfrwt>
<pdfrwt beam="2">  1       -1 0.15337325E+00 0.12274523E+04</pdfrwt>
<totfact> 0.31408865E+01</totfact>
</mgrwt>
</event>
<event>
12    6  0.1450532E-007  0.1869965E+04  0.7818608E-02  0.8669953E-01
          2   -1    0    0  501    0  0.00000000000E+00  0.00000000000E+00  0.14481005590E+04  0.14481005590E+04  0.00000000000E+00 0. -1.
         -1   -1    0    0    0  501 -0.00000000000E+00 -0.00000000000E+00 -0.60368218706E+03  0.60368218706E+03  0.00000000000E+00 0.  1.
         24    2    1    2    0    0  0.67153259644E+03  0.18070503219E+03  0.16170040958E+03  0.71847409305E+03  0.80297342318E+02 0.  0.
        254    2    1    2    0    0 -0.67153259644E+03 -0.18070503219E+03  0.68271796233E+03  0.13333086530E+04  0.90994385062E+03 0.  0.
         23    2    4    4    0    0 -0.86726311122E+03 -0.12995137417E+03  0.67589161207E+03  0.11113305463E+04  0.95882470919E+02 0.  0.
         23    2    4    4    0    0  0.19573051478E+03 -0.50753658018E+02  0.68263502542E+01  0.22197810663E+03  0.91330786417E+02 0.  0.
          4    1    3    3  502    0  0.99045233452E+02  0.49895047175E+01  0.42424242000E+02  0.10786412627E+03  0.00000000000E+00 0. -1.
         -3    1    3    3    0  502  0.57248736299E+03  0.17571552747E+03  0.11927616758E+03  0.61060996678E+03  0.00000000000E+00 0.  1.
         11    1    5    5    0    0 -0.23913748597E+03 -0.60337307250E+02  0.14601552746E+03  0.28661448342E+03  0.00000000000E+00 0. -1.
        -11    1    5    5    0    0 -0.62812562524E+03 -0.69614066920E+02  0.52987608461E+03  0.82471606292E+03  0.00000000000E+00 0.  1.
          1    1    6    6  503    0  0.32854087126E+02  0.19846594079E+01 -0.32566858886E+02  0.46302594005E+02  0.00000000000E+00 0. -1.
         -1    1    6    6    0  503  0.16287642766E+03 -0.52738317426E+02  0.39393209140E+02  0.17567551263E+03  0.00000000000E+00 0.  1.
<mgrwt>
<rscale>  0 0.18699653E+04</rscale>
<asrwt>0</asrwt>
<pdfrwt beam="1">  1        2 0.22278470E+00 0.18699653E+04</pdfrwt>
<pdfrwt beam="2">  1       -1 0.92874183E-01 0.18699653E+04</pdfrwt>
<totfact> 0.16370693E+01</totfact>
</mgrwt>
</event>
<event>
12    6  0.1450532E-007  0.1974368E+04  0.7818608E-02  0.8618699E-01
         -1   -1    0    0    0  501 -0.00000000000E+00  0.00000000000E+00  0.15715116472E+04  0.15715116472E+04  0.00000000000E+00 0.  1.
          2   -1    0    0  501    0  0.00000000000E+00 -0.00000000000E+00 -0.62012412199E+03  0.62012412199E+03  0.00000000000E+00 0. -1.
         24    2    1    2    0    0  0.52687747542E+02  0.71748380527E+03  0.50340593929E+02  0.72664705585E+03  0.89009880443E+02 0.  0.
        254    2    1    2    0    0 -0.52687747542E+02 -0.71748380527E+03  0.90104693126E+03  0.14649887133E+04  0.90374075278E+03 0.  0.
         23    2    4    4    0    0  0.11488874278E+03 -0.87524236515E+03  0.80876685383E+03  0.12006738392E+04  0.90913273148E+02 0.  0.
         23    2    4    4    0    0 -0.16757649033E+03  0.15775855988E+03  0.92280077427E+02  0.26431487414E+03  0.91526480749E+02 0.  0.
          4    1    3    3  502    0  0.46886583373E+02  0.38763064394E+03  0.67721547106E+02  0.39628534639E+03  0.00000000000E+00 0. -1.
         -3    1    3    3    0  502  0.58011641688E+01  0.32985316133E+03 -0.17380953177E+02  0.33036170946E+03  0.00000000000E+00 0.  1.
         11    1    5    5    0    0  0.21775652437E+02 -0.32329823998E+02  0.28464274450E+02  0.48266048924E+02  0.00000000000E+00 0.  1.
        -11    1    5    5    0    0  0.93113090346E+02 -0.84291254115E+03  0.78030257938E+03  0.11524077902E+04  0.00000000000E+00 0. -1.
          1    1    6    6  503    0 -0.16317021720E+03  0.15505419998E+03  0.61830494618E+02  0.23342950708E+03  0.00000000000E+00 0. -1.
         -1    1    6    6    0  503 -0.44062731300E+01  0.27043598993E+01  0.30449582808E+02  0.30885367062E+02  0.00000000000E+00 0.  1.
<mgrwt>
<rscale>  0 0.19743680E+04</rscale>
<asrwt>0</asrwt>
<pdfrwt beam="1">  1        2 0.95403712E-01 0.19743680E+04</pdfrwt>
<pdfrwt beam="2">  1       -1 0.24177102E+00 0.19743680E+04</pdfrwt>
<totfact> 0.39976398E+00</totfact>
</mgrwt>
</event>
<event>
12    6  0.1450532E-007  0.2555292E+04  0.7818608E-02  0.8383548E-01
         -1   -1    0    0    0  501 -0.00000000000E+00  0.00000000000E+00  0.11342991225E+04  0.11342991225E+04  0.00000000000E+00 0.  1.
          2   -1    0    0  501    0  0.00000000000E+00 -0.00000000000E+00 -0.14391081588E+04  0.14391081588E+04  0.00000000000E+00 0. -1.
         24    2    1    2    0    0  0.19517983425E+03  0.25346846834E+03  0.94443187972E+03  0.10002863351E+04  0.79244839761E+02 0.  0.
        254    2    1    2    0    0 -0.19517983425E+03 -0.25346846834E+03 -0.12492409160E+04  0.15731209462E+04  0.90098014008E+03 0.  0.
         23    2    4    4    0    0 -0.48432264433E+03 -0.21303546785E+01 -0.39193403206E+03  0.62972066259E+03  0.91448702470E+02 0.  0.
         23    2    4    4    0    0  0.28914281008E+03 -0.25133811366E+03 -0.85730688397E+03  0.94340028357E+03  0.90854772804E+02 0.  0.
          2    1    3    3  502    0  0.17761309636E+03  0.24057575909E+03  0.79700715960E+03  0.85125996048E+03  0.00000000000E+00 0. -1.
         -3    1    3    3    0  502  0.17566737885E+02  0.12892709245E+02  0.14742472012E+03  0.14902637462E+03  0.00000000000E+00 0.  1.
         11    1    5    5    0    0 -0.27292979567E+02  0.16790029211E+02 -0.46718601046E+02  0.56651915221E+02  0.00000000000E+00 0.  1.
        -11    1    5    5    0    0 -0.45702966476E+03 -0.18920383890E+02 -0.34521543101E+03  0.57306874736E+03  0.00000000000E+00 0. -1.
          2    1    6    6  503    0  0.18638700708E+03 -0.21518364494E+03 -0.60933676540E+03  0.67255885328E+03  0.00000000000E+00 0. -1.
         -2    1    6    6    0  503  0.10275580300E+03 -0.36154468720E+02 -0.24797011857E+03  0.27084143029E+03  0.00000000000E+00 0.  1.
<mgrwt>
<rscale>  0 0.25552919E+04</rscale>
<asrwt>0</asrwt>
<pdfrwt beam="1">  1        2 0.22140125E+00 0.25552919E+04</pdfrwt>
<pdfrwt beam="2">  1       -1 0.17450756E+00 0.25552919E+04</pdfrwt>
<totfact> 0.31703615E+00</totfact>
</mgrwt>
</event>
<event>
12    6  0.1450532E-007  0.1899028E+04  0.7818608E-02  0.8655340E-01
          2   -1    0    0  501    0  0.00000000000E+00  0.00000000000E+00  0.21117511716E+04  0.21117511716E+04  0.00000000000E+00 0. -1.
         -1   -1    0    0    0  501 -0.00000000000E+00 -0.00000000000E+00 -0.42693342482E+03  0.42693342482E+03  0.00000000000E+00 0.  1.
         24    2    1    2    0    0 -0.10230415615E+03 -0.64385473922E+02  0.16169042464E+04  0.16234980377E+04  0.82188238858E+02 0.  0.
        254    2    1    2    0    0  0.10230415615E+03  0.64385473922E+02  0.67913500338E+02  0.91518655873E+03  0.90462288503E+03 0.  0.
         23    2    4    4    0    0  0.17829624568E+03 -0.98052588007E+02  0.43870535506E+03  0.49348795863E+03  0.98306233349E+02 0.  0.
         23    2    4    4    0    0 -0.75992089535E+02  0.16243806193E+03 -0.37079185472E+03  0.42169860010E+03  0.90455448497E+02 0.  0.
          4    1    3    3  502    0 -0.92079664893E+02 -0.61715900725E+02  0.15980058188E+04  0.16018458459E+04  0.00000000000E+00 0. -1.
         -3    1    3    3    0  502 -0.10224491254E+02 -0.26695731968E+01  0.18898427676E+02  0.21652191830E+02  0.00000000000E+00 0.  1.
         11    1    5    5    0    0  0.55225297472E+01 -0.43137928730E+02  0.10644393133E+03  0.11498560670E+03  0.00000000000E+00 0. -1.
        -11    1    5    5    0    0  0.17277371593E+03 -0.54914659277E+02  0.33226142373E+03  0.37850235193E+03  0.00000000000E+00 0.  1.
          2    1    6    6  503    0 -0.28189001571E+01  0.57326894295E+02 -0.49397432045E+02  0.75725988275E+02  0.00000000000E+00 0. -1.
         -2    1    6    6    0  503 -0.73173189378E+02  0.10511116763E+03 -0.32139442268E+03  0.34597261182E+03  0.00000000000E+00 0.  1.
<mgrwt>
<rscale>  0 0.18990283E+04</rscale>
<asrwt>0</asrwt>
<pdfrwt beam="1">  1        2 0.32488479E+00 0.18990283E+04</pdfrwt>
<pdfrwt beam="2">  1       -1 0.65682067E-01 0.18990283E+04</pdfrwt>
<totfact> 0.14503074E+01</totfact>
</mgrwt>
</event>
<event>
12    6  0.1450532E-007  0.2015794E+04  0.7818608E-02  0.8599272E-01
         -1   -1    0    0    0  501 -0.00000000000E+00  0.00000000000E+00  0.54565890107E+03  0.54565890107E+03  0.00000000000E+00 0.  1.
          2   -1    0    0  501    0  0.00000000000E+00 -0.00000000000E+00 -0.18617056459E+04  0.18617056459E+04  0.00000000000E+00 0. -1.
         24    2    1    2    0    0 -0.66135725905E+03  0.44956342849E+03 -0.39721907687E+03  0.89658327618E+03  0.81104104462E+02 0.  0.
        254    2    1    2    0    0  0.66135725905E+03 -0.44956342849E+03 -0.91882766796E+03  0.15107812708E+04  0.89370860151E+03 0.  0.
         23    2    4    4    0    0 -0.13908811443E+03 -0.28021422400E+03 -0.47328972221E+03  0.57444542246E+03  0.90104757552E+02 0.  0.
         23    2    4    4    0    0  0.80044537348E+03 -0.16934920449E+03 -0.44553794575E+03  0.93633584832E+03  0.93961751630E+02 0.  0.
          2    1    3    3  502    0 -0.51173749522E+03  0.38150031743E+03 -0.33468671308E+03  0.72071697089E+03  0.00000000000E+00 0. -1.
         -1    1    3    3    0  502 -0.14961976383E+03  0.68063111063E+02 -0.62532363787E+02  0.17586630529E+03  0.00000000000E+00 0.  1.
         11    1    5    5    0    0 -0.46347025260E+02 -0.39729476569E+02 -0.50233073662E+02  0.79055927978E+02  0.00000000000E+00 0. -1.
        -11    1    5    5    0    0 -0.92741089168E+02 -0.24048474743E+03 -0.42305664854E+03  0.49538949448E+03  0.00000000000E+00 0.  1.
          3    1    6    6  503    0  0.72659815314E+03 -0.12577279669E+03 -0.40779736707E+03  0.84265198340E+03  0.00000000000E+00 0.  1.
         -3    1    6    6    0  503  0.73847220337E+02 -0.43576407802E+02 -0.37740578679E+02  0.93683864926E+02  0.00000000000E+00 0. -1.
<mgrwt>
<rscale>  0 0.20157939E+04</rscale>
<asrwt>0</asrwt>
<pdfrwt beam="1">  1        2 0.28641626E+00 0.20157939E+04</pdfrwt>
<pdfrwt beam="2">  1       -1 0.83947523E-01 0.20157939E+04</pdfrwt>
<totfact> 0.11850256E+01</totfact>
</mgrwt>
</event>
<event>
12    6  0.1450532E-007  0.2241291E+04  0.7818608E-02  0.8501436E-01
         -1   -1    0    0    0  501 -0.00000000000E+00  0.00000000000E+00  0.34927267716E+03  0.34927267716E+03  0.00000000000E+00 0.  1.
          2   -1    0    0  501    0  0.00000000000E+00 -0.00000000000E+00 -0.35956049360E+04  0.35956049360E+04  0.00000000000E+00 0. -1.
         24    2    1    2    0    0 -0.67668894994E+03 -0.56676040303E+03 -0.19257291612E+04  0.21198831926E+04  0.79665918611E+02 0.  0.
        254    2    1    2    0    0  0.67668894994E+03  0.56676040303E+03 -0.13206030977E+04  0.18249944206E+04  0.89860269541E+03 0.  0.
         23    2    4    4    0    0  0.20576194161E+03 -0.99615157110E+02 -0.83625447544E+03  0.87168811674E+03  0.90870616978E+02 0.  0.
         23    2    4    4    0    0  0.47092700833E+03  0.66637556014E+03 -0.48434862223E+03  0.95330630385E+03  0.91491457367E+02 0.  0.
          4    1    3    3  502    0 -0.66531828006E+03 -0.56731389958E+03 -0.18914954859E+04  0.20838062884E+04  0.00000000000E+00 0. -1.
         -3    1    3    3    0  502 -0.11370669880E+02  0.55349654541E+00 -0.34233675303E+02  0.36076904201E+02  0.00000000000E+00 0.  1.
         11    1    5    5    0    0  0.38500692434E+02 -0.64003527064E+02 -0.23468735302E+03  0.24628623279E+03  0.00000000000E+00 0. -1.
        -11    1    5    5    0    0  0.16726124917E+03 -0.35611630047E+02 -0.60156712243E+03  0.62540188396E+03  0.00000000000E+00 0.  1.
          3    1    6    6  503    0  0.15106652710E+03  0.20153842422E+03 -0.19902548051E+03  0.32101397780E+03  0.00000000000E+00 0. -1.
         -3    1    6    6    0  503  0.31986048123E+03  0.46483713592E+03 -0.28532314171E+03  0.63229232605E+03  0.00000000000E+00 0.  1.
<mgrwt>
<rscale>  0 0.22412912E+04</rscale>
<asrwt>0</asrwt>
<pdfrwt beam="1">  1        2 0.55316997E+00 0.22412912E+04</pdfrwt>
<pdfrwt beam="2">  1       -1 0.53734260E-01 0.22412912E+04</pdfrwt>
<totfact> 0.25287748E+00</totfact>
</mgrwt>
</event>
<event>
12    6  0.1450532E-007  0.2028864E+04  0.7818608E-02  0.8593243E-01
         -1   -1    0    0    0  501 -0.00000000000E+00  0.00000000000E+00  0.15004565265E+04  0.15004565265E+04  0.00000000000E+00 0.  1.
          2   -1    0    0  501    0  0.00000000000E+00 -0.00000000000E+00 -0.68583958935E+03  0.68583958935E+03  0.00000000000E+00 0. -1.
         24    2    1    2    0    0  0.61861596666E+02  0.84192544746E+03  0.53873576740E+03  0.10047160194E+04  0.80948973331E+02 0.  0.
        254    2    1    2    0    0 -0.61861596666E+02 -0.84192544746E+03  0.27588116979E+03  0.11815800965E+04  0.77933034614E+03 0.  0.
         23    2    4    4    0    0  0.15824676477E+02  0.13256868614E+03  0.68537769460E+01  0.16402653791E+03  0.95041327593E+02 0.  0.
         23    2    4    4    0    0 -0.77686273143E+02 -0.97449413360E+03  0.26902739285E+03  0.10175535586E+04  0.85822683907E+02 0.  0.
          2    1    3    3  502    0 -0.14627991492E+01 -0.15007053180E+01  0.41641469222E+00  0.21366560318E+01  0.00000000000E+00 0. -1.
         -1    1    3    3    0  502  0.63324395815E+02  0.84342615278E+03  0.53831935271E+03  0.10025793633E+04  0.00000000000E+00 0.  1.
         11    1    5    5    0    0  0.96471405695E+01  0.13985468063E+03 -0.14202691083E+02  0.14090463246E+03  0.00000000000E+00 0.  1.
        -11    1    5    5    0    0  0.61775359074E+01 -0.72859944934E+01  0.21056468029E+02  0.23121905447E+02  0.00000000000E+00 0. -1.
          3    1    6    6  503    0  0.14938943388E+02 -0.18065244289E+03  0.33441143069E+02  0.18432793386E+03  0.00000000000E+00 0. -1.
         -3    1    6    6    0  503 -0.92625216531E+02 -0.79384169071E+03  0.23558624978E+03  0.83322562475E+03  0.00000000000E+00 0.  1.
<mgrwt>
<rscale>  0 0.20288642E+04</rscale>
<asrwt>0</asrwt>
<pdfrwt beam="1">  1        2 0.10551378E+00 0.20288642E+04</pdfrwt>
<pdfrwt beam="2">  1       -1 0.23083946E+00 0.20288642E+04</pdfrwt>
<totfact> 0.41455138E+00</totfact>
</mgrwt>
</event>
<event>
12    6  0.1450532E-007  0.1491267E+04  0.7818608E-02  0.8890281E-01
          2   -1    0    0  501    0  0.00000000000E+00  0.00000000000E+00  0.26075916368E+04  0.26075916368E+04  0.00000000000E+00 0. -1.
         -1   -1    0    0    0  501 -0.00000000000E+00 -0.00000000000E+00 -0.21321178912E+03  0.21321178912E+03  0.00000000000E+00 0.  1.
         24    2    1    2    0    0  0.66740108238E+01 -0.42388604285E+03  0.38110780949E+03  0.57577135934E+03  0.80904734332E+02 0.  0.
        254    2    1    2    0    0 -0.66740108238E+01  0.42388604285E+03  0.20132720382E+04  0.22450320666E+04  0.89843239060E+03 0.  0.
         23    2    4    4    0    0 -0.26547604656E+03  0.45948279594E+03  0.60666810317E+03  0.81142937161E+03  0.93645430472E+02 0.  0.
         23    2    4    4    0    0  0.25880203574E+03 -0.35596753084E+02  0.14066039351E+04  0.14336026950E+04  0.91850065213E+02 0.  0.
          4    1    3    3  502    0 -0.15598096403E+02 -0.17257174310E+02  0.30782998830E+02  0.38583723168E+02  0.00000000000E+00 0. -1.
         -3    1    3    3    0  502  0.22272107227E+02 -0.40662886854E+03  0.35032481066E+03  0.53718763617E+03  0.00000000000E+00 0.  1.
         11    1    5    5    0    0 -0.27033203647E+03  0.42878577597E+03  0.55977070681E+03  0.75516878631E+03  0.00000000000E+00 0.  1.
        -11    1    5    5    0    0  0.48559899092E+01  0.30697019968E+02  0.46897396358E+02  0.56260585298E+02  0.00000000000E+00 0. -1.
          2    1    6    6  503    0  0.16088146748E+01 -0.18613936844E+02  0.11842576740E+03  0.11989048884E+03  0.00000000000E+00 0. -1.
         -2    1    6    6    0  503  0.25719322107E+03 -0.16982816240E+02  0.12881781677E+04  0.13137122062E+04  0.00000000000E+00 0.  1.
<mgrwt>
<rscale>  0 0.14912669E+04</rscale>
<asrwt>0</asrwt>
<pdfrwt beam="1">  1        2 0.40116792E+00 0.14912669E+04</pdfrwt>
<pdfrwt beam="2">  1       -1 0.32801816E-01 0.14912669E+04</pdfrwt>
<totfact> 0.29004682E+01</totfact>
</mgrwt>
</event>
<event>
12    6  0.1450532E-007  0.1402102E+04  0.7818608E-02  0.8952298E-01
          2   -1    0    0  501    0  0.00000000000E+00  0.00000000000E+00  0.16387996882E+04  0.16387996882E+04  0.00000000000E+00 0. -1.
         -1   -1    0    0    0  501 -0.00000000000E+00 -0.00000000000E+00 -0.29989795401E+03  0.29989795401E+03  0.00000000000E+00 0.  1.
         24    2    1    2    0    0  0.16745932761E+03 -0.36176982550E+03  0.33400914103E+03  0.52646437437E+03  0.81747159870E+02 0.  0.
        254    2    1    2    0    0 -0.16745932761E+03  0.36176982550E+03  0.10048925932E+04  0.14122332679E+04  0.90866586047E+03 0.  0.
         23    2    4    4    0    0 -0.49015327248E+03  0.43073809209E+02  0.69157854737E+03  0.85366487029E+03  0.91417941476E+02 0.  0.
         23    2    4    4    0    0  0.32269394487E+03  0.31869601629E+03  0.31331404582E+03  0.55856839758E+03  0.90191078324E+02 0.  0.
          2    1    3    3  502    0  0.46901084540E+02 -0.71013190810E+02  0.11475505631E+03  0.14286814882E+03  0.00000000000E+00 0. -1.
         -1    1    3    3    0  502  0.12055824307E+03 -0.29075663469E+03  0.21925408472E+03  0.38359622555E+03  0.00000000000E+00 0.  1.
         11    1    5    5    0    0 -0.48265477477E+03  0.45772753495E+02  0.64761330294E+03  0.80898316838E+03  0.00000000000E+00 0. -1.
        -11    1    5    5    0    0 -0.74984977064E+01 -0.26989442863E+01  0.43965244425E+02  0.44681701909E+02  0.00000000000E+00 0.  1.
          1    1    6    6  503    0  0.26595472787E+03  0.27862201066E+03  0.29908538795E+03  0.48766198477E+03  0.00000000000E+00 0. -1.
         -1    1    6    6    0  503  0.56739216999E+02  0.40074005629E+02  0.14228657870E+02  0.70906412810E+02  0.00000000000E+00 0.  1.
<mgrwt>
<rscale>  0 0.14021022E+04</rscale>
<asrwt>0</asrwt>
<pdfrwt beam="1">  1        2 0.25212303E+00 0.14021022E+04</pdfrwt>
<pdfrwt beam="2">  1       -1 0.46138147E-01 0.14021022E+04</pdfrwt>
<totfact> 0.54963635E+01</totfact>
</mgrwt>
</event>
<event>
12    6  0.1450532E-007  0.1227506E+04  0.7818608E-02  0.9089116E-01
         -1   -1    0    0    0  501 -0.00000000000E+00  0.00000000000E+00  0.14072222318E+04  0.14072222318E+04  0.00000000000E+00 0.  1.
          2   -1    0    0  501    0  0.00000000000E+00 -0.00000000000E+00 -0.26768519514E+03  0.26768519514E+03  0.00000000000E+00 0. -1.
         24    2    1    2    0    0  0.13850724806E+03 -0.20997334196E+03  0.97234830464E+02  0.28137009826E+03  0.80258693234E+02 0.  0.
        254    2    1    2    0    0 -0.13850724806E+03  0.20997334196E+03  0.10423022061E+04  0.13935373286E+04  0.89010074446E+03 0.  0.
         23    2    4    4    0    0  0.21470320589E+03 -0.46335619780E+02 -0.20626022597E+02  0.24131924039E+03  0.97801261217E+02 0.  0.
         23    2    4    4    0    0 -0.35321045395E+03  0.25630896174E+03  0.10629282287E+04  0.11522180883E+04  0.85663263926E+02 0.  0.
          2    1    3    3  502    0  0.14362268437E+03 -0.17229335238E+03  0.71383425976E+02  0.23538918464E+03  0.00000000000E+00 0. -1.
         -1    1    3    3    0  502 -0.51154363123E+01 -0.37679989577E+02  0.25851404488E+02  0.45980913618E+02  0.00000000000E+00 0.  1.
         11    1    5    5    0    0  0.11553609086E+03 -0.25071881692E+02  0.37988576811E+02  0.12417857912E+03  0.00000000000E+00 0. -1.
        -11    1    5    5    0    0  0.99167115025E+02 -0.21263738088E+02 -0.58614599408E+02  0.11714066127E+03  0.00000000000E+00 0.  1.
          3    1    6    6  503    0 -0.63986481841E+02  0.87495761882E+02  0.30175026567E+03  0.32062907080E+03  0.00000000000E+00 0. -1.
         -3    1    6    6    0  503 -0.28922397211E+03  0.16881319986E+03  0.76117796307E+03  0.83158901746E+03  0.00000000000E+00 0.  1.
<mgrwt>
<rscale>  0 0.12275057E+04</rscale>
<asrwt>0</asrwt>
<pdfrwt beam="1">  1        2 0.41182338E-01 0.12275057E+04</pdfrwt>
<pdfrwt beam="2">  1       -1 0.21649572E+00 0.12275057E+04</pdfrwt>
<totfact> 0.16365631E+01</totfact>
</mgrwt>
</event>
<event>
12    6  0.1450532E-007  0.1202448E+04  0.7818608E-02  0.9110717E-01
          2   -1    0    0  501    0  0.00000000000E+00  0.00000000000E+00  0.10008568565E+04  0.10008568565E+04  0.00000000000E+00 0. -1.
         -1   -1    0    0    0  501 -0.00000000000E+00 -0.00000000000E+00 -0.36116075279E+03  0.36116075279E+03  0.00000000000E+00 0.  1.
         24    2    1    2    0    0 -0.24135540428E+03 -0.10060501039E+02  0.26132666790E+03  0.36488080229E+03  0.80577463790E+02 0.  0.
        254    2    1    2    0    0  0.24135540428E+03  0.10060501039E+02  0.37836943584E+03  0.99713680702E+03  0.89037336948E+03 0.  0.
         23    2    4    4    0    0 -0.15984696269E+03 -0.31410131161E+03  0.29119262317E+03  0.46611124085E+03  0.90861761052E+02 0.  0.
         23    2    4    4    0    0  0.40120236697E+03  0.32416181264E+03  0.87176812665E+02  0.53102556617E+03  0.91346238124E+02 0.  0.
          2    1    3    3  502    0 -0.20763513416E+03 -0.24175297674E+02  0.18054230003E+03  0.27621063711E+03  0.00000000000E+00 0. -1.
         -1    1    3    3    0  502 -0.33720270123E+02  0.14114796635E+02  0.80784367869E+02  0.88670165181E+02  0.00000000000E+00 0.  1.
         11    1    5    5    0    0 -0.40283825431E+02 -0.71807260350E+02  0.23164504619E+02  0.85531652063E+02  0.00000000000E+00 0. -1.
        -11    1    5    5    0    0 -0.11956313726E+03 -0.24229405126E+03  0.26802811855E+03  0.38057958879E+03  0.00000000000E+00 0.  1.
          1    1    6    6  503    0  0.76131877235E+02  0.20742488982E+02  0.74026650742E+01  0.79253473303E+02  0.00000000000E+00 0. -1.
         -1    1    6    6    0  503  0.32507048974E+03  0.30341932366E+03  0.79774147591E+02  0.45177209287E+03  0.00000000000E+00 0.  1.
<mgrwt>
<rscale>  0 0.12024479E+04</rscale>
<asrwt>0</asrwt>
<pdfrwt beam="1">  1        2 0.15397798E+00 0.12024479E+04</pdfrwt>
<pdfrwt beam="2">  1       -1 0.55563193E-01 0.12024479E+04</pdfrwt>
<totfact> 0.92721855E+01</totfact>
</mgrwt>
</event>
<event>
12    6  0.1450532E-007  0.1174410E+04  0.7818608E-02  0.9135555E-01
          2   -1    0    0  501    0  0.00000000000E+00  0.00000000000E+00  0.32116817525E+03  0.32116817525E+03  0.00000000000E+00 0. -1.
         -1   -1    0    0    0  501 -0.00000000000E+00 -0.00000000000E+00 -0.10736110761E+04  0.10736110761E+04  0.00000000000E+00 0.  1.
         24    2    1    2    0    0  0.36668811759E+02  0.22053475525E+03 -0.11266906340E+03  0.26114018591E+03  0.74294675575E+02 0.  0.
        254    2    1    2    0    0 -0.36668811759E+02 -0.22053475525E+03 -0.63977383741E+03  0.11336390654E+04  0.90876112788E+03 0.  0.
         23    2    4    4    0    0  0.12350004274E+03 -0.28045012502E+03 -0.81270159099E+03  0.87354131666E+03  0.93198834396E+02 0.  0.
         23    2    4    4    0    0 -0.16016885450E+03  0.59915369768E+02  0.17292775359E+03  0.26009774874E+03  0.92211265345E+02 0.  0.
          4    1    3    3  502    0  0.48738582987E+02  0.15350629156E+03 -0.50138292475E+02  0.16868159174E+03  0.00000000000E+00 0. -1.
         -3    1    3    3    0  502 -0.12069771229E+02  0.67028463687E+02 -0.62530770930E+02  0.92458594164E+02  0.00000000000E+00 0.  1.
         11    1    5    5    0    0  0.63042120213E+02 -0.51267019764E+02 -0.25275044292E+03  0.26549087109E+03  0.00000000000E+00 0. -1.
        -11    1    5    5    0    0  0.60457922525E+02 -0.22918310525E+03 -0.55995114807E+03  0.60805044557E+03  0.00000000000E+00 0.  1.
          4    1    6    6  503    0 -0.14283032163E+03  0.14328577431E+02  0.14432243559E+03  0.20355533480E+03  0.00000000000E+00 0. -1.
         -4    1    6    6    0  503 -0.17338532864E+02  0.45586792338E+02  0.28605317991E+02  0.56542413946E+02  0.00000000000E+00 0.  1.
<mgrwt>
<rscale>  0 0.11744100E+04</rscale>
<asrwt>0</asrwt>
<pdfrwt beam="1">  1        2 0.49410489E-01 0.11744100E+04</pdfrwt>
<pdfrwt beam="2">  1       -1 0.16517093E+00 0.11744100E+04</pdfrwt>
<totfact> 0.30780470E+01</totfact>
</mgrwt>
</event>
<event>
12    6  0.1450532E-007  0.1216029E+04  0.7818608E-02  0.9098941E-01
         -1   -1    0    0    0  501 -0.00000000000E+00  0.00000000000E+00  0.16322673474E+03  0.16322673474E+03  0.00000000000E+00 0.  1.
          2   -1    0    0  501    0  0.00000000000E+00 -0.00000000000E+00 -0.22648332876E+04  0.22648332876E+04  0.00000000000E+00 0. -1.
         24    2    1    2    0    0 -0.13500233984E+03 -0.15743700655E+03 -0.80895754096E+03  0.83919600455E+03  0.82617117946E+02 0.  0.
        254    2    1    2    0    0  0.13500233984E+03  0.15743700655E+03 -0.12926490119E+04  0.15888640178E+04  0.90029737102E+03 0.  0.
         23    2    4    4    0    0 -0.10412518324E+03  0.12512753847E+03  0.72637783082E+02  0.19963581644E+03  0.89884687276E+02 0.  0.
         23    2    4    4    0    0  0.23912752309E+03  0.32309468079E+02 -0.13652867950E+04  0.13892282014E+04  0.87869726523E+02 0.  0.
          4    1    3    3  502    0 -0.15762663074E+02 -0.35865691776E+02 -0.29905995664E+03  0.30161509754E+03  0.00000000000E+00 0. -1.
         -3    1    3    3    0  502 -0.11923967677E+03 -0.12157131477E+03 -0.50989758432E+03  0.53758090701E+03  0.00000000000E+00 0.  1.
         11    1    5    5    0    0 -0.87147934185E+02  0.68645510430E+02  0.84528737829E+02  0.13947069962E+03  0.00000000000E+00 0.  1.
        -11    1    5    5    0    0 -0.16977249059E+02  0.56482028037E+02 -0.11890954746E+02  0.60165116817E+02  0.00000000000E+00 0. -1.
          2    1    6    6  503    0  0.29518840965E+02  0.11323487137E+02 -0.68518793595E+02  0.75461304048E+02  0.00000000000E+00 0. -1.
         -2    1    6    6    0  503  0.20960868212E+03  0.20985980942E+02 -0.12967680014E+04  0.13137668973E+04  0.00000000000E+00 0.  1.
<mgrwt>
<rscale>  0 0.12160285E+04</rscale>
<asrwt>0</asrwt>
<pdfrwt beam="1">  1        2 0.34843588E+00 0.12160285E+04</pdfrwt>
<pdfrwt beam="2">  1       -1 0.25111806E-01 0.12160285E+04</pdfrwt>
<totfact> 0.74333661E+01</totfact>
</mgrwt>
</event>
<event>
12    6  0.1450532E-007  0.2044871E+04  0.7818608E-02  0.8585925E-01
         -1   -1    0    0    0  501 -0.00000000000E+00  0.00000000000E+00  0.13419935824E+04  0.13419935824E+04  0.00000000000E+00 0.  1.
          2   -1    0    0  501    0  0.00000000000E+00 -0.00000000000E+00 -0.77897105448E+03  0.77897105448E+03  0.00000000000E+00 0. -1.
         24    2    1    2    0    0 -0.77980661084E+03  0.21027466055E+03  0.99493058820E+02  0.81787378768E+03  0.81883335585E+02 0.  0.
        254    2    1    2    0    0  0.77980661084E+03 -0.21027466055E+03  0.46352946911E+03  0.13030908492E+04  0.91152202902E+03 0.  0.
         23    2    4    4    0    0  0.22149413996E+03 -0.15378053666E+03  0.64631537237E+03  0.70619445857E+03  0.90988709594E+02 0.  0.
         23    2    4    4    0    0  0.55831247088E+03 -0.56494123898E+02 -0.18278590325E+03  0.59689639064E+03  0.89276052513E+02 0.  0.
          4    1    3    3  502    0 -0.60694477635E+03  0.12982158640E+03  0.87745939615E+02  0.62684524067E+03  0.00000000000E+00 0. -1.
         -3    1    3    3    0  502 -0.17286183449E+03  0.80453074153E+02  0.11747119204E+02  0.19102854701E+03  0.00000000000E+00 0.  1.
         11    1    5    5    0    0  0.16645444395E+03 -0.90300797833E+02  0.52917423212E+03  0.56203797376E+03  0.00000000000E+00 0.  1.
        -11    1    5    5    0    0  0.55039696008E+02 -0.63479738824E+02  0.11714114024E+03  0.14415648482E+03  0.00000000000E+00 0. -1.
          3    1    6    6  503    0  0.13468180006E+03 -0.48092766933E+02 -0.27547682518E+02  0.14563988571E+03  0.00000000000E+00 0. -1.
         -3    1    6    6    0  503  0.42363067082E+03 -0.84013569649E+01 -0.15523822074E+03  0.45125650492E+03  0.00000000000E+00 0.  1.
<mgrwt>
<rscale>  0 0.20448708E+04</rscale>
<asrwt>0</asrwt>
<pdfrwt beam="1">  1        2 0.11984170E+00 0.20448708E+04</pdfrwt>
<pdfrwt beam="2">  1       -1 0.20646055E+00 0.20448708E+04</pdfrwt>
<totfact> 0.51224953E+00</totfact>
</mgrwt>
</event>
<event>
12    6  0.1450532E-007  0.1275520E+04  0.7818608E-02  0.9049206E-01
          2   -1    0    0  501    0  0.00000000000E+00  0.00000000000E+00  0.85416208318E+03  0.85416208318E+03  0.00000000000E+00 0. -1.
         -1   -1    0    0    0  501 -0.00000000000E+00 -0.00000000000E+00 -0.47618350710E+03  0.47618350710E+03  0.00000000000E+00 0.  1.
         24    2    1    2    0    0 -0.25182530745E+03 -0.46579838729E+02  0.30279484212E+03  0.40538845785E+03  0.84079834045E+02 0.  0.
        254    2    1    2    0    0  0.25182530745E+03  0.46579838729E+02  0.75183733960E+02  0.92495713243E+03  0.88561133469E+03 0.  0.
         23    2    4    4    0    0  0.45074868072E+02 -0.48914359697E+02 -0.38584335746E+03  0.40222062167E+03  0.92097631300E+02 0.  0.
         23    2    4    4    0    0  0.20675043937E+03  0.95494198426E+02  0.46102709142E+03  0.52273651075E+03  0.94035070797E+02 0.  0.
          4    1    3    3  502    0 -0.17611501716E+03 -0.65639268564E+02  0.18247395449E+03  0.26195754793E+03  0.00000000000E+00 0. -1.
         -3    1    3    3    0  502 -0.75710290286E+02  0.19059429835E+02  0.12032088763E+03  0.14343090992E+03  0.00000000000E+00 0.  1.
         11    1    5    5    0    0  0.70050823188E+02 -0.43426890844E+02 -0.33874987118E+03  0.34863231047E+03  0.00000000000E+00 0. -1.
        -11    1    5    5    0    0 -0.24975955116E+02 -0.54874688530E+01 -0.47093486278E+02  0.53588311208E+02  0.00000000000E+00 0.  1.
          2    1    6    6  503    0  0.14333044594E+03  0.10269612562E+03  0.38508802430E+03  0.42353618194E+03  0.00000000000E+00 0. -1.
         -2    1    6    6    0  503  0.63419993437E+02 -0.72019271918E+01  0.75939067113E+02  0.99200328815E+02  0.00000000000E+00 0.  1.
<mgrwt>
<rscale>  0 0.12755201E+04</rscale>
<asrwt>0</asrwt>
<pdfrwt beam="1">  1        2 0.13140955E+00 0.12755201E+04</pdfrwt>
<pdfrwt beam="2">  1       -1 0.73259001E-01 0.12755201E+04</pdfrwt>
<totfact> 0.66365358E+01</totfact>
</mgrwt>
</event>
<event>
12    6  0.1450532E-007  0.2709136E+04  0.7818608E-02  0.8332047E-01
         -1   -1    0    0    0  501 -0.00000000000E+00  0.00000000000E+00  0.74399175918E+03  0.74399175918E+03  0.00000000000E+00 0.  1.
          2   -1    0    0  501    0  0.00000000000E+00 -0.00000000000E+00 -0.24662296936E+04  0.24662296936E+04  0.00000000000E+00 0. -1.
         24    2    1    2    0    0 -0.66603620001E+03 -0.19491151366E+03 -0.19291437838E+04  0.20518166588E+04  0.82226180505E+02 0.  0.
        254    2    1    2    0    0  0.66603620001E+03  0.19491151366E+03  0.20690584947E+03  0.11584047939E+04  0.90415536173E+03 0.  0.
         23    2    4    4    0    0  0.41743264532E+02  0.12873051373E+02 -0.30759136289E+03  0.32390367679E+03  0.91612934275E+02 0.  0.
         23    2    4    4    0    0  0.62429293547E+03  0.18203846229E+03  0.51449721236E+03  0.83450111712E+03  0.93835291432E+02 0.  0.
          4    1    3    3  502    0 -0.50406976009E+03 -0.16959968577E+03 -0.15516368321E+04  0.16402521864E+04  0.00000000000E+00 0. -1.
         -3    1    3    3    0  502 -0.16196643991E+03 -0.25311827888E+02 -0.37750695177E+03  0.41156447238E+03  0.00000000000E+00 0.  1.
         11    1    5    5    0    0  0.10190855097E+02  0.27680207100E+02 -0.23584378817E+02  0.37765994187E+02  0.00000000000E+00 0.  1.
        -11    1    5    5    0    0  0.31552409434E+02 -0.14807155727E+02 -0.28400698408E+03  0.28613768261E+03  0.00000000000E+00 0. -1.
          3    1    6    6  503    0  0.52005807226E+03  0.11530292966E+03  0.43084393504E+03  0.68511434117E+03  0.00000000000E+00 0. -1.
         -3    1    6    6    0  503  0.10423486321E+03  0.66735532626E+02  0.83653277319E+02  0.14938677595E+03  0.00000000000E+00 0.  1.
<mgrwt>
<rscale>  0 0.27091361E+04</rscale>
<asrwt>0</asrwt>
<pdfrwt beam="1">  1        2 0.37941995E+00 0.27091361E+04</pdfrwt>
<pdfrwt beam="2">  1       -1 0.11446027E+00 0.27091361E+04</pdfrwt>
<totfact> 0.25190819E+00</totfact>
</mgrwt>
</event>
<event>
12    6  0.1450532E-007  0.1799895E+04  0.7818608E-02  0.8706355E-01
         -1   -1    0    0    0  501 -0.00000000000E+00  0.00000000000E+00  0.28330631462E+03  0.28330631462E+03  0.00000000000E+00 0.  1.
          2   -1    0    0  501    0  0.00000000000E+00 -0.00000000000E+00 -0.28587634152E+04  0.28587634152E+04  0.00000000000E+00 0. -1.
         24    2    1    2    0    0  0.37777382078E+03 -0.38501660954E+03 -0.15618988993E+04  0.16548014122E+04  0.88818313109E+02 0.  0.
        254    2    1    2    0    0 -0.37777382078E+03  0.38501660954E+03 -0.10135582013E+04  0.14872683177E+04  0.94536552302E+03 0.  0.
         23    2    4    4    0    0 -0.18190643491E+03 -0.78683354521E+02 -0.94591139365E+03  0.97079203131E+03  0.91693958779E+02 0.  0.
         23    2    4    4    0    0 -0.19586738587E+03  0.46369996406E+03 -0.67646807676E+02  0.51647628641E+03  0.93754862873E+02 0.  0.
          2    1    3    3  502    0  0.18250870769E+03 -0.24589432081E+03 -0.91675225769E+03  0.96654443631E+03  0.00000000000E+00 0. -1.
         -1    1    3    3    0  502  0.19526511309E+03 -0.13912228873E+03 -0.64514664161E+03  0.68825697584E+03  0.00000000000E+00 0.  1.
         11    1    5    5    0    0 -0.89705301088E+02 -0.63245162798E+02 -0.32869943800E+03  0.34654049143E+03  0.00000000000E+00 0.  1.
        -11    1    5    5    0    0 -0.92201133822E+02 -0.15438191723E+02 -0.61721195564E+03  0.62425153987E+03  0.00000000000E+00 0. -1.
          3    1    6    6  503    0 -0.17494262184E+03  0.32517265730E+03 -0.25271590592E+02  0.37010921534E+03  0.00000000000E+00 0. -1.
         -3    1    6    6    0  503 -0.20924764034E+02  0.13852730677E+03 -0.42375217085E+02  0.14636707107E+03  0.00000000000E+00 0.  1.
<mgrwt>
<rscale>  0 0.17998952E+04</rscale>
<asrwt>0</asrwt>
<pdfrwt beam="1">  1        2 0.43980975E+00 0.17998952E+04</pdfrwt>
<pdfrwt beam="2">  1       -1 0.43585588E-01 0.17998952E+04</pdfrwt>
<totfact> 0.11933386E+01</totfact>
</mgrwt>
</event>
<event>
12    6  0.1450532E-007  0.1441911E+04  0.7818608E-02  0.8924028E-01
         -1   -1    0    0    0  501 -0.00000000000E+00  0.00000000000E+00  0.32697704416E+03  0.32697704416E+03  0.00000000000E+00 0.  1.
          2   -1    0    0  501    0  0.00000000000E+00 -0.00000000000E+00 -0.15896435068E+04  0.15896435068E+04  0.00000000000E+00 0. -1.
         24    2    1    2    0    0  0.33025517474E+02 -0.24937239769E+03  0.84722627244E+02  0.27676593529E+03  0.78384831673E+02 0.  0.
        254    2    1    2    0    0 -0.33025517474E+02  0.24937239769E+03 -0.13473890899E+04  0.16398546157E+04  0.90021582050E+03 0.  0.
         23    2    4    4    0    0  0.78021221185E+01 -0.29627920235E+03 -0.80981570224E+03  0.86718994702E+03  0.91513352894E+02 0.  0.
         23    2    4    4    0    0 -0.40827639593E+02  0.54565160004E+03 -0.53757338764E+03  0.77266466866E+03  0.92859993081E+02 0.  0.
          2    1    3    3  502    0  0.23030212300E+02 -0.12205842859E+03  0.82363836851E+02  0.14903842554E+03  0.00000000000E+00 0. -1.
         -1    1    3    3    0  502  0.99953051745E+01 -0.12731396910E+03  0.23587903935E+01  0.12772750975E+03  0.00000000000E+00 0.  1.
         11    1    5    5    0    0  0.37790338864E+02 -0.53545062432E+02 -0.16365367098E+03  0.17628870482E+03  0.00000000000E+00 0.  1.
        -11    1    5    5    0    0 -0.29988216746E+02 -0.24273413992E+03 -0.64616203126E+03  0.69090124219E+03  0.00000000000E+00 0. -1.
          3    1    6    6  503    0 -0.25897865215E+02  0.52359219992E+03 -0.48713891462E+03  0.71562826480E+03  0.00000000000E+00 0. -1.
         -3    1    6    6    0  503 -0.14929774378E+02  0.22059400116E+02 -0.50434473017E+02  0.57036403858E+02  0.00000000000E+00 0.  1.
<mgrwt>
<rscale>  0 0.14419111E+04</rscale>
<asrwt>0</asrwt>
<pdfrwt beam="1">  1        2 0.24456054E+00 0.14419111E+04</pdfrwt>
<pdfrwt beam="2">  1       -1 0.50304162E-01 0.14419111E+04</pdfrwt>
<totfact> 0.49572841E+01</totfact>
</mgrwt>
</event>
<event>
12    6  0.1450532E-007  0.1549666E+04  0.7818608E-02  0.8852081E-01
         -1   -1    0    0    0  501 -0.00000000000E+00  0.00000000000E+00  0.19529426702E+03  0.19529426702E+03  0.00000000000E+00 0.  1.
          2   -1    0    0  501    0  0.00000000000E+00 -0.00000000000E+00 -0.30741636785E+04  0.30741636785E+04  0.00000000000E+00 0. -1.
         24    2    1    2    0    0 -0.41145056981E+03 -0.27086020525E+02 -0.33286631215E+03  0.53567484579E+03  0.78245349688E+02 0.  0.
        254    2    1    2    0    0  0.41145056981E+03  0.27086020525E+02 -0.25460030993E+04  0.27337830997E+04  0.90631839363E+03 0.  0.
         23    2    4    4    0    0  0.41375011410E+03  0.26484742791E+03 -0.64978981964E+03  0.82060588519E+03  0.99165982623E+02 0.  0.
         23    2    4    4    0    0 -0.22995442894E+01 -0.23776140738E+03 -0.18962132797E+04  0.19131772145E+04  0.89924843152E+02 0.  0.
          2    1    3    3  502    0 -0.24067647475E+02  0.54061979609E+01 -0.47201294726E+02  0.53258246828E+02  0.00000000000E+00 0. -1.
         -1    1    3    3    0  502 -0.38738292233E+03 -0.32492218486E+02 -0.28566501742E+03  0.48241659896E+03  0.00000000000E+00 0.  1.
         11    1    5    5    0    0  0.29452074500E+03  0.15047100771E+03 -0.48679319220E+03  0.58851644444E+03  0.00000000000E+00 0. -1.
        -11    1    5    5    0    0  0.11922936910E+03  0.11437642019E+03 -0.16299662744E+03  0.23208944075E+03  0.00000000000E+00 0.  1.
          4    1    6    6  503    0 -0.37057576539E+02 -0.46320404336E+02 -0.48483288453E+03  0.48844832864E+03  0.00000000000E+00 0. -1.
         -4    1    6    6    0  503  0.34758032249E+02 -0.19144100304E+03 -0.14113803952E+04  0.14247288859E+04  0.00000000000E+00 0.  1.
<mgrwt>
<rscale>  0 0.15496665E+04</rscale>
<asrwt>0</asrwt>
<pdfrwt beam="1">  1        2 0.47294822E+00 0.15496665E+04</pdfrwt>
<pdfrwt beam="2">  1       -1 0.30045274E-01 0.15496665E+04</pdfrwt>
<totfact> 0.17565737E+01</totfact>
</mgrwt>
</event>
<event>
12    6  0.1450532E-007  0.1344771E+04  0.7818608E-02  0.8994796E-01
          2   -1    0    0  501    0  0.00000000000E+00  0.00000000000E+00  0.21753502229E+04  0.21753502229E+04  0.00000000000E+00 0. -1.
         -1   -1    0    0    0  501 -0.00000000000E+00 -0.00000000000E+00 -0.20782977098E+03  0.20782977098E+03  0.00000000000E+00 0.  1.
         24    2    1    2    0    0  0.25782355688E+03  0.70952768304E+02  0.10066114526E+04  0.10445047808E+04  0.78843761809E+02 0.  0.
        254    2    1    2    0    0 -0.25782355688E+03 -0.70952768304E+02  0.96090899930E+03  0.13386752131E+04  0.89285941747E+03 0.  0.
         23    2    4    4    0    0 -0.13152210174E+03 -0.29396167392E+02  0.11083788187E+04  0.11204004577E+04  0.92905231541E+02 0.  0.
         23    2    4    4    0    0 -0.12630145514E+03 -0.41556600912E+02 -0.14746981938E+03  0.21827475537E+03  0.90650496713E+02 0.  0.
          4    1    3    3  502    0  0.25551632750E+03  0.64694153211E+02  0.10027160179E+04  0.10367802755E+04  0.00000000000E+00 0. -1.
         -3    1    3    3    0  502  0.23072293799E+01  0.62586150936E+01  0.38954346396E+01  0.77245052484E+01  0.00000000000E+00 0.  1.
         11    1    5    5    0    0 -0.71450376622E+02  0.31550233634E+02  0.52399195825E+03  0.52978122454E+03  0.00000000000E+00 0. -1.
        -11    1    5    5    0    0 -0.60071725116E+02 -0.60946401027E+02  0.58438686043E+03  0.59061923318E+03  0.00000000000E+00 0.  1.
          1    1    6    6  503    0 -0.11595872813E+03 -0.19835667034E+02 -0.15357373096E+03  0.19345482976E+03  0.00000000000E+00 0. -1.
         -1    1    6    6    0  503 -0.10342727014E+02 -0.21720933878E+02  0.61039115856E+01  0.24819925610E+02  0.00000000000E+00 0.  1.
<mgrwt>
<rscale>  0 0.13447714E+04</rscale>
<asrwt>0</asrwt>
<pdfrwt beam="1">  1        2 0.33466925E+00 0.13447714E+04</pdfrwt>
<pdfrwt beam="2">  1       -1 0.31973813E-01 0.13447714E+04</pdfrwt>
<totfact> 0.54196696E+01</totfact>
</mgrwt>
</event>
<event>
12    6  0.1450532E-007  0.4583690E+04  0.7818608E-02  0.7896147E-01
         -1   -1    0    0    0  501 -0.00000000000E+00  0.00000000000E+00  0.13996010151E+04  0.13996010151E+04  0.00000000000E+00 0.  1.
          2   -1    0    0  501    0  0.00000000000E+00 -0.00000000000E+00 -0.37528930023E+04  0.37528930023E+04  0.00000000000E+00 0. -1.
         24    2    1    2    0    0 -0.10950241026E+04  0.19023994475E+04 -0.13325113182E+04  0.25691328994E+04  0.81584304165E+02 0.  0.
        254    2    1    2    0    0  0.10950241026E+04 -0.19023994475E+04 -0.10207806689E+04  0.25833611180E+04  0.90197563640E+03 0.  0.
         23    2    4    4    0    0  0.78904497834E+03 -0.18912745902E+04 -0.84672525826E+03  0.22190972585E+04  0.89092235851E+02 0.  0.
         23    2    4    4    0    0  0.30597912422E+03 -0.11124857365E+02 -0.17405541068E+03  0.36426385947E+03  0.92983258832E+02 0.  0.
          4    1    3    3  502    0 -0.49930418464E+03  0.84672503102E+03 -0.64267037095E+03  0.11744246049E+04  0.00000000000E+00 0. -1.
         -3    1    3    3    0  502 -0.59571991792E+03  0.10556744165E+04 -0.68984094727E+03  0.13947082945E+04  0.00000000000E+00 0.  1.
         11    1    5    5    0    0  0.19503383975E+03 -0.37452163499E+03 -0.17854290983E+03  0.45845634947E+03  0.00000000000E+00 0.  1.
        -11    1    5    5    0    0  0.59401113858E+03 -0.15167529552E+04 -0.66818234842E+03  0.17606409090E+04  0.00000000000E+00 0. -1.
          1    1    6    6  503    0  0.24957642726E+03  0.27390188078E+02 -0.14591019070E+03  0.29039352471E+03  0.00000000000E+00 0. -1.
         -1    1    6    6    0  503  0.56402696961E+02 -0.38515045442E+02 -0.28145219980E+02  0.73870334761E+02  0.00000000000E+00 0.  1.
<mgrwt>
<rscale>  0 0.45836897E+04</rscale>
<asrwt>0</asrwt>
<pdfrwt beam="1">  1        2 0.57736814E+00 0.45836897E+04</pdfrwt>
<pdfrwt beam="2">  1       -1 0.21532324E+00 0.45836897E+04</pdfrwt>
<totfact> 0.53707601E-02</totfact>
</mgrwt>
</event>
<event>
12    6  0.1450532E-007  0.1347902E+04  0.7818608E-02  0.8992418E-01
          2   -1    0    0  501    0  0.00000000000E+00  0.00000000000E+00  0.23536298741E+04  0.23536298741E+04  0.00000000000E+00 0. -1.
         -1   -1    0    0    0  501 -0.00000000000E+00 -0.00000000000E+00 -0.19298284404E+03  0.19298284404E+03  0.00000000000E+00 0.  1.
         24    2    1    2    0    0  0.77843894138E+01 -0.15348576188E+03 -0.15703951061E+02  0.16968136372E+03  0.70190279214E+02 0.  0.
        254    2    1    2    0    0 -0.77843894138E+01  0.15348576188E+03  0.21763509812E+04  0.23769313545E+04  0.94322881363E+03 0.  0.
         23    2    4    4    0    0 -0.29207980467E+03 -0.27723383939E+03  0.72386498013E+03  0.83284363716E+03  0.86480058428E+02 0.  0.
         23    2    4    4    0    0  0.28429541525E+03  0.43071960127E+03  0.14524860010E+04  0.15440877173E+04  0.90266480476E+02 0.  0.
          2    1    3    3  502    0 -0.29597581746E+02 -0.61513904386E+02  0.43314187455E+01  0.68401304566E+02  0.00000000000E+00 0. -1.
         -1    1    3    3    0  502  0.37381971160E+02 -0.91971857493E+02 -0.20035369807E+02  0.10128005915E+03  0.00000000000E+00 0.  1.
         11    1    5    5    0    0 -0.19474963172E+03 -0.14631585676E+03  0.36730058941E+03  0.44073288053E+03  0.00000000000E+00 0.  1.
        -11    1    5    5    0    0 -0.97330172947E+02 -0.13091798263E+03  0.35656439071E+03  0.39211075663E+03  0.00000000000E+00 0. -1.
          2    1    6    6  503    0  0.34587021369E+00  0.16848661340E+02  0.10130666393E+03  0.10269876909E+03  0.00000000000E+00 0. -1.
         -2    1    6    6    0  503  0.28394954504E+03  0.41387093993E+03  0.13511793371E+04  0.14413889482E+04  0.00000000000E+00 0.  1.
<mgrwt>
<rscale>  0 0.13479024E+04</rscale>
<asrwt>0</asrwt>
<pdfrwt beam="1">  1        2 0.36209688E+00 0.13479024E+04</pdfrwt>
<pdfrwt beam="2">  1       -1 0.29689670E-01 0.13479024E+04</pdfrwt>
<totfact> 0.49007522E+01</totfact>
</mgrwt>
</event>
<event>
12    6  0.1450532E-007  0.1095629E+04  0.7818608E-02  0.9209463E-01
          2   -1    0    0  501    0  0.00000000000E+00  0.00000000000E+00  0.85161736031E+03  0.85161736031E+03  0.00000000000E+00 0. -1.
         -1   -1    0    0    0  501 -0.00000000000E+00 -0.00000000000E+00 -0.35238904843E+03  0.35238904843E+03  0.00000000000E+00 0.  1.
         24    2    1    2    0    0 -0.61872284329E+02 -0.13617481542E+03  0.53092162013E+01  0.16968521898E+03  0.79957024961E+02 0.  0.
        254    2    1    2    0    0  0.61872284329E+02  0.13617481542E+03  0.49391909567E+03  0.10343211898E+04  0.89637742642E+03 0.  0.
         23    2    4    4    0    0 -0.28327244794E+03 -0.16697444393E+03  0.44545270064E+03  0.56280698577E+03  0.10099430694E+03 0.  0.
         23    2    4    4    0    0  0.34514473227E+03  0.30314925935E+03  0.48466395029E+02  0.47151420399E+03  0.94616560163E+02 0.  0.
          4    1    3    3  502    0  0.82179744146E+01 -0.66830308730E+02  0.19433519373E+02  0.70082001567E+02  0.00000000000E+00 0. -1.
         -3    1    3    3    0  502 -0.70090258743E+02 -0.69344506693E+02 -0.14124303172E+02  0.99603217414E+02  0.00000000000E+00 0.  1.
         11    1    5    5    0    0 -0.11233274313E+03 -0.33663426587E+02  0.22443427768E+03  0.25322443891E+03  0.00000000000E+00 0. -1.
        -11    1    5    5    0    0 -0.17093970481E+03 -0.13331101734E+03  0.22101842297E+03  0.30958254685E+03  0.00000000000E+00 0.  1.
          1    1    6    6  503    0  0.29037698140E+02 -0.25508085803E+01  0.56182463840E+01  0.29686010680E+02  0.00000000000E+00 0. -1.
         -1    1    6    6    0  503  0.31610703413E+03  0.30570006793E+03  0.42848148645E+02  0.44182819331E+03  0.00000000000E+00 0.  1.
<mgrwt>
<rscale>  0 0.10956288E+04</rscale>
<asrwt>0</asrwt>
<pdfrwt beam="1">  1        2 0.13101806E+00 0.10956288E+04</pdfrwt>
<pdfrwt beam="2">  1       -1 0.54213700E-01 0.10956288E+04</pdfrwt>
<totfact> 0.12324835E+02</totfact>
</mgrwt>
</event>
<event>
12    6  0.1450532E-007  0.2382831E+04  0.7818608E-02  0.8445959E-01
         -1   -1    0    0    0  501 -0.00000000000E+00  0.00000000000E+00  0.79693829480E+03  0.79693829480E+03  0.00000000000E+00 0.  1.
          2   -1    0    0  501    0  0.00000000000E+00 -0.00000000000E+00 -0.17811551711E+04  0.17811551711E+04  0.00000000000E+00 0. -1.
         24    2    1    2    0    0  0.83422351717E+03 -0.59409602768E+03 -0.40796075729E+03  0.11054177573E+04  0.81470681802E+02 0.  0.
        254    2    1    2    0    0 -0.83422351717E+03  0.59409602768E+03 -0.57625611897E+03  0.14726757085E+04  0.88759431115E+03 0.  0.
         23    2    4    4    0    0 -0.28797927807E+03  0.71894571953E+03 -0.25367725639E+03  0.81985042501E+03  0.89373132168E+02 0.  0.
         23    2    4    4    0    0 -0.54624423910E+03 -0.12484969185E+03 -0.32257886258E+03  0.65282528353E+03  0.90296810232E+02 0.  0.
          2    1    3    3  502    0  0.44570366651E+03 -0.34990818015E+03 -0.19234334516E+03  0.59840074808E+03  0.00000000000E+00 0. -1.
         -1    1    3    3    0  502  0.38851985065E+03 -0.24418784753E+03 -0.21561741214E+03  0.50701700923E+03  0.00000000000E+00 0.  1.
         11    1    5    5    0    0 -0.24629398527E+03  0.63871782580E+03 -0.25186073104E+03  0.72942101424E+03  0.00000000000E+00 0. -1.
        -11    1    5    5    0    0 -0.41685292801E+02  0.80227893724E+02 -0.18165253511E+01  0.90429410767E+02  0.00000000000E+00 0.  1.
          1    1    6    6  503    0 -0.35934471469E+03 -0.11992172176E+03 -0.23987202306E+03  0.44838424457E+03  0.00000000000E+00 0. -1.
         -1    1    6    6    0  503 -0.18689952440E+03 -0.49279700900E+01 -0.82706839517E+02  0.20444103897E+03  0.00000000000E+00 0.  1.
<mgrwt>
<rscale>  0 0.23828309E+04</rscale>
<asrwt>0</asrwt>
<pdfrwt beam="1">  1        2 0.27402387E+00 0.23828309E+04</pdfrwt>
<pdfrwt beam="2">  1       -1 0.12260589E+00 0.23828309E+04</pdfrwt>
<totfact> 0.53205162E+00</totfact>
</mgrwt>
</event>
<event>
12    6  0.1450532E-007  0.1934472E+04  0.7818608E-02  0.8637885E-01
          2   -1    0    0  501    0  0.00000000000E+00  0.00000000000E+00  0.66733863262E+03  0.66733863262E+03  0.00000000000E+00 0. -1.
         -1   -1    0    0    0  501 -0.00000000000E+00 -0.00000000000E+00 -0.14019052884E+04  0.14019052884E+04  0.00000000000E+00 0.  1.
         24    2    1    2    0    0  0.36051863445E+03  0.22697246278E+03 -0.95698786869E+03  0.10506587684E+04  0.81042470751E+02 0.  0.
        254    2    1    2    0    0 -0.36051863445E+03 -0.22697246278E+03  0.22242121289E+03  0.10185851527E+04  0.89808370026E+03 0.  0.
         23    2    4    4    0    0 -0.59266543019E+03 -0.62912617553E+02 -0.62947897408E+02  0.60615545767E+03  0.90838821441E+02 0.  0.
         23    2    4    4    0    0  0.23214679574E+03 -0.16405984523E+03  0.28536911030E+03  0.41242969502E+03  0.88628193187E+02 0.  0.
          2    1    3    3  502    0  0.30153823169E+03  0.18657815203E+03 -0.85947227297E+03  0.92974690104E+03  0.00000000000E+00 0. -1.
         -1    1    3    3    0  502  0.58980402758E+02  0.40394310748E+02 -0.97515595719E+02  0.12091186732E+03  0.00000000000E+00 0.  1.
         11    1    5    5    0    0 -0.15147109516E+03  0.82159670476E+01  0.15308253747E+02  0.15246421684E+03  0.00000000000E+00 0.  1.
        -11    1    5    5    0    0 -0.44119433503E+03 -0.71128584601E+02 -0.78256151155E+02  0.45369124083E+03  0.00000000000E+00 0. -1.
          1    1    6    6  503    0  0.19730631013E+03 -0.94257084746E+02  0.22533000290E+03  0.31398692369E+03  0.00000000000E+00 0. -1.
         -1    1    6    6    0  503  0.34840485607E+02 -0.69802760481E+02  0.60039107404E+02  0.98442771324E+02  0.00000000000E+00 0.  1.
<mgrwt>
<rscale>  0 0.19344721E+04</rscale>
<asrwt>0</asrwt>
<pdfrwt beam="1">  1        2 0.10266748E+00 0.19344721E+04</pdfrwt>
<pdfrwt beam="2">  1       -1 0.21567774E+00 0.19344721E+04</pdfrwt>
<totfact> 0.54593281E+00</totfact>
</mgrwt>
</event>
<event>
12    6  0.1450532E-007  0.1092726E+04  0.7818608E-02  0.9212310E-01
          2   -1    0    0  501    0  0.00000000000E+00  0.00000000000E+00  0.70701262020E+03  0.70701262020E+03  0.00000000000E+00 0. -1.
         -1   -1    0    0    0  501 -0.00000000000E+00 -0.00000000000E+00 -0.42221705372E+03  0.42221705372E+03  0.00000000000E+00 0.  1.
         24    2    1    2    0    0  0.35744344766E+02 -0.37026559326E+02 -0.10533843845E+03  0.14213873728E+03  0.80365476052E+02 0.  0.
        254    2    1    2    0    0 -0.35744344766E+02  0.37026559326E+02  0.39013400493E+03  0.98709093665E+03  0.90525982520E+03 0.  0.
         23    2    4    4    0    0  0.38106109589E+03  0.63071102402E+02 -0.16475683596E+02  0.39722752471E+03  0.91283818238E+02 0.  0.
         23    2    4    4    0    0 -0.41680544066E+03 -0.26044543076E+02  0.40660968853E+03  0.58986341194E+03  0.90566618315E+02 0.  0.
          4    1    3    3  502    0  0.42534927216E+02  0.12576045757E+02 -0.59852402961E+02  0.74496222054E+02  0.00000000000E+00 0. -1.
         -3    1    3    3    0  502 -0.67905824508E+01 -0.49602605083E+02 -0.45486035494E+02  0.67642515225E+02  0.00000000000E+00 0.  1.
         11    1    5    5    0    0  0.28424324792E+03  0.55446156049E+02  0.26932703367E+02  0.29085025480E+03  0.00000000000E+00 0.  1.
        -11    1    5    5    0    0  0.96817847974E+02  0.76249463533E+01 -0.43408386963E+02  0.10637726990E+03  0.00000000000E+00 0. -1.
          3    1    6    6  503    0 -0.12017756041E+03  0.22356702863E+02  0.80423947499E+02  0.14632320226E+03  0.00000000000E+00 0. -1.
         -3    1    6    6    0  503 -0.29662788025E+03 -0.48401245939E+02  0.32618574103E+03  0.44354020968E+03  0.00000000000E+00 0.  1.
<mgrwt>
<rscale>  0 0.10927265E+04</rscale>
<asrwt>0</asrwt>
<pdfrwt beam="1">  1        2 0.10877117E+00 0.10927265E+04</pdfrwt>
<pdfrwt beam="2">  1       -1 0.64956470E-01 0.10927265E+04</pdfrwt>
<totfact> 0.11030848E+02</totfact>
</mgrwt>
</event>
<event>
12    6  0.1450532E-007  0.3357978E+04  0.7818608E-02  0.8148298E-01
         -1   -1    0    0    0  501 -0.00000000000E+00  0.00000000000E+00  0.12470520064E+04  0.12470520064E+04  0.00000000000E+00 0.  1.
          2   -1    0    0  501    0  0.00000000000E+00 -0.00000000000E+00 -0.22605340493E+04  0.22605340493E+04  0.00000000000E+00 0. -1.
         24    2    1    2    0    0  0.92269750543E+03  0.36723564622E+03  0.78100138098E+03  0.12657425059E+04  0.76864996670E+02 0.  0.
        254    2    1    2    0    0 -0.92269750543E+03 -0.36723564622E+03 -0.17944834238E+04  0.22418435498E+04  0.90523976758E+03 0.  0.
         23    2    4    4    0    0 -0.93045020135E+03  0.66956259179E+01 -0.14492236363E+04  0.17248371771E+04  0.95035419495E+02 0.  0.
         23    2    4    4    0    0  0.77526959232E+01 -0.37393127214E+03 -0.34525978751E+03  0.51700637262E+03  0.90590109188E+02 0.  0.
          2    1    3    3  502    0  0.32165266137E+03  0.95215551007E+02  0.28860440028E+03  0.44251433376E+03  0.00000000000E+00 0. -1.
         -3    1    3    3    0  502  0.60104484406E+03  0.27202009521E+03  0.49239698070E+03  0.82322817212E+03  0.00000000000E+00 0.  1.
         11    1    5    5    0    0 -0.26039674242E+03 -0.22720136362E+02 -0.47299302774E+03  0.54041194690E+03  0.00000000000E+00 0.  1.
        -11    1    5    5    0    0 -0.67005345893E+03  0.29415762280E+02 -0.97623060860E+03  0.11844252303E+04  0.00000000000E+00 0. -1.
          1    1    6    6  503    0  0.85095691530E+01 -0.26337890924E+03 -0.29501668789E+03  0.39557010597E+03  0.00000000000E+00 0. -1.
         -1    1    6    6    0  503 -0.75687322977E+00 -0.11055236290E+03 -0.50243099612E+02  0.12143626665E+03  0.00000000000E+00 0.  1.
<mgrwt>
<rscale>  0 0.33579777E+04</rscale>
<asrwt>0</asrwt>
<pdfrwt beam="1">  1        2 0.34777447E+00 0.33579777E+04</pdfrwt>
<pdfrwt beam="2">  1       -1 0.19185415E+00 0.33579777E+04</pdfrwt>
<totfact> 0.77354954E-01</totfact>
</mgrwt>
</event>
<event>
12    6  0.1450532E-007  0.1282606E+04  0.7818608E-02  0.9043474E-01
         -1   -1    0    0    0  501 -0.00000000000E+00  0.00000000000E+00  0.87433745031E+03  0.87433745031E+03  0.00000000000E+00 0.  1.
          2   -1    0    0  501    0  0.00000000000E+00 -0.00000000000E+00 -0.47037856406E+03  0.47037856406E+03  0.00000000000E+00 0. -1.
         24    2    1    2    0    0 -0.15823718490E+03 -0.25552627691E+03  0.20907859105E+01  0.31087566224E+03  0.79414237438E+02 0.  0.
        254    2    1    2    0    0  0.15823718490E+03  0.25552627691E+03  0.40186810035E+03  0.10338403521E+04  0.90387787822E+03 0.  0.
         23    2    4    4    0    0 -0.27546279381E+03  0.38533993149E+03  0.13608778825E+03  0.50155526134E+03  0.93119173602E+02 0.  0.
         23    2    4    4    0    0  0.43369997872E+03 -0.12981365458E+03  0.26578031210E+03  0.53228509079E+03  0.87982879716E+02 0.  0.
          4    1    3    3  502    0 -0.12135200987E+03 -0.24129840803E+03  0.11119485777E+02  0.27032364858E+03  0.00000000000E+00 0. -1.
         -3    1    3    3    0  502 -0.36885175038E+02 -0.14227868878E+02 -0.90286998669E+01  0.40552013657E+02  0.00000000000E+00 0.  1.
         11    1    5    5    0    0 -0.17084858248E+03  0.27994959475E+03  0.55587566167E+02  0.33264243754E+03  0.00000000000E+00 0. -1.
        -11    1    5    5    0    0 -0.10461421134E+03  0.10539033674E+03  0.80500222083E+02  0.16891282381E+03  0.00000000000E+00 0.  1.
          3    1    6    6  503    0  0.43273637923E+03 -0.12302397858E+03  0.26955475303E+03  0.52445727957E+03  0.00000000000E+00 0. -1.
         -3    1    6    6    0  503  0.96359948504E+00 -0.67896759984E+01 -0.37744409287E+01  0.78278112174E+01  0.00000000000E+00 0.  1.
<mgrwt>
<rscale>  0 0.12826061E+04</rscale>
<asrwt>0</asrwt>
<pdfrwt beam="1">  1        2 0.72365933E-01 0.12826061E+04</pdfrwt>
<pdfrwt beam="2">  1       -1 0.13451345E+00 0.12826061E+04</pdfrwt>
<totfact> 0.34500755E+01</totfact>
</mgrwt>
</event>
<event>
12    6  0.1450532E-007  0.1607428E+04  0.7818608E-02  0.8815997E-01
         -1   -1    0    0    0  501 -0.00000000000E+00  0.00000000000E+00  0.17416957611E+04  0.17416957611E+04  0.00000000000E+00 0.  1.
          2   -1    0    0  501    0  0.00000000000E+00 -0.00000000000E+00 -0.37087793393E+03  0.37087793393E+03  0.00000000000E+00 0. -1.
         24    2    1    2    0    0  0.89177795934E+02 -0.52551252670E+03  0.30164341733E+03  0.61758903261E+03  0.79444112247E+02 0.  0.
        254    2    1    2    0    0 -0.89177795934E+02  0.52551252670E+03  0.10691744098E+04  0.14949846624E+04  0.89873751849E+03 0.  0.
         23    2    4    4    0    0 -0.82325043929E+00 -0.18370185623E+03  0.60380776958E+03  0.63741852436E+03  0.89283273173E+02 0.  0.
         23    2    4    4    0    0 -0.88354545495E+02  0.70921438293E+03  0.46536664022E+03  0.85756613801E+03  0.89788666137E+02 0.  0.
          2    1    3    3  502    0  0.91165632634E+02 -0.50407947471E+03  0.26928217120E+03  0.57872288457E+03  0.00000000000E+00 0. -1.
         -1    1    3    3    0  502 -0.19878367000E+01 -0.21433051998E+02  0.32361246131E+02  0.38866148045E+02  0.00000000000E+00 0.  1.
         11    1    5    5    0    0 -0.73130153998E+01 -0.70006233495E+02  0.37824221779E+03  0.38473566021E+03  0.00000000000E+00 0. -1.
        -11    1    5    5    0    0  0.64897649605E+01 -0.11369562273E+03  0.22556555179E+03  0.25268286414E+03  0.00000000000E+00 0.  1.
          1    1    6    6  503    0 -0.16017543667E+02  0.22996383000E+03  0.10343831291E+03  0.25266461839E+03  0.00000000000E+00 0. -1.
         -1    1    6    6    0  503 -0.72337001828E+02  0.47925055294E+03  0.36192832731E+03  0.60490151962E+03  0.00000000000E+00 0.  1.
<mgrwt>
<rscale>  0 0.16074284E+04</rscale>
<asrwt>0</asrwt>
<pdfrwt beam="1">  1        2 0.57058145E-01 0.16074284E+04</pdfrwt>
<pdfrwt beam="2">  1       -1 0.26795319E+00 0.16074284E+04</pdfrwt>
<totfact> 0.50621253E+00</totfact>
</mgrwt>
</event>
<event>
12    6  0.1450532E-007  0.2305303E+04  0.7818608E-02  0.8475833E-01
         -1   -1    0    0    0  501 -0.00000000000E+00  0.00000000000E+00  0.72419397713E+03  0.72419397713E+03  0.00000000000E+00 0.  1.
          2   -1    0    0  501    0  0.00000000000E+00 -0.00000000000E+00 -0.18345987759E+04  0.18345987759E+04  0.00000000000E+00 0. -1.
         24    2    1    2    0    0 -0.48493514727E+03  0.81860830433E+02  0.45658488470E+03  0.67573095222E+03  0.79241846473E+02 0.  0.
        254    2    1    2    0    0  0.48493514727E+03 -0.81860830433E+02 -0.15669896835E+04  0.18830618008E+04  0.92119584505E+03 0.  0.
         23    2    4    4    0    0 -0.89507585194E+02 -0.35059757948E+03 -0.37040746172E+03  0.52558445626E+03  0.90039227101E+02 0.  0.
         23    2    4    4    0    0  0.57444273247E+03  0.26873674905E+03 -0.11965822217E+04  0.13574773445E+04  0.93444284902E+02 0.  0.
          2    1    3    3  502    0 -0.99014396922E+01  0.11480321642E+02  0.29067192799E+02  0.32783196766E+02  0.00000000000E+00 0. -1.
         -1    1    3    3    0  502 -0.47503370758E+03  0.70380508791E+02  0.42751769190E+03  0.64294775545E+03  0.00000000000E+00 0.  1.
         11    1    5    5    0    0 -0.23991979512E+02 -0.10243579451E+02 -0.30346408705E+02  0.40018127419E+02  0.00000000000E+00 0.  1.
        -11    1    5    5    0    0 -0.65515605683E+02 -0.34035400003E+03 -0.34006105302E+03  0.48556632884E+03  0.00000000000E+00 0. -1.
          1    1    6    6  503    0  0.42703072018E+03  0.17696735964E+03 -0.94216804370E+03  0.10494538127E+04  0.00000000000E+00 0. -1.
         -1    1    6    6    0  503  0.14741201229E+03  0.91769389405E+02 -0.25441417805E+03  0.30802353188E+03  0.00000000000E+00 0.  1.
<mgrwt>
<rscale>  0 0.23053029E+04</rscale>
<asrwt>0</asrwt>
<pdfrwt beam="1">  1        2 0.28224597E+00 0.23053029E+04</pdfrwt>
<pdfrwt beam="2">  1       -1 0.11141446E+00 0.23053029E+04</pdfrwt>
<totfact> 0.63053838E+00</totfact>
</mgrwt>
</event>
<event>
12    6  0.1450532E-007  0.1423675E+04  0.7818608E-02  0.8936857E-01
          2   -1    0    0  501    0  0.00000000000E+00  0.00000000000E+00  0.20322067509E+04  0.20322067509E+04  0.00000000000E+00 0. -1.
         -1   -1    0    0    0  501 -0.00000000000E+00 -0.00000000000E+00 -0.24934110875E+03  0.24934110875E+03  0.00000000000E+00 0.  1.
         24    2    1    2    0    0  0.23141204955E+03 -0.98946778761E+02  0.70111512616E+01  0.26398987656E+03  0.79369370538E+02 0.  0.
        254    2    1    2    0    0 -0.23141204955E+03  0.98946778761E+02  0.17758544909E+04  0.20175579831E+04  0.92387176633E+03 0.  0.
         23    2    4    4    0    0  0.20222043539E+03  0.26537222470E+03  0.13033935182E+04  0.13485741614E+04  0.92206742193E+02 0.  0.
         23    2    4    4    0    0 -0.43363248493E+03 -0.16642544594E+03  0.47246097269E+03  0.66898382172E+03  0.92657552093E+02 0.  0.
          4    1    3    3  502    0  0.65263801940E+01 -0.80482740613E+01  0.18448004669E+02  0.21158857012E+02  0.00000000000E+00 0. -1.
         -3    1    3    3    0  502  0.22488566935E+03 -0.90898504700E+02 -0.11436853407E+02  0.24283101954E+03  0.00000000000E+00 0.  1.
         11    1    5    5    0    0  0.50563746496E+02  0.13470248622E+03  0.61917051117E+03  0.63566781746E+03  0.00000000000E+00 0. -1.
        -11    1    5    5    0    0  0.15165668889E+03  0.13066973848E+03  0.68422300704E+03  0.71290634392E+03  0.00000000000E+00 0.  1.
          2    1    6    6  503    0 -0.24539692662E+03 -0.45568359387E+02  0.23651769034E+03  0.34385570348E+03  0.00000000000E+00 0.  1.
         -2    1    6    6    0  503 -0.18823555831E+03 -0.12085708655E+03  0.23594328235E+03  0.32512811823E+03  0.00000000000E+00 0. -1.
<mgrwt>
<rscale>  0 0.14236751E+04</rscale>
<asrwt>0</asrwt>
<pdfrwt beam="1">  1        2 0.31264718E+00 0.14236751E+04</pdfrwt>
<pdfrwt beam="2">  1       -1 0.38360172E-01 0.14236751E+04</pdfrwt>
<totfact> 0.46683475E+01</totfact>
</mgrwt>
</event>
<event>
12    6  0.1450532E-007  0.2554608E+04  0.7818608E-02  0.8383785E-01
         -1   -1    0    0    0  501 -0.00000000000E+00  0.00000000000E+00  0.81150953310E+03  0.81150953310E+03  0.00000000000E+00 0.  1.
          2   -1    0    0  501    0  0.00000000000E+00 -0.00000000000E+00 -0.20104578665E+04  0.20104578665E+04  0.00000000000E+00 0. -1.
         24    2    1    2    0    0 -0.81320772334E+03  0.69652503182E+03 -0.18208346557E+03  0.10916272196E+04  0.10973457470E+03 0.  0.
        254    2    1    2    0    0  0.81320772334E+03 -0.69652503182E+03 -0.10168648678E+04  0.17303401800E+04  0.90200280367E+03 0.  0.
         23    2    4    4    0    0  0.20916135273E+03  0.19144243231E+03 -0.36355192679E+03  0.47003019492E+03  0.91431418587E+02 0.  0.
         23    2    4    4    0    0  0.60404637061E+03 -0.88796746413E+03 -0.65331294105E+03  0.12603099851E+04  0.90582693396E+02 0.  0.
          4    1    3    3  502    0 -0.18998503529E+03  0.14697607272E+03  0.35813481124E+01  0.24022719588E+03  0.00000000000E+00 0. -1.
         -3    1    3    3    0  502 -0.62322268805E+03  0.54954895910E+03 -0.18566481368E+03  0.85140002372E+03  0.00000000000E+00 0.  1.
         11    1    5    5    0    0 -0.75244013565E+00 -0.81978445937E+01 -0.10298986726E+02  0.13184837872E+02  0.00000000000E+00 0.  1.
        -11    1    5    5    0    0  0.20991379287E+03  0.19964027690E+03 -0.35325294006E+03  0.45684535705E+03  0.00000000000E+00 0. -1.
          3    1    6    6  503    0  0.43220143652E+03 -0.68883292057E+03 -0.52204036866E+03  0.96634104782E+03  0.00000000000E+00 0. -1.
         -3    1    6    6    0  503  0.17184493408E+03 -0.19913454356E+03 -0.13127257239E+03  0.29396893726E+03  0.00000000000E+00 0.  1.
<mgrwt>
<rscale>  0 0.25546082E+04</rscale>
<asrwt>0</asrwt>
<pdfrwt beam="1">  1        2 0.30930121E+00 0.25546082E+04</pdfrwt>
<pdfrwt beam="2">  1       -1 0.12484762E+00 0.25546082E+04</pdfrwt>
<totfact> 0.37381276E+00</totfact>
</mgrwt>
</event>
<event>
12    6  0.1450532E-007  0.1983459E+04  0.7818608E-02  0.8614394E-01
          2   -1    0    0  501    0  0.00000000000E+00  0.00000000000E+00  0.12966138269E+04  0.12966138269E+04  0.00000000000E+00 0. -1.
         -1   -1    0    0    0  501 -0.00000000000E+00 -0.00000000000E+00 -0.75853507388E+03  0.75853507388E+03  0.00000000000E+00 0.  1.
         24    2    1    2    0    0  0.13158194592E+03  0.73937953898E+03 -0.24837224720E+02  0.75561751707E+03  0.79655716821E+02 0.  0.
        254    2    1    2    0    0 -0.13158194592E+03 -0.73937953898E+03  0.56291597773E+03  0.12995313837E+04  0.89883897784E+03 0.  0.
         23    2    4    4    0    0 -0.43264407846E+03 -0.66172754437E+03  0.21322780026E+03  0.82381844522E+03  0.90257931965E+02 0.  0.
         23    2    4    4    0    0  0.30106213254E+03 -0.77651994610E+02  0.34968817746E+03  0.47571293848E+03  0.85748110564E+02 0.  0.
          2    1    3    3  502    0  0.51316378715E+02  0.22057231025E+03  0.27083217591E+02  0.22807677534E+03  0.00000000000E+00 0. -1.
         -1    1    3    3    0  502  0.80265567205E+02  0.51880722873E+03 -0.51920442311E+02  0.52754074174E+03  0.00000000000E+00 0.  1.
         11    1    5    5    0    0 -0.34502064173E+03 -0.51302121467E+03  0.12815750302E+03  0.63139081043E+03  0.00000000000E+00 0.  1.
        -11    1    5    5    0    0 -0.87623436725E+02 -0.14870632970E+03  0.85070297247E+02  0.19242763479E+03  0.00000000000E+00 0. -1.
          1    1    6    6  503    0  0.19341126554E+02 -0.30957197272E+02  0.31983255649E+02  0.48532008831E+02  0.00000000000E+00 0. -1.
         -1    1    6    6    0  503  0.28172100598E+03 -0.46694797338E+02  0.31770492181E+03  0.42718092965E+03  0.00000000000E+00 0.  1.
<mgrwt>
<rscale>  0 0.19834587E+04</rscale>
<asrwt>0</asrwt>
<pdfrwt beam="1">  1        2 0.19947905E+00 0.19834587E+04</pdfrwt>
<pdfrwt beam="2">  1       -1 0.11669770E+00 0.19834587E+04</pdfrwt>
<totfact> 0.11669749E+01</totfact>
</mgrwt>
</event>
<event>
12    6  0.1450532E-007  0.1639818E+04  0.7818608E-02  0.8796453E-01
         -1   -1    0    0    0  501 -0.00000000000E+00  0.00000000000E+00  0.58391606581E+03  0.58391606581E+03  0.00000000000E+00 0.  1.
          2   -1    0    0  501    0  0.00000000000E+00 -0.00000000000E+00 -0.11512797074E+04  0.11512797074E+04  0.00000000000E+00 0. -1.
         24    2    1    2    0    0 -0.19260290903E+03 -0.52551473770E+03 -0.29228035150E+03  0.63665515840E+03  0.81488445394E+02 0.  0.
        254    2    1    2    0    0  0.19260290903E+03  0.52551473770E+03 -0.27508329005E+03  0.10985406148E+04  0.90435559696E+03 0.  0.
         23    2    4    4    0    0  0.44916303739E+03  0.15818670097E+02 -0.47324551687E+01  0.46039681867E+03  0.99725473334E+02 0.  0.
         23    2    4    4    0    0 -0.25656012836E+03  0.50969606761E+03 -0.27035083488E+03  0.63814379611E+03  0.92329571624E+02 0.  0.
          2    1    3    3  502    0 -0.78132169881E+02 -0.30793454426E+03 -0.19150341600E+03  0.37094727100E+03  0.00000000000E+00 0. -1.
         -1    1    3    3    0  502 -0.11447073914E+03 -0.21758019344E+03 -0.10077693550E+03  0.26570788740E+03  0.00000000000E+00 0.  1.
         11    1    5    5    0    0  0.19743088175E+03  0.11828930243E+00  0.46945956346E+02  0.20293567916E+03  0.00000000000E+00 0. -1.
        -11    1    5    5    0    0  0.25173215564E+03  0.15700380795E+02 -0.51678411515E+02  0.25746113951E+03  0.00000000000E+00 0.  1.
          1    1    6    6  503    0 -0.35948750569E+02  0.14577619931E+03 -0.96225882396E+02  0.17833236777E+03  0.00000000000E+00 0. -1.
         -1    1    6    6    0  503 -0.22061137779E+03  0.36391986830E+03 -0.17412495248E+03  0.45981142834E+03  0.00000000000E+00 0.  1.
<mgrwt>
<rscale>  0 0.16398179E+04</rscale>
<asrwt>0</asrwt>
<pdfrwt beam="1">  1        2 0.17711996E+00 0.16398179E+04</pdfrwt>
<pdfrwt beam="2">  1       -1 0.89833241E-01 0.16398179E+04</pdfrwt>
<totfact> 0.26803291E+01</totfact>
</mgrwt>
</event>
<event>
12    6  0.1450532E-007  0.1834413E+04  0.7818608E-02  0.8688210E-01
         -1   -1    0    0    0  501 -0.00000000000E+00  0.00000000000E+00  0.72485081580E+03  0.72485081580E+03  0.00000000000E+00 0.  1.
          2   -1    0    0  501    0  0.00000000000E+00 -0.00000000000E+00 -0.11606081534E+04  0.11606081534E+04  0.00000000000E+00 0. -1.
         24    2    1    2    0    0 -0.53035249615E+03 -0.46307383352E+03 -0.23498298841E+03  0.74644096346E+03  0.79031396439E+02 0.  0.
        254    2    1    2    0    0  0.53035249615E+03  0.46307383352E+03 -0.20077434922E+03  0.11390180058E+04  0.87254829821E+03 0.  0.
         23    2    4    4    0    0  0.14574342819E+03  0.28514996411E+03  0.32035733193E+03  0.46266267552E+03  0.94214023922E+02 0.  0.
         23    2    4    4    0    0  0.38460906796E+03  0.17792386941E+03 -0.52113168116E+03  0.67635533025E+03  0.79355309800E+02 0.  0.
          4    1    3    3  502    0 -0.48181647753E+03 -0.44076149654E+03 -0.20146992695E+03  0.68337979654E+03  0.00000000000E+00 0. -1.
         -3    1    3    3    0  502 -0.48536018619E+02 -0.22312336979E+02 -0.33513061456E+02  0.63061166917E+02  0.00000000000E+00 0.  1.
         11    1    5    5    0    0  0.10485922500E+03  0.19825992952E+03  0.15911330094E+03  0.27498999846E+03  0.00000000000E+00 0. -1.
        -11    1    5    5    0    0  0.40884203194E+02  0.86890034593E+02  0.16124403099E+03  0.18767267706E+03  0.00000000000E+00 0.  1.
          3    1    6    6  503    0  0.88860903676E+02  0.84544402122E+01 -0.12766781922E+03  0.15577807877E+03  0.00000000000E+00 0. -1.
         -3    1    6    6    0  503  0.29574816428E+03  0.16946942920E+03 -0.39346386194E+03  0.52057725148E+03  0.00000000000E+00 0.  1.
<mgrwt>
<rscale>  0 0.18344130E+04</rscale>
<asrwt>0</asrwt>
<pdfrwt beam="1">  1        2 0.17855510E+00 0.18344130E+04</pdfrwt>
<pdfrwt beam="2">  1       -1 0.11151551E+00 0.18344130E+04</pdfrwt>
<totfact> 0.15868516E+01</totfact>
</mgrwt>
</event>
<event>
12    6  0.1450532E-007  0.2339019E+04  0.7818608E-02  0.8462693E-01
          2   -1    0    0  501    0  0.00000000000E+00  0.00000000000E+00  0.83848475985E+03  0.83848475985E+03  0.00000000000E+00 0. -1.
         -1   -1    0    0    0  501 -0.00000000000E+00 -0.00000000000E+00 -0.16312190316E+04  0.16312190316E+04  0.00000000000E+00 0.  1.
         24    2    1    2    0    0 -0.53342179007E+03 -0.19021218232E+02 -0.12273349423E+04  0.13409040882E+04  0.82292771534E+02 0.  0.
        254    2    1    2    0    0  0.53342179007E+03  0.19021218232E+02  0.43460067054E+03  0.11287997033E+04  0.89465659023E+03 0.  0.
         23    2    4    4    0    0  0.31908760753E+03 -0.90794705043E+02  0.68665303594E+03  0.76723578132E+03  0.84248279731E+02 0.  0.
         23    2    4    4    0    0  0.21433418254E+03  0.10981592327E+03 -0.25205236540E+03  0.36156392197E+03  0.95913481610E+02 0.  0.
          4    1    3    3  502    0 -0.32902433118E+03  0.27142503995E+02 -0.77510132446E+03  0.84248192219E+03  0.00000000000E+00 0. -1.
         -3    1    3    3    0  502 -0.20439745889E+03 -0.46163722227E+02 -0.45223361787E+03  0.49842216603E+03  0.00000000000E+00 0.  1.
         11    1    5    5    0    0  0.19876301148E+03 -0.98242748944E+02  0.44169151404E+03  0.49421631502E+03  0.00000000000E+00 0. -1.
        -11    1    5    5    0    0  0.12032459605E+03  0.74480439015E+01  0.24496152189E+03  0.27301946630E+03  0.00000000000E+00 0.  1.
          1    1    6    6  503    0  0.20996451138E+03  0.10086699951E+03 -0.19539193449E+03  0.30403495801E+03  0.00000000000E+00 0. -1.
         -1    1    6    6    0  503  0.43696711557E+01  0.89489237621E+01 -0.56660430908E+02  0.57528963950E+02  0.00000000000E+00 0.  1.
<mgrwt>
<rscale>  0 0.23390189E+04</rscale>
<asrwt>0</asrwt>
<pdfrwt beam="1">  1        2 0.12899765E+00 0.23390189E+04</pdfrwt>
<pdfrwt beam="2">  1       -1 0.25095678E+00 0.23390189E+04</pdfrwt>
<totfact> 0.22906018E+00</totfact>
</mgrwt>
</event>
<event>
12    6  0.1450532E-007  0.1296314E+04  0.7818608E-02  0.9032493E-01
         -1   -1    0    0    0  501 -0.00000000000E+00  0.00000000000E+00  0.99476214706E+03  0.99476214706E+03  0.00000000000E+00 0.  1.
          2   -1    0    0  501    0  0.00000000000E+00 -0.00000000000E+00 -0.42231971012E+03  0.42231971012E+03  0.00000000000E+00 0. -1.
         24    2    1    2    0    0  0.28063344887E+03  0.19843804368E+02 -0.48044382084E+02  0.29611976266E+03  0.78928714621E+02 0.  0.
        254    2    1    2    0    0 -0.28063344887E+03 -0.19843804368E+02  0.62048681903E+03  0.11209620945E+04  0.89017032954E+03 0.  0.
         23    2    4    4    0    0  0.14513556725E+03 -0.39506458050E+02 -0.15330755324E+03  0.23276046613E+03  0.89716975010E+02 0.  0.
         23    2    4    4    0    0 -0.42576901612E+03  0.19662653682E+02  0.77379437226E+03  0.88820162840E+03  0.92078917851E+02 0.  0.
          4    1    3    3  502    0  0.25405774867E+03  0.32650262818E+02 -0.22564691856E+02  0.25713915423E+03  0.00000000000E+00 0. -1.
         -3    1    3    3    0  502  0.26575700197E+02 -0.12806458450E+02 -0.25479690228E+02  0.38980608424E+02  0.00000000000E+00 0.  1.
         11    1    5    5    0    0  0.10287548598E+03 -0.61294085135E+02 -0.13821580403E+03  0.18287684100E+03  0.00000000000E+00 0. -1.
        -11    1    5    5    0    0  0.42260081262E+02  0.21787627085E+02 -0.15091749209E+02  0.49883625133E+02  0.00000000000E+00 0.  1.
          4    1    6    6  503    0 -0.42007726067E+03  0.20157859941E+02  0.71790450957E+03  0.83202051003E+03  0.00000000000E+00 0. -1.
         -4    1    6    6    0  503 -0.56917554417E+01 -0.49520625854E+00  0.55889862694E+02  0.56181118369E+02  0.00000000000E+00 0.  1.
<mgrwt>
<rscale>  0 0.12963143E+04</rscale>
<asrwt>0</asrwt>
<pdfrwt beam="1">  1        2 0.64972263E-01 0.12963143E+04</pdfrwt>
<pdfrwt beam="2">  1       -1 0.15304033E+00 0.12963143E+04</pdfrwt>
<totfact> 0.27716931E+01</totfact>
</mgrwt>
</event>
<event>
12    6  0.1450532E-007  0.2434128E+04  0.7818608E-02  0.8426836E-01
          2   -1    0    0  501    0  0.00000000000E+00  0.00000000000E+00  0.24222806264E+04  0.24222806264E+04  0.00000000000E+00 0. -1.
         -1   -1    0    0    0  501 -0.00000000000E+00 -0.00000000000E+00 -0.61150814424E+03  0.61150814424E+03  0.00000000000E+00 0.  1.
         24    2    1    2    0    0 -0.68307850990E+03  0.72095581307E+03  0.35591470432E+03  0.10579256187E+04  0.78471668969E+02 0.  0.
        254    2    1    2    0    0  0.68307850990E+03 -0.72095581307E+03  0.14548577778E+04  0.19758631519E+04  0.89501424925E+03 0.  0.
         23    2    4    4    0    0  0.31273318951E+03 -0.70086054625E+03  0.13878672743E+04  0.15882497162E+04  0.85755680729E+02 0.  0.
         23    2    4    4    0    0  0.37034532039E+03 -0.20095266817E+02  0.66990503517E+02  0.38761343574E+03  0.90537130054E+02 0.  0.
          2    1    3    3  502    0 -0.17746900597E+03  0.14183680076E+03  0.70426142569E+02  0.23785030521E+03  0.00000000000E+00 0. -1.
         -1    1    3    3    0  502 -0.50560950393E+03  0.57911901231E+03  0.28548856176E+03  0.82007531348E+03  0.00000000000E+00 0.  1.
         11    1    5    5    0    0  0.14302785464E+03 -0.25495609260E+03  0.46286276889E+03  0.54745001524E+03  0.00000000000E+00 0. -1.
        -11    1    5    5    0    0  0.16970533487E+03 -0.44590445365E+03  0.92500450539E+03  0.10407997009E+04  0.00000000000E+00 0.  1.
          1    1    6    6  503    0  0.10025570924E+03  0.18830599141E+02  0.51555961456E+02  0.11429705097E+03  0.00000000000E+00 0. -1.
         -1    1    6    6    0  503  0.27008961116E+03 -0.38925865958E+02  0.15434542061E+02  0.27331638477E+03  0.00000000000E+00 0.  1.
<mgrwt>
<rscale>  0 0.24341276E+04</rscale>
<asrwt>0</asrwt>
<pdfrwt beam="1">  1        2 0.37265855E+00 0.24341276E+04</pdfrwt>
<pdfrwt beam="2">  1       -1 0.94078177E-01 0.24341276E+04</pdfrwt>
<totfact> 0.43088000E+00</totfact>
</mgrwt>
</event>
<event>
12    6  0.1450532E-007  0.1076858E+04  0.7818608E-02  0.9228046E-01
          2   -1    0    0  501    0  0.00000000000E+00  0.00000000000E+00  0.48238145903E+03  0.48238145903E+03  0.00000000000E+00 0. -1.
         -1   -1    0    0    0  501 -0.00000000000E+00 -0.00000000000E+00 -0.60098843126E+03  0.60098843126E+03  0.00000000000E+00 0.  1.
         24    2    1    2    0    0 -0.81168679811E+02 -0.58221780888E+02  0.93588440689E+02  0.15900975985E+03  0.80914628754E+02 0.  0.
        254    2    1    2    0    0  0.81168679811E+02  0.58221780888E+02 -0.21219541292E+03  0.92436013043E+03  0.89411220052E+03 0.  0.
         23    2    4    4    0    0 -0.18960266759E+03 -0.34575711061E+03 -0.82925347650E+02  0.41275318183E+03  0.89394769025E+02 0.  0.
         23    2    4    4    0    0  0.27077134740E+03  0.40397889150E+03 -0.12927006527E+03  0.51160694861E+03  0.92275959685E+02 0.  0.
          2    1    3    3  502    0 -0.55408907332E+02 -0.31938732934E+02  0.62805370065E+01  0.64262545999E+02  0.00000000000E+00 0. -1.
         -1    1    3    3    0  502 -0.25759772478E+02 -0.26283047954E+02  0.87307903683E+02  0.94747213855E+02  0.00000000000E+00 0.  1.
         11    1    5    5    0    0 -0.14057930394E+03 -0.20843045925E+03 -0.89307822457E+02  0.26679895838E+03  0.00000000000E+00 0.  1.
        -11    1    5    5    0    0 -0.49023363648E+02 -0.13732665136E+03  0.63824748073E+01  0.14595422345E+03  0.00000000000E+00 0. -1.
          1    1    6    6  503    0  0.27652624808E+02  0.10891236953E+03 -0.21762101240E+02  0.11445593452E+03  0.00000000000E+00 0. -1.
         -1    1    6    6    0  503  0.24311872259E+03  0.29506652197E+03 -0.10750796403E+03  0.39715101409E+03  0.00000000000E+00 0.  1.
<mgrwt>
<rscale>  0 0.10768578E+04</rscale>
<asrwt>0</asrwt>
<pdfrwt beam="1">  1        2 0.74212532E-01 0.10768578E+04</pdfrwt>
<pdfrwt beam="2">  1       -1 0.92459759E-01 0.10768578E+04</pdfrwt>
<totfact> 0.83111926E+01</totfact>
</mgrwt>
</event>
<event>
12    6  0.1450532E-007  0.4751844E+04  0.7818608E-02  0.7867971E-01
          2   -1    0    0  501    0  0.00000000000E+00  0.00000000000E+00  0.18668103699E+04  0.18668103699E+04  0.00000000000E+00 0. -1.
         -1   -1    0    0    0  501 -0.00000000000E+00 -0.00000000000E+00 -0.30238773122E+04  0.30238773122E+04  0.00000000000E+00 0.  1.
         24    2    1    2    0    0 -0.78878811036E+03 -0.14016689660E+04  0.11217322394E+04  0.19625317625E+04  0.79907000290E+02 0.  0.
        254    2    1    2    0    0  0.78878811036E+03  0.14016689660E+04 -0.22787991817E+04  0.29281559196E+04  0.89124003810E+03 0.  0.
         23    2    4    4    0    0  0.31918996529E+02  0.52184026373E+02 -0.72548585746E+03  0.73381485900E+03  0.91719806865E+02 0.  0.
         23    2    4    4    0    0  0.75686911383E+03  0.13494849396E+04 -0.15533133243E+04  0.21943410606E+04  0.91596665302E+02 0.  0.
          2    1    3    3  502    0 -0.40434685771E+03 -0.66772158912E+03  0.50614734756E+03  0.93034060395E+03  0.00000000000E+00 0. -1.
         -1    1    3    3    0  502 -0.38444125265E+03 -0.73394737687E+03  0.61558489181E+03  0.10321911585E+04  0.00000000000E+00 0.  1.
         11    1    5    5    0    0  0.15363106246E+02  0.63421436249E+02 -0.68998015446E+03  0.69305910077E+03  0.00000000000E+00 0. -1.
        -11    1    5    5    0    0  0.16555890283E+02 -0.11237409875E+02 -0.35505703001E+02  0.40755758236E+02  0.00000000000E+00 0.  1.
          3    1    6    6  503    0  0.57369949956E+03  0.10976816660E+04 -0.12377863430E+04  0.17510428854E+04  0.00000000000E+00 0. -1.
         -3    1    6    6    0  503  0.18316961427E+03  0.25180327365E+03 -0.31552698127E+03  0.44329817518E+03  0.00000000000E+00 0.  1.
<mgrwt>
<rscale>  0 0.47518441E+04</rscale>
<asrwt>0</asrwt>
<pdfrwt beam="1">  1        2 0.28720160E+00 0.47518441E+04</pdfrwt>
<pdfrwt beam="2">  1       -1 0.46521189E+00 0.47518441E+04</pdfrwt>
<totfact> 0.17087715E-02</totfact>
</mgrwt>
</event>
<event>
12    6  0.1450532E-007  0.5071988E+04  0.7818608E-02  0.7817497E-01
          2   -1    0    0  501    0  0.00000000000E+00  0.00000000000E+00  0.39439936064E+04  0.39439936064E+04  0.00000000000E+00 0. -1.
         -1   -1    0    0    0  501 -0.00000000000E+00 -0.00000000000E+00 -0.16306482394E+04  0.16306482394E+04  0.00000000000E+00 0.  1.
         24    2    1    2    0    0  0.29990540109E+03  0.17707721542E+04 -0.72053000843E+03  0.19368545303E+04  0.81637656046E+02 0.  0.
        254    2    1    2    0    0 -0.29990540109E+03 -0.17707721542E+04  0.30338753755E+04  0.36377873155E+04  0.89639248521E+03 0.  0.
         23    2    4    4    0    0 -0.10982861191E+03 -0.49319379597E+02  0.77614864562E+03  0.79075349888E+03  0.91595036342E+02 0.  0.
         23    2    4    4    0    0 -0.19007678918E+03 -0.17214527746E+04  0.22577267299E+04  0.28470338167E+04  0.93502543510E+02 0.  0.
          4    1    3    3  502    0  0.11085259939E+03  0.89099256804E+03 -0.34872399842E+03  0.96320531673E+03  0.00000000000E+00 0. -1.
         -3    1    3    3    0  502  0.18905280170E+03  0.87977958611E+03 -0.37180601001E+03  0.97364921356E+03  0.00000000000E+00 0.  1.
         11    1    5    5    0    0 -0.86369278663E+02 -0.46738620917E+02  0.74614525231E+03  0.75258015422E+03  0.00000000000E+00 0.  1.
        -11    1    5    5    0    0 -0.23459333250E+02 -0.25807586808E+01  0.30003393317E+02  0.38173344658E+02  0.00000000000E+00 0. -1.
          4    1    6    6  503    0 -0.49725440440E+02 -0.18730504820E+03  0.24325734931E+03  0.31101437025E+03  0.00000000000E+00 0. -1.
         -4    1    6    6    0  503 -0.14035134874E+03 -0.15341477264E+04  0.20144693805E+04  0.25360194464E+04  0.00000000000E+00 0.  1.
<mgrwt>
<rscale>  0 0.50719883E+04</rscale>
<asrwt>0</asrwt>
<pdfrwt beam="1">  1        2 0.60676824E+00 0.50719883E+04</pdfrwt>
<pdfrwt beam="2">  1       -1 0.25086896E+00 0.50719883E+04</pdfrwt>
<totfact> 0.21360842E-02</totfact>
</mgrwt>
</event>
<event>
12    6  0.1450532E-007  0.1364166E+04  0.7818608E-02  0.8980173E-01
         -1   -1    0    0    0  501 -0.00000000000E+00  0.00000000000E+00  0.41467118005E+03  0.41467118005E+03  0.00000000000E+00 0.  1.
          2   -1    0    0  501    0  0.00000000000E+00 -0.00000000000E+00 -0.11219424964E+04  0.11219424964E+04  0.00000000000E+00 0. -1.
         24    2    1    2    0    0 -0.63915805285E+02  0.31482322113E+03  0.23103177540E+02  0.33187850398E+03  0.80066808736E+02 0.  0.
        254    2    1    2    0    0  0.63915805285E+02 -0.31482322113E+03 -0.73037449392E+03  0.12047351725E+04  0.90263007027E+03 0.  0.
         23    2    4    4    0    0  0.22227667737E+03  0.10246586217E+02 -0.79112845273E+03  0.82690837315E+03  0.91549522355E+02 0.  0.
         23    2    4    4    0    0 -0.15836087208E+03 -0.32506980735E+03  0.60753958806E+02  0.37782679935E+03  0.91178403919E+02 0.  0.
          2    1    3    3  502    0  0.85158059788E+01  0.94669893932E+02 -0.17320032943E+02  0.96617241266E+02  0.00000000000E+00 0. -1.
         -1    1    3    3    0  502 -0.72431611264E+02  0.22015332720E+03  0.40423210482E+02  0.23526126271E+03  0.00000000000E+00 0.  1.
         11    1    5    5    0    0  0.34344544770E+02  0.33308071309E+02 -0.11002863938E+03  0.11998031861E+03  0.00000000000E+00 0. -1.
        -11    1    5    5    0    0  0.18793213260E+03 -0.23061485093E+02 -0.68109981335E+03  0.70692805454E+03  0.00000000000E+00 0.  1.
          4    1    6    6  503    0 -0.49018988940E+02 -0.17196838325E+03 -0.39841729560E+01  0.17886268406E+03  0.00000000000E+00 0. -1.
         -4    1    6    6    0  503 -0.10934188314E+03 -0.15310142409E+03  0.64738131762E+02  0.19896411529E+03  0.00000000000E+00 0.  1.
<mgrwt>
<rscale>  0 0.13641660E+04</rscale>
<asrwt>0</asrwt>
<pdfrwt beam="1">  1        2 0.17260654E+00 0.13641660E+04</pdfrwt>
<pdfrwt beam="2">  1       -1 0.63795566E-01 0.13641660E+04</pdfrwt>
<totfact> 0.58566145E+01</totfact>
</mgrwt>
</event>
<event>
12    6  0.1450532E-007  0.2121868E+04  0.7818608E-02  0.8551671E-01
         -1   -1    0    0    0  501 -0.00000000000E+00  0.00000000000E+00  0.46040529486E+03  0.46040529486E+03  0.00000000000E+00 0.  1.
          2   -1    0    0  501    0  0.00000000000E+00 -0.00000000000E+00 -0.24447617395E+04  0.24447617395E+04  0.00000000000E+00 0. -1.
         24    2    1    2    0    0 -0.85684205828E+03 -0.64380057264E+02 -0.94516350558E+03  0.12797890823E+04  0.78758735235E+02 0.  0.
        254    2    1    2    0    0  0.85684205828E+03  0.64380057264E+02 -0.10391929390E+04  0.16253779520E+04  0.90752874206E+03 0.  0.
         23    2    4    4    0    0 -0.32015897872E+02 -0.86910365381E+02  0.10447245676E+03  0.16613008068E+03  0.90034883011E+02 0.  0.
         23    2    4    4    0    0  0.88885795616E+03  0.15129042264E+03 -0.11436653958E+04  0.14592478713E+04  0.92068203962E+02 0.  0.
          4    1    3    3  502    0 -0.22599682871E+01 -0.49050970962E+01 -0.22660930356E+01  0.58568431623E+01  0.00000000000E+00 0. -1.
         -3    1    3    3    0  502 -0.85458209000E+03 -0.59474960168E+02 -0.94289741255E+03  0.12739322392E+04  0.00000000000E+00 0.  1.
         11    1    5    5    0    0 -0.63047054771E+01 -0.52863398659E+02 -0.47150047063E-01  0.53238054548E+02  0.00000000000E+00 0.  1.
        -11    1    5    5    0    0 -0.25711192394E+02 -0.34046966722E+02  0.10451960681E+03  0.11289202614E+03  0.00000000000E+00 0. -1.
          3    1    6    6  503    0  0.85628843074E+03  0.12980351736E+03 -0.10773259490E+04  0.13822843521E+04  0.00000000000E+00 0. -1.
         -3    1    6    6    0  503  0.32569525412E+02  0.21486905287E+02 -0.66339446782E+02  0.76963519175E+02  0.00000000000E+00 0.  1.
<mgrwt>
<rscale>  0 0.21218683E+04</rscale>
<asrwt>0</asrwt>
<pdfrwt beam="1">  1        2 0.37611717E+00 0.21218683E+04</pdfrwt>
<pdfrwt beam="2">  1       -1 0.70831587E-01 0.21218683E+04</pdfrwt>
<totfact> 0.79004131E+00</totfact>
</mgrwt>
</event>
<event>
12    6  0.1450532E-007  0.1470267E+04  0.7818608E-02  0.8904470E-01
          2   -1    0    0  501    0  0.00000000000E+00  0.00000000000E+00  0.19847079298E+04  0.19847079298E+04  0.00000000000E+00 0. -1.
         -1   -1    0    0    0  501 -0.00000000000E+00 -0.00000000000E+00 -0.27229249562E+03  0.27229249562E+03  0.00000000000E+00 0.  1.
         24    2    1    2    0    0  0.46271956140E+02  0.45094647314E+03  0.47515956242E+03  0.66155434888E+03  0.79898255323E+02 0.  0.
        254    2    1    2    0    0 -0.46271956140E+02 -0.45094647314E+03  0.12372558718E+04  0.15954460765E+04  0.89952891861E+03 0.  0.
         23    2    4    4    0    0  0.31507795776E+03 -0.12202571012E+03  0.97020813872E+03  0.10314527021E+04  0.91795701997E+02 0.  0.
         23    2    4    4    0    0 -0.36134991390E+03 -0.32892076302E+03  0.26704773303E+03  0.56399337441E+03  0.89506458111E+02 0.  0.
          4    1    3    3  502    0 -0.17621705092E+02  0.60327835659E+02  0.85619556987E+02  0.10621054931E+03  0.00000000000E+00 0. -1.
         -3    1    3    3    0  502  0.63893661232E+02  0.39061863748E+03  0.38954000544E+03  0.55534379958E+03  0.00000000000E+00 0.  1.
         11    1    5    5    0    0  0.62699273520E+02 -0.39953369129E+02  0.33280344089E+03  0.34100674608E+03  0.00000000000E+00 0. -1.
        -11    1    5    5    0    0  0.25237868424E+03 -0.82072340991E+02  0.63740469783E+03  0.69044595605E+03  0.00000000000E+00 0.  1.
          2    1    6    6  503    0 -0.27307878261E+03 -0.28300392461E+03  0.18308242566E+03  0.43379997400E+03  0.00000000000E+00 0. -1.
         -2    1    6    6    0  503 -0.88271131287E+02 -0.45916838402E+02  0.83965307372E+02  0.13019340041E+03  0.00000000000E+00 0.  1.
<mgrwt>
<rscale>  0 0.14702667E+04</rscale>
<asrwt>0</asrwt>
<pdfrwt beam="1">  1        2 0.30533967E+00 0.14702667E+04</pdfrwt>
<pdfrwt beam="2">  1       -1 0.41891155E-01 0.14702667E+04</pdfrwt>
<totfact> 0.42061634E+01</totfact>
</mgrwt>
</event>
<event>
12    6  0.1450532E-007  0.1652449E+04  0.7818608E-02  0.8788959E-01
         -1   -1    0    0    0  501 -0.00000000000E+00  0.00000000000E+00  0.66964602136E+03  0.66964602136E+03  0.00000000000E+00 0.  1.
          2   -1    0    0  501    0  0.00000000000E+00 -0.00000000000E+00 -0.10194146741E+04  0.10194146741E+04  0.00000000000E+00 0. -1.
         24    2    1    2    0    0 -0.38523808753E+03 -0.25643551892E+03 -0.20476901348E+03  0.51244221208E+03  0.80617072616E+02 0.  0.
        254    2    1    2    0    0  0.38523808753E+03  0.25643551892E+03 -0.14499963928E+03  0.11766184834E+04  0.10720254664E+04 0.  0.
         23    2    4    4    0    0 -0.60841765731E+02 -0.36337414098E+03 -0.15153853038E+03  0.40854631264E+03  0.90574149688E+02 0.  0.
         23    2    4    4    0    0  0.44607985326E+03  0.61980965990E+03  0.65388911006E+01  0.76807217076E+03  0.82102694308E+02 0.  0.
          4    1    3    3  502    0 -0.98875120837E+02 -0.83980159416E+02 -0.94302341194E+02  0.16038044847E+03  0.00000000000E+00 0. -1.
         -3    1    3    3    0  502 -0.28636296669E+03 -0.17245535950E+03 -0.11046667228E+03  0.35206176361E+03  0.00000000000E+00 0.  1.
         11    1    5    5    0    0 -0.19521147643E+02 -0.26765022349E+03 -0.73293138538E+02  0.27818986591E+03  0.00000000000E+00 0. -1.
        -11    1    5    5    0    0 -0.41320618088E+02 -0.95723917491E+02 -0.78245391846E+02  0.13035644673E+03  0.00000000000E+00 0.  1.
          1    1    6    6  503    0  0.18180497604E+03  0.27028346816E+03 -0.36482584908E+02  0.32777611486E+03  0.00000000000E+00 0. -1.
         -1    1    6    6    0  503  0.26427487722E+03  0.34952619174E+03  0.43021476009E+02  0.44029605589E+03  0.00000000000E+00 0.  1.
<mgrwt>
<rscale>  0 0.16524491E+04</rscale>
<asrwt>0</asrwt>
<pdfrwt beam="1">  1        2 0.15683303E+00 0.16524491E+04</pdfrwt>
<pdfrwt beam="2">  1       -1 0.10302247E+00 0.16524491E+04</pdfrwt>
<totfact> 0.23737308E+01</totfact>
</mgrwt>
</event>
<event>
12    6  0.1450532E-007  0.2032612E+04  0.7818608E-02  0.8591524E-01
         -1   -1    0    0    0  501 -0.00000000000E+00  0.00000000000E+00  0.25059381922E+04  0.25059381922E+04  0.00000000000E+00 0.  1.
          2   -1    0    0  501    0  0.00000000000E+00 -0.00000000000E+00 -0.41217194598E+03  0.41217194598E+03  0.00000000000E+00 0. -1.
         24    2    1    2    0    0 -0.22586826082E+03 -0.64129706020E+02 -0.27731263208E+03  0.37084327816E+03  0.74117141134E+02 0.  0.
        254    2    1    2    0    0  0.22586826082E+03  0.64129706020E+02  0.23710788783E+04  0.25472668601E+04  0.90079094058E+03 0.  0.
         23    2    4    4    0    0 -0.33759499603E+03 -0.11853967358E+02  0.80094174872E+03  0.87480390905E+03  0.98302067887E+02 0.  0.
         23    2    4    4    0    0  0.56346325685E+03  0.75983673378E+02  0.15701371296E+04  0.16724629510E+04  0.92397815306E+02 0.  0.
          4    1    3    3  502    0 -0.16896242232E+03 -0.14445670002E+02 -0.20751487820E+03  0.26799142190E+03  0.00000000000E+00 0. -1.
         -3    1    3    3    0  502 -0.56905838501E+02 -0.49684036019E+02 -0.69797753875E+02  0.10285185626E+03  0.00000000000E+00 0.  1.
         11    1    5    5    0    0 -0.31542941672E+03 -0.69510229497E+01  0.65408933950E+03  0.72620720026E+03  0.00000000000E+00 0.  1.
        -11    1    5    5    0    0 -0.22165579311E+02 -0.49029444080E+01  0.14685240922E+03  0.14859670879E+03  0.00000000000E+00 0. -1.
          3    1    6    6  503    0  0.68695191997E+02  0.19723111870E+01  0.11783306275E+03  0.13640949414E+03  0.00000000000E+00 0. -1.
         -3    1    6    6    0  503  0.49476806485E+03  0.74011362191E+02  0.14523040669E+04  0.15360534569E+04  0.00000000000E+00 0.  1.
<mgrwt>
<rscale>  0 0.20326115E+04</rscale>
<asrwt>0</asrwt>
<pdfrwt beam="1">  1        2 0.63411070E-01 0.20326115E+04</pdfrwt>
<pdfrwt beam="2">  1       -1 0.38552895E+00 0.20326115E+04</pdfrwt>
<totfact> 0.73183774E-01</totfact>
</mgrwt>
</event>
<event>
12    6  0.1450532E-007  0.2284223E+04  0.7818608E-02  0.8484168E-01
         -1   -1    0    0    0  501 -0.00000000000E+00  0.00000000000E+00  0.12558580679E+04  0.12558580679E+04  0.00000000000E+00 0.  1.
          2   -1    0    0  501    0  0.00000000000E+00 -0.00000000000E+00 -0.10386669505E+04  0.10386669505E+04  0.00000000000E+00 0. -1.
         24    2    1    2    0    0 -0.26273634989E+03  0.69568088126E+03 -0.50601511654E+03  0.90313906404E+03  0.81280949407E+02 0.  0.
        254    2    1    2    0    0  0.26273634989E+03 -0.69568088126E+03  0.72320623392E+03  0.13913859544E+04  0.92732159424E+03 0.  0.
         23    2    4    4    0    0  0.29024161580E+03 -0.48298328760E+03  0.92249356338E+03  0.10846114769E+04  0.88739109970E+02 0.  0.
         23    2    4    4    0    0 -0.27505265917E+02 -0.21269759365E+03 -0.19928732946E+03  0.30677447750E+03  0.91642426648E+02 0.  0.
          4    1    3    3  502    0 -0.19009078579E+03  0.58670484733E+03 -0.42800369552E+03  0.75069584260E+03  0.00000000000E+00 0. -1.
         -3    1    3    3    0  502 -0.72645564100E+02  0.10897603393E+03 -0.78011421019E+02  0.15244322144E+03  0.00000000000E+00 0.  1.
         11    1    5    5    0    0  0.81865076208E+02 -0.82626688468E+02  0.14842415189E+03  0.18857038265E+03  0.00000000000E+00 0.  1.
        -11    1    5    5    0    0  0.20837653960E+03 -0.40035659914E+03  0.77406941149E+03  0.89604109422E+03  0.00000000000E+00 0. -1.
          2    1    6    6  503    0 -0.58722218579E+02 -0.16966968860E+03 -0.14487938724E+03  0.23070790847E+03  0.00000000000E+00 0. -1.
         -2    1    6    6    0  503  0.31216952662E+02 -0.43027905050E+02 -0.54407942220E+02  0.76066569024E+02  0.00000000000E+00 0.  1.
<mgrwt>
<rscale>  0 0.22842226E+04</rscale>
<asrwt>0</asrwt>
<pdfrwt beam="1">  1        2 0.15979492E+00 0.22842226E+04</pdfrwt>
<pdfrwt beam="2">  1       -1 0.19320893E+00 0.22842226E+04</pdfrwt>
<totfact> 0.41328653E+00</totfact>
</mgrwt>
</event>
<event>
12    6  0.1450532E-007  0.2661610E+04  0.7818608E-02  0.8347570E-01
         -1   -1    0    0    0  501 -0.00000000000E+00  0.00000000000E+00  0.89848317856E+03  0.89848317856E+03  0.00000000000E+00 0.  1.
          2   -1    0    0  501    0  0.00000000000E+00 -0.00000000000E+00 -0.19711461011E+04  0.19711461011E+04  0.00000000000E+00 0. -1.
         24    2    1    2    0    0  0.73870310071E+01  0.59637969841E+03  0.61936424613E+03  0.86359707878E+03  0.80402314622E+02 0.  0.
        254    2    1    2    0    0 -0.73870310071E+01 -0.59637969841E+03 -0.16920271687E+04  0.20060322009E+04  0.89748868437E+03 0.  0.
         23    2    4    4    0    0  0.24701806113E+03  0.87480008588E+02 -0.19637000004E+03  0.33944487765E+03  0.89392245864E+02 0.  0.
         23    2    4    4    0    0 -0.25440509213E+03 -0.68385970700E+03 -0.14956571686E+04  0.16665873232E+04  0.90204712429E+02 0.  0.
          2    1    3    3  502    0 -0.36391878787E+01  0.33220846027E+02  0.66051301223E+02  0.74024608695E+02  0.00000000000E+00 0. -1.
         -1    1    3    3    0  502  0.11026218886E+02  0.56315885238E+03  0.55331294491E+03  0.78957247009E+03  0.00000000000E+00 0.  1.
         11    1    5    5    0    0  0.17030559202E+03  0.42851494080E+02 -0.79693402147E+02  0.19285041759E+03  0.00000000000E+00 0.  1.
        -11    1    5    5    0    0  0.76712469102E+02  0.44628514508E+02 -0.11667659790E+03  0.14659446006E+03  0.00000000000E+00 0. -1.
          1    1    6    6  503    0 -0.10442472171E+03 -0.16659947582E+03 -0.39508949575E+03  0.44131124787E+03  0.00000000000E+00 0. -1.
         -1    1    6    6    0  503 -0.14998037042E+03 -0.51726023118E+03 -0.11005676729E+04  0.12252760754E+04  0.00000000000E+00 0.  1.
<mgrwt>
<rscale>  0 0.26616097E+04</rscale>
<asrwt>0</asrwt>
<pdfrwt beam="1">  1        2 0.30325324E+00 0.26616097E+04</pdfrwt>
<pdfrwt beam="2">  1       -1 0.13822818E+00 0.26616097E+04</pdfrwt>
<totfact> 0.30081943E+00</totfact>
</mgrwt>
</event>
<event>
12    6  0.1450532E-007  0.2691560E+04  0.7818608E-02  0.8337749E-01
          2   -1    0    0  501    0  0.00000000000E+00  0.00000000000E+00  0.15022866100E+04  0.15022866100E+04  0.00000000000E+00 0. -1.
         -1   -1    0    0    0  501 -0.00000000000E+00 -0.00000000000E+00 -0.12055782600E+04  0.12055782600E+04  0.00000000000E+00 0.  1.
         24    2    1    2    0    0 -0.13765461179E+03 -0.89435082223E+02  0.13228008050E+04  0.13353123253E+04  0.79433054984E+02 0.  0.
        254    2    1    2    0    0  0.13765461179E+03  0.89435082223E+02 -0.10260924550E+04  0.13725525448E+04  0.89670917012E+03 0.  0.
         23    2    4    4    0    0  0.50091271689E+03  0.14967327254E+03 -0.63928741186E+03  0.83077335716E+03  0.90445218539E+02 0.  0.
         23    2    4    4    0    0 -0.36325810510E+03 -0.60238190320E+02 -0.38680504317E+03  0.54177918760E+03  0.91222015988E+02 0.  0.
          4    1    3    3  502    0 -0.10663808086E+03 -0.26341392119E+02  0.90436352381E+03  0.91100984212E+03  0.00000000000E+00 0. -1.
         -3    1    3    3    0  502 -0.31016530926E+02 -0.63093690104E+02  0.41843728122E+03  0.42430248319E+03  0.00000000000E+00 0.  1.
         11    1    5    5    0    0  0.44264508440E+03  0.16087446742E+03 -0.55940076716E+03  0.73126225344E+03  0.00000000000E+00 0.  1.
        -11    1    5    5    0    0  0.58267632483E+02 -0.11201194875E+02 -0.79886644696E+02  0.99511103715E+02  0.00000000000E+00 0. -1.
          2    1    6    6  503    0 -0.18358109516E+03 -0.36517486657E+02 -0.13177667840E+03  0.22891185706E+03  0.00000000000E+00 0. -1.
         -2    1    6    6    0  503 -0.17967700994E+03 -0.23720703663E+02 -0.25502836476E+03  0.31286733054E+03  0.00000000000E+00 0.  1.
<mgrwt>
<rscale>  0 0.26915602E+04</rscale>
<asrwt>0</asrwt>
<pdfrwt beam="1">  1        2 0.23112102E+00 0.26915602E+04</pdfrwt>
<pdfrwt beam="2">  1       -1 0.18547358E+00 0.26915602E+04</pdfrwt>
<totfact> 0.24067024E+00</totfact>
</mgrwt>
</event>
<event>
12    6  0.1450532E-007  0.1325753E+04  0.7818608E-02  0.9009388E-01
          2   -1    0    0  501    0  0.00000000000E+00  0.00000000000E+00  0.12148625657E+04  0.12148625657E+04  0.00000000000E+00 0. -1.
         -1   -1    0    0    0  501 -0.00000000000E+00 -0.00000000000E+00 -0.36169147093E+03  0.36169147093E+03  0.00000000000E+00 0.  1.
         24    2    1    2    0    0 -0.31210474223E+03 -0.31089768763E+01  0.41617415484E+03  0.52635565293E+03  0.80189215919E+02 0.  0.
        254    2    1    2    0    0  0.31210474223E+03  0.31089768763E+01  0.43699693994E+03  0.10501983837E+04  0.90251386903E+03 0.  0.
         23    2    4    4    0    0  0.17566582831E+03  0.42489501012E+03  0.83627761517E+02  0.47601550200E+03  0.90569877927E+02 0.  0.
         23    2    4    4    0    0  0.13643891392E+03 -0.42178603325E+03  0.35336917843E+03  0.57418288171E+03  0.91088804580E+02 0.  0.
          2    1    3    3  502    0 -0.17125989882E+03  0.14814818924E+02  0.28626101328E+03  0.33390836996E+03  0.00000000000E+00 0. -1.
         -1    1    3    3    0  502 -0.14084484342E+03 -0.17923795800E+02  0.12991314156E+03  0.19244728297E+03  0.00000000000E+00 0.  1.
         11    1    5    5    0    0  0.10947209542E+03  0.29366282565E+03  0.14895613077E+02  0.31375766785E+03  0.00000000000E+00 0.  1.
        -11    1    5    5    0    0  0.66193732887E+02  0.13123218447E+03  0.68732148440E+02  0.16225783415E+03  0.00000000000E+00 0. -1.
          3    1    6    6  503    0  0.54644557611E+02 -0.22790271574E+03  0.13295975068E+03  0.26945124015E+03  0.00000000000E+00 0. -1.
         -3    1    6    6    0  503  0.81794356309E+02 -0.19388331751E+03  0.22040942775E+03  0.30473164157E+03  0.00000000000E+00 0.  1.
<mgrwt>
<rscale>  0 0.13257533E+04</rscale>
<asrwt>0</asrwt>
<pdfrwt beam="1">  1        2 0.18690193E+00 0.13257533E+04</pdfrwt>
<pdfrwt beam="2">  1       -1 0.55644842E-01 0.13257533E+04</pdfrwt>
<totfact> 0.67605719E+01</totfact>
</mgrwt>
</event>
<event>
12    6  0.1450532E-007  0.1934311E+04  0.7818608E-02  0.8637964E-01
          2   -1    0    0  501    0  0.00000000000E+00  0.00000000000E+00  0.46574189704E+03  0.46574189704E+03  0.00000000000E+00 0. -1.
         -1   -1    0    0    0  501 -0.00000000000E+00 -0.00000000000E+00 -0.20083865328E+04  0.20083865328E+04  0.00000000000E+00 0.  1.
         24    2    1    2    0    0 -0.23538191079E+03 -0.27450613307E+03  0.24465510884E+03  0.44373343655E+03  0.79277862030E+02 0.  0.
        254    2    1    2    0    0  0.23538191079E+03  0.27450613307E+03 -0.17872997446E+04  0.20303949933E+04  0.89291947606E+03 0.  0.
         23    2    4    4    0    0  0.32774671524E+03  0.43919764812E+03 -0.17253070931E+04  0.18125827249E+04  0.91973288027E+02 0.  0.
         23    2    4    4    0    0 -0.92364804450E+02 -0.16469151505E+03 -0.61992651490E+02  0.21781226837E+03  0.89132166936E+02 0.  0.
          4    1    3    3  502    0 -0.17846104097E+03 -0.21418499467E+03  0.22560082262E+03  0.35863531094E+03  0.00000000000E+00 0. -1.
         -3    1    3    3    0  502 -0.56920869828E+02 -0.60321138395E+02  0.19054286228E+02  0.85098125613E+02  0.00000000000E+00 0.  1.
         11    1    5    5    0    0  0.15124857216E+03  0.25303967262E+03 -0.80871881442E+03  0.86077367948E+03  0.00000000000E+00 0. -1.
        -11    1    5    5    0    0  0.17649814309E+03  0.18615797549E+03 -0.91658827867E+03  0.95180904542E+03  0.00000000000E+00 0.  1.
          2    1    6    6  503    0 -0.52665046794E+02 -0.15511804287E+03 -0.31425151801E+02  0.16680154239E+03  0.00000000000E+00 0. -1.
         -2    1    6    6    0  503 -0.39699757656E+02 -0.95734721760E+01 -0.30567499689E+02  0.51010725977E+02  0.00000000000E+00 0.  1.
<mgrwt>
<rscale>  0 0.19343110E+04</rscale>
<asrwt>0</asrwt>
<pdfrwt beam="1">  1        2 0.71652600E-01 0.19343110E+04</pdfrwt>
<pdfrwt beam="2">  1       -1 0.30898254E+00 0.19343110E+04</pdfrwt>
<totfact> 0.20622260E+00</totfact>
</mgrwt>
</event>
<event>
12    6  0.1450532E-007  0.3581833E+04  0.7818608E-02  0.8094666E-01
         -1   -1    0    0    0  501 -0.00000000000E+00  0.00000000000E+00  0.13850327378E+04  0.13850327378E+04  0.00000000000E+00 0.  1.
          2   -1    0    0  501    0  0.00000000000E+00 -0.00000000000E+00 -0.23157446110E+04  0.23157446110E+04  0.00000000000E+00 0. -1.
         24    2    1    2    0    0  0.82522594094E+03  0.27918688058E+03  0.10470115294E+04  0.13643788822E+04  0.79708366733E+02 0.  0.
        254    2    1    2    0    0 -0.82522594094E+03 -0.27918688058E+03 -0.19777234026E+04  0.23363984666E+04  0.88793286340E+03 0.  0.
         23    2    4    4    0    0 -0.33929168282E+03 -0.50968687435E+03 -0.63334227040E+03  0.88562153045E+03  0.91123585367E+02 0.  0.
         23    2    4    4    0    0 -0.48593425813E+03  0.23049999377E+03 -0.13443811322E+04  0.14507769362E+04  0.90170614259E+02 0.  0.
          2    1    3    3  502    0  0.14844828980E+03  0.64437085236E+02  0.15293381846E+03  0.22266069597E+03  0.00000000000E+00 0. -1.
         -1    1    3    3    0  502  0.67677765114E+03  0.21474979534E+03  0.89407771092E+03  0.11417181863E+04  0.00000000000E+00 0.  1.
         11    1    5    5    0    0 -0.33457566322E+03 -0.47619226919E+03 -0.61660989317E+03  0.84788425626E+03  0.00000000000E+00 0.  1.
        -11    1    5    5    0    0 -0.47160195915E+01 -0.33494605161E+02 -0.16732377232E+02  0.37737274193E+02  0.00000000000E+00 0. -1.
          4    1    6    6  503    0 -0.20828780466E+03  0.70651083119E+02 -0.64605750992E+03  0.68247028598E+03  0.00000000000E+00 0. -1.
         -4    1    6    6    0  503 -0.27764645347E+03  0.15984891065E+03 -0.69832362223E+03  0.76830665019E+03  0.00000000000E+00 0.  1.
<mgrwt>
<rscale>  0 0.35818331E+04</rscale>
<asrwt>0</asrwt>
<pdfrwt beam="1">  1        2 0.35626839E+00 0.35818331E+04</pdfrwt>
<pdfrwt beam="2">  1       -1 0.21308196E+00 0.35818331E+04</pdfrwt>
<totfact> 0.50488667E-01</totfact>
</mgrwt>
</event>
<event>
12    6  0.1450532E-007  0.1220769E+04  0.7818608E-02  0.9094869E-01
         -1   -1    0    0    0  501 -0.00000000000E+00  0.00000000000E+00  0.63733458723E+03  0.63733458723E+03  0.00000000000E+00 0.  1.
          2   -1    0    0  501    0  0.00000000000E+00 -0.00000000000E+00 -0.58457448518E+03  0.58457448518E+03  0.00000000000E+00 0. -1.
         24    2    1    2    0    0 -0.11644810107E+03  0.21176010242E+02  0.27186711998E+03  0.30750054682E+03  0.81463315180E+02 0.  0.
        254    2    1    2    0    0  0.11644810107E+03 -0.21176010242E+02 -0.21910701793E+03  0.91440852559E+03  0.87984457872E+03 0.  0.
         23    2    4    4    0    0  0.24773456929E+03  0.11867284169E+03  0.26117562109E+03  0.38958852625E+03  0.90060282928E+02 0.  0.
         23    2    4    4    0    0 -0.13128646821E+03 -0.13984885193E+03 -0.48028263901E+03  0.52481999934E+03  0.89279226282E+02 0.  0.
          2    1    3    3  502    0 -0.69058277398E+02 -0.12023110377E+02  0.76561130483E+02  0.10380369724E+03  0.00000000000E+00 0. -1.
         -1    1    3    3    0  502 -0.47389823673E+02  0.33199120619E+02  0.19530598949E+03  0.20369684958E+03  0.00000000000E+00 0.  1.
         11    1    5    5    0    0  0.15951143297E+02  0.16145004118E+02 -0.36936448207E+01  0.22994415464E+02  0.00000000000E+00 0.  1.
        -11    1    5    5    0    0  0.23178342599E+03  0.10252783757E+03  0.26486926591E+03  0.36659411079E+03  0.00000000000E+00 0. -1.
          4    1    6    6  503    0 -0.22218927550E+02 -0.56201786081E+02 -0.24487826057E+03  0.25222546263E+03  0.00000000000E+00 0. -1.
         -4    1    6    6    0  503 -0.10906754066E+03 -0.83647065851E+02 -0.23540437844E+03  0.27259453670E+03  0.00000000000E+00 0.  1.
<mgrwt>
<rscale>  0 0.12207695E+04</rscale>
<asrwt>0</asrwt>
<pdfrwt beam="1">  1        2 0.89934536E-01 0.12207695E+04</pdfrwt>
<pdfrwt beam="2">  1       -1 0.98051475E-01 0.12207695E+04</pdfrwt>
<totfact> 0.57496531E+01</totfact>
</mgrwt>
</event>
<event>
12    6  0.1450532E-007  0.1239001E+04  0.7818608E-02  0.9079387E-01
          2   -1    0    0  501    0  0.00000000000E+00  0.00000000000E+00  0.37048385237E+04  0.37048385237E+04  0.00000000000E+00 0. -1.
         -1   -1    0    0    0  501 -0.00000000000E+00 -0.00000000000E+00 -0.10358913447E+03  0.10358913447E+03  0.00000000000E+00 0.  1.
         24    2    1    2    0    0 -0.26634825980E+03 -0.11094830361E+03  0.93259361611E+03  0.97948882322E+03  0.80103560689E+02 0.  0.
        254    2    1    2    0    0  0.26634825980E+03  0.11094830361E+03  0.26686557731E+04  0.28289388350E+04  0.89326388875E+03 0.  0.
         23    2    4    4    0    0  0.37085974161E+03  0.27728510155E+03  0.67485017958E+03  0.82351201984E+03  0.91243117219E+02 0.  0.
         23    2    4    4    0    0 -0.10451148182E+03 -0.16633679794E+03  0.19938055935E+04  0.20054268151E+04  0.88799694785E+02 0.  0.
          2    1    3    3  502    0 -0.23481398552E+03 -0.12314940790E+03  0.80825617738E+03  0.85063589904E+03  0.00000000000E+00 0. -1.
         -1    1    3    3    0  502 -0.31534274271E+02  0.12201104291E+02  0.12433743873E+03  0.12885292418E+03  0.00000000000E+00 0.  1.
         11    1    5    5    0    0  0.27719656512E+03  0.21972808158E+03  0.57451159934E+03  0.67467173005E+03  0.00000000000E+00 0.  1.
        -11    1    5    5    0    0  0.93663176496E+02  0.57557019977E+02  0.10033858024E+03  0.14884028979E+03  0.00000000000E+00 0. -1.
          2    1    6    6  503    0 -0.10945742872E+03 -0.99082347444E+02  0.13032883617E+04  0.13116244867E+04  0.00000000000E+00 0. -1.
         -2    1    6    6    0  503  0.49459469048E+01 -0.67254450500E+02  0.69051723185E+03  0.69380232847E+03  0.00000000000E+00 0.  1.
<mgrwt>
<rscale>  0 0.12390012E+04</rscale>
<asrwt>0</asrwt>
<pdfrwt beam="1">  1        2 0.56997506E+00 0.12390012E+04</pdfrwt>
<pdfrwt beam="2">  1       -1 0.15936793E-01 0.12390012E+04</pdfrwt>
<totfact> 0.19906057E+01</totfact>
</mgrwt>
</event>
<event>
12    6  0.1450532E-007  0.1381973E+04  0.7818608E-02  0.8966972E-01
          2   -1    0    0  501    0  0.00000000000E+00  0.00000000000E+00  0.14728738447E+04  0.14728738447E+04  0.00000000000E+00 0. -1.
         -1   -1    0    0    0  501 -0.00000000000E+00 -0.00000000000E+00 -0.32417070237E+03  0.32417070237E+03  0.00000000000E+00 0.  1.
         24    2    1    2    0    0 -0.74663263376E+02 -0.87778869253E+02  0.81684158226E+03  0.82875014634E+03  0.79478939174E+02 0.  0.
        254    2    1    2    0    0  0.74663263376E+02  0.87778869253E+02  0.33186156010E+03  0.96829440075E+03  0.90232046340E+03 0.  0.
         23    2    4    4    0    0  0.28720354085E+03  0.36027837965E+03 -0.15418528557E+02  0.46987130518E+03  0.90856632585E+02 0.  0.
         23    2    4    4    0    0 -0.21254027748E+03 -0.27249951040E+03  0.34728008866E+03  0.49842309558E+03  0.91612059837E+02 0.  0.
          2    1    3    3  502    0 -0.32864895444E+02 -0.78862275603E+02  0.36381728888E+03  0.37371430204E+03  0.00000000000E+00 0. -1.
         -1    1    3    3    0  502 -0.41798367932E+02 -0.89165936498E+01  0.45302429338E+03  0.45503584430E+03  0.00000000000E+00 0.  1.
         11    1    5    5    0    0  0.50545244497E+02  0.32277828211E+02  0.21536572562E+02  0.63722083244E+02  0.00000000000E+00 0.  1.
        -11    1    5    5    0    0  0.23665829636E+03  0.32800055144E+03 -0.36955101119E+02  0.40614922193E+03  0.00000000000E+00 0. -1.
          4    1    6    6  503    0 -0.16270635019E+03 -0.13577563020E+03  0.20058335513E+03  0.29179112478E+03  0.00000000000E+00 0. -1.
         -4    1    6    6    0  503 -0.49833927292E+02 -0.13672388020E+03  0.14669673353E+03  0.20663197079E+03  0.00000000000E+00 0.  1.
<mgrwt>
<rscale>  0 0.13819733E+04</rscale>
<asrwt>0</asrwt>
<pdfrwt beam="1">  1        2 0.22659597E+00 0.13819733E+04</pdfrwt>
<pdfrwt beam="2">  1       -1 0.49872416E-01 0.13819733E+04</pdfrwt>
<totfact> 0.58898089E+01</totfact>
</mgrwt>
</event>
<event>
12    6  0.1450532E-007  0.1610899E+04  0.7818608E-02  0.8813880E-01
          2   -1    0    0  501    0  0.00000000000E+00  0.00000000000E+00  0.13171387478E+04  0.13171387478E+04  0.00000000000E+00 0. -1.
         -1   -1    0    0    0  501 -0.00000000000E+00 -0.00000000000E+00 -0.49254403734E+03  0.49254403734E+03  0.00000000000E+00 0.  1.
         24    2    1    2    0    0 -0.57096178279E+03  0.79723585358E+02  0.19901858271E+03  0.61534998158E+03  0.81816844789E+02 0.  0.
        254    2    1    2    0    0  0.57096178279E+03 -0.79723585358E+02  0.62557612774E+03  0.11943328035E+04  0.83829120630E+03 0.  0.
         23    2    4    4    0    0  0.60329793059E+03 -0.23978654892E+03  0.72877756893E+03  0.98035221892E+03  0.92237443958E+02 0.  0.
         23    2    4    4    0    0 -0.32336147795E+02  0.16006296357E+03 -0.10320144119E+03  0.21398058463E+03  0.92040069394E+02 0.  0.
          2    1    3    3  502    0 -0.52103537638E+03  0.60644278961E+02  0.20130466441E+03  0.56185332599E+03  0.00000000000E+00 0. -1.
         -1    1    3    3    0  502 -0.49926406409E+02  0.19079306397E+02 -0.22860816963E+01  0.53496655588E+02  0.00000000000E+00 0.  1.
         11    1    5    5    0    0  0.56823759999E+03 -0.23550794251E+03  0.65493741573E+03  0.89849929301E+03  0.00000000000E+00 0. -1.
        -11    1    5    5    0    0  0.35060330599E+02 -0.42786064169E+01  0.73840153198E+02  0.81852925903E+02  0.00000000000E+00 0.  1.
          2    1    6    6  503    0 -0.16873203727E+02  0.15457636867E+03 -0.58112006055E+02  0.16599868675E+03  0.00000000000E+00 0. -1.
         -2    1    6    6    0  503 -0.15462944069E+02  0.54865948938E+01 -0.45089435137E+02  0.47981897876E+02  0.00000000000E+00 0.  1.
<mgrwt>
<rscale>  0 0.16108989E+04</rscale>
<asrwt>0</asrwt>
<pdfrwt beam="1">  1        2 0.20263673E+00 0.16108989E+04</pdfrwt>
<pdfrwt beam="2">  1       -1 0.75776006E-01 0.16108989E+04</pdfrwt>
<totfact> 0.30875654E+01</totfact>
</mgrwt>
</event>
<event>
12    6  0.1450532E-007  0.1728560E+04  0.7818608E-02  0.8745241E-01
          2   -1    0    0  501    0  0.00000000000E+00  0.00000000000E+00  0.19128059005E+04  0.19128059005E+04  0.00000000000E+00 0. -1.
         -1   -1    0    0    0  501 -0.00000000000E+00 -0.00000000000E+00 -0.39051544072E+03  0.39051544072E+03  0.00000000000E+00 0.  1.
         24    2    1    2    0    0 -0.58238159369E+03 -0.19525626892E+03  0.79036611659E+03  0.10042373063E+04  0.80750466290E+02 0.  0.
        254    2    1    2    0    0  0.58238159369E+03  0.19525626892E+03  0.73192434324E+03  0.12990840350E+04  0.88012087498E+03 0.  0.
         23    2    4    4    0    0  0.26053199481E+01  0.43071722315E+03  0.33432453331E+03  0.55243797220E+03  0.88829643391E+02 0.  0.
         23    2    4    4    0    0  0.57977627374E+03 -0.23546095423E+03  0.39759980994E+03  0.74664606281E+03  0.88387474736E+02 0.  0.
          2    1    3    3  502    0 -0.46463330880E+03 -0.15369535404E+03  0.57290902780E+03  0.75347934785E+03  0.00000000000E+00 0. -1.
         -1    1    3    3    0  502 -0.11774828488E+03 -0.41560914878E+02  0.21745708879E+03  0.25075795841E+03  0.00000000000E+00 0.  1.
         11    1    5    5    0    0 -0.34834179609E+02  0.33194548456E+03  0.26376654110E+03  0.42541040536E+03  0.00000000000E+00 0.  1.
        -11    1    5    5    0    0  0.37439499557E+02  0.98771738594E+02  0.70557992205E+02  0.12702756683E+03  0.00000000000E+00 0. -1.
          3    1    6    6  503    0  0.16867197658E+03 -0.11110624576E+03  0.11344888774E+03  0.23165811806E+03  0.00000000000E+00 0. -1.
         -3    1    6    6    0  503  0.41110429716E+03 -0.12435470847E+03  0.28415092219E+03  0.51498794475E+03  0.00000000000E+00 0.  1.
<mgrwt>
<rscale>  0 0.17285604E+04</rscale>
<asrwt>0</asrwt>
<pdfrwt beam="1">  1        2 0.29427782E+00 0.17285604E+04</pdfrwt>
<pdfrwt beam="2">  1       -1 0.60079300E-01 0.17285604E+04</pdfrwt>
<totfact> 0.22692291E+01</totfact>
</mgrwt>
</event>
<event>
12    6  0.1450532E-007  0.1823694E+04  0.7818608E-02  0.8693800E-01
          2   -1    0    0  501    0  0.00000000000E+00  0.00000000000E+00  0.30404846136E+04  0.30404846136E+04  0.00000000000E+00 0. -1.
         -1   -1    0    0    0  501 -0.00000000000E+00 -0.00000000000E+00 -0.27346456670E+03  0.27346456670E+03  0.00000000000E+00 0.  1.
         24    2    1    2    0    0  0.65054675942E+03 -0.39310578865E+02  0.14656470264E+04  0.16059983197E+04  0.79705639286E+02 0.  0.
        254    2    1    2    0    0 -0.65054675942E+03  0.39310578865E+02  0.13013730204E+04  0.17079508606E+04  0.89373821448E+03 0.  0.
         23    2    4    4    0    0  0.27912938094E+02  0.15303869196E+03  0.87465131226E+03  0.89327144470E+03  0.93375492113E+02 0.  0.
         23    2    4    4    0    0 -0.67845969751E+03 -0.11372811310E+03  0.42672170817E+03  0.81467941588E+03  0.91484914427E+02 0.  0.
          2    1    3    3  502    0  0.31210261049E+03 -0.41915774007E+02  0.78617379736E+03  0.84689681263E+03  0.00000000000E+00 0. -1.
         -1    1    3    3    0  502  0.33844414893E+03  0.26051951423E+01  0.67947322907E+03  0.75910150706E+03  0.00000000000E+00 0.  1.
         11    1    5    5    0    0  0.41477247219E+01 -0.12049137137E+02  0.10400089093E+03  0.10477867455E+03  0.00000000000E+00 0. -1.
        -11    1    5    5    0    0  0.23765213372E+02  0.16508782910E+03  0.77065042133E+03  0.78849277015E+03  0.00000000000E+00 0.  1.
          2    1    6    6  503    0 -0.36520929181E+03 -0.14914110726E+02  0.22372043073E+03  0.42854531691E+03  0.00000000000E+00 0. -1.
         -2    1    6    6    0  503 -0.31325040571E+03 -0.98814002370E+02  0.20300127744E+03  0.38613409897E+03  0.00000000000E+00 0.  1.
<mgrwt>
<rscale>  0 0.18236938E+04</rscale>
<asrwt>0</asrwt>
<pdfrwt beam="1">  1        2 0.46776684E+00 0.18236938E+04</pdfrwt>
<pdfrwt beam="2">  1       -1 0.42071474E-01 0.18236938E+04</pdfrwt>
<totfact> 0.98141511E+00</totfact>
</mgrwt>
</event>
<event>
12    6  0.1450532E-007  0.2048590E+04  0.7818608E-02  0.8584234E-01
         -1   -1    0    0    0  501 -0.00000000000E+00  0.00000000000E+00  0.43192989200E+03  0.43192989200E+03  0.00000000000E+00 0.  1.
          2   -1    0    0  501    0  0.00000000000E+00 -0.00000000000E+00 -0.24290514972E+04  0.24290514972E+04  0.00000000000E+00 0. -1.
         24    2    1    2    0    0  0.76459146145E+03 -0.26040634729E+03 -0.57648588792E+03  0.99556029341E+03  0.79954676009E+02 0.  0.
        254    2    1    2    0    0 -0.76459146145E+03  0.26040634729E+03 -0.14206357173E+04  0.18654210958E+04  0.89954347018E+03 0.  0.
         23    2    4    4    0    0 -0.95025381710E+03  0.12880486228E+03 -0.11736659242E+04  0.15183787687E+04  0.91702640341E+02 0.  0.
         23    2    4    4    0    0  0.18566235565E+03  0.13160148501E+03 -0.24696979308E+03  0.34704232705E+03  0.87491924816E+02 0.  0.
          4    1    3    3  502    0  0.56145265129E+02 -0.26241840774E+02 -0.21320203451E+02  0.65539881590E+02  0.00000000000E+00 0. -1.
         -3    1    3    3    0  502  0.70844619632E+03 -0.23416450652E+03 -0.55516568447E+03  0.93002041182E+03  0.00000000000E+00 0.  1.
         11    1    5    5    0    0 -0.44668009621E+03  0.90065629399E+02 -0.50129621388E+03  0.67744580596E+03  0.00000000000E+00 0. -1.
        -11    1    5    5    0    0 -0.50357372088E+03  0.38739232880E+02 -0.67236971033E+03  0.84093296278E+03  0.00000000000E+00 0.  1.
          1    1    6    6  503    0  0.37125536065E+02  0.44238847918E+02 -0.11941162030E+03  0.13264432199E+03  0.00000000000E+00 0. -1.
         -1    1    6    6    0  503  0.14853681958E+03  0.87362637096E+02 -0.12755817279E+03  0.21439800507E+03  0.00000000000E+00 0.  1.
<mgrwt>
<rscale>  0 0.20485897E+04</rscale>
<asrwt>0</asrwt>
<pdfrwt beam="1">  1        2 0.37370022E+00 0.20485897E+04</pdfrwt>
<pdfrwt beam="2">  1       -1 0.66450754E-01 0.20485897E+04</pdfrwt>
<totfact> 0.92501255E+00</totfact>
</mgrwt>
</event>
<event>
12    6  0.1450532E-007  0.1494104E+04  0.7818608E-02  0.8888383E-01
         -1   -1    0    0    0  501 -0.00000000000E+00  0.00000000000E+00  0.87955874815E+03  0.87955874815E+03  0.00000000000E+00 0.  1.
          2   -1    0    0  501    0  0.00000000000E+00 -0.00000000000E+00 -0.63450718873E+03  0.63450718873E+03  0.00000000000E+00 0. -1.
         24    2    1    2    0    0 -0.16301162290E+03  0.27318397312E+03 -0.27870848292E+03  0.43039498432E+03  0.79744289481E+02 0.  0.
        254    2    1    2    0    0  0.16301162290E+03 -0.27318397312E+03  0.52376004234E+03  0.10836709526E+04  0.89376500216E+03 0.  0.
         23    2    4    4    0    0  0.11811835407E+03 -0.44552743051E+03  0.68114546487E+03  0.82731617593E+03  0.89701024203E+02 0.  0.
         23    2    4    4    0    0  0.44893268832E+02  0.17234345739E+03 -0.15738542253E+03  0.25635477662E+03  0.96072511059E+02 0.  0.
          2    1    3    3  502    0 -0.16939019193E+03  0.23784106728E+03 -0.25063339154E+03  0.38480970279E+03  0.00000000000E+00 0. -1.
         -1    1    3    3    0  502  0.63785690280E+01  0.35342905841E+02 -0.28075091384E+02  0.45585281532E+02  0.00000000000E+00 0.  1.
         11    1    5    5    0    0  0.81520532860E+02 -0.33966094079E+03  0.57625885469E+03  0.67386157301E+03  0.00000000000E+00 0. -1.
        -11    1    5    5    0    0  0.36597821208E+02 -0.10586648971E+03  0.10488661019E+03  0.15345460292E+03  0.00000000000E+00 0.  1.
          1    1    6    6  503    0  0.65556052934E+01  0.61572508152E+02 -0.11700010477E+03  0.13237512696E+03  0.00000000000E+00 0. -1.
         -1    1    6    6    0  503  0.38337663539E+02  0.11077094923E+03 -0.40385317759E+02  0.12397964966E+03  0.00000000000E+00 0.  1.
<mgrwt>
<rscale>  0 0.14941035E+04</rscale>
<asrwt>0</asrwt>
<pdfrwt beam="1">  1        2 0.97616491E-01 0.14941035E+04</pdfrwt>
<pdfrwt beam="2">  1       -1 0.13531673E+00 0.14941035E+04</pdfrwt>
<totfact> 0.23427929E+01</totfact>
</mgrwt>
</event>
<event>
12    6  0.1450532E-007  0.1715306E+04  0.7818608E-02  0.8752683E-01
         -1   -1    0    0    0  501 -0.00000000000E+00  0.00000000000E+00  0.12550437985E+04  0.12550437985E+04  0.00000000000E+00 0.  1.
          2   -1    0    0  501    0  0.00000000000E+00 -0.00000000000E+00 -0.58608994566E+03  0.58608994566E+03  0.00000000000E+00 0. -1.
         24    2    1    2    0    0 -0.44525811078E+03  0.37339121895E+03  0.10334793757E+02  0.58805414158E+03  0.89582798941E+02 0.  0.
        254    2    1    2    0    0  0.44525811078E+03 -0.37339121895E+03  0.65861905907E+03  0.12530796026E+04  0.89373018175E+03 0.  0.
         23    2    4    4    0    0  0.53161446585E+03 -0.98275783471E+02  0.75777407602E+03  0.93523985647E+03  0.90443180625E+02 0.  0.
         23    2    4    4    0    0 -0.86356355070E+02 -0.27511543548E+03 -0.99155016941E+02  0.31783974609E+03  0.89690935517E+02 0.  0.
          2    1    3    3  502    0 -0.36274062995E+03  0.25790423278E+03  0.22115440825E+02  0.44562815286E+03  0.00000000000E+00 0. -1.
         -1    1    3    3    0  502 -0.82517480835E+02  0.11548698617E+03 -0.11780647068E+02  0.14242598872E+03  0.00000000000E+00 0.  1.
         11    1    5    5    0    0  0.12924535625E+03 -0.46481095212E+02  0.13965234102E+03  0.19587657000E+03  0.00000000000E+00 0. -1.
        -11    1    5    5    0    0  0.40236910961E+03 -0.51794688258E+02  0.61812173500E+03  0.73936328647E+03  0.00000000000E+00 0.  1.
          1    1    6    6  503    0 -0.38918353478E+02 -0.23219948344E+02 -0.20328482327E+02  0.49669421502E+02  0.00000000000E+00 0. -1.
         -1    1    6    6    0  503 -0.47438001591E+02 -0.25189548713E+03 -0.78826534614E+02  0.26817032459E+03  0.00000000000E+00 0.  1.
<mgrwt>
<rscale>  0 0.17153059E+04</rscale>
<asrwt>0</asrwt>
<pdfrwt beam="1">  1        2 0.90167685E-01 0.17153059E+04</pdfrwt>
<pdfrwt beam="2">  1       -1 0.19308366E+00 0.17153059E+04</pdfrwt>
<totfact> 0.93123477E+00</totfact>
</mgrwt>
</event>
<event>
12    6  0.1450532E-007  0.3402981E+04  0.7818608E-02  0.8137175E-01
          2   -1    0    0  501    0  0.00000000000E+00  0.00000000000E+00  0.23761059533E+04  0.23761059533E+04  0.00000000000E+00 0. -1.
         -1   -1    0    0    0  501 -0.00000000000E+00 -0.00000000000E+00 -0.12184095580E+04  0.12184095580E+04  0.00000000000E+00 0.  1.
         24    2    1    2    0    0  0.86608154304E+03 -0.17204927577E+03 -0.84008482928E+03  0.12211719079E+04  0.76289683338E+02 0.  0.
        254    2    1    2    0    0 -0.86608154304E+03  0.17204927577E+03  0.19977812245E+04  0.23733436034E+04  0.92840284693E+03 0.  0.
         23    2    4    4    0    0 -0.75708067502E+03  0.27647500578E+03  0.72328381659E+03  0.10867667254E+04  0.91174879770E+02 0.  0.
         23    2    4    4    0    0 -0.10900086802E+03 -0.10442573000E+03  0.12744974079E+04  0.12865768780E+04  0.90280108112E+02 0.  0.
          2    1    3    3  502    0  0.39094310055E+03 -0.10735307027E+03 -0.41863151396E+03  0.58276370344E+03  0.00000000000E+00 0. -1.
         -1    1    3    3    0  502  0.47513844249E+03 -0.64696205504E+02 -0.42145331532E+03  0.63840820446E+03  0.00000000000E+00 0.  1.
         11    1    5    5    0    0 -0.72638266831E+03  0.25090964713E+03  0.70478857549E+03  0.10427436732E+04  0.00000000000E+00 0. -1.
        -11    1    5    5    0    0 -0.30698006718E+02  0.25565358650E+02  0.18495241104E+02  0.44023052175E+02  0.00000000000E+00 0.  1.
          4    1    6    6  503    0 -0.67175208250E+02 -0.39431412791E+02  0.94198552124E+03  0.94520054335E+03  0.00000000000E+00 0. -1.
         -4    1    6    6    0  503 -0.41825659765E+02 -0.64994317212E+02  0.33251188670E+03  0.34137633469E+03  0.00000000000E+00 0.  1.
<mgrwt>
<rscale>  0 0.34029812E+04</rscale>
<asrwt>0</asrwt>
<pdfrwt beam="1">  1        2 0.36555476E+00 0.34029812E+04</pdfrwt>
<pdfrwt beam="2">  1       -1 0.18744763E+00 0.34029812E+04</pdfrwt>
<totfact> 0.71127844E-01</totfact>
</mgrwt>
</event>
<event>
12    6  0.1450532E-007  0.2088130E+04  0.7818608E-02  0.8566490E-01
          2   -1    0    0  501    0  0.00000000000E+00  0.00000000000E+00  0.74299729612E+03  0.74299729612E+03  0.00000000000E+00 0. -1.
         -3   -1    0    0    0  501 -0.00000000000E+00 -0.00000000000E+00 -0.14671270868E+04  0.14671270868E+04  0.00000000000E+00 0.  1.
         24    2    1    2    0    0  0.60107204831E+03 -0.18378545847E+03 -0.87767545359E+03  0.10837845854E+04  0.95969389892E+02 0.  0.
        254    2    1    2    0    0 -0.60107204831E+03  0.18378545847E+03  0.15354566291E+03  0.11263397975E+04  0.92195464465E+03 0.  0.
         23    2    4    4    0    0 -0.33758519931E+03 -0.10951705375E+03 -0.33178925535E+03  0.49434339095E+03  0.91288150154E+02 0.  0.
         23    2    4    4    0    0 -0.26348684900E+03  0.29330251222E+03  0.48533491825E+03  0.63199640653E+03  0.91748524398E+02 0.  0.
          2    1    3    3  502    0  0.29343688958E+03 -0.11869152695E+03 -0.37348399695E+03  0.48957449149E+03  0.00000000000E+00 0. -1.
         -1    1    3    3    0  502  0.30763515873E+03 -0.65093931520E+02 -0.50419145664E+03  0.59421009395E+03  0.00000000000E+00 0.  1.
         11    1    5    5    0    0 -0.76546717519E+02 -0.57583745234E+02 -0.55471962777E+02  0.11069067862E+03  0.00000000000E+00 0.  1.
        -11    1    5    5    0    0 -0.26103848179E+03 -0.51933308512E+02 -0.27631729257E+03  0.38365271233E+03  0.00000000000E+00 0. -1.
          2    1    6    6  503    0 -0.26731498181E+03  0.29325961842E+03  0.48667350242E+03  0.62794076253E+03  0.00000000000E+00 0. -1.
         -2    1    6    6    0  503  0.38281328103E+01  0.42893796215E-01 -0.13385841655E+01  0.40556440005E+01  0.00000000000E+00 0.  1.
<mgrwt>
<rscale>  0 0.20881297E+04</rscale>
<asrwt>0</asrwt>
<pdfrwt beam="1">  1        2 0.11430728E+00 0.20881297E+04</pdfrwt>
<pdfrwt beam="2">  1       -3 0.22571186E+00 0.20881297E+04</pdfrwt>
<totfact> 0.22325023E+00</totfact>
</mgrwt>
</event>
<event>
12    6  0.1450532E-007  0.1741956E+04  0.7818608E-02  0.8737791E-01
          2   -1    0    0  501    0  0.00000000000E+00  0.00000000000E+00  0.43489375593E+03  0.43489375593E+03  0.00000000000E+00 0. -1.
         -1   -1    0    0    0  501 -0.00000000000E+00 -0.00000000000E+00 -0.17443404396E+04  0.17443404396E+04  0.00000000000E+00 0.  1.
         24    2    1    2    0    0 -0.57410255473E+03  0.66644360999E+02 -0.14275768537E+03  0.60009212069E+03  0.75469082286E+02 0.  0.
        254    2    1    2    0    0  0.57410255473E+03 -0.66644360999E+02 -0.11666889983E+04  0.15791420748E+04  0.89358338144E+03 0.  0.
         23    2    4    4    0    0  0.54642139731E+03  0.80030470555E+02 -0.19613156910E+03  0.59290843563E+03  0.89953326703E+02 0.  0.
         23    2    4    4    0    0  0.27681157422E+02 -0.14667483155E+03 -0.97055742918E+03  0.98623363920E+03  0.91625951924E+02 0.  0.
          2    1    3    3  502    0 -0.38519859531E+03  0.30519014918E+02 -0.12860401783E+03  0.40724484221E+03  0.00000000000E+00 0. -1.
         -1    1    3    3    0  502 -0.18890395942E+03  0.36125346080E+02 -0.14153667538E+02  0.19284727848E+03  0.00000000000E+00 0.  1.
         11    1    5    5    0    0  0.13296265029E+03  0.15295027054E+02 -0.89611326097E+02  0.16106891069E+03  0.00000000000E+00 0.  1.
        -11    1    5    5    0    0  0.41345874701E+03  0.64735443501E+02 -0.10652024300E+03  0.43183952494E+03  0.00000000000E+00 0. -1.
          2    1    6    6  503    0 -0.96865215848E+01 -0.13459993947E+03 -0.70659027985E+03  0.71936138066E+03  0.00000000000E+00 0. -1.
         -2    1    6    6    0  503  0.37367679007E+02 -0.12074892084E+02 -0.26396714934E+03  0.26687225855E+03  0.00000000000E+00 0.  1.
<mgrwt>
<rscale>  0 0.17419561E+04</rscale>
<asrwt>0</asrwt>
<pdfrwt beam="1">  1        2 0.66906733E-01 0.17419561E+04</pdfrwt>
<pdfrwt beam="2">  1       -1 0.26836006E+00 0.17419561E+04</pdfrwt>
<totfact> 0.41542346E+00</totfact>
</mgrwt>
</event>
<event>
12    6  0.1450532E-007  0.2061754E+04  0.7818608E-02  0.8578281E-01
         -1   -1    0    0    0  501 -0.00000000000E+00  0.00000000000E+00  0.68859952076E+03  0.68859952076E+03  0.00000000000E+00 0.  1.
          2   -1    0    0  501    0  0.00000000000E+00 -0.00000000000E+00 -0.15432886957E+04  0.15432886957E+04  0.00000000000E+00 0. -1.
         24    2    1    2    0    0  0.65267479581E+03 -0.46631991564E+02  0.24918909050E+03  0.70493526803E+03  0.81728805019E+02 0.  0.
        254    2    1    2    0    0 -0.65267479581E+03  0.46631991564E+02 -0.11038782654E+04  0.15269529484E+04  0.82757425652E+03 0.  0.
         23    2    4    4    0    0 -0.59942545992E+03  0.27996016415E+03 -0.10801808365E+04  0.12699437694E+04  0.90983309075E+02 0.  0.
         23    2    4    4    0    0 -0.53249335890E+02 -0.23332817259E+03 -0.23697428904E+02  0.25700917894E+03  0.90634552045E+02 0.  0.
          2    1    3    3  502    0  0.30078639163E+02  0.89674283085E+00  0.31765940218E+02  0.43756184015E+02  0.00000000000E+00 0. -1.
         -1    1    3    3    0  502  0.62259615665E+03 -0.47528734395E+02  0.21742315028E+03  0.66117908402E+03  0.00000000000E+00 0.  1.
         11    1    5    5    0    0 -0.20868339550E+03  0.57881862456E+02 -0.30855193785E+03  0.37696600365E+03  0.00000000000E+00 0. -1.
        -11    1    5    5    0    0 -0.39074206442E+03  0.22207830170E+03 -0.77162889864E+03  0.89297776579E+03  0.00000000000E+00 0.  1.
          1    1    6    6  503    0 -0.23466190505E+02 -0.12145253385E+02 -0.21101719621E+02  0.33814964847E+02  0.00000000000E+00 0. -1.
         -1    1    6    6    0  503 -0.29783145385E+02 -0.22118291920E+03 -0.25957092831E+01  0.22319421409E+03  0.00000000000E+00 0.  1.
<mgrwt>
<rscale>  0 0.20617545E+04</rscale>
<asrwt>0</asrwt>
<pdfrwt beam="1">  1        2 0.23742903E+00 0.20617545E+04</pdfrwt>
<pdfrwt beam="2">  1       -1 0.10593839E+00 0.20617545E+04</pdfrwt>
<totfact> 0.10537845E+01</totfact>
</mgrwt>
</event>
<event>
12    6  0.1450532E-007  0.3160168E+04  0.7818608E-02  0.8199417E-01
         -1   -1    0    0    0  501 -0.00000000000E+00  0.00000000000E+00  0.28454789209E+04  0.28454789209E+04  0.00000000000E+00 0.  1.
          2   -1    0    0  501    0  0.00000000000E+00 -0.00000000000E+00 -0.87741464418E+03  0.87741464418E+03  0.00000000000E+00 0. -1.
         24    2    1    2    0    0  0.98233966426E+03  0.30752621104E+03 -0.30022609303E+03  0.10744621688E+04  0.69062716403E+02 0.  0.
        254    2    1    2    0    0 -0.98233966426E+03 -0.30752621104E+03  0.22682903698E+04  0.26484313963E+04  0.89971332819E+03 0.  0.
         23    2    4    4    0    0 -0.15781461240E+03  0.18050887343E+03  0.96294546398E+02  0.27275635819E+03  0.87375545724E+02 0.  0.
         23    2    4    4    0    0 -0.82452505186E+03 -0.48803508447E+03  0.21719958234E+04  0.23756750381E+04  0.90808728745E+02 0.  0.
          2    1    3    3  502    0  0.91546849598E+03  0.27212812158E+03 -0.26593379983E+03  0.99139148049E+03  0.00000000000E+00 0. -1.
         -1    1    3    3    0  502  0.66871168276E+02  0.35398089461E+02 -0.34292293199E+02  0.83070688313E+02  0.00000000000E+00 0.  1.
         11    1    5    5    0    0 -0.64606622793E+02  0.37759361988E+02  0.65632427927E+02  0.99535926791E+02  0.00000000000E+00 0.  1.
        -11    1    5    5    0    0 -0.93207989608E+02  0.14274951144E+03  0.30662118470E+02  0.17322043139E+03  0.00000000000E+00 0. -1.
          3    1    6    6  503    0 -0.34416883795E+03 -0.20730226310E+03  0.80196874858E+03  0.89698399707E+03  0.00000000000E+00 0. -1.
         -3    1    6    6    0  503 -0.48035621391E+03 -0.28073282136E+03  0.13700270748E+04  0.14786910411E+04  0.00000000000E+00 0.  1.
<mgrwt>
<rscale>  0 0.31601676E+04</rscale>
<asrwt>0</asrwt>
<pdfrwt beam="1">  1        2 0.13498687E+00 0.31601676E+04</pdfrwt>
<pdfrwt beam="2">  1       -1 0.43776598E+00 0.31601676E+04</pdfrwt>
<totfact> 0.11486027E-01</totfact>
</mgrwt>
</event>
<event>
12    6  0.1566570E-007  0.2243237E+04  0.7818608E-02  0.8500645E-01
          2   -1    0    0  501    0  0.00000000000E+00  0.00000000000E+00  0.18441927734E+04  0.18441927734E+04  0.00000000000E+00 0. -1.
         -1   -1    0    0    0  501 -0.00000000000E+00 -0.00000000000E+00 -0.68215630384E+03  0.68215630384E+03  0.00000000000E+00 0.  1.
         24    2    1    2    0    0  0.15446200457E+01  0.85493603843E+03  0.39008380563E+02  0.85973547723E+03  0.81886637465E+02 0.  0.
        254    2    1    2    0    0 -0.15446200457E+01 -0.85493603843E+03  0.11230280890E+04  0.16666136000E+04  0.88627918139E+03 0.  0.
         23    2    4    4    0    0  0.10645522285E+03 -0.61224479982E+03  0.13868530500E+03  0.64308209946E+03  0.90247235061E+02 0.  0.
         23    2    4    4    0    0 -0.10799984290E+03 -0.24269123860E+03  0.98434278395E+03  0.10235315005E+04  0.90127758555E+02 0.  0.
          2    1    3    3  502    0  0.73580757101E+01  0.33602154819E+03 -0.24101130817E+02  0.33696511189E+03  0.00000000000E+00 0. -1.
         -1    1    3    3    0  502 -0.58134556644E+01  0.51891449024E+03  0.63109511380E+02  0.52277036534E+03  0.00000000000E+00 0.  1.
         11    1    5    5    0    0  0.56664507067E+02 -0.13764393899E+03  0.11927304542E+02  0.14932843298E+03  0.00000000000E+00 0.  1.
        -11    1    5    5    0    0  0.49790715787E+02 -0.47460086084E+03  0.12675800046E+03  0.49375366648E+03  0.00000000000E+00 0. -1.
          1    1    6    6  503    0 -0.40868065255E+02 -0.26898567813E+02  0.26653856237E+03  0.27099176545E+03  0.00000000000E+00 0. -1.
         -1    1    6    6    0  503 -0.67131777645E+02 -0.21579267079E+03  0.71780422158E+03  0.75253973507E+03  0.00000000000E+00 0.  1.
<mgrwt>
<rscale>  0 0.22432367E+04</rscale>
<asrwt>0</asrwt>
<pdfrwt beam="1">  1        2 0.28372196E+00 0.22432367E+04</pdfrwt>
<pdfrwt beam="2">  1       -1 0.10494712E+00 0.22432367E+04</pdfrwt>
<totfact> 0.72070654E+00</totfact>
</mgrwt>
</event>
<event>
12    6  0.1450532E-007  0.3178904E+04  0.7818608E-02  0.8194411E-01
          2   -1    0    0  501    0  0.00000000000E+00  0.00000000000E+00  0.24794097257E+04  0.24794097257E+04  0.00000000000E+00 0. -1.
         -1   -1    0    0    0  501 -0.00000000000E+00 -0.00000000000E+00 -0.10189353179E+04  0.10189353179E+04  0.00000000000E+00 0.  1.
         24    2    1    2    0    0 -0.66605466463E+03  0.10930248068E+04 -0.10244323798E+03  0.12866412261E+04  0.81357133350E+02 0.  0.
        254    2    1    2    0    0  0.66605466463E+03 -0.10930248068E+04  0.15629176458E+04  0.22117038175E+04  0.90032780922E+03 0.  0.
         23    2    4    4    0    0  0.25930496985E+03 -0.84117423952E+03  0.44408424125E+03  0.99103506532E+03  0.10063060534E+03 0.  0.
         23    2    4    4    0    0  0.40674969478E+03 -0.25185056725E+03  0.11188334046E+04  0.12206687521E+04  0.96798723452E+02 0.  0.
          2    1    3    3  502    0 -0.16447382559E+02  0.54621672507E+02  0.39046226570E+01  0.57177701761E+02  0.00000000000E+00 0. -1.
         -1    1    3    3    0  502 -0.64960728207E+03  0.10384031343E+04 -0.10634786064E+03  0.12294635243E+04  0.00000000000E+00 0.  1.
         11    1    5    5    0    0  0.47788649093E+02 -0.22903492385E+03  0.16223302490E+03  0.28471091601E+03  0.00000000000E+00 0.  1.
        -11    1    5    5    0    0  0.21151632076E+03 -0.61213931567E+03  0.28185121636E+03  0.70632414931E+03  0.00000000000E+00 0. -1.
          1    1    6    6  503    0  0.31749022288E+03 -0.23391227724E+03  0.95538389918E+03  0.10335731178E+04  0.00000000000E+00 0. -1.
         -1    1    6    6    0  503  0.89259471904E+02 -0.17938290014E+02  0.16344950539E+03  0.18709563433E+03  0.00000000000E+00 0.  1.
<mgrwt>
<rscale>  0 0.31789043E+04</rscale>
<asrwt>0</asrwt>
<pdfrwt beam="1">  1        2 0.38144765E+00 0.31789043E+04</pdfrwt>
<pdfrwt beam="2">  1       -1 0.15675928E+00 0.31789043E+04</pdfrwt>
<totfact> 0.10609214E+00</totfact>
</mgrwt>
</event>
<event>
12    6  0.1450532E-007  0.1415811E+04  0.7818608E-02  0.8942453E-01
         -1   -1    0    0    0  501 -0.00000000000E+00  0.00000000000E+00  0.29894119423E+03  0.29894119423E+03  0.00000000000E+00 0.  1.
          2   -1    0    0  501    0  0.00000000000E+00 -0.00000000000E+00 -0.16763505467E+04  0.16763505467E+04  0.00000000000E+00 0. -1.
         24    2    1    2    0    0 -0.22628095423E+03 -0.79861494354E+02  0.48861013364E+02  0.25765141264E+03  0.80099458683E+02 0.  0.
        254    2    1    2    0    0  0.22628095423E+03  0.79861494354E+02 -0.14262703658E+04  0.17176403283E+04  0.92653127976E+03 0.  0.
         23    2    4    4    0    0 -0.13637284359E+03 -0.15366162257E+03 -0.12027211903E+04  0.12234504915E+04  0.89907713233E+02 0.  0.
         23    2    4    4    0    0  0.36265379782E+03  0.23352311693E+03 -0.22354917555E+03  0.49418983678E+03  0.90545776661E+02 0.  0.
          2    1    3    3  502    0 -0.17775178098E+01  0.10356063743E+02  0.54449867847E+01  0.11834504928E+02  0.00000000000E+00 0. -1.
         -1    1    3    3    0  502 -0.22450343642E+03 -0.90217558098E+02  0.43416026579E+02  0.24581690771E+03  0.00000000000E+00 0.  1.
         11    1    5    5    0    0  0.44678757513E+01 -0.66176172075E+01 -0.20548447575E+03  0.20563955006E+03  0.00000000000E+00 0. -1.
        -11    1    5    5    0    0 -0.14084071934E+03 -0.14704400537E+03 -0.99723671453E+03  0.10178109415E+04  0.00000000000E+00 0.  1.
          4    1    6    6  503    0  0.65287917734E+02  0.46443437133E+02 -0.84241053078E+02  0.11625859142E+03  0.00000000000E+00 0. -1.
         -4    1    6    6    0  503  0.29736588009E+03  0.18707967979E+03 -0.13930812247E+03  0.37793124536E+03  0.00000000000E+00 0.  1.
<mgrwt>
<rscale>  0 0.14158111E+04</rscale>
<asrwt>0</asrwt>
<pdfrwt beam="1">  1        2 0.25790008E+00 0.14158111E+04</pdfrwt>
<pdfrwt beam="2">  1       -1 0.45990953E-01 0.14158111E+04</pdfrwt>
<totfact> 0.52638607E+01</totfact>
</mgrwt>
</event>
<event>
12    6  0.1450532E-007  0.2634873E+04  0.7818608E-02  0.8356451E-01
         -1   -1    0    0    0  501 -0.00000000000E+00  0.00000000000E+00  0.74136935773E+03  0.74136935773E+03  0.00000000000E+00 0.  1.
          2   -1    0    0  501    0  0.00000000000E+00 -0.00000000000E+00 -0.23411255801E+04  0.23411255801E+04  0.00000000000E+00 0. -1.
         24    2    1    2    0    0 -0.15212160176E+03 -0.20017721068E+03 -0.20325225599E+04  0.20495579024E+04  0.79547101577E+02 0.  0.
        254    2    1    2    0    0  0.15212160176E+03  0.20017721068E+03  0.43276633746E+03  0.10329370355E+04  0.90358193822E+03 0.  0.
         23    2    4    4    0    0 -0.29975448717E+03 -0.14488454242E+03  0.25836514255E+03  0.43173273796E+03  0.93788735618E+02 0.  0.
         23    2    4    4    0    0  0.45187608893E+03  0.34506175311E+03  0.17440119491E+03  0.60120429755E+03  0.88154508636E+02 0.  0.
          2    1    3    3  502    0 -0.13232452947E+03 -0.20170085589E+03 -0.19391763052E+04  0.19541232712E+04  0.00000000000E+00 0. -1.
         -1    1    3    3    0  502 -0.19797072293E+02  0.15236452094E+01 -0.93346254627E+02  0.95434631130E+02  0.00000000000E+00 0.  1.
         11    1    5    5    0    0 -0.28346641402E+03 -0.10756973608E+03  0.24169163602E+03  0.38773612537E+03  0.00000000000E+00 0. -1.
        -11    1    5    5    0    0 -0.16288073156E+02 -0.37314806339E+02  0.16673506531E+02  0.43996612589E+02  0.00000000000E+00 0.  1.
          1    1    6    6  503    0  0.40163344303E+03  0.32762541598E+03  0.13676743395E+03  0.53605332454E+03  0.00000000000E+00 0. -1.
         -1    1    6    6    0  503  0.50242645902E+02  0.17436337123E+02  0.37633760962E+02  0.65150973006E+02  0.00000000000E+00 0.  1.
<mgrwt>
<rscale>  0 0.26348729E+04</rscale>
<asrwt>0</asrwt>
<pdfrwt beam="1">  1        2 0.36017317E+00 0.26348729E+04</pdfrwt>
<pdfrwt beam="2">  1       -1 0.11405682E+00 0.26348729E+04</pdfrwt>
<totfact> 0.30162256E+00</totfact>
</mgrwt>
</event>
<event>
12    6  0.1450532E-007  0.1675362E+04  0.7818608E-02  0.8775542E-01
          2   -1    0    0  501    0  0.00000000000E+00  0.00000000000E+00  0.10934799687E+04  0.10934799687E+04  0.00000000000E+00 0. -1.
         -1   -1    0    0    0  501 -0.00000000000E+00 -0.00000000000E+00 -0.64172165565E+03  0.64172165565E+03  0.00000000000E+00 0.  1.
         24    2    1    2    0    0  0.25844399095E+03 -0.50986396678E+02  0.57453951889E+03  0.63713125119E+03  0.80297343507E+02 0.  0.
        254    2    1    2    0    0 -0.25844399095E+03  0.50986396678E+02 -0.12278120585E+03  0.10980703731E+04  0.10589100107E+04 0.  0.
         23    2    4    4    0    0 -0.53219373548E+03 -0.26875017115E+03  0.10287108906E+03  0.61180110084E+03  0.90891690768E+02 0.  0.
         23    2    4    4    0    0  0.27374974452E+03  0.31973656782E+03 -0.22565229491E+03  0.48626927230E+03  0.91479241120E+02 0.  0.
          2    1    3    3  502    0  0.21099263330E+03 -0.33501372684E+02  0.52288083301E+03  0.56484033037E+03  0.00000000000E+00 0. -1.
         -1    1    3    3    0  502  0.47451357651E+02 -0.17485023994E+02  0.51658685878E+02  0.72290920825E+02  0.00000000000E+00 0.  1.
         11    1    5    5    0    0 -0.36792022676E+03 -0.21111016857E+03  0.10769260873E+03  0.43764197069E+03  0.00000000000E+00 0. -1.
        -11    1    5    5    0    0 -0.16427350871E+03 -0.57640002580E+02 -0.48215196677E+01  0.17415913015E+03  0.00000000000E+00 0.  1.
          2    1    6    6  503    0  0.27691015024E+03  0.32163202796E+03 -0.22811899242E+03  0.48183468889E+03  0.00000000000E+00 0. -1.
         -2    1    6    6    0  503 -0.31604057128E+01 -0.18954601380E+01  0.24666975127E+01  0.44345834104E+01  0.00000000000E+00 0.  1.
<mgrwt>
<rscale>  0 0.16753624E+04</rscale>
<asrwt>0</asrwt>
<pdfrwt beam="1">  1        2 0.16822769E+00 0.16753624E+04</pdfrwt>
<pdfrwt beam="2">  1       -1 0.98726409E-01 0.16753624E+04</pdfrwt>
<totfact> 0.23472172E+01</totfact>
</mgrwt>
</event>
<event>
12    6  0.1450532E-007  0.1371388E+04  0.7818608E-02  0.8974794E-01
          2   -1    0    0  501    0  0.00000000000E+00  0.00000000000E+00  0.62779072451E+03  0.62779072451E+03  0.00000000000E+00 0. -1.
         -1   -1    0    0    0  501 -0.00000000000E+00 -0.00000000000E+00 -0.74893806090E+03  0.74893806090E+03  0.00000000000E+00 0.  1.
         24    2    1    2    0    0 -0.81780063660E+02  0.25344297232E+03  0.24612170867E+03  0.37136338275E+03  0.80084627364E+02 0.  0.
        254    2    1    2    0    0  0.81780063660E+02 -0.25344297232E+03 -0.36726904505E+03  0.10053654027E+04  0.89719101778E+03 0.  0.
         23    2    4    4    0    0  0.45823318817E+03 -0.25519341503E+03 -0.11667588948E+03  0.54427290911E+03  0.86708722710E+02 0.  0.
         23    2    4    4    0    0 -0.37645312451E+03  0.17504427019E+01 -0.25059315557E+03  0.46109249355E+03  0.89940752611E+02 0.  0.
          2    1    3    3  502    0 -0.54677268860E+02  0.20645656456E+03  0.23194759266E+03  0.31529922696E+03  0.00000000000E+00 0. -1.
         -1    1    3    3    0  502 -0.27102794799E+02  0.46986407764E+02  0.14174116010E+02  0.56064155797E+02  0.00000000000E+00 0.  1.
         11    1    5    5    0    0  0.38347616890E+03 -0.24757447627E+03 -0.98335761089E+02  0.46692292225E+03  0.00000000000E+00 0. -1.
        -11    1    5    5    0    0  0.74757019273E+02 -0.76189387562E+01 -0.18340128394E+02  0.77349986864E+02  0.00000000000E+00 0.  1.
          4    1    6    6  503    0 -0.36076748140E+03 -0.13136066201E+02 -0.25061085167E+03  0.43946732626E+03  0.00000000000E+00 0. -1.
         -4    1    6    6    0  503 -0.15685643112E+02  0.14886508903E+02  0.17696100073E-01  0.21625167290E+02  0.00000000000E+00 0.  1.
<mgrwt>
<rscale>  0 0.13713882E+04</rscale>
<asrwt>0</asrwt>
<pdfrwt beam="1">  1        2 0.96583189E-01 0.13713882E+04</pdfrwt>
<pdfrwt beam="2">  1       -1 0.11522124E+00 0.13713882E+04</pdfrwt>
<totfact> 0.35748625E+01</totfact>
</mgrwt>
</event>
<event>
12    6  0.1450532E-007  0.3006731E+04  0.7818608E-02  0.8241811E-01
         -1   -1    0    0    0  501 -0.00000000000E+00  0.00000000000E+00  0.12132505336E+04  0.12132505336E+04  0.00000000000E+00 0.  1.
          2   -1    0    0  501    0  0.00000000000E+00 -0.00000000000E+00 -0.18628536165E+04  0.18628536165E+04  0.00000000000E+00 0. -1.
         24    2    1    2    0    0 -0.39520212572E+03  0.28318898837E+03 -0.16071669851E+04  0.16810253181E+04  0.80496452038E+02 0.  0.
        254    2    1    2    0    0  0.39520212572E+03 -0.28318898837E+03  0.95756390216E+03  0.13950788319E+04  0.89046931296E+03 0.  0.
         23    2    4    4    0    0 -0.20308789710E+03  0.10597565724E+03  0.45462314772E+03  0.51715829886E+03  0.91076702638E+02 0.  0.
         23    2    4    4    0    0  0.59829002282E+03 -0.38916464561E+03  0.50294075443E+03  0.87792053308E+03  0.91624162452E+02 0.  0.
          2    1    3    3  502    0 -0.36916064366E+03  0.25073066902E+03 -0.13890474612E+04  0.14589716580E+04  0.00000000000E+00 0. -1.
         -1    1    3    3    0  502 -0.26041482059E+02  0.32458319350E+02 -0.21811952390E+03  0.22205366015E+03  0.00000000000E+00 0.  1.
         11    1    5    5    0    0  0.74125833773E+01 -0.14598362703E+01  0.32638880772E+02  0.33501851476E+02  0.00000000000E+00 0. -1.
        -11    1    5    5    0    0 -0.21050048048E+03  0.10743549351E+03  0.42198426695E+03  0.48365644739E+03  0.00000000000E+00 0.  1.
          1    1    6    6  503    0  0.27377928800E+02 -0.41974230977E+02  0.22488427873E+02  0.54928284515E+02  0.00000000000E+00 0. -1.
         -1    1    6    6    0  503  0.57091209402E+03 -0.34719041463E+03  0.48045232656E+03  0.82299224857E+03  0.00000000000E+00 0.  1.
<mgrwt>
<rscale>  0 0.30067312E+04</rscale>
<asrwt>0</asrwt>
<pdfrwt beam="1">  1        2 0.28659286E+00 0.30067312E+04</pdfrwt>
<pdfrwt beam="2">  1       -1 0.18665393E+00 0.30067312E+04</pdfrwt>
<totfact> 0.14461875E+00</totfact>
</mgrwt>
</event>
<event>
12    6  0.1450532E-007  0.1037186E+04  0.7818608E-02  0.9268674E-01
          2   -1    0    0  501    0  0.00000000000E+00  0.00000000000E+00  0.21097619438E+04  0.21097619438E+04  0.00000000000E+00 0. -1.
         -1   -1    0    0    0  501 -0.00000000000E+00 -0.00000000000E+00 -0.12747352214E+03  0.12747352214E+03  0.00000000000E+00 0.  1.
         24    2    1    2    0    0 -0.96902654562E+02  0.40963170042E+02  0.30303032904E+03  0.33021592860E+03  0.78403274314E+02 0.  0.
        254    2    1    2    0    0  0.96902654562E+02 -0.40963170042E+02  0.16792580926E+04  0.19070195374E+04  0.89763448488E+03 0.  0.
         23    2    4    4    0    0  0.10829932722E+03  0.68471152452E+02  0.17431958301E+04  0.17503097547E+04  0.91844936800E+02 0.  0.
         23    2    4    4    0    0 -0.11396672655E+02 -0.10943432249E+03 -0.63937737483E+02  0.15670978262E+03  0.91455817786E+02 0.  0.
          2    1    3    3  502    0 -0.10941995405E+03  0.43328264124E+02  0.26118500181E+03  0.28647455383E+03  0.00000000000E+00 0. -1.
         -1    1    3    3    0  502  0.12517299493E+02 -0.23650940824E+01  0.41845327227E+02  0.43741374777E+02  0.00000000000E+00 0.  1.
         11    1    5    5    0    0  0.75158896805E+02 -0.16680995432E+01  0.64239279885E+03  0.64677673917E+03  0.00000000000E+00 0. -1.
        -11    1    5    5    0    0  0.33140430412E+02  0.70139251995E+02  0.11008030313E+04  0.11035330156E+04  0.00000000000E+00 0.  1.
          2    1    6    6  503    0 -0.50172838171E+02 -0.59380685445E+02 -0.22100401148E+02  0.80819596788E+02  0.00000000000E+00 0. -1.
         -2    1    6    6    0  503  0.38776165516E+02 -0.50053637049E+02 -0.41837336335E+02  0.75890185832E+02  0.00000000000E+00 0.  1.
<mgrwt>
<rscale>  0 0.10371862E+04</rscale>
<asrwt>0</asrwt>
<pdfrwt beam="1">  1        2 0.32457873E+00 0.10371862E+04</pdfrwt>
<pdfrwt beam="2">  1       -1 0.19611313E-01 0.10371862E+04</pdfrwt>
<totfact> 0.13983443E+02</totfact>
</mgrwt>
</event>
<event>
12    6  0.1450532E-007  0.1624548E+04  0.7818608E-02  0.8805608E-01
          2   -1    0    0  501    0  0.00000000000E+00  0.00000000000E+00  0.82148836581E+03  0.82148836581E+03  0.00000000000E+00 0. -1.
         -1   -1    0    0    0  501 -0.00000000000E+00 -0.00000000000E+00 -0.80316292401E+03  0.80316292401E+03  0.00000000000E+00 0.  1.
         24    2    1    2    0    0 -0.43429610567E+03  0.27321463227E+03  0.23315358304E+03  0.56930674058E+03  0.80561956849E+02 0.  0.
        254    2    1    2    0    0  0.43429610567E+03 -0.27321463227E+03 -0.21482814125E+03  0.10553445492E+04  0.89685096010E+03 0.  0.
         23    2    4    4    0    0  0.19394270788E+03  0.32035709614E+03 -0.10352372236E+03  0.39910977267E+03  0.91263391137E+02 0.  0.
         23    2    4    4    0    0  0.24035339780E+03 -0.59357172842E+03 -0.11130441888E+03  0.65623477656E+03  0.90323062940E+02 0.  0.
          2    1    3    3  502    0 -0.18525481657E+03  0.14794262820E+03  0.74294823551E+02  0.24844735681E+03  0.00000000000E+00 0. -1.
         -1    1    3    3    0  502 -0.24904128911E+03  0.12527200407E+03  0.15885875949E+03  0.32085938377E+03  0.00000000000E+00 0.  1.
         11    1    5    5    0    0  0.53528638945E+02  0.52424136159E+02  0.10864841884E+02  0.75707661624E+02  0.00000000000E+00 0.  1.
        -11    1    5    5    0    0  0.14041406893E+03  0.26793295998E+03 -0.11438856425E+03  0.32340211105E+03  0.00000000000E+00 0. -1.
          4    1    6    6  503    0  0.15496543657E+03 -0.46820943023E+03 -0.10606580594E+03  0.50446438157E+03  0.00000000000E+00 0. -1.
         -4    1    6    6    0  503  0.85387961230E+02 -0.12536229819E+03 -0.52386129464E+01  0.15177039499E+03  0.00000000000E+00 0.  1.
<mgrwt>
<rscale>  0 0.16245479E+04</rscale>
<asrwt>0</asrwt>
<pdfrwt beam="1">  1        2 0.12638283E+00 0.16245479E+04</pdfrwt>
<pdfrwt beam="2">  1       -1 0.12356353E+00 0.16245479E+04</pdfrwt>
<totfact> 0.20924870E+01</totfact>
</mgrwt>
</event>
<event>
12    6  0.1450532E-007  0.1683455E+04  0.7818608E-02  0.8770857E-01
         -1   -1    0    0    0  501 -0.00000000000E+00  0.00000000000E+00  0.70803421853E+03  0.70803421853E+03  0.00000000000E+00 0.  1.
          2   -1    0    0  501    0  0.00000000000E+00 -0.00000000000E+00 -0.10006652338E+04  0.10006652338E+04  0.00000000000E+00 0. -1.
         24    2    1    2    0    0 -0.11799330857E+02  0.61331048785E+03 -0.26030742271E+03  0.67125077071E+03  0.80800149399E+02 0.  0.
        254    2    1    2    0    0  0.11799330857E+02 -0.61331048785E+03 -0.32323592541E+02  0.10374486816E+04  0.83604184921E+03 0.  0.
         23    2    4    4    0    0  0.34275007574E+03 -0.23222238027E+03 -0.23740837836E+03  0.48513618298E+03  0.87117906332E+02 0.  0.
         23    2    4    4    0    0 -0.33095074488E+03 -0.38108810758E+03  0.20508478582E+03  0.55231249863E+03  0.90734698362E+02 0.  0.
          2    1    3    3  502    0 -0.15814682807E+02  0.59020362566E+03 -0.26528333868E+03  0.64727557788E+03  0.00000000000E+00 0. -1.
         -1    1    3    3    0  502  0.40153519506E+01  0.23106862187E+02  0.49759159702E+01  0.23975192829E+02  0.00000000000E+00 0.  1.
         11    1    5    5    0    0  0.15485917162E+03 -0.69185247653E+02 -0.61319631504E+02  0.18035536792E+03  0.00000000000E+00 0. -1.
        -11    1    5    5    0    0  0.18789090412E+03 -0.16303713261E+03 -0.17608874686E+03  0.30478081506E+03  0.00000000000E+00 0.  1.
          1    1    6    6  503    0 -0.13932418261E+03 -0.20836194233E+03  0.65857870617E+02  0.25915861165E+03  0.00000000000E+00 0. -1.
         -1    1    6    6    0  503 -0.19162656228E+03 -0.17272616525E+03  0.13922691521E+03  0.29315388698E+03  0.00000000000E+00 0.  1.
<mgrwt>
<rscale>  0 0.16834551E+04</rscale>
<asrwt>0</asrwt>
<pdfrwt beam="1">  1        2 0.15394850E+00 0.16834551E+04</pdfrwt>
<pdfrwt beam="2">  1       -1 0.10892834E+00 0.16834551E+04</pdfrwt>
<totfact> 0.21368784E+01</totfact>
</mgrwt>
</event>
<event>
12    6  0.1450532E-007  0.2421910E+04  0.7818608E-02  0.8431346E-01
          2   -1    0    0  501    0  0.00000000000E+00  0.00000000000E+00  0.24737396540E+04  0.24737396540E+04  0.00000000000E+00 0. -1.
         -1   -1    0    0    0  501 -0.00000000000E+00 -0.00000000000E+00 -0.59279151876E+03  0.59279151876E+03  0.00000000000E+00 0.  1.
         24    2    1    2    0    0 -0.32181647177E+03  0.97843884086E+03  0.10198828794E+04  0.14515751896E+04  0.77466357947E+02 0.  0.
        254    2    1    2    0    0  0.32181647177E+03 -0.97843884086E+03  0.86106525583E+03  0.16149559831E+04  0.89763079597E+03 0.  0.
         23    2    4    4    0    0 -0.10404199310E+03 -0.88252455458E+03  0.41901533976E+03  0.98686300975E+03  0.93007630280E+02 0.  0.
         23    2    4    4    0    0  0.42585846487E+03 -0.95914286280E+02  0.44204991608E+03  0.62809297339E+03  0.92399526581E+02 0.  0.
          2    1    3    3  502    0 -0.19330319245E+03  0.62349306111E+03  0.69555012377E+03  0.95388662646E+03  0.00000000000E+00 0. -1.
         -1    1    3    3    0  502 -0.12851327932E+03  0.35494577975E+03  0.32433275565E+03  0.49768856317E+03  0.00000000000E+00 0.  1.
         11    1    5    5    0    0 -0.44136184214E+02 -0.12943479008E+03  0.83598821143E+02  0.16028141045E+03  0.00000000000E+00 0. -1.
        -11    1    5    5    0    0 -0.59905808883E+02 -0.75308976450E+03  0.33541651861E+03  0.82658159930E+03  0.00000000000E+00 0.  1.
          4    1    6    6  503    0  0.19262986113E+03 -0.44210462174E+02  0.13628825179E+03  0.24007356360E+03  0.00000000000E+00 0. -1.
         -4    1    6    6    0  503  0.23322860374E+03 -0.51703824107E+02  0.30576166429E+03  0.38801940980E+03  0.00000000000E+00 0.  1.
<mgrwt>
<rscale>  0 0.24219099E+04</rscale>
<asrwt>0</asrwt>
<pdfrwt beam="1">  1        2 0.38057533E+00 0.24219099E+04</pdfrwt>
<pdfrwt beam="2">  1       -1 0.91198696E-01 0.24219099E+04</pdfrwt>
<totfact> 0.43176335E+00</totfact>
</mgrwt>
</event>
<event>
12    6  0.1450532E-007  0.1640541E+04  0.7818608E-02  0.8796022E-01
          2   -1    0    0  501    0  0.00000000000E+00  0.00000000000E+00  0.96550671523E+03  0.96550671523E+03  0.00000000000E+00 0. -1.
         -1   -1    0    0    0  501 -0.00000000000E+00 -0.00000000000E+00 -0.69688167730E+03  0.69688167730E+03  0.00000000000E+00 0.  1.
         24    2    1    2    0    0 -0.31234313823E+03  0.45071157216E+03  0.28489234119E+03  0.62227238671E+03  0.73212839871E+02 0.  0.
        254    2    1    2    0    0  0.31234313823E+03 -0.45071157216E+03 -0.16267303256E+02  0.10401160058E+04  0.88367274664E+03 0.  0.
         23    2    4    4    0    0  0.31132306951E+03 -0.28717447693E+03  0.39605356071E+03  0.58746762947E+03  0.94173026476E+02 0.  0.
         23    2    4    4    0    0  0.10200687113E+01 -0.16353709523E+03 -0.41232086397E+03  0.45264837635E+03  0.90203302039E+02 0.  0.
          4    1    3    3  502    0 -0.22971572417E+02  0.42469545365E+02  0.49928196670E+02  0.69456318975E+02  0.00000000000E+00 0. -1.
         -3    1    3    3    0  502 -0.28937156581E+03  0.40824202679E+03  0.23496414452E+03  0.55281606773E+03  0.00000000000E+00 0.  1.
         11    1    5    5    0    0  0.26772792210E+03 -0.26190899327E+03  0.38240491783E+03  0.53526449743E+03  0.00000000000E+00 0.  1.
        -11    1    5    5    0    0  0.43595147410E+02 -0.25265483660E+02  0.13648642876E+02  0.52203132039E+02  0.00000000000E+00 0. -1.
          2    1    6    6  503    0  0.12317714453E+02 -0.94040848820E+02 -0.12547417009E+03  0.15728691838E+03  0.00000000000E+00 0. -1.
         -2    1    6    6    0  503 -0.11297645742E+02 -0.69496246407E+02 -0.28684669388E+03  0.29536145797E+03  0.00000000000E+00 0.  1.
<mgrwt>
<rscale>  0 0.16405413E+04</rscale>
<asrwt>0</asrwt>
<pdfrwt beam="1">  1        2 0.14853949E+00 0.16405413E+04</pdfrwt>
<pdfrwt beam="2">  1       -1 0.10721257E+00 0.16405413E+04</pdfrwt>
<totfact> 0.23460188E+01</totfact>
</mgrwt>
</event>
<event>
12    6  0.1450532E-007  0.2053578E+04  0.7818608E-02  0.8581973E-01
          2   -1    0    0  501    0  0.00000000000E+00  0.00000000000E+00  0.11953391112E+04  0.11953391112E+04  0.00000000000E+00 0. -1.
         -1   -1    0    0    0  501 -0.00000000000E+00 -0.00000000000E+00 -0.88200517654E+03  0.88200517654E+03  0.00000000000E+00 0.  1.
         24    2    1    2    0    0 -0.81600961030E+03 -0.59478627329E+02  0.27155145464E+03  0.86580925816E+03  0.80474143632E+02 0.  0.
        254    2    1    2    0    0  0.81600961030E+03  0.59478627329E+02  0.41782479976E+02  0.12115350295E+04  0.89255921985E+03 0.  0.
         23    2    4    4    0    0  0.57316149900E+03 -0.25125651342E+03  0.33135401665E+03  0.71383510424E+03  0.90117324788E+02 0.  0.
         23    2    4    4    0    0  0.24284811130E+03  0.31073514075E+03 -0.28957153668E+03  0.49769992529E+03  0.91225039978E+02 0.  0.
          2    1    3    3  502    0 -0.74564092863E+03 -0.75397398537E+02  0.23873005149E+03  0.78654764614E+03  0.00000000000E+00 0. -1.
         -1    1    3    3    0  502 -0.70368681663E+02  0.15918771208E+02  0.32821403147E+02  0.79261612022E+02  0.00000000000E+00 0.  1.
         11    1    5    5    0    0  0.44786951014E+03 -0.21786721245E+03  0.29627066892E+03  0.57950800653E+03  0.00000000000E+00 0. -1.
        -11    1    5    5    0    0  0.12529198886E+03 -0.33389300972E+02  0.35083347739E+02  0.13432709771E+03  0.00000000000E+00 0.  1.
          1    1    6    6  503    0  0.12611142073E+03  0.22258189069E+03 -0.21123201515E+03  0.33176159019E+03  0.00000000000E+00 0. -1.
         -1    1    6    6    0  503  0.11673669057E+03  0.88153250060E+02 -0.78339521526E+02  0.16593833510E+03  0.00000000000E+00 0.  1.
<mgrwt>
<rscale>  0 0.20535776E+04</rscale>
<asrwt>0</asrwt>
<pdfrwt beam="1">  1        2 0.18389832E+00 0.20535776E+04</pdfrwt>
<pdfrwt beam="2">  1       -1 0.13569310E+00 0.20535776E+04</pdfrwt>
<totfact> 0.91408282E+00</totfact>
</mgrwt>
</event>
<event>
12    6  0.1450532E-007  0.1953925E+04  0.7818608E-02  0.8628470E-01
          2   -1    0    0  501    0  0.00000000000E+00  0.00000000000E+00  0.93948806372E+03  0.93948806372E+03  0.00000000000E+00 0. -1.
         -1   -1    0    0    0  501 -0.00000000000E+00 -0.00000000000E+00 -0.10159319256E+04  0.10159319256E+04  0.00000000000E+00 0.  1.
         24    2    1    2    0    0 -0.37857124643E+03 -0.15609727738E+03  0.61114307081E+03  0.73984331944E+03  0.78674873299E+02 0.  0.
        254    2    1    2    0    0  0.37857124643E+03  0.15609727738E+03 -0.68758693273E+03  0.12155766699E+04  0.91496901683E+03 0.  0.
         23    2    4    4    0    0  0.16340217412E+03 -0.17855827535E+03 -0.75822806252E+03  0.80108039206E+03  0.90756110286E+02 0.  0.
         23    2    4    4    0    0  0.21516907231E+03  0.33465555273E+03  0.70641129789E+02  0.41449627786E+03  0.92330528460E+02 0.  0.
          2    1    3    3  502    0 -0.25998369818E+03 -0.12531624183E+03  0.48222984223E+03  0.56199760188E+03  0.00000000000E+00 0. -1.
         -1    1    3    3    0  502 -0.11858754825E+03 -0.30781035551E+02  0.12891322858E+03  0.17784571755E+03  0.00000000000E+00 0.  1.
         11    1    5    5    0    0  0.92631680322E+02 -0.13234630841E+03 -0.60378146183E+03  0.62501858148E+03  0.00000000000E+00 0. -1.
        -11    1    5    5    0    0  0.70770493796E+02 -0.46211966934E+02 -0.15444660069E+03  0.17606181058E+03  0.00000000000E+00 0.  1.
          1    1    6    6  503    0  0.16968246408E+03  0.19500671447E+03  0.20515622012E+02  0.25930801771E+03  0.00000000000E+00 0. -1.
         -1    1    6    6    0  503  0.45486608235E+02  0.13964883826E+03  0.50125507777E+02  0.15518826014E+03  0.00000000000E+00 0.  1.
<mgrwt>
<rscale>  0 0.19539252E+04</rscale>
<asrwt>0</asrwt>
<pdfrwt beam="1">  1        2 0.14453663E+00 0.19539252E+04</pdfrwt>
<pdfrwt beam="2">  1       -1 0.15629722E+00 0.19539252E+04</pdfrwt>
<totfact> 0.91545221E+00</totfact>
</mgrwt>
</event>
<event>
12    6  0.1450532E-007  0.1626199E+04  0.7818608E-02  0.8804613E-01
          2   -1    0    0  501    0  0.00000000000E+00  0.00000000000E+00  0.96097658750E+03  0.96097658750E+03  0.00000000000E+00 0. -1.
         -1   -1    0    0    0  501 -0.00000000000E+00 -0.00000000000E+00 -0.68797763312E+03  0.68797763312E+03  0.00000000000E+00 0.  1.
         24    2    1    2    0    0 -0.21979127334E+03  0.59575728564E+01 -0.42662045557E+03  0.48672461921E+03  0.80945323055E+02 0.  0.
        254    2    1    2    0    0  0.21979127334E+03 -0.59575728564E+01  0.69961940995E+03  0.11622296014E+04  0.90164662208E+03 0.  0.
         23    2    4    4    0    0  0.32753471342E+03  0.23331915709E+03  0.33170748538E+01  0.41242011470E+03  0.91446872359E+02 0.  0.
         23    2    4    4    0    0 -0.10774344009E+03 -0.23927672994E+03  0.69630233510E+03  0.74980948671E+03  0.92278503015E+02 0.  0.
          4    1    3    3  502    0 -0.33600957414E+02 -0.12504328316E+02 -0.25145153780E+02  0.43791110107E+02  0.00000000000E+00 0. -1.
         -3    1    3    3    0  502 -0.18619031592E+03  0.18461901172E+02 -0.40147530179E+03  0.44293350910E+03  0.00000000000E+00 0.  1.
         11    1    5    5    0    0  0.15576788907E+03  0.16339442544E+03 -0.13864296336E+02  0.22617159911E+03  0.00000000000E+00 0.  1.
        -11    1    5    5    0    0  0.17176682436E+03  0.69924731644E+02  0.17181371190E+02  0.18624851560E+03  0.00000000000E+00 0. -1.
          4    1    6    6  503    0 -0.37866311907E+02 -0.20708061508E+02  0.64321653608E+02  0.77459386209E+02  0.00000000000E+00 0. -1.
         -4    1    6    6    0  503 -0.69877128180E+02 -0.21856866844E+03  0.63198068149E+03  0.67235010050E+03  0.00000000000E+00 0.  1.
<mgrwt>
<rscale>  0 0.16261985E+04</rscale>
<asrwt>0</asrwt>
<pdfrwt beam="1">  1        2 0.14784255E+00 0.16261985E+04</pdfrwt>
<pdfrwt beam="2">  1       -1 0.10584271E+00 0.16261985E+04</pdfrwt>
<totfact> 0.24371282E+01</totfact>
</mgrwt>
</event>
<event>
12    6  0.1450532E-007  0.2577683E+04  0.7818608E-02  0.8375822E-01
          2   -1    0    0  501    0  0.00000000000E+00  0.00000000000E+00  0.94653016595E+03  0.94653016595E+03  0.00000000000E+00 0. -1.
         -1   -1    0    0    0  501 -0.00000000000E+00 -0.00000000000E+00 -0.17549489127E+04  0.17549489127E+04  0.00000000000E+00 0.  1.
         24    2    1    2    0    0 -0.33109834663E+03 -0.41647892280E+00 -0.14902249373E+04  0.15285636164E+04  0.78166982548E+02 0.  0.
        254    2    1    2    0    0  0.33109834663E+03  0.41647892280E+00  0.68180619053E+03  0.11729154622E+04  0.89512273543E+03 0.  0.
         23    2    4    4    0    0  0.19598571756E+03 -0.36378629153E+03  0.64604783313E+03  0.77305230017E+03  0.97371395811E+02 0.  0.
         23    2    4    4    0    0  0.13511262907E+03  0.36420277045E+03  0.35758357406E+02  0.39986316205E+03  0.87822592232E+02 0.  0.
          2    1    3    3  502    0 -0.39735350160E+02  0.26075224902E+02 -0.22199350758E+03  0.22702407981E+03  0.00000000000E+00 0. -1.
         -1    1    3    3    0  502 -0.29136299647E+03 -0.26491703824E+02 -0.12682314297E+04  0.13015395366E+04  0.00000000000E+00 0.  1.
         11    1    5    5    0    0  0.49222473449E+02 -0.64062627690E+02  0.20216216200E+03  0.21770717008E+03  0.00000000000E+00 0.  1.
        -11    1    5    5    0    0  0.14676324411E+03 -0.29972366384E+03  0.44388567112E+03  0.55534513009E+03  0.00000000000E+00 0. -1.
          4    1    6    6  503    0  0.13324368779E+03  0.25047017052E+03  0.36998098982E+02  0.28610845144E+03  0.00000000000E+00 0. -1.
         -4    1    6    6    0  503  0.18689412813E+01  0.11373259993E+03 -0.12397415760E+01  0.11375471062E+03  0.00000000000E+00 0.  1.
<mgrwt>
<rscale>  0 0.25776827E+04</rscale>
<asrwt>0</asrwt>
<pdfrwt beam="1">  1        2 0.14562003E+00 0.25776827E+04</pdfrwt>
<pdfrwt beam="2">  1       -1 0.26999214E+00 0.25776827E+04</pdfrwt>
<totfact> 0.14249803E+00</totfact>
</mgrwt>
</event>
<event>
12    6  0.1450532E-007  0.1380879E+04  0.7818608E-02  0.8967777E-01
          2   -1    0    0  501    0  0.00000000000E+00  0.00000000000E+00  0.84197028267E+03  0.84197028267E+03  0.00000000000E+00 0. -1.
         -1   -1    0    0    0  501 -0.00000000000E+00 -0.00000000000E+00 -0.56618011231E+03  0.56618011231E+03  0.00000000000E+00 0.  1.
         24    2    1    2    0    0 -0.97284363998E+01 -0.16193345227E+02  0.47028040768E+03  0.47740528288E+03  0.79970465619E+02 0.  0.
        254    2    1    2    0    0  0.97284363998E+01  0.16193345227E+02 -0.19449023731E+03  0.93074511210E+03  0.91000172768E+03 0.  0.
         23    2    4    4    0    0  0.43004892093E+03 -0.14625223818E+02 -0.23259936728E+03  0.49772829765E+03  0.92059877577E+02 0.  0.
         23    2    4    4    0    0 -0.42032048453E+03  0.30818569045E+02  0.38109129964E+02  0.43301681445E+03  0.91826803763E+02 0.  0.
          4    1    3    3  502    0 -0.61013675384E+01  0.30952865762E+02  0.25802819196E+03  0.25994971520E+03  0.00000000000E+00 0. -1.
         -3    1    3    3    0  502 -0.36270688613E+01 -0.47146210989E+02  0.21225221572E+03  0.21745556769E+03  0.00000000000E+00 0.  1.
         11    1    5    5    0    0  0.31085798734E+03 -0.40682219757E+02 -0.13435893985E+03  0.34108658141E+03  0.00000000000E+00 0. -1.
        -11    1    5    5    0    0  0.11919093360E+03  0.26056995939E+02 -0.98240427425E+02  0.15664171625E+03  0.00000000000E+00 0.  1.
          2    1    6    6  503    0 -0.33805833690E+03  0.29185800429E+01  0.60195639909E+02  0.34338822391E+03  0.00000000000E+00 0.  1.
         -2    1    6    6    0  503 -0.82262147636E+02  0.27899989002E+02 -0.22086509945E+02  0.89628590536E+02  0.00000000000E+00 0. -1.
<mgrwt>
<rscale>  0 0.13808792E+04</rscale>
<asrwt>0</asrwt>
<pdfrwt beam="1">  1        2 0.12953389E+00 0.13808792E+04</pdfrwt>
<pdfrwt beam="2">  1       -1 0.87104633E-01 0.13808792E+04</pdfrwt>
<totfact> 0.46450871E+01</totfact>
</mgrwt>
</event>
<event>
12    6  0.1450532E-007  0.1850577E+04  0.7818608E-02  0.8679856E-01
          2   -1    0    0  501    0  0.00000000000E+00  0.00000000000E+00  0.13391737990E+04  0.13391737990E+04  0.00000000000E+00 0. -1.
         -1   -1    0    0    0  501 -0.00000000000E+00 -0.00000000000E+00 -0.63931864129E+03  0.63931864129E+03  0.00000000000E+00 0.  1.
         24    2    1    2    0    0 -0.20029221471E+03 -0.35591862356E+03 -0.34221077338E+03  0.53944450249E+03  0.84244406231E+02 0.  0.
        254    2    1    2    0    0  0.20029221471E+03  0.35591862356E+03  0.10420659310E+04  0.14390479378E+04  0.90452336877E+03 0.  0.
         23    2    4    4    0    0  0.45119457023E+03  0.38920853735E+03  0.99843128838E+03  0.11663046436E+04  0.91332679113E+02 0.  0.
         23    2    4    4    0    0 -0.25090235553E+03 -0.33289913792E+02  0.43634642659E+02  0.27274329417E+03  0.91786230469E+02 0.  0.
          2    1    3    3  502    0 -0.59339137711E+02 -0.63668969446E+02 -0.11087810133E+03  0.14095681711E+03  0.00000000000E+00 0. -1.
         -1    1    3    3    0  502 -0.14095307700E+03 -0.29224965411E+03 -0.23133267205E+03  0.39848768538E+03  0.00000000000E+00 0.  1.
         11    1    5    5    0    0  0.17278037455E+02  0.34156269603E+00  0.52993144872E+02  0.55739758224E+02  0.00000000000E+00 0.  1.
        -11    1    5    5    0    0  0.43391653278E+03  0.38886697466E+03  0.94543814351E+03  0.11105648854E+04  0.00000000000E+00 0. -1.
          2    1    6    6  503    0 -0.10414652484E+03 -0.50739027905E+02  0.46737128661E+02  0.12492120230E+03  0.00000000000E+00 0. -1.
         -2    1    6    6    0  503 -0.14675583069E+03  0.17449114113E+02 -0.31024860012E+01  0.14782209187E+03  0.00000000000E+00 0.  1.
<mgrwt>
<rscale>  0 0.18505770E+04</rscale>
<asrwt>0</asrwt>
<pdfrwt beam="1">  1        2 0.20602674E+00 0.18505770E+04</pdfrwt>
<pdfrwt beam="2">  1       -1 0.98356714E-01 0.18505770E+04</pdfrwt>
<totfact> 0.16642693E+01</totfact>
</mgrwt>
</event>
<event>
12    6  0.1450532E-007  0.1953127E+04  0.7818608E-02  0.8628854E-01
          2   -1    0    0  501    0  0.00000000000E+00  0.00000000000E+00  0.29173928480E+04  0.29173928480E+04  0.00000000000E+00 0. -1.
         -1   -1    0    0    0  501 -0.00000000000E+00 -0.00000000000E+00 -0.32689338102E+03  0.32689338102E+03  0.00000000000E+00 0.  1.
         24    2    1    2    0    0  0.29979225098E+03 -0.30487642324E+03  0.19493357596E+04  0.19981038481E+04  0.98407606411E+02 0.  0.
        254    2    1    2    0    0 -0.29979225098E+03  0.30487642324E+03  0.64116370743E+03  0.12461823809E+04  0.97931333069E+03 0.  0.
         23    2    4    4    0    0 -0.17342206745E+03 -0.12667836370E+03  0.74048000329E+03  0.77671926384E+03  0.94125226438E+02 0.  0.
         23    2    4    4    0    0 -0.12637018353E+03  0.43155478694E+03 -0.99316295860E+02  0.46946311710E+03  0.91230117165E+02 0.  0.
          2    1    3    3  502    0  0.21964508223E+03 -0.15951272813E+03  0.11334115503E+04  0.11654655787E+04  0.00000000000E+00 0. -1.
         -3    1    3    3    0  502  0.80147168756E+02 -0.14536369511E+03  0.81592420926E+03  0.83263826946E+03  0.00000000000E+00 0.  1.
         11    1    5    5    0    0 -0.12019217892E+03 -0.84695505585E+02  0.33839163863E+03  0.36895580987E+03  0.00000000000E+00 0.  1.
        -11    1    5    5    0    0 -0.53229888534E+02 -0.41982858119E+02  0.40208836465E+03  0.40776345398E+03  0.00000000000E+00 0. -1.
          1    1    6    6  503    0  0.90736065618E+01  0.10318225697E+03 -0.25265910537E+02  0.10661742224E+03  0.00000000000E+00 0. -1.
         -1    1    6    6    0  503 -0.13544379009E+03  0.32837252997E+03 -0.74050385322E+02  0.36284569486E+03  0.00000000000E+00 0.  1.
<mgrwt>
<rscale>  0 0.19531271E+04</rscale>
<asrwt>0</asrwt>
<pdfrwt beam="1">  1        2 0.44882965E+00 0.19531271E+04</pdfrwt>
<pdfrwt beam="2">  1       -1 0.50291291E-01 0.19531271E+04</pdfrwt>
<totfact> 0.82783609E+00</totfact>
</mgrwt>
</event>
<event>
12    6  0.1450532E-007  0.1655096E+04  0.7818608E-02  0.8787398E-01
          2   -1    0    0  501    0  0.00000000000E+00  0.00000000000E+00  0.68994498562E+03  0.68994498562E+03  0.00000000000E+00 0. -1.
         -1   -1    0    0    0  501 -0.00000000000E+00 -0.00000000000E+00 -0.99259450767E+03  0.99259450767E+03  0.00000000000E+00 0.  1.
         24    2    1    2    0    0  0.31146137620E+03 -0.24678917895E+03 -0.53857782064E+03  0.67392213831E+03  0.78688575410E+02 0.  0.
        254    2    1    2    0    0 -0.31146137620E+03  0.24678917895E+03  0.23592829859E+03  0.10086173550E+04  0.89651197370E+03 0.  0.
         23    2    4    4    0    0 -0.74996748162E+02  0.38413325264E+03 -0.22844108893E+03  0.46209153116E+03  0.90334844001E+02 0.  0.
         23    2    4    4    0    0 -0.23646462804E+03 -0.13734407369E+03  0.46436938752E+03  0.54652582382E+03  0.90954016665E+02 0.  0.
          2    1    3    3  502    0  0.51386045869E+02 -0.60876987459E+02 -0.66451605138E+02  0.10374174250E+03  0.00000000000E+00 0. -1.
         -1    1    3    3    0  502  0.26007533034E+03 -0.18591219149E+03 -0.47212621550E+03  0.57018039580E+03  0.00000000000E+00 0.  1.
         11    1    5    5    0    0  0.13180891652E+02  0.15406554817E+03 -0.10106442992E+03  0.18472668468E+03  0.00000000000E+00 0.  1.
        -11    1    5    5    0    0 -0.88177639814E+02  0.23006770447E+03 -0.12737665901E+03  0.27736484648E+03  0.00000000000E+00 0. -1.
          3    1    6    6  503    0 -0.30041621629E+02 -0.54032226167E+02  0.14087031824E+03  0.15383896469E+03  0.00000000000E+00 0. -1.
         -3    1    6    6    0  503 -0.20642300641E+03 -0.83311847524E+02  0.32349906928E+03  0.39268685914E+03  0.00000000000E+00 0.  1.
<mgrwt>
<rscale>  0 0.16550959E+04</rscale>
<asrwt>0</asrwt>
<pdfrwt beam="1">  1        2 0.10614538E+00 0.16550959E+04</pdfrwt>
<pdfrwt beam="2">  1       -1 0.15270685E+00 0.16550959E+04</pdfrwt>
<totfact> 0.15127189E+01</totfact>
</mgrwt>
</event>
<event>
12    6  0.1450532E-007  0.2763410E+04  0.7818608E-02  0.8314719E-01
          2   -1    0    0  501    0  0.00000000000E+00  0.00000000000E+00  0.17055824912E+04  0.17055824912E+04  0.00000000000E+00 0. -1.
         -1   -1    0    0    0  501 -0.00000000000E+00 -0.00000000000E+00 -0.11193291087E+04  0.11193291087E+04  0.00000000000E+00 0.  1.
         24    2    1    2    0    0 -0.11618419583E+04 -0.33835652115E+03  0.31442049372E+02  0.12133161022E+04  0.82374084920E+02 0.  0.
        254    2    1    2    0    0  0.11618419583E+04  0.33835652115E+03  0.55481133316E+03  0.16115954977E+04  0.90832954451E+03 0.  0.
         23    2    4    4    0    0  0.45194176192E+03 -0.21091582015E+03 -0.73900985500E+02  0.51194014458E+03  0.88794800635E+02 0.  0.
         23    2    4    4    0    0  0.70990019640E+03  0.54927234130E+03  0.62871231866E+03  0.10996553532E+04  0.91128054643E+02 0.  0.
          4    1    3    3  502    0 -0.87664010380E+03 -0.23620897119E+03  0.54184563007E+02  0.90952103688E+03  0.00000000000E+00 0. -1.
         -3    1    3    3    0  502 -0.28520185452E+03 -0.10214754996E+03 -0.22742513635E+02  0.30379506532E+03  0.00000000000E+00 0.  1.
         11    1    5    5    0    0  0.44479644053E+03 -0.20393306859E+03 -0.85391678788E+02  0.49671350775E+03  0.00000000000E+00 0. -1.
        -11    1    5    5    0    0  0.71453213937E+01 -0.69827515549E+01  0.11490693288E+02  0.15226636836E+02  0.00000000000E+00 0.  1.
          1    1    6    6  503    0  0.40085707984E+03  0.27845659990E+03  0.29502080267E+03  0.57031723672E+03  0.00000000000E+00 0. -1.
         -1    1    6    6    0  503  0.30904311656E+03  0.27081574140E+03  0.33369151599E+03  0.52933811645E+03  0.00000000000E+00 0.  1.
<mgrwt>
<rscale>  0 0.27634096E+04</rscale>
<asrwt>0</asrwt>
<pdfrwt beam="1">  1        2 0.26239731E+00 0.27634096E+04</pdfrwt>
<pdfrwt beam="2">  1       -1 0.17220448E+00 0.27634096E+04</pdfrwt>
<totfact> 0.22933785E+00</totfact>
</mgrwt>
</event>
<event>
12    6  0.1450532E-007  0.2738630E+04  0.7818608E-02  0.8322579E-01
          2   -1    0    0  501    0  0.00000000000E+00  0.00000000000E+00  0.12828865579E+04  0.12828865579E+04  0.00000000000E+00 0. -1.
         -1   -1    0    0    0  501 -0.00000000000E+00 -0.00000000000E+00 -0.14615664669E+04  0.14615664669E+04  0.00000000000E+00 0.  1.
         24    2    1    2    0    0 -0.62863515224E+02  0.49938585297E+03  0.10348808114E+04  0.11534536192E+04  0.78351171990E+02 0.  0.
        254    2    1    2    0    0  0.62863515224E+02 -0.49938585297E+03 -0.12135607204E+04  0.15909994056E+04  0.89733574258E+03 0.  0.
         23    2    4    4    0    0  0.24196405724E+03 -0.45095453560E+03 -0.20104226888E+03  0.55764695726E+03  0.92981379280E+02 0.  0.
         23    2    4    4    0    0 -0.17910054201E+03 -0.48431317373E+02 -0.10125184515E+04  0.10333524483E+04  0.90559766071E+02 0.  0.
          2    1    3    3  502    0 -0.39062464536E+02  0.31518473528E+03  0.73546856944E+03  0.80111254523E+03  0.00000000000E+00 0. -1.
         -1    1    3    3    0  502 -0.23801050688E+02  0.18420111769E+03  0.29941224195E+03  0.35234107397E+03  0.00000000000E+00 0.  1.
         11    1    5    5    0    0  0.16743254811E+03 -0.23588140029E+03 -0.14331251016E+03  0.32281909599E+03  0.00000000000E+00 0. -1.
        -11    1    5    5    0    0  0.74531509124E+02 -0.21507313532E+03 -0.57729758718E+02  0.23482786127E+03  0.00000000000E+00 0.  1.
          3    1    6    6  503    0 -0.17080766440E+03 -0.21599599790E+02 -0.93898591710E+03  0.95463938398E+03  0.00000000000E+00 0. -1.
         -3    1    6    6    0  503 -0.82928776130E+01 -0.26831717583E+02 -0.73532534392E+02  0.78713064364E+02  0.00000000000E+00 0.  1.
<mgrwt>
<rscale>  0 0.27386303E+04</rscale>
<asrwt>0</asrwt>
<pdfrwt beam="1">  1        2 0.19736716E+00 0.27386303E+04</pdfrwt>
<pdfrwt beam="2">  1       -1 0.22485638E+00 0.27386303E+04</pdfrwt>
<totfact> 0.17213196E+00</totfact>
</mgrwt>
</event>
<event>
12    6  0.1450532E-007  0.1447349E+04  0.7818608E-02  0.8920240E-01
          2   -1    0    0  501    0  0.00000000000E+00  0.00000000000E+00  0.55838647909E+03  0.55838647909E+03  0.00000000000E+00 0. -1.
         -1   -1    0    0    0  501 -0.00000000000E+00 -0.00000000000E+00 -0.93788932119E+03  0.93788932119E+03  0.00000000000E+00 0.  1.
         24    2    1    2    0    0  0.17206491938E+03 -0.34863655444E+03  0.92696149608E+02  0.40767804829E+03  0.80343209644E+02 0.  0.
        254    2    1    2    0    0 -0.17206491938E+03  0.34863655444E+03 -0.47219899170E+03  0.10885977520E+04  0.90051062975E+03 0.  0.
         23    2    4    4    0    0  0.23363486685E+03  0.45472023269E+03 -0.11950687711E+03  0.53304897585E+03  0.92214835872E+02 0.  0.
         23    2    4    4    0    0 -0.40569978623E+03 -0.10608367825E+03 -0.35269211459E+03  0.55554877614E+03  0.91633245290E+02 0.  0.
          4    1    3    3  502    0  0.14258133669E+03 -0.22651093254E+03  0.36791693600E+02  0.27016711283E+03  0.00000000000E+00 0. -1.
         -3    1    3    3    0  502  0.29483582686E+02 -0.12212562190E+03  0.55904456009E+02  0.13751093547E+03  0.00000000000E+00 0.  1.
         11    1    5    5    0    0  0.10783497866E+03  0.15767672702E+03 -0.83447493552E+02  0.20845579159E+03  0.00000000000E+00 0.  1.
        -11    1    5    5    0    0  0.12579988819E+03  0.29704350566E+03 -0.36059383561E+02  0.32459318426E+03  0.00000000000E+00 0. -1.
          3    1    6    6  503    0 -0.30696062845E+03 -0.75708292948E+02 -0.31297638974E+03  0.44487165966E+03  0.00000000000E+00 0. -1.
         -3    1    6    6    0  503 -0.98739157778E+02 -0.30375385299E+02 -0.39715724849E+02  0.11067711647E+03  0.00000000000E+00 0.  1.
<mgrwt>
<rscale>  0 0.14473489E+04</rscale>
<asrwt>0</asrwt>
<pdfrwt beam="1">  1        2 0.85905613E-01 0.14473489E+04</pdfrwt>
<pdfrwt beam="2">  1       -1 0.14429066E+00 0.14473489E+04</pdfrwt>
<totfact> 0.23206983E+01</totfact>
</mgrwt>
</event>
<event>
12    6  0.1450532E-007  0.1712225E+04  0.7818608E-02  0.8754423E-01
          2   -1    0    0  501    0  0.00000000000E+00  0.00000000000E+00  0.51120524338E+03  0.51120524338E+03  0.00000000000E+00 0. -1.
         -1   -1    0    0    0  501 -0.00000000000E+00 -0.00000000000E+00 -0.14337264088E+04  0.14337264088E+04  0.00000000000E+00 0.  1.
         24    2    1    2    0    0 -0.78059533228E+02 -0.29131389809E+03  0.27691621379E+03  0.41695920346E+03  0.78837237023E+02 0.  0.
        254    2    1    2    0    0  0.78059533228E+02  0.29131389809E+03 -0.11994373792E+04  0.15279724487E+04  0.89726958013E+03 0.  0.
         23    2    4    4    0    0 -0.37128120380E+03 -0.34268322408E+02 -0.50078673589E+03  0.63108615277E+03  0.91969164191E+02 0.  0.
         23    2    4    4    0    0  0.44934073702E+03  0.32558222050E+03 -0.69865064334E+03  0.89688629596E+03  0.91550129341E+02 0.  0.
          4    1    3    3  502    0 -0.44699098836E+02 -0.17739156186E+03  0.21752830084E+03  0.28422585618E+03  0.00000000000E+00 0. -1.
         -3    1    3    3    0  502 -0.33360434392E+02 -0.11392233624E+03  0.59387912953E+02  0.13273334728E+03  0.00000000000E+00 0.  1.
         11    1    5    5    0    0 -0.13385816972E+03 -0.51990231714E+02 -0.15537845857E+03  0.21157376771E+03  0.00000000000E+00 0.  1.
        -11    1    5    5    0    0 -0.23742303408E+03  0.17721909306E+02 -0.34540827732E+03  0.41951238506E+03  0.00000000000E+00 0. -1.
          4    1    6    6  503    0  0.35269030328E+02 -0.15431598881E-01 -0.52223448741E+02  0.63017405031E+02  0.00000000000E+00 0. -1.
         -4    1    6    6    0  503  0.41407170670E+03  0.32559765210E+03 -0.64642719460E+03  0.83386889093E+03  0.00000000000E+00 0.  1.
<mgrwt>
<rscale>  0 0.17122248E+04</rscale>
<asrwt>0</asrwt>
<pdfrwt beam="1">  1        2 0.78646961E-01 0.17122248E+04</pdfrwt>
<pdfrwt beam="2">  1       -1 0.22057329E+00 0.17122248E+04</pdfrwt>
<totfact> 0.71106465E+00</totfact>
</mgrwt>
</event>
<event>
12    6  0.1450532E-007  0.1668360E+04  0.7818608E-02  0.8779618E-01
          2   -1    0    0  501    0  0.00000000000E+00  0.00000000000E+00  0.10287572305E+04  0.10287572305E+04  0.00000000000E+00 0. -1.
         -1   -1    0    0    0  501 -0.00000000000E+00 -0.00000000000E+00 -0.67640498702E+03  0.67640498702E+03  0.00000000000E+00 0.  1.
         24    2    1    2    0    0  0.23387287039E+03 -0.19257034403E+03  0.63750968098E+03  0.71092596175E+03  0.84954533928E+02 0.  0.
        254    2    1    2    0    0 -0.23387287039E+03  0.19257034403E+03 -0.28515743748E+03  0.99423625579E+03  0.90300116903E+03 0.  0.
         23    2    4    4    0    0 -0.54934806505E+03  0.18588162974E+03 -0.31157579299E+03  0.66469431069E+03  0.91672106063E+02 0.  0.
         23    2    4    4    0    0  0.31547519466E+03  0.66887142925E+01  0.26418355506E+02  0.32954194510E+03  0.91272267028E+02 0.  0.
          4    1    3    3  502    0  0.19656024130E+03 -0.19461569769E+03  0.54563380060E+03  0.61174132000E+03  0.00000000000E+00 0. -1.
         -3    1    3    3    0  502  0.37312629088E+02  0.20453536550E+01  0.91875880388E+02  0.99184641745E+02  0.00000000000E+00 0.  1.
         11    1    5    5    0    0 -0.40339891347E+02  0.90685954290E+00 -0.47004975564E+02  0.61948341026E+02  0.00000000000E+00 0. -1.
        -11    1    5    5    0    0 -0.50900817371E+03  0.18497477020E+03 -0.26457081743E+03  0.60274596966E+03  0.00000000000E+00 0.  1.
          4    1    6    6  503    0  0.58633232063E+02  0.36994460247E+02 -0.20301954356E+01  0.69358256067E+02  0.00000000000E+00 0. -1.
         -4    1    6    6    0  503  0.25684196260E+03 -0.30305745955E+02  0.28448550941E+02  0.26018368904E+03  0.00000000000E+00 0.  1.
<mgrwt>
<rscale>  0 0.16683603E+04</rscale>
<asrwt>0</asrwt>
<pdfrwt beam="1">  1        2 0.15827034E+00 0.16683603E+04</pdfrwt>
<pdfrwt beam="2">  1       -1 0.10406231E+00 0.16683603E+04</pdfrwt>
<totfact> 0.22845557E+01</totfact>
</mgrwt>
</event>
<event>
12    6  0.1450532E-007  0.1185136E+04  0.7818608E-02  0.9125968E-01
         -1   -1    0    0    0  501 -0.00000000000E+00  0.00000000000E+00  0.20517851111E+03  0.20517851111E+03  0.00000000000E+00 0.  1.
          2   -1    0    0  501    0  0.00000000000E+00 -0.00000000000E+00 -0.17113718070E+04  0.17113718070E+04  0.00000000000E+00 0. -1.
         24    2    1    2    0    0  0.41337099621E+02 -0.14596831006E+02  0.48965327322E+02  0.10302741931E+03  0.79342438640E+02 0.  0.
        254    2    1    2    0    0 -0.41337099621E+02  0.14596831006E+02 -0.15551586232E+04  0.18135228988E+04  0.93189330819E+03 0.  0.
         23    2    4    4    0    0  0.19097062205E+03  0.25033212005E+03 -0.14010601314E+03  0.35737070394E+03  0.94594800604E+02 0.  0.
         23    2    4    4    0    0 -0.23230772167E+03 -0.23573528905E+03 -0.14150526101E+04  0.14561521949E+04  0.92018048656E+02 0.  0.
          4    1    3    3  502    0  0.19888280427E+02 -0.17492404882E+02 -0.18413287636E+02  0.32257977129E+02  0.00000000000E+00 0. -1.
         -3    1    3    3    0  502  0.21448819195E+02  0.28955738764E+01  0.67378614958E+02  0.70769442181E+02  0.00000000000E+00 0.  1.
         11    1    5    5    0    0  0.50681376971E+02  0.14279984030E+03 -0.74248871176E+02  0.16874030708E+03  0.00000000000E+00 0. -1.
        -11    1    5    5    0    0  0.14028924508E+03  0.10753227975E+03 -0.65857141963E+02  0.18863039687E+03  0.00000000000E+00 0.  1.
          2    1    6    6  503    0 -0.18648313456E+03 -0.14704777842E+03 -0.11121688089E+04  0.11372416050E+04  0.00000000000E+00 0. -1.
         -2    1    6    6    0  503 -0.45824587115E+02 -0.88687510622E+02 -0.30288380118E+03  0.31891058989E+03  0.00000000000E+00 0.  1.
<mgrwt>
<rscale>  0 0.11851358E+04</rscale>
<asrwt>0</asrwt>
<pdfrwt beam="1">  1        2 0.26328796E+00 0.11851358E+04</pdfrwt>
<pdfrwt beam="2">  1       -1 0.31565926E-01 0.11851358E+04</pdfrwt>
<totfact> 0.10143936E+02</totfact>
</mgrwt>
</event>
<event>
12    6  0.1450532E-007  0.2291120E+04  0.7818608E-02  0.8481430E-01
         -1   -1    0    0    0  501 -0.00000000000E+00  0.00000000000E+00  0.69518446662E+03  0.69518446662E+03  0.00000000000E+00 0.  1.
          2   -1    0    0  501    0  0.00000000000E+00 -0.00000000000E+00 -0.18877121395E+04  0.18877121395E+04  0.00000000000E+00 0. -1.
         24    2    1    2    0    0  0.43483902717E+03  0.51027408494E+03 -0.12666100673E+04  0.14352992676E+04  0.79487757594E+02 0.  0.
        254    2    1    2    0    0 -0.43483902717E+03 -0.51027408494E+03  0.74082394489E+02  0.11475973385E+04  0.92845399931E+03 0.  0.
         23    2    4    4    0    0 -0.40054767630E+03 -0.76076489886E+03  0.12266924025E+03  0.87288802826E+03  0.87658970177E+02 0.  0.
         23    2    4    4    0    0 -0.34291350871E+02  0.25049081392E+03 -0.48586845761E+02  0.27470931023E+03  0.95827861003E+02 0.  0.
          4    1    3    3  502    0  0.41782148221E+03  0.47715818918E+03 -0.12250992654E+04  0.13795372190E+04  0.00000000000E+00 0. -1.
         -3    1    3    3    0  502  0.17017544958E+02  0.33115895756E+02 -0.41510801920E+02  0.55762048601E+02  0.00000000000E+00 0.  1.
         11    1    5    5    0    0 -0.37555288682E+03 -0.68629267467E+03  0.13334533576E+03  0.79361110417E+03  0.00000000000E+00 0.  1.
        -11    1    5    5    0    0 -0.24994789476E+02 -0.74472224189E+02 -0.10676095508E+02  0.79276924082E+02  0.00000000000E+00 0. -1.
          4    1    6    6  503    0  0.21344567984E+02  0.15297619887E+03 -0.58129053800E+01  0.15456745412E+03  0.00000000000E+00 0. -1.
         -4    1    6    6    0  503 -0.55635918855E+02  0.97514615049E+02 -0.42773940381E+02  0.12014185611E+03  0.00000000000E+00 0.  1.
<mgrwt>
<rscale>  0 0.22911204E+04</rscale>
<asrwt>0</asrwt>
<pdfrwt beam="1">  1        2 0.29041725E+00 0.22911204E+04</pdfrwt>
<pdfrwt beam="2">  1       -1 0.10695146E+00 0.22911204E+04</pdfrwt>
<totfact> 0.64958376E+00</totfact>
</mgrwt>
</event>
<event>
12    6  0.1450532E-007  0.1327902E+04  0.7818608E-02  0.9007727E-01
         -1   -1    0    0    0  501 -0.00000000000E+00  0.00000000000E+00  0.65691452207E+03  0.65691452207E+03  0.00000000000E+00 0.  1.
          2   -1    0    0  501    0  0.00000000000E+00 -0.00000000000E+00 -0.67106286811E+03  0.67106286811E+03  0.00000000000E+00 0. -1.
         24    2    1    2    0    0 -0.13220892488E+03  0.65863553913E+01 -0.28210701042E+03  0.32218974031E+03  0.81849151140E+02 0.  0.
        254    2    1    2    0    0  0.13220892488E+03 -0.65863553913E+01  0.26795866438E+03  0.10057876499E+04  0.96035637704E+03 0.  0.
         23    2    4    4    0    0  0.34759991536E+03 -0.74586649533E+02 -0.24308745184E+03  0.44002389074E+03  0.90225527079E+02 0.  0.
         23    2    4    4    0    0 -0.21539099048E+03  0.68000294141E+02  0.51104611622E+03  0.56576375913E+03  0.88899828198E+02 0.  0.
          2    1    3    3  502    0 -0.11764439108E+03 -0.25502080733E+02 -0.22025277429E+03  0.25100168019E+03  0.00000000000E+00 0. -1.
         -1    1    3    3    0  502 -0.14564533794E+02  0.32088436124E+02 -0.61854236129E+02  0.71188060127E+02  0.00000000000E+00 0.  1.
         11    1    5    5    0    0  0.23741360258E+03 -0.35468720058E+02 -0.20886446551E+03  0.31819430188E+03  0.00000000000E+00 0. -1.
        -11    1    5    5    0    0  0.11018631278E+03 -0.39117929475E+02 -0.34222986324E+02  0.12182958886E+03  0.00000000000E+00 0.  1.
          1    1    6    6  503    0 -0.94899871059E+01  0.24645163509E+02  0.10700322799E+03  0.11021404057E+03  0.00000000000E+00 0. -1.
         -1    1    6    6    0  503 -0.20590100337E+03  0.43355130632E+02  0.40404288823E+03  0.45554971855E+03  0.00000000000E+00 0.  1.
<mgrwt>
<rscale>  0 0.13279020E+04</rscale>
<asrwt>0</asrwt>
<pdfrwt beam="1">  1        2 0.10324044E+00 0.13279020E+04</pdfrwt>
<pdfrwt beam="2">  1       -1 0.10106377E+00 0.13279020E+04</pdfrwt>
<totfact> 0.44944363E+01</totfact>
</mgrwt>
</event>
<event>
12    6  0.1450532E-007  0.2054810E+04  0.7818608E-02  0.8581416E-01
         -1   -1    0    0    0  501 -0.00000000000E+00  0.00000000000E+00  0.29443824766E+03  0.29443824766E+03  0.00000000000E+00 0.  1.
          2   -1    0    0  501    0  0.00000000000E+00 -0.00000000000E+00 -0.35849983957E+04  0.35849983957E+04  0.00000000000E+00 0. -1.
         24    2    1    2    0    0  0.18113883970E+03 -0.70545458900E+03 -0.20748548158E+04  0.22003067140E+04  0.76483152750E+02 0.  0.
        254    2    1    2    0    0 -0.18113883970E+03  0.70545458900E+03 -0.12157053322E+04  0.16791299293E+04  0.90058892308E+03 0.  0.
         23    2    4    4    0    0 -0.28715431016E+03  0.71001649801E+03 -0.13027099873E+04  0.15143073361E+04  0.97428804679E+02 0.  0.
         23    2    4    4    0    0  0.10601547046E+03 -0.45619090173E+01  0.87004655066E+02  0.16482259320E+03  0.91304908043E+02 0.  0.
          4    1    3    3  502    0  0.13817117398E+03 -0.56224004982E+03 -0.17338710756E+04  0.18279808680E+04  0.00000000000E+00 0. -1.
         -3    1    3    3    0  502  0.42967665716E+02 -0.14321453918E+03 -0.34098374027E+03  0.37232584608E+03  0.00000000000E+00 0.  1.
         11    1    5    5    0    0 -0.48095972488E+01  0.93459833419E+02 -0.17318199950E+03  0.19684988605E+03  0.00000000000E+00 0. -1.
        -11    1    5    5    0    0 -0.28234471291E+03  0.61655666460E+03 -0.11295279878E+04  0.13174574500E+04  0.00000000000E+00 0.  1.
          1    1    6    6  503    0  0.24129348621E+02 -0.42717726891E+02  0.37934255892E+02  0.62016428675E+02  0.00000000000E+00 0. -1.
         -1    1    6    6    0  503  0.81886121844E+02  0.38155817873E+02  0.49070399175E+02  0.10280616452E+03  0.00000000000E+00 0.  1.
<mgrwt>
<rscale>  0 0.20548096E+04</rscale>
<asrwt>0</asrwt>
<pdfrwt beam="1">  1        2 0.55153827E+00 0.20548096E+04</pdfrwt>
<pdfrwt beam="2">  1       -1 0.45298187E-01 0.20548096E+04</pdfrwt>
<totfact> 0.36243471E+00</totfact>
</mgrwt>
</event>
<event>
12    6  0.1450532E-007  0.1194555E+04  0.7818608E-02  0.9117636E-01
          2   -1    0    0  501    0  0.00000000000E+00  0.00000000000E+00  0.59760935396E+03  0.59760935396E+03  0.00000000000E+00 0. -1.
         -1   -1    0    0    0  501 -0.00000000000E+00 -0.00000000000E+00 -0.59694577226E+03  0.59694577226E+03  0.00000000000E+00 0.  1.
         24    2    1    2    0    0  0.43115755247E+02  0.11074969206E+02  0.25192433929E+03  0.26825267117E+03  0.80696961343E+02 0.  0.
        254    2    1    2    0    0 -0.43115755247E+02 -0.11074969206E+02 -0.25126075758E+03  0.92630245505E+03  0.89046204110E+03 0.  0.
         23    2    4    4    0    0  0.33820358493E+03  0.23651285276E+03 -0.68408891273E+02  0.42790283749E+03  0.90005930612E+02 0.  0.
         23    2    4    4    0    0 -0.38131934018E+03 -0.24758782197E+03 -0.18285186631E+03  0.49839961756E+03  0.90902172642E+02 0.  0.
          2    1    3    3  502    0 -0.49608979113E+00 -0.21824378055E+01  0.19640827261E+03  0.19642102405E+03  0.00000000000E+00 0. -1.
         -1    1    3    3    0  502  0.43611845038E+02  0.13257407012E+02  0.55516066684E+02  0.71831647123E+02  0.00000000000E+00 0.  1.
         11    1    5    5    0    0  0.30861610480E+03  0.23363240452E+03 -0.44251374931E+02  0.38959746504E+03  0.00000000000E+00 0. -1.
        -11    1    5    5    0    0  0.29587480135E+02  0.28804482412E+01 -0.24157516342E+02  0.38305372451E+02  0.00000000000E+00 0.  1.
          1    1    6    6  503    0 -0.17512974936E+03 -0.13719930565E+03 -0.13322531409E+03  0.25931267400E+03  0.00000000000E+00 0. -1.
         -1    1    6    6    0  503 -0.20618959082E+03 -0.11038851631E+03 -0.49626552218E+02  0.23908694356E+03  0.00000000000E+00 0.  1.
<mgrwt>
<rscale>  0 0.11945549E+04</rscale>
<asrwt>0</asrwt>
<pdfrwt beam="1">  1        2 0.91939900E-01 0.11945549E+04</pdfrwt>
<pdfrwt beam="2">  1       -1 0.91837811E-01 0.11945549E+04</pdfrwt>
<totfact> 0.64971454E+01</totfact>
</mgrwt>
</event>
<event>
12    6  0.1450532E-007  0.2174435E+04  0.7818608E-02  0.8529145E-01
         -1   -1    0    0    0  501 -0.00000000000E+00  0.00000000000E+00  0.30352821047E+04  0.30352821047E+04  0.00000000000E+00 0.  1.
          2   -1    0    0  501    0  0.00000000000E+00 -0.00000000000E+00 -0.38943406666E+03  0.38943406666E+03  0.00000000000E+00 0. -1.
         24    2    1    2    0    0 -0.77687636808E+03 -0.23201300728E+03  0.46463336110E+03  0.93795122252E+03  0.80631313660E+02 0.  0.
        254    2    1    2    0    0  0.77687636808E+03  0.23201300728E+03  0.21812146770E+04  0.24867649489E+04  0.87688968355E+03 0.  0.
         23    2    4    4    0    0  0.54298274449E+01 -0.32760273767E+02 -0.48690669149E+02  0.11040536337E+03  0.93358686985E+02 0.  0.
         23    2    4    4    0    0  0.77144654064E+03  0.26477328105E+03  0.22299053461E+04  0.23763595855E+04  0.96811009526E+02 0.  0.
          4    1    3    3  502    0 -0.66592744725E+03 -0.16946128915E+03  0.40053348130E+03  0.79536379297E+03  0.00000000000E+00 0. -1.
         -3    1    3    3    0  502 -0.11094892083E+03 -0.62551718134E+02  0.64099879794E+02  0.14258742954E+03  0.00000000000E+00 0.  1.
         11    1    5    5    0    0  0.13580316691E+02 -0.61137411142E+02 -0.51034316305E+02  0.80788052850E+02  0.00000000000E+00 0. -1.
        -11    1    5    5    0    0 -0.81504892463E+01  0.28377137375E+02  0.23436471558E+01  0.29617310521E+02  0.00000000000E+00 0.  1.
          3    1    6    6  503    0  0.44173257062E+03  0.15203782973E+03  0.14135496344E+04  0.14887463634E+04  0.00000000000E+00 0. -1.
         -3    1    6    6    0  503  0.32971397001E+03  0.11273545132E+03  0.81635571170E+03  0.88761322209E+03  0.00000000000E+00 0.  1.
<mgrwt>
<rscale>  0 0.21744353E+04</rscale>
<asrwt>0</asrwt>
<pdfrwt beam="1">  1        2 0.59912935E-01 0.21744353E+04</pdfrwt>
<pdfrwt beam="2">  1       -1 0.46696646E+00 0.21744353E+04</pdfrwt>
<totfact> 0.21204118E-01</totfact>
</mgrwt>
</event>
<event>
12    6  0.1450532E-007  0.2012177E+04  0.7818608E-02  0.8600949E-01
          2   -1    0    0  501    0  0.00000000000E+00  0.00000000000E+00  0.95942306733E+03  0.95942306733E+03  0.00000000000E+00 0. -1.
         -1   -1    0    0    0  501 -0.00000000000E+00 -0.00000000000E+00 -0.10550235061E+04  0.10550235061E+04  0.00000000000E+00 0.  1.
         24    2    1    2    0    0  0.49007630264E+03 -0.39712941332E+03 -0.51351486871E+03  0.81740199375E+03  0.81005837179E+02 0.  0.
        254    2    1    2    0    0 -0.49007630264E+03  0.39712941332E+03  0.41791442990E+03  0.11970445797E+04  0.92756493129E+03 0.  0.
         23    2    4    4    0    0  0.39150940216E+02 -0.25482232455E+03  0.59886331267E+02  0.27977761943E+03  0.90674861208E+02 0.  0.
         23    2    4    4    0    0 -0.52922724286E+03  0.65195173787E+03  0.35802809864E+03  0.91726696028E+03  0.89844387186E+02 0.  0.
          4    1    3    3  502    0  0.56781858810E+02 -0.60423728177E+02 -0.10229028520E+03  0.13167577174E+03  0.00000000000E+00 0. -1.
         -3    1    3    3    0  502  0.43329444383E+03 -0.33670568515E+03 -0.41122458351E+03  0.68572622201E+03  0.00000000000E+00 0.  1.
         11    1    5    5    0    0  0.44639371532E+02 -0.22419036017E+03  0.80611053899E+02  0.24238839307E+03  0.00000000000E+00 0. -1.
        -11    1    5    5    0    0 -0.54884313154E+01 -0.30631964380E+02 -0.20724722632E+02  0.37389226366E+02  0.00000000000E+00 0.  1.
          4    1    6    6  503    0 -0.35638768441E+03  0.39568465302E+03  0.18970265903E+03  0.56530135775E+03  0.00000000000E+00 0. -1.
         -4    1    6    6    0  503 -0.17283955845E+03  0.25626708485E+03  0.16832543960E+03  0.35196560253E+03  0.00000000000E+00 0.  1.
<mgrwt>
<rscale>  0 0.20121768E+04</rscale>
<asrwt>0</asrwt>
<pdfrwt beam="1">  1        2 0.14760355E+00 0.20121768E+04</pdfrwt>
<pdfrwt beam="2">  1       -1 0.16231131E+00 0.20121768E+04</pdfrwt>
<totfact> 0.79557052E+00</totfact>
</mgrwt>
</event>
<event>
12    6  0.1450532E-007  0.1585601E+04  0.7818608E-02  0.8829443E-01
          2   -1    0    0  501    0  0.00000000000E+00  0.00000000000E+00  0.17513987510E+04  0.17513987510E+04  0.00000000000E+00 0. -1.
         -1   -1    0    0    0  501 -0.00000000000E+00 -0.00000000000E+00 -0.35887466373E+03  0.35887466373E+03  0.00000000000E+00 0.  1.
         24    2    1    2    0    0  0.11509452539E+03  0.27893407420E+03  0.10493897658E+04  0.10947569264E+04  0.78885231156E+02 0.  0.
        254    2    1    2    0    0 -0.11509452539E+03 -0.27893407420E+03  0.34313432148E+03  0.10155164884E+04  0.90690771752E+03 0.  0.
         23    2    4    4    0    0 -0.24506802034E+03  0.24073115689E+03 -0.29144495256E+02  0.35669561321E+03  0.91501554036E+02 0.  0.
         23    2    4    4    0    0  0.12997349495E+03 -0.51966523109E+03  0.37227881673E+03  0.65882087518E+03  0.92240806521E+02 0.  0.
          2    1    3    3  502    0  0.11535770953E+03  0.26149178842E+03  0.10288468022E+04  0.10678066768E+04  0.00000000000E+00 0. -1.
         -1    1    3    3    0  502 -0.26318413908E+00  0.17442285776E+02  0.20542963626E+02  0.26950249600E+02  0.00000000000E+00 0.  1.
         11    1    5    5    0    0 -0.75447653564E+02  0.93378966553E+02 -0.52044564399E+02  0.13084577374E+03  0.00000000000E+00 0. -1.
        -11    1    5    5    0    0 -0.16962036677E+03  0.14735219034E+03  0.22900069143E+02  0.22584983947E+03  0.00000000000E+00 0.  1.
          3    1    6    6  503    0  0.92171866041E+02 -0.46928365682E+03  0.34735668425E+03  0.59108330169E+03  0.00000000000E+00 0. -1.
         -3    1    6    6    0  503  0.37801628905E+02 -0.50381574277E+02  0.24922132480E+02  0.67737573486E+02  0.00000000000E+00 0.  1.
<mgrwt>
<rscale>  0 0.15856010E+04</rscale>
<asrwt>0</asrwt>
<pdfrwt beam="1">  1        2 0.26944596E+00 0.15856010E+04</pdfrwt>
<pdfrwt beam="2">  1       -1 0.55211488E-01 0.15856010E+04</pdfrwt>
<totfact> 0.33299395E+01</totfact>
</mgrwt>
</event>
<event>
12    6  0.1450532E-007  0.2522292E+04  0.7818608E-02  0.8395087E-01
         -1   -1    0    0    0  501 -0.00000000000E+00  0.00000000000E+00  0.50170790146E+03  0.50170790146E+03  0.00000000000E+00 0.  1.
          2   -1    0    0  501    0  0.00000000000E+00 -0.00000000000E+00 -0.31701502657E+04  0.31701502657E+04  0.00000000000E+00 0. -1.
         24    2    1    2    0    0 -0.43179597151E+03  0.48845879640E+03  0.12041597702E+03  0.66764690752E+03  0.78820230881E+02 0.  0.
        254    2    1    2    0    0  0.43179597151E+03 -0.48845879640E+03 -0.27888583413E+04  0.30042112597E+04  0.90692595519E+03 0.  0.
         23    2    4    4    0    0  0.62654679753E+03 -0.60142123081E+03 -0.22273923862E+04  0.23924098798E+04  0.89887732714E+02 0.  0.
         23    2    4    4    0    0 -0.19475082602E+03  0.11296243441E+03 -0.56146595506E+03  0.61180137985E+03  0.91479581740E+02 0.  0.
          4    1    3    3  502    0 -0.20838214943E+03  0.21479845917E+03  0.17925995352E+02  0.29980466903E+03  0.00000000000E+00 0. -1.
         -3    1    3    3    0  502 -0.22341382209E+03  0.27366033724E+03  0.10248998167E+03  0.36784223849E+03  0.00000000000E+00 0.  1.
         11    1    5    5    0    0  0.23165408812E+03 -0.16521373370E+03 -0.70279537772E+03  0.75820876894E+03  0.00000000000E+00 0.  1.
        -11    1    5    5    0    0  0.39489270941E+03 -0.43620749712E+03 -0.15245970085E+04  0.16342011109E+04  0.00000000000E+00 0. -1.
          1    1    6    6  503    0 -0.90396175267E+02  0.10457965159E+03 -0.31111062876E+03  0.34043824015E+03  0.00000000000E+00 0. -1.
         -1    1    6    6    0  503 -0.10435465075E+03  0.83827828144E+01 -0.25035532630E+03  0.27136313970E+03  0.00000000000E+00 0.  1.
<mgrwt>
<rscale>  0 0.25222922E+04</rscale>
<asrwt>0</asrwt>
<pdfrwt beam="1">  1        2 0.48771542E+00 0.25222922E+04</pdfrwt>
<pdfrwt beam="2">  1       -1 0.77185831E-01 0.25222922E+04</pdfrwt>
<totfact> 0.23114991E+00</totfact>
</mgrwt>
</event>
<event>
12    6  0.1450532E-007  0.1305909E+04  0.7818608E-02  0.9024893E-01
         -1   -1    0    0    0  501 -0.00000000000E+00  0.00000000000E+00  0.15008459781E+03  0.15008459781E+03  0.00000000000E+00 0.  1.
          2   -1    0    0  501    0  0.00000000000E+00 -0.00000000000E+00 -0.28407267413E+04  0.28407267413E+04  0.00000000000E+00 0. -1.
         24    2    1    2    0    0  0.15512879771E+02 -0.74237636537E+02 -0.14873447272E+04  0.14914537360E+04  0.80548326903E+02 0.  0.
        254    2    1    2    0    0 -0.15512879771E+02  0.74237636537E+02 -0.12032974163E+04  0.14993576032E+04  0.89128933229E+03 0.  0.
         23    2    4    4    0    0  0.26818042266E+03  0.51242312104E+02 -0.11604858827E+04  0.11957893526E+04  0.92941800036E+02 0.  0.
         23    2    4    4    0    0 -0.28369330243E+03  0.22995324433E+02 -0.42811533655E+02  0.30356825057E+03  0.96489276870E+02 0.  0.
          2    1    3    3  502    0  0.17705759975E+02 -0.50850926498E+02 -0.13991159050E+04  0.14001516440E+04  0.00000000000E+00 0. -1.
         -1    1    3    3    0  502 -0.21928802049E+01 -0.23386710039E+02 -0.88228822203E+02  0.91302091966E+02  0.00000000000E+00 0.  1.
         11    1    5    5    0    0  0.29808750508E+02  0.15108076769E+02 -0.30984293979E+03  0.31163995720E+03  0.00000000000E+00 0. -1.
        -11    1    5    5    0    0  0.23837167215E+03  0.36134235335E+02 -0.85064294290E+03  0.88414939538E+03  0.00000000000E+00 0.  1.
          2    1    6    6  503    0 -0.61525788663E+02 -0.32919649153E+02 -0.23626845238E+02  0.73670576127E+02  0.00000000000E+00 0. -1.
         -2    1    6    6    0  503 -0.22216751377E+03  0.55914973586E+02 -0.19184688417E+02  0.22989767445E+03  0.00000000000E+00 0.  1.
<mgrwt>
<rscale>  0 0.13059086E+04</rscale>
<asrwt>0</asrwt>
<pdfrwt beam="1">  1        2 0.43703484E+00 0.13059086E+04</pdfrwt>
<pdfrwt beam="2">  1       -1 0.23089940E-01 0.13059086E+04</pdfrwt>
<totfact> 0.39462070E+01</totfact>
</mgrwt>
</event>
<event>
12    6  0.1450532E-007  0.1500913E+04  0.7818608E-02  0.8883846E-01
         -1   -1    0    0    0  501 -0.00000000000E+00  0.00000000000E+00  0.43047020396E+03  0.43047020396E+03  0.00000000000E+00 0.  1.
          2   -1    0    0  501    0  0.00000000000E+00 -0.00000000000E+00 -0.13083017294E+04  0.13083017294E+04  0.00000000000E+00 0. -1.
         24    2    1    2    0    0  0.27129589540E+03 -0.37331863556E+03 -0.44200093255E+03  0.64398882477E+03  0.79928189849E+02 0.  0.
        254    2    1    2    0    0 -0.27129589540E+03  0.37331863556E+03 -0.43583059294E+03  0.10947831086E+04  0.89198289372E+03 0.  0.
         23    2    4    4    0    0  0.23449543605E+03  0.21723884936E+02 -0.39724986864E+03  0.47111014774E+03  0.93151899985E+02 0.  0.
         23    2    4    4    0    0 -0.50579133145E+03  0.35159475062E+03 -0.38580724307E+02  0.62367296089E+03  0.89642346169E+02 0.  0.
          2    1    3    3  502    0  0.12799909586E+03 -0.20383080573E+03 -0.17960142148E+03  0.30031223169E+03  0.00000000000E+00 0. -1.
         -1    1    3    3    0  502  0.14329679955E+03 -0.16948782983E+03 -0.26239951107E+03  0.34367659308E+03  0.00000000000E+00 0.  1.
         11    1    5    5    0    0  0.74560714665E+01  0.20715561075E+02 -0.65553920268E+02  0.69152324146E+02  0.00000000000E+00 0. -1.
        -11    1    5    5    0    0  0.22703936458E+03  0.10083238607E+01 -0.33169594837E+03  0.40195782360E+03  0.00000000000E+00 0.  1.
          3    1    6    6  503    0 -0.40658496251E+02  0.55666930248E+02 -0.21152424386E+02  0.72106487212E+02  0.00000000000E+00 0. -1.
         -3    1    6    6    0  503 -0.46513283520E+03  0.29592782038E+03 -0.17428299922E+02  0.55156647368E+03  0.00000000000E+00 0.  1.
<mgrwt>
<rscale>  0 0.15009129E+04</rscale>
<asrwt>0</asrwt>
<pdfrwt beam="1">  1        2 0.20127719E+00 0.15009129E+04</pdfrwt>
<pdfrwt beam="2">  1       -1 0.66226186E-01 0.15009129E+04</pdfrwt>
<totfact> 0.41601655E+01</totfact>
</mgrwt>
</event>
<event>
12    6  0.1450532E-007  0.1428167E+04  0.7818608E-02  0.8933678E-01
          2   -1    0    0  501    0  0.00000000000E+00  0.00000000000E+00  0.12018888023E+04  0.12018888023E+04  0.00000000000E+00 0. -1.
         -1   -1    0    0    0  501 -0.00000000000E+00 -0.00000000000E+00 -0.42426185837E+03  0.42426185837E+03  0.00000000000E+00 0.  1.
         24    2    1    2    0    0 -0.29666558750E+02  0.21559302434E+03 -0.19601933456E+03  0.30359402052E+03  0.79908027878E+02 0.  0.
        254    2    1    2    0    0  0.29666558750E+02 -0.21559302434E+03  0.97364627852E+03  0.13225566402E+04  0.86822147748E+03 0.  0.
         23    2    4    4    0    0  0.37537868653E+01 -0.10325943793E+03 -0.14248188247E+03  0.19672892633E+03  0.87889596573E+02 0.  0.
         23    2    4    4    0    0  0.25912771885E+02 -0.11233358641E+03  0.11161281610E+04  0.11258277139E+04  0.91954679865E+02 0.  0.
          4    1    3    3  502    0  0.13345346736E+02  0.19132748482E+02 -0.84174382923E+00  0.23342426538E+02  0.00000000000E+00 0. -1.
         -3    1    3    3    0  502 -0.43011905486E+02  0.19646027586E+03 -0.19517759073E+03  0.28025159398E+03  0.00000000000E+00 0.  1.
         11    1    5    5    0    0 -0.12633982810E+02  0.10113593926E+02 -0.33830285135E+01  0.16533214620E+02  0.00000000000E+00 0. -1.
        -11    1    5    5    0    0  0.16387769675E+02 -0.11337303186E+03 -0.13909885395E+03  0.18019571171E+03  0.00000000000E+00 0.  1.
          4    1    6    6  503    0  0.73265623879E+00 -0.11601958888E+03  0.76152291944E+03  0.77031048196E+03  0.00000000000E+00 0. -1.
         -4    1    6    6    0  503  0.25180115646E+02  0.36860024733E+01  0.35460524155E+03  0.35551723189E+03  0.00000000000E+00 0.  1.
<mgrwt>
<rscale>  0 0.14281675E+04</rscale>
<asrwt>0</asrwt>
<pdfrwt beam="1">  1        2 0.18490597E+00 0.14281675E+04</pdfrwt>
<pdfrwt beam="2">  1       -1 0.65271056E-01 0.14281675E+04</pdfrwt>
<totfact> 0.49789606E+01</totfact>
</mgrwt>
</event>
<event>
12    6  0.1450532E-007  0.1553915E+04  0.7818608E-02  0.8849371E-01
          2   -1    0    0  501    0  0.00000000000E+00  0.00000000000E+00  0.66582286141E+03  0.66582286141E+03  0.00000000000E+00 0. -1.
         -1   -1    0    0    0  501 -0.00000000000E+00 -0.00000000000E+00 -0.90664220416E+03  0.90664220416E+03  0.00000000000E+00 0.  1.
         24    2    1    2    0    0  0.16178851712E+02  0.46541869288E+03  0.58904084823E+01  0.47240422637E+03  0.79086922128E+02 0.  0.
        254    2    1    2    0    0 -0.16178851712E+02 -0.46541869288E+03 -0.24670975123E+03  0.11000608392E+04  0.96560438776E+03 0.  0.
         23    2    4    4    0    0  0.10024440530E+03 -0.53249817901E+03  0.23048379115E+03  0.59604108880E+03  0.92406439770E+02 0.  0.
         23    2    4    4    0    0 -0.11642325701E+03  0.67079486130E+02 -0.47719354238E+03  0.50401975040E+03  0.90929641328E+02 0.  0.
          2    1    3    3  502    0  0.14670137890E+02  0.36158988929E+03  0.37588216055E+02  0.36383421358E+03  0.00000000000E+00 0. -1.
         -1    1    3    3    0  502  0.15087138220E+01  0.10382880359E+03 -0.31697807572E+02  0.10857001279E+03  0.00000000000E+00 0.  1.
         11    1    5    5    0    0  0.63495442684E+02 -0.36480665217E+03  0.20268597300E+03  0.42213406444E+03  0.00000000000E+00 0. -1.
        -11    1    5    5    0    0  0.36748962618E+02 -0.16769152684E+03  0.27797818146E+02  0.17390702436E+03  0.00000000000E+00 0.  1.
          2    1    6    6  503    0 -0.30313878489E+02  0.41752158285E+02 -0.69477035216E+02  0.86540351125E+02  0.00000000000E+00 0.  1.
         -2    1    6    6    0  503 -0.86109378526E+02  0.25327327845E+02 -0.40771650717E+03  0.41747939928E+03  0.00000000000E+00 0. -1.
<mgrwt>
<rscale>  0 0.15539152E+04</rscale>
<asrwt>0</asrwt>
<pdfrwt beam="1">  1        2 0.10243429E+00 0.15539152E+04</pdfrwt>
<pdfrwt beam="2">  1       -1 0.13948342E+00 0.15539152E+04</pdfrwt>
<totfact> 0.20304083E+01</totfact>
</mgrwt>
</event>
<event>
12    6  0.1450532E-007  0.2262397E+04  0.7818608E-02  0.8492897E-01
         -1   -1    0    0    0  501 -0.00000000000E+00  0.00000000000E+00  0.73482208338E+03  0.73482208338E+03  0.00000000000E+00 0.  1.
          2   -1    0    0  501    0  0.00000000000E+00 -0.00000000000E+00 -0.17413876953E+04  0.17413876953E+04  0.00000000000E+00 0. -1.
         24    2    1    2    0    0  0.46970086081E+03 -0.91038454529E+02  0.47465643645E+03  0.67846648116E+03  0.78173745910E+02 0.  0.
        254    2    1    2    0    0 -0.46970086081E+03  0.91038454529E+02 -0.14812220484E+04  0.17977432976E+04  0.89941942851E+03 0.  0.
         23    2    4    4    0    0 -0.65493604258E+03 -0.55718784539E+02 -0.64928159080E+03  0.92827404804E+03  0.89890607450E+02 0.  0.
         23    2    4    4    0    0  0.18523518176E+03  0.14675723907E+03 -0.83194045761E+03  0.86946924951E+03  0.89454407743E+02 0.  0.
          2    1    3    3  502    0  0.37347057882E+02  0.11725689485E+02  0.52769019853E+02  0.65702846077E+02  0.00000000000E+00 0. -1.
         -1    1    3    3    0  502  0.43235380293E+03 -0.10276414401E+03  0.42188741659E+03  0.61276363509E+03  0.00000000000E+00 0.  1.
         11    1    5    5    0    0 -0.30882993107E+01 -0.94004758971E+01 -0.85772509676E+01  0.13094875864E+02  0.00000000000E+00 0. -1.
        -11    1    5    5    0    0 -0.65184774327E+03 -0.46318308641E+02 -0.64070433983E+03  0.91517917218E+03  0.00000000000E+00 0.  1.
          3    1    6    6  503    0  0.65197517875E+02  0.27912104299E+02 -0.38901360671E+03  0.39542557847E+03  0.00000000000E+00 0. -1.
         -3    1    6    6    0  503  0.12003766389E+03  0.11884513477E+03 -0.44292685089E+03  0.47404367104E+03  0.00000000000E+00 0.  1.
<mgrwt>
<rscale>  0 0.22623971E+04</rscale>
<asrwt>0</asrwt>
<pdfrwt beam="1">  1        2 0.26790580E+00 0.22623971E+04</pdfrwt>
<pdfrwt beam="2">  1       -1 0.11304955E+00 0.22623971E+04</pdfrwt>
<totfact> 0.68866774E+00</totfact>
</mgrwt>
</event>
<event>
12    6  0.1450532E-007  0.1498377E+04  0.7818608E-02  0.8885533E-01
         -1   -1    0    0    0  501 -0.00000000000E+00  0.00000000000E+00  0.10039096972E+04  0.10039096972E+04  0.00000000000E+00 0.  1.
          2   -1    0    0  501    0  0.00000000000E+00 -0.00000000000E+00 -0.55909750216E+03  0.55909750216E+03  0.00000000000E+00 0. -1.
         24    2    1    2    0    0 -0.11229294249E+03 -0.19122977708E+03 -0.29592703758E+03  0.37852617212E+03  0.80812863041E+02 0.  0.
        254    2    1    2    0    0  0.11229294249E+03  0.19122977708E+03  0.74073923266E+03  0.11844810273E+04  0.89728599709E+03 0.  0.
         23    2    4    4    0    0  0.38699588987E+03  0.15410472734E+03  0.78091339380E+03  0.88946596001E+03  0.88373523361E+02 0.  0.
         23    2    4    4    0    0 -0.27470294739E+03  0.37125049742E+02 -0.40174161135E+02  0.29501506726E+03  0.92628009081E+02 0.  0.
          2    1    3    3  502    0 -0.66823615933E+02 -0.16906541847E+03 -0.20137682874E+03  0.27129529764E+03  0.00000000000E+00 0. -1.
         -1    1    3    3    0  502 -0.45469326554E+02 -0.22164358618E+02 -0.94550208845E+02  0.10723087449E+03  0.00000000000E+00 0.  1.
         11    1    5    5    0    0  0.35105943696E+03  0.16474200364E+03  0.69839407901E+03  0.79883474238E+03  0.00000000000E+00 0.  1.
        -11    1    5    5    0    0  0.35936452913E+02 -0.10637276298E+02  0.82519314788E+02  0.90631217625E+02  0.00000000000E+00 0. -1.
          1    1    6    6  503    0 -0.78194112692E+02 -0.29543381491E+02 -0.23534693471E+02  0.86839003025E+02  0.00000000000E+00 0. -1.
         -1    1    6    6    0  503 -0.19650883470E+03  0.66668431234E+02 -0.16639467664E+02  0.20817606424E+03  0.00000000000E+00 0.  1.
<mgrwt>
<rscale>  0 0.14983770E+04</rscale>
<asrwt>0</asrwt>
<pdfrwt beam="1">  1        2 0.86015001E-01 0.14983770E+04</pdfrwt>
<pdfrwt beam="2">  1       -1 0.15444764E+00 0.14983770E+04</pdfrwt>
<totfact> 0.19215297E+01</totfact>
</mgrwt>
</event>
<event>
12    6  0.1450532E-007  0.1462865E+04  0.7818608E-02  0.8909529E-01
          2   -1    0    0  501    0  0.00000000000E+00  0.00000000000E+00  0.38668227156E+04  0.38668227156E+04  0.00000000000E+00 0. -1.
         -1   -1    0    0    0  501 -0.00000000000E+00 -0.00000000000E+00 -0.13835489397E+03  0.13835489397E+03  0.00000000000E+00 0.  1.
         24    2    1    2    0    0 -0.28897674397E+03  0.52453602576E+02  0.23373776121E+03  0.38379146871E+03  0.80022568477E+02 0.  0.
        254    2    1    2    0    0  0.28897674397E+03 -0.52453602576E+02  0.34947300604E+04  0.36213861408E+04  0.90279590550E+03 0.  0.
         23    2    4    4    0    0  0.39183948947E+03 -0.28359987783E+03  0.31403735111E+04  0.31787360815E+04  0.91925026210E+02 0.  0.
         23    2    4    4    0    0 -0.10286274550E+03  0.23114627525E+03  0.35435654930E+03  0.44265005933E+03  0.79756918300E+02 0.  0.
          2    1    3    3  502    0 -0.90203871619E+01  0.15089430696E+02  0.64896453727E+00  0.17592028259E+02  0.00000000000E+00 0. -1.
         -1    1    3    3    0  502 -0.27995635680E+03  0.37364171879E+02  0.23308879667E+03  0.36619944045E+03  0.00000000000E+00 0.  1.
         11    1    5    5    0    0  0.28395979947E+03 -0.17534314793E+03  0.19142251085E+04  0.19430996251E+04  0.00000000000E+00 0. -1.
        -11    1    5    5    0    0  0.10787969000E+03 -0.10825672989E+03  0.12261484026E+04  0.12356364563E+04  0.00000000000E+00 0.  1.
          1    1    6    6  503    0 -0.89149974020E+02  0.10257693932E+03  0.18675801305E+03  0.23097251305E+03  0.00000000000E+00 0. -1.
         -1    1    6    6    0  503 -0.13712771484E+02  0.12856933593E+03  0.16759853625E+03  0.21167754628E+03  0.00000000000E+00 0.  1.
<mgrwt>
<rscale>  0 0.14628655E+04</rscale>
<asrwt>0</asrwt>
<pdfrwt beam="1">  1        2 0.59489572E+00 0.14628655E+04</pdfrwt>
<pdfrwt beam="2">  1       -1 0.21285371E-01 0.14628655E+04</pdfrwt>
<totfact> 0.90680621E+00</totfact>
</mgrwt>
</event>
<event>
12    6  0.1450532E-007  0.1062783E+04  0.7818608E-02  0.9242245E-01
          4   -1    0    0  501    0  0.00000000000E+00  0.00000000000E+00  0.12660642370E+03  0.12660642370E+03  0.00000000000E+00 0. -1.
         -1   -1    0    0    0  501 -0.00000000000E+00 -0.00000000000E+00 -0.22303515962E+04  0.22303515962E+04  0.00000000000E+00 0.  1.
         24    2    1    2    0    0 -0.31425388600E+02 -0.10888479013E+03 -0.15120048114E+03  0.20527938142E+03  0.80215873543E+02 0.  0.
        254    2    1    2    0    0  0.31425388600E+02  0.10888479013E+03 -0.19525446913E+04  0.21516786385E+04  0.89690954894E+03 0.  0.
         23    2    4    4    0    0 -0.38634590271E+03  0.15913700375E+03 -0.63512908844E+03  0.76577087079E+03  0.91805909711E+02 0.  0.
         23    2    4    4    0    0  0.41777129131E+03 -0.50252213624E+02 -0.13174156029E+04  0.13859077677E+04  0.89990737965E+02 0.  0.
          4    1    3    3  502    0  0.22006733222E+02 -0.68817278756E+01 -0.18335219220E+02  0.29459035108E+02  0.00000000000E+00 0. -1.
         -3    1    3    3    0  502 -0.53432121822E+02 -0.10200306225E+03 -0.13286526192E+03  0.17582034631E+03  0.00000000000E+00 0.  1.
         11    1    5    5    0    0 -0.10276015974E+03  0.48719967478E+00 -0.15957688434E+03  0.18980165913E+03  0.00000000000E+00 0. -1.
        -11    1    5    5    0    0 -0.28358574297E+03  0.15864980408E+03 -0.47555220411E+03  0.57596921166E+03  0.00000000000E+00 0.  1.
          1    1    6    6  503    0  0.19543053035E+03  0.16167037913E+02 -0.53499545688E+03  0.56980225007E+03  0.00000000000E+00 0. -1.
         -1    1    6    6    0  503  0.22234076096E+03 -0.66419251537E+02 -0.78242014603E+03  0.81610551761E+03  0.00000000000E+00 0.  1.
<mgrwt>
<rscale>  0 0.10627828E+04</rscale>
<asrwt>0</asrwt>
<pdfrwt beam="1">  1        4 0.19477910E-01 0.10627828E+04</pdfrwt>
<pdfrwt beam="2">  1       -1 0.34313104E+00 0.10627828E+04</pdfrwt>
<totfact> 0.18084562E+00</totfact>
</mgrwt>
</event>
<event>
12    6  0.1450532E-007  0.2417173E+04  0.7818608E-02  0.8433102E-01
         -1   -1    0    0    0  501 -0.00000000000E+00  0.00000000000E+00  0.62490303155E+03  0.62490303155E+03  0.00000000000E+00 0.  1.
          2   -1    0    0  501    0  0.00000000000E+00 -0.00000000000E+00 -0.23374537135E+04  0.23374537135E+04  0.00000000000E+00 0. -1.
         24    2    1    2    0    0  0.43415505505E+03 -0.53857930825E+03  0.20904748741E+03  0.72702084440E+03  0.79373629739E+02 0.  0.
        254    2    1    2    0    0 -0.43415505505E+03  0.53857930825E+03 -0.19215981694E+04  0.22353359006E+04  0.90864117292E+03 0.  0.
         23    2    4    4    0    0 -0.45997434220E+03  0.71912591779E+02 -0.34034765218E+03  0.58390913677E+03  0.91463322259E+02 0.  0.
         23    2    4    4    0    0  0.25819287152E+02  0.46666671647E+03 -0.15812505172E+04  0.16514267639E+04  0.91720763810E+02 0.  0.
          2    1    3    3  502    0  0.21500875829E+03 -0.21503382550E+03  0.68236380803E+02  0.31164806420E+03  0.00000000000E+00 0. -1.
         -1    1    3    3    0  502  0.21914629676E+03 -0.32354548275E+03  0.14081110661E+03  0.41537278020E+03  0.00000000000E+00 0.  1.
         11    1    5    5    0    0 -0.32928577143E+03  0.10535160818E+02 -0.25023753810E+03  0.41371358976E+03  0.00000000000E+00 0. -1.
        -11    1    5    5    0    0 -0.13068857077E+03  0.61377430961E+02 -0.90110114084E+02  0.17019554701E+03  0.00000000000E+00 0.  1.
          3    1    6    6  503    0  0.54826572133E+02  0.39094407389E+03 -0.13374509356E+04  0.13944956891E+04  0.00000000000E+00 0. -1.
         -3    1    6    6    0  503 -0.29007284981E+02  0.75722642576E+02 -0.24379958160E+03  0.25693107475E+03  0.00000000000E+00 0.  1.
<mgrwt>
<rscale>  0 0.24171735E+04</rscale>
<asrwt>0</asrwt>
<pdfrwt beam="1">  1        2 0.35960826E+00 0.24171735E+04</pdfrwt>
<pdfrwt beam="2">  1       -1 0.96138929E-01 0.24171735E+04</pdfrwt>
<totfact> 0.45957994E+00</totfact>
</mgrwt>
</event>
<event>
12    6  0.1450532E-007  0.1168842E+04  0.7818608E-02  0.9140575E-01
          2   -1    0    0  501    0  0.00000000000E+00  0.00000000000E+00  0.61947564188E+03  0.61947564188E+03  0.00000000000E+00 0. -1.
         -1   -1    0    0    0  501 -0.00000000000E+00 -0.00000000000E+00 -0.55134954980E+03  0.55134954980E+03  0.00000000000E+00 0.  1.
         24    2    1    2    0    0 -0.18411183850E+03  0.10509726960E+03  0.88999656260E+02  0.24515288007E+03  0.85066977364E+02 0.  0.
        254    2    1    2    0    0  0.18411183850E+03 -0.10509726960E+03 -0.20873564187E+02  0.92567231161E+03  0.90082790679E+03 0.  0.
         23    2    4    4    0    0 -0.24427710448E+03  0.24667911030E+03  0.25377827913E+02  0.36193646446E+03  0.99156860181E+02 0.  0.
         23    2    4    4    0    0  0.42838894298E+03 -0.35177637990E+03 -0.46251392100E+02  0.56373584715E+03  0.91625357646E+02 0.  0.
          4    1    3    3  502    0 -0.12211406759E+03  0.10327956061E+03  0.36861939236E+02  0.16412591418E+03  0.00000000000E+00 0. -1.
         -3    1    3    3    0  502 -0.61997770913E+02  0.18177089933E+01  0.52137717024E+02  0.81026965886E+02  0.00000000000E+00 0.  1.
         11    1    5    5    0    0 -0.10424487607E+03  0.17368499981E+03  0.42274548157E+01  0.20261131440E+03  0.00000000000E+00 0. -1.
        -11    1    5    5    0    0 -0.14003222841E+03  0.72994110489E+02  0.21150373097E+02  0.15932515006E+03  0.00000000000E+00 0.  1.
          4    1    6    6  503    0  0.42760623640E+03 -0.33626777307E+03 -0.53473797209E+02  0.54661005809E+03  0.00000000000E+00 0. -1.
         -4    1    6    6    0  503  0.78270658148E+00 -0.15508606830E+02  0.72224051089E+01  0.17125789061E+02  0.00000000000E+00 0.  1.
<mgrwt>
<rscale>  0 0.11688415E+04</rscale>
<asrwt>0</asrwt>
<pdfrwt beam="1">  1        2 0.95303946E-01 0.11688415E+04</pdfrwt>
<pdfrwt beam="2">  1       -1 0.84823007E-01 0.11688415E+04</pdfrwt>
<totfact> 0.74164751E+01</totfact>
</mgrwt>
</event>
<event>
12    6  0.1450532E-007  0.3225401E+04  0.7818608E-02  0.8182141E-01
         -1   -1    0    0    0  501 -0.00000000000E+00  0.00000000000E+00  0.23980943333E+04  0.23980943333E+04  0.00000000000E+00 0.  1.
          2   -1    0    0  501    0  0.00000000000E+00 -0.00000000000E+00 -0.10845292609E+04  0.10845292609E+04  0.00000000000E+00 0. -1.
         24    2    1    2    0    0  0.10095380458E+04 -0.10671042041E+04  0.36959713221E+03  0.15168738430E+04  0.80160882747E+02 0.  0.
        254    2    1    2    0    0 -0.10095380458E+04  0.10671042041E+04  0.94396794013E+03  0.19657497512E+04  0.90289432598E+03 0.  0.
         23    2    4    4    0    0 -0.90733375510E+03  0.11357037245E+04  0.57406407454E+03  0.15655839070E+04  0.91792783953E+02 0.  0.
         23    2    4    4    0    0 -0.10220429075E+03 -0.68599520459E+02  0.36990386558E+03  0.40016584415E+03  0.90289654978E+02 0.  0.
          2    1    3    3  502    0  0.26834647403E+03 -0.24096169548E+03  0.72039888234E+02  0.36777998085E+03  0.00000000000E+00 0. -1.
         -1    1    3    3    0  502  0.74119157182E+03 -0.82614250860E+03  0.29755724397E+03  0.11490938622E+04  0.00000000000E+00 0.  1.
         11    1    5    5    0    0 -0.79303415233E+03  0.93937490272E+03  0.48425947862E+03  0.13213007293E+04  0.00000000000E+00 0. -1.
        -11    1    5    5    0    0 -0.11429960277E+03  0.19632882182E+03  0.89804595920E+02  0.24428317772E+03  0.00000000000E+00 0.  1.
          4    1    6    6  503    0 -0.74437784057E+02 -0.90254675454E+02  0.29673507103E+03  0.31896487662E+03  0.00000000000E+00 0. -1.
         -4    1    6    6    0  503 -0.27766506695E+02  0.21655154995E+02  0.73168794554E+02  0.81200967534E+02  0.00000000000E+00 0.  1.
<mgrwt>
<rscale>  0 0.32254014E+04</rscale>
<asrwt>0</asrwt>
<pdfrwt beam="1">  1        2 0.16685066E+00 0.32254014E+04</pdfrwt>
<pdfrwt beam="2">  1       -1 0.36893759E+00 0.32254014E+04</pdfrwt>
<totfact> 0.24754714E-01</totfact>
</mgrwt>
</event>
<event>
12    6  0.1450532E-007  0.3500501E+04  0.7818608E-02  0.8113671E-01
         -1   -1    0    0    0  501 -0.00000000000E+00  0.00000000000E+00  0.86442972821E+03  0.86442972821E+03  0.00000000000E+00 0.  1.
          2   -1    0    0  501    0  0.00000000000E+00 -0.00000000000E+00 -0.35438121340E+04  0.35438121340E+04  0.00000000000E+00 0. -1.
         24    2    1    2    0    0 -0.47823185487E+03 -0.15130494243E+04 -0.76059136769E+03  0.17615039054E+04  0.79828018567E+02 0.  0.
        254    2    1    2    0    0  0.47823185487E+03  0.15130494243E+04 -0.19187910381E+04  0.26467379568E+04  0.89746225374E+03 0.  0.
         23    2    4    4    0    0 -0.25809979937E+03  0.40703600375E+03 -0.52088819339E+03  0.71582305741E+03  0.93724728477E+02 0.  0.
         23    2    4    4    0    0  0.73633165424E+03  0.11060134206E+04 -0.13979028447E+04  0.19309148994E+04  0.94074407273E+02 0.  0.
          4    1    3    3  502    0 -0.38204667484E+03 -0.11381165881E+04 -0.54505542813E+03  0.13184667040E+04  0.00000000000E+00 0. -1.
         -3    1    3    3    0  502 -0.96185180027E+02 -0.37493283625E+03 -0.21553593956E+03  0.44303720137E+03  0.00000000000E+00 0.  1.
         11    1    5    5    0    0  0.80019650672E+01  0.14735252524E+02 -0.14328097546E+02  0.22055690675E+02  0.00000000000E+00 0. -1.
        -11    1    5    5    0    0 -0.26610176444E+03  0.39230075122E+03 -0.50656009584E+03  0.69376736673E+03  0.00000000000E+00 0.  1.
          4    1    6    6  503    0  0.19550362436E+02  0.63730447487E+02 -0.59970128153E+02  0.89667178382E+02  0.00000000000E+00 0. -1.
         -4    1    6    6    0  503  0.71678129180E+03  0.10422829731E+04 -0.13379327165E+04  0.18412477210E+04  0.00000000000E+00 0.  1.
<mgrwt>
<rscale>  0 0.35005009E+04</rscale>
<asrwt>0</asrwt>
<pdfrwt beam="1">  1        2 0.54520187E+00 0.35005009E+04</pdfrwt>
<pdfrwt beam="2">  1       -1 0.13298919E+00 0.35005009E+04</pdfrwt>
<totfact> 0.33749388E-01</totfact>
</mgrwt>
</event>
<event>
12    6  0.1450532E-007  0.1587664E+04  0.7818608E-02  0.8828163E-01
         -1   -1    0    0    0  501 -0.00000000000E+00  0.00000000000E+00  0.43128830383E+03  0.43128830383E+03  0.00000000000E+00 0.  1.
          2   -1    0    0  501    0  0.00000000000E+00 -0.00000000000E+00 -0.14611314031E+04  0.14611314031E+04  0.00000000000E+00 0. -1.
         24    2    1    2    0    0 -0.68427226928E+02 -0.39599544411E+03 -0.75912912453E+03  0.86352204553E+03  0.88874170941E+02 0.  0.
        254    2    1    2    0    0  0.68427226928E+02  0.39599544411E+03 -0.27071397470E+03  0.10288976614E+04  0.90766164640E+03 0.  0.
         23    2    4    4    0    0  0.39368193626E+03  0.39078121750E+02 -0.34332638891E+03  0.53232359699E+03  0.94777824668E+02 0.  0.
         23    2    4    4    0    0 -0.32525470933E+03  0.35691732236E+03  0.72612414212E+02  0.49657406439E+03  0.90181138739E+02 0.  0.
          4    1    3    3  502    0 -0.19499863117E+02 -0.25030714318E+02 -0.28491462772E+02  0.42644399066E+02  0.00000000000E+00 0. -1.
         -3    1    3    3    0  502 -0.48927363811E+02 -0.37096472979E+03 -0.73063766176E+03  0.82087764646E+03  0.00000000000E+00 0.  1.
         11    1    5    5    0    0  0.26238230823E+03  0.19377277040E+02 -0.28327020401E+03  0.38660310787E+03  0.00000000000E+00 0. -1.
        -11    1    5    5    0    0  0.13129962802E+03  0.19700844709E+02 -0.60056184905E+02  0.14572048911E+03  0.00000000000E+00 0.  1.
          4    1    6    6  503    0 -0.29643836848E+03  0.35144524021E+03  0.79121020533E+02  0.46652931212E+03  0.00000000000E+00 0. -1.
         -4    1    6    6    0  503 -0.28816340845E+02  0.54720821508E+01 -0.65086063211E+01  0.30044752270E+02  0.00000000000E+00 0.  1.
<mgrwt>
<rscale>  0 0.15876635E+04</rscale>
<asrwt>0</asrwt>
<pdfrwt beam="1">  1        2 0.22478945E+00 0.15876635E+04</pdfrwt>
<pdfrwt beam="2">  1       -1 0.66352046E-01 0.15876635E+04</pdfrwt>
<totfact> 0.33620244E+01</totfact>
</mgrwt>
</event>
<event>
12    6  0.1450532E-007  0.2128028E+04  0.7818608E-02  0.8548996E-01
          2   -1    0    0  501    0  0.00000000000E+00  0.00000000000E+00  0.60047729860E+03  0.60047729860E+03  0.00000000000E+00 0. -1.
         -3   -1    0    0    0  501 -0.00000000000E+00 -0.00000000000E+00 -0.18853765343E+04  0.18853765343E+04  0.00000000000E+00 0.  1.
         24    2    1    2    0    0 -0.36999006276E+03  0.31240853249E+02  0.38549813583E+03  0.54119039846E+03  0.80059960017E+02 0.  0.
        254    2    1    2    0    0  0.36999006276E+03 -0.31240853249E+02 -0.16703973715E+04  0.19446634344E+04  0.92391550315E+03 0.  0.
         23    2    4    4    0    0  0.62717412873E+03 -0.20226472989E+03 -0.10083315305E+04  0.12082038866E+04  0.93625570769E+02 0.  0.
         23    2    4    4    0    0 -0.25718406597E+03  0.17102387664E+03 -0.66206584104E+03  0.73645954783E+03  0.92998266412E+02 0.  0.
          2    1    3    3  502    0 -0.33086369802E+03  0.44119374999E+02  0.31182856777E+03  0.45678699806E+03  0.00000000000E+00 0. -1.
         -1    1    3    3    0  502 -0.39126364739E+02 -0.12878521750E+02  0.73669568058E+02  0.84403400394E+02  0.00000000000E+00 0.  1.
         11    1    5    5    0    0  0.95944304298E+01 -0.38569012636E+01 -0.14183987613E+01  0.10437463182E+02  0.00000000000E+00 0. -1.
        -11    1    5    5    0    0  0.61757969830E+03 -0.19840782862E+03 -0.10069131317E+04  0.11977664234E+04  0.00000000000E+00 0.  1.
          2    1    6    6  503    0 -0.18611454562E+03  0.13741649917E+03 -0.57139656108E+03  0.61645433598E+03  0.00000000000E+00 0.  1.
         -2    1    6    6    0  503 -0.71069520354E+02  0.33607377467E+02 -0.90669279952E+02  0.12000521185E+03  0.00000000000E+00 0. -1.
<mgrwt>
<rscale>  0 0.21280280E+04</rscale>
<asrwt>0</asrwt>
<pdfrwt beam="1">  1        2 0.92381123E-01 0.21280280E+04</pdfrwt>
<pdfrwt beam="2">  1       -3 0.29005793E+00 0.21280280E+04</pdfrwt>
<totfact> 0.12293310E+00</totfact>
</mgrwt>
</event>
<event>
12    6  0.1450532E-007  0.1351266E+04  0.7818608E-02  0.8989870E-01
         -1   -1    0    0    0  501 -0.00000000000E+00  0.00000000000E+00  0.15465055742E+03  0.15465055742E+03  0.00000000000E+00 0.  1.
          2   -1    0    0  501    0  0.00000000000E+00 -0.00000000000E+00 -0.29516876713E+04  0.29516876713E+04  0.00000000000E+00 0. -1.
         24    2    1    2    0    0 -0.16905693630E+03  0.11714544257E+03 -0.15115037559E+04  0.15274931038E+04  0.79298646987E+02 0.  0.
        254    2    1    2    0    0  0.16905693630E+03 -0.11714544257E+03 -0.12855333579E+04  0.15788451249E+04  0.89322595784E+03 0.  0.
         23    2    4    4    0    0 -0.19930380168E+03 -0.20200186490E+03 -0.11140868279E+04  0.11535053295E+04  0.94118682391E+02 0.  0.
         23    2    4    4    0    0  0.36836073798E+03  0.84856422325E+02 -0.17144653006E+03  0.42533979543E+03  0.92896626507E+02 0.  0.
          4    1    3    3  502    0 -0.64151505798E+02  0.74168841975E+02 -0.92096196253E+03  0.92616811068E+03  0.00000000000E+00 0. -1.
         -3    1    3    3    0  502 -0.10490543050E+03  0.42976600595E+02 -0.59054179342E+03  0.60132499310E+03  0.00000000000E+00 0.  1.
         11    1    5    5    0    0 -0.80855009321E+02 -0.12768748032E+03 -0.71003671354E+03  0.72594335849E+03  0.00000000000E+00 0. -1.
        -11    1    5    5    0    0 -0.11844879236E+03 -0.74314384580E+02 -0.40405011432E+03  0.42756197101E+03  0.00000000000E+00 0.  1.
          4    1    6    6  503    0  0.15988092054E+03  0.39989508066E+02 -0.12560787360E+03  0.20721584741E+03  0.00000000000E+00 0.  1.
         -4    1    6    6    0  503  0.20847981744E+03  0.44866914259E+02 -0.45838656456E+02  0.21812394802E+03  0.00000000000E+00 0. -1.
<mgrwt>
<rscale>  0 0.13512663E+04</rscale>
<asrwt>0</asrwt>
<pdfrwt beam="1">  1        2 0.45410576E+00 0.13512663E+04</pdfrwt>
<pdfrwt beam="2">  1       -1 0.23792396E-01 0.13512663E+04</pdfrwt>
<totfact> 0.31955929E+01</totfact>
</mgrwt>
</event>
<event>
12    6  0.1450532E-007  0.2408785E+04  0.7818608E-02  0.8436222E-01
         -1   -1    0    0    0  501 -0.00000000000E+00  0.00000000000E+00  0.96434044035E+03  0.96434044035E+03  0.00000000000E+00 0.  1.
          2   -1    0    0  501    0  0.00000000000E+00 -0.00000000000E+00 -0.15042007542E+04  0.15042007542E+04  0.00000000000E+00 0. -1.
         24    2    1    2    0    0  0.22468774646E+03  0.45377200739E+03  0.69201701375E+03  0.86112597680E+03  0.79099826175E+02 0.  0.
        254    2    1    2    0    0 -0.22468774646E+03 -0.45377200739E+03 -0.12318773276E+04  0.16074152178E+04  0.89992683808E+03 0.  0.
         23    2    4    4    0    0 -0.30714249840E+03 -0.97420770698E+02 -0.11808678799E+04  0.12275204071E+04  0.92358426983E+02 0.  0.
         23    2    4    4    0    0  0.82454751930E+02 -0.35635123670E+03 -0.51009447676E+02  0.37989481068E+03  0.89068026937E+02 0.  0.
          2    1    3    3  502    0  0.61385107871E+02  0.64112833203E+02  0.98536399990E+02  0.13261979103E+03  0.00000000000E+00 0. -1.
         -1    1    3    3    0  502  0.16330263859E+03  0.38965917419E+03  0.59348061376E+03  0.72850618577E+03  0.00000000000E+00 0.  1.
         11    1    5    5    0    0 -0.22797198128E+03 -0.10908629276E+03 -0.95583966558E+03  0.98868625448E+03  0.00000000000E+00 0.  1.
        -11    1    5    5    0    0 -0.79170517110E+02  0.11665522067E+02 -0.22502821435E+03  0.23883415258E+03  0.00000000000E+00 0. -1.
          4    1    6    6  503    0  0.53212111718E+02 -0.21074081136E+03 -0.74003042930E+02  0.22960764092E+03  0.00000000000E+00 0. -1.
         -4    1    6    6    0  503  0.29242640212E+02 -0.14561042533E+03  0.22993595254E+02  0.15028716976E+03  0.00000000000E+00 0.  1.
<mgrwt>
<rscale>  0 0.24087853E+04</rscale>
<asrwt>0</asrwt>
<pdfrwt beam="1">  1        2 0.23141550E+00 0.24087853E+04</pdfrwt>
<pdfrwt beam="2">  1       -1 0.14836007E+00 0.24087853E+04</pdfrwt>
<totfact> 0.46440818E+00</totfact>
</mgrwt>
</event>
<event>
12    6  0.1450532E-007  0.2488168E+04  0.7818608E-02  0.8407213E-01
          2   -1    0    0  501    0  0.00000000000E+00  0.00000000000E+00  0.24758734950E+04  0.24758734950E+04  0.00000000000E+00 0. -1.
         -1   -1    0    0    0  501 -0.00000000000E+00 -0.00000000000E+00 -0.62513067703E+03  0.62513067703E+03  0.00000000000E+00 0.  1.
         24    2    1    2    0    0 -0.37925696049E+02 -0.19689148601E+03  0.21249373310E+04  0.21358672356E+04  0.79784533580E+02 0.  0.
        254    2    1    2    0    0  0.37925696049E+02  0.19689148601E+03 -0.27419451306E+03  0.96513693639E+03  0.90338367226E+03 0.  0.
         23    2    4    4    0    0  0.17701602735E+03 -0.31519469326E+03 -0.28210289271E+02  0.37324003420E+03  0.88486914909E+02 0.  0.
         23    2    4    4    0    0 -0.13909033130E+03  0.51208617927E+03 -0.24598422379E+03  0.59189690219E+03  0.90858842197E+02 0.  0.
          2    1    3    3  502    0  0.20791819194E+02 -0.36569522305E+02  0.58019518653E+03  0.58171821717E+03  0.00000000000E+00 0. -1.
         -1    1    3    3    0  502 -0.58717515243E+02 -0.16032196371E+03  0.15447421445E+04  0.15541490184E+04  0.00000000000E+00 0.  1.
         11    1    5    5    0    0  0.13891023506E+03 -0.28891078123E+03 -0.31188831851E+01  0.32058574570E+03  0.00000000000E+00 0. -1.
        -11    1    5    5    0    0  0.38105792288E+02 -0.26283912028E+02 -0.25091406086E+02  0.52654288494E+02  0.00000000000E+00 0.  1.
          4    1    6    6  503    0  0.11604997194E+01  0.14895030553E+03 -0.73886703612E+02  0.16627322468E+03  0.00000000000E+00 0. -1.
         -4    1    6    6    0  503 -0.14025083102E+03  0.36313587375E+03 -0.17209752018E+03  0.42562367751E+03  0.00000000000E+00 0.  1.
<mgrwt>
<rscale>  0 0.24881676E+04</rscale>
<asrwt>0</asrwt>
<pdfrwt beam="1">  1        2 0.38090361E+00 0.24881676E+04</pdfrwt>
<pdfrwt beam="2">  1       -1 0.96173952E-01 0.24881676E+04</pdfrwt>
<totfact> 0.38013209E+00</totfact>
</mgrwt>
</event>
<event>
12    6  0.1450532E-007  0.1504886E+04  0.7818608E-02  0.8881210E-01
         -1   -1    0    0    0  501 -0.00000000000E+00  0.00000000000E+00  0.62991535123E+03  0.62991535123E+03  0.00000000000E+00 0.  1.
          2   -1    0    0  501    0  0.00000000000E+00 -0.00000000000E+00 -0.89880445715E+03  0.89880445715E+03  0.00000000000E+00 0. -1.
         24    2    1    2    0    0  0.42328729200E+02  0.41565943267E+03  0.14362358113E+03  0.44887487580E+03  0.79350083726E+02 0.  0.
        254    2    1    2    0    0 -0.42328729200E+02 -0.41565943267E+03 -0.41251268705E+03  0.10798449326E+04  0.90627472443E+03 0.  0.
         23    2    4    4    0    0 -0.40676537886E+03 -0.19672495082E+03  0.26739650632E+02  0.46135944394E+03  0.89323837170E+02 0.  0.
         23    2    4    4    0    0  0.36443664966E+03 -0.21893448185E+03 -0.43925233768E+03  0.61848548863E+03  0.93996300597E+02 0.  0.
          4    1    3    3  502    0 -0.13489144448E+02  0.13664441847E+03  0.73820281886E+02  0.15589447756E+03  0.00000000000E+00 0. -1.
         -3    1    3    3    0  502  0.55817873648E+02  0.27901501420E+03  0.69803299246E+02  0.29298039824E+03  0.00000000000E+00 0.  1.
         11    1    5    5    0    0 -0.30961654464E+03 -0.10604541462E+03  0.27902012041E+02  0.32846089105E+03  0.00000000000E+00 0. -1.
        -11    1    5    5    0    0 -0.97148834218E+02 -0.90679536202E+02 -0.11623614094E+01  0.13289855289E+03  0.00000000000E+00 0.  1.
          3    1    6    6  503    0  0.29793373189E+03 -0.13216239353E+03 -0.33595387604E+03  0.46807735865E+03  0.00000000000E+00 0. -1.
         -3    1    6    6    0  503  0.66502917772E+02 -0.86772088325E+02 -0.10329846165E+03  0.15040812998E+03  0.00000000000E+00 0.  1.
<mgrwt>
<rscale>  0 0.15048863E+04</rscale>
<asrwt>0</asrwt>
<pdfrwt beam="1">  1        2 0.13827761E+00 0.15048863E+04</pdfrwt>
<pdfrwt beam="2">  1       -1 0.96910054E-01 0.15048863E+04</pdfrwt>
<totfact> 0.33160441E+01</totfact>
</mgrwt>
</event>
<event>
12    6  0.1450532E-007  0.2000364E+04  0.7818608E-02  0.8606450E-01
         -1   -1    0    0    0  501 -0.00000000000E+00  0.00000000000E+00  0.30183645419E+03  0.30183645419E+03  0.00000000000E+00 0.  1.
          2   -1    0    0  501    0  0.00000000000E+00 -0.00000000000E+00 -0.33142591903E+04  0.33142591903E+04  0.00000000000E+00 0. -1.
         24    2    1    2    0    0  0.14830064247E+02 -0.23220020570E+03  0.17645525955E+03  0.29904340259E+03  0.64448674755E+02 0.  0.
        254    2    1    2    0    0 -0.14830064247E+02  0.23220020570E+03 -0.31888779957E+04  0.33170522419E+04  0.88303784628E+03 0.  0.
         23    2    4    4    0    0  0.37958399006E+03  0.15459329148E+03 -0.22879219943E+04  0.23262173301E+04  0.93364466394E+02 0.  0.
         23    2    4    4    0    0 -0.39441405430E+03  0.77606914228E+02 -0.90095600137E+03  0.99083491181E+03  0.91906619398E+02 0.  0.
          2    1    3    3  502    0  0.30653179679E-01  0.26640182948E+01  0.11132207462E+02  0.11446570493E+02  0.00000000000E+00 0. -1.
         -1    1    3    3    0  502  0.14799411067E+02 -0.23486422400E+03  0.16532305209E+03  0.28759683210E+03  0.00000000000E+00 0.  1.
         11    1    5    5    0    0  0.32966679742E+03  0.13431407148E+03 -0.21251919465E+04  0.21547995908E+04  0.00000000000E+00 0. -1.
        -11    1    5    5    0    0  0.49917192636E+02  0.20279219994E+02 -0.16273004782E+03  0.17141773930E+03  0.00000000000E+00 0.  1.
          1    1    6    6  503    0 -0.31058001695E+03  0.55190045528E+02 -0.60335915133E+03  0.68084370713E+03  0.00000000000E+00 0. -1.
         -1    1    6    6    0  503 -0.83834037356E+02  0.22416868700E+02 -0.29759685004E+03  0.30999120468E+03  0.00000000000E+00 0.  1.
<mgrwt>
<rscale>  0 0.20003642E+04</rscale>
<asrwt>0</asrwt>
<pdfrwt beam="1">  1        2 0.50988600E+00 0.20003642E+04</pdfrwt>
<pdfrwt beam="2">  1       -1 0.46436380E-01 0.20003642E+04</pdfrwt>
<totfact> 0.53426965E+00</totfact>
</mgrwt>
</event>
<event>
12    6  0.1450532E-007  0.2023776E+04  0.7818608E-02  0.8595585E-01
         -1   -1    0    0    0  501 -0.00000000000E+00  0.00000000000E+00  0.87659110867E+03  0.87659110867E+03  0.00000000000E+00 0.  1.
          2   -1    0    0  501    0  0.00000000000E+00 -0.00000000000E+00 -0.11680671798E+04  0.11680671798E+04  0.00000000000E+00 0. -1.
         24    2    1    2    0    0  0.21830426495E+03 -0.37455846407E+03 -0.80693866142E+03  0.91948033812E+03  0.79644797640E+02 0.  0.
        254    2    1    2    0    0 -0.21830426495E+03  0.37455846407E+03  0.51546259027E+03  0.11251779504E+04  0.90131733751E+03 0.  0.
         23    2    4    4    0    0 -0.56288178149E+03  0.25176152869E+03  0.31183362943E+03  0.69690478488E+03  0.90643805544E+02 0.  0.
         23    2    4    4    0    0  0.34457751654E+03  0.12279693538E+03  0.20362896085E+03  0.42827316548E+03  0.90224156008E+02 0.  0.
          4    1    3    3  502    0  0.14441120282E+03 -0.20294891917E+03 -0.52722477020E+03  0.58310275047E+03  0.00000000000E+00 0. -1.
         -3    1    3    3    0  502  0.73893062126E+02 -0.17160954490E+03 -0.27971389122E+03  0.33637758765E+03  0.00000000000E+00 0.  1.
         11    1    5    5    0    0 -0.16691010000E+03  0.32928225387E+02  0.10011407715E+03  0.19739827242E+03  0.00000000000E+00 0.  1.
        -11    1    5    5    0    0 -0.39597168149E+03  0.21883330330E+03  0.21171955228E+03  0.49950651246E+03  0.00000000000E+00 0. -1.
          1    1    6    6  503    0  0.30234287291E+03  0.77216988489E+02  0.18760625173E+03  0.36410133452E+03  0.00000000000E+00 0. -1.
         -1    1    6    6    0  503  0.42234643637E+02  0.45579946889E+02  0.16022709120E+02  0.64171830963E+02  0.00000000000E+00 0.  1.
<mgrwt>
<rscale>  0 0.20237760E+04</rscale>
<asrwt>0</asrwt>
<pdfrwt beam="1">  1        2 0.17970264E+00 0.20237760E+04</pdfrwt>
<pdfrwt beam="2">  1       -1 0.13486017E+00 0.20237760E+04</pdfrwt>
<totfact> 0.96684213E+00</totfact>
</mgrwt>
</event>
<event>
12    6  0.1450532E-007  0.1756285E+04  0.7818608E-02  0.8729898E-01
         -1   -1    0    0    0  501 -0.00000000000E+00  0.00000000000E+00  0.29433572249E+03  0.29433572249E+03  0.00000000000E+00 0.  1.
          2   -1    0    0  501    0  0.00000000000E+00 -0.00000000000E+00 -0.26199139439E+04  0.26199139439E+04  0.00000000000E+00 0. -1.
         24    2    1    2    0    0 -0.37746974904E+03 -0.20040047163E+03 -0.63223194462E+02  0.43880786129E+03  0.76885670604E+02 0.  0.
        254    2    1    2    0    0  0.37746974904E+03  0.20040047163E+03 -0.22623550269E+04  0.24754418051E+04  0.90935037363E+03 0.  0.
         23    2    4    4    0    0  0.56460370626E+03  0.30786779337E+03 -0.10129435084E+04  0.12036526775E+04  0.95735539301E+02 0.  0.
         23    2    4    4    0    0 -0.18713395722E+03 -0.10746732174E+03 -0.12494115186E+04  0.12717891276E+04  0.99247666283E+02 0.  0.
          4    1    3    3  502    0  0.29970503899E+01  0.16672662310E+01 -0.36906159949E+00  0.34493904083E+01  0.00000000000E+00 0. -1.
         -3    1    3    3    0  502 -0.38046679943E+03 -0.20206773786E+03 -0.62854132863E+02  0.43535847088E+03  0.00000000000E+00 0.  1.
         11    1    5    5    0    0  0.31762273011E+03  0.12568558184E+03 -0.49020194506E+03  0.59747720551E+03  0.00000000000E+00 0.  1.
        -11    1    5    5    0    0  0.24698097615E+03  0.18218221152E+03 -0.52274156331E+03  0.60617547194E+03  0.00000000000E+00 0. -1.
          2    1    6    6  503    0 -0.19656848135E+03 -0.87028167918E+02 -0.11377965683E+04  0.11579266388E+04  0.00000000000E+00 0.  1.
         -2    1    6    6    0  503  0.94345241312E+01 -0.20439153821E+02 -0.11161495023E+03  0.11386248886E+03  0.00000000000E+00 0. -1.
<mgrwt>
<rscale>  0 0.17562850E+04</rscale>
<asrwt>0</asrwt>
<pdfrwt beam="1">  1        2 0.40306367E+00 0.17562850E+04</pdfrwt>
<pdfrwt beam="2">  1       -1 0.45282420E-01 0.17562850E+04</pdfrwt>
<totfact> 0.15496024E+01</totfact>
</mgrwt>
</event>
<event>
12    6  0.1450532E-007  0.3079630E+04  0.7818608E-02  0.8221351E-01
         -1   -1    0    0    0  501 -0.00000000000E+00  0.00000000000E+00  0.17843577083E+04  0.17843577083E+04  0.00000000000E+00 0.  1.
          2   -1    0    0  501    0  0.00000000000E+00 -0.00000000000E+00 -0.13287861671E+04  0.13287861671E+04  0.00000000000E+00 0. -1.
         24    2    1    2    0    0  0.28659410367E+03 -0.13737428648E+04  0.11569647924E+03  0.14108972888E+04  0.89105809436E+02 0.  0.
        254    2    1    2    0    0 -0.28659410367E+03  0.13737428648E+04  0.33987506201E+03  0.17022465866E+04  0.90156682772E+03 0.  0.
         23    2    4    4    0    0 -0.16145486775E+03  0.11521022517E+03  0.37496691118E+03  0.43384199253E+03  0.90981425028E+02 0.  0.
         23    2    4    4    0    0 -0.12513923592E+03  0.12585326397E+04 -0.35091849164E+02  0.12684045941E+04  0.89747105290E+02 0.  0.
          2    1    3    3  502    0  0.97366728765E+02 -0.46498935151E+03 -0.30743978261E+01  0.47508402290E+03  0.00000000000E+00 0. -1.
         -1    1    3    3    0  502  0.18922737490E+03 -0.90875351332E+03  0.11877087707E+03  0.93581326590E+03  0.00000000000E+00 0.  1.
         11    1    5    5    0    0 -0.38630937147E+02 -0.55839435489E+01  0.33734806936E+02  0.51590376326E+02  0.00000000000E+00 0. -1.
        -11    1    5    5    0    0 -0.12282393060E+03  0.12079416872E+03  0.34123210424E+03  0.38225161620E+03  0.00000000000E+00 0.  1.
          3    1    6    6  503    0  0.14167646682E+02  0.92895146609E+02 -0.43426343671E+01  0.94069596306E+02  0.00000000000E+00 0. -1.
         -3    1    6    6    0  503 -0.13930688260E+03  0.11656374931E+04 -0.30749214797E+02  0.11743349978E+04  0.00000000000E+00 0.  1.
<mgrwt>
<rscale>  0 0.30796297E+04</rscale>
<asrwt>0</asrwt>
<pdfrwt beam="1">  1        2 0.20442864E+00 0.30796297E+04</pdfrwt>
<pdfrwt beam="2">  1       -1 0.27451657E+00 0.30796297E+04</pdfrwt>
<totfact> 0.74407929E-01</totfact>
</mgrwt>
</event>
<event>
12    6  0.1450532E-007  0.2455722E+04  0.7818608E-02  0.8418932E-01
         -1   -1    0    0    0  501 -0.00000000000E+00  0.00000000000E+00  0.42665020043E+03  0.42665020043E+03  0.00000000000E+00 0.  1.
          2   -1    0    0  501    0  0.00000000000E+00 -0.00000000000E+00 -0.35336735872E+04  0.35336735872E+04  0.00000000000E+00 0. -1.
         24    2    1    2    0    0 -0.44185688646E+03 -0.39691790709E+03  0.69296901394E+02  0.60339050486E+03  0.80602157059E+02 0.  0.
        254    2    1    2    0    0  0.44185688646E+03  0.39691790709E+03 -0.31763202881E+04  0.33569332827E+04  0.90951039515E+03 0.  0.
         23    2    4    4    0    0 -0.21503388053E+03  0.22106308155E+03 -0.16858425624E+04  0.17161705694E+04  0.89821056924E+02 0.  0.
         23    2    4    4    0    0  0.65689076699E+03  0.17585482555E+03 -0.14904777257E+04  0.16407627133E+04  0.90266445390E+02 0.  0.
          2    1    3    3  502    0 -0.32678971920E+03 -0.24751826954E+03  0.32280351067E+02  0.41121628786E+03  0.00000000000E+00 0. -1.
         -1    1    3    3    0  502 -0.11506716726E+03 -0.14939963755E+03  0.37016550327E+02  0.19217421700E+03  0.00000000000E+00 0.  1.
         11    1    5    5    0    0 -0.11699869029E+03  0.88128267002E+02 -0.58787603207E+03  0.60584941533E+03  0.00000000000E+00 0.  1.
        -11    1    5    5    0    0 -0.98035190244E+02  0.13293481454E+03 -0.10979665303E+04  0.11103211541E+04  0.00000000000E+00 0. -1.
          1    1    6    6  503    0  0.26072418137E+03  0.46885245795E+02 -0.49049384276E+03  0.55745810139E+03  0.00000000000E+00 0. -1.
         -1    1    6    6    0  503  0.39616658562E+03  0.12896957975E+03 -0.99998388298E+03  0.10833046120E+04  0.00000000000E+00 0.  1.
<mgrwt>
<rscale>  0 0.24557219E+04</rscale>
<asrwt>0</asrwt>
<pdfrwt beam="1">  1        2 0.54364207E+00 0.24557219E+04</pdfrwt>
<pdfrwt beam="2">  1       -1 0.65638495E-01 0.24557219E+04</pdfrwt>
<totfact> 0.18470121E+00</totfact>
</mgrwt>
</event>
<event>
12    6  0.1450532E-007  0.2029546E+04  0.7818608E-02  0.8592930E-01
         -1   -1    0    0    0  501 -0.00000000000E+00  0.00000000000E+00  0.22450231473E+03  0.22450231473E+03  0.00000000000E+00 0.  1.
          2   -1    0    0  501    0  0.00000000000E+00 -0.00000000000E+00 -0.45868744175E+04  0.45868744175E+04  0.00000000000E+00 0. -1.
         24    2    1    2    0    0  0.16791187555E+03  0.80112724170E+03 -0.16674697325E+04  0.18598099768E+04  0.91861775217E+02 0.  0.
        254    2    1    2    0    0 -0.16791187555E+03 -0.80112724170E+03 -0.26949023702E+04  0.29515667554E+04  0.88275040130E+03 0.  0.
         23    2    4    4    0    0 -0.29162290707E+03 -0.79447691745E+03 -0.13408895159E+04  0.15883033316E+04  0.92115619070E+02 0.  0.
         23    2    4    4    0    0  0.12371103152E+03 -0.66503242528E+01 -0.13540128544E+04  0.13632634237E+04  0.98932838535E+02 0.  0.
          4    1    3    3  502    0  0.80684555466E+02  0.23659719761E+03 -0.57576414109E+03  0.62768828058E+03  0.00000000000E+00 0. -1.
         -3    1    3    3    0  502  0.87227320084E+02  0.56453004409E+03 -0.10917055914E+04  0.12321216962E+04  0.00000000000E+00 0.  1.
         11    1    5    5    0    0 -0.64761288684E+02 -0.94761132808E+02 -0.20783659208E+03  0.23742313664E+03  0.00000000000E+00 0. -1.
        -11    1    5    5    0    0 -0.22686161839E+03 -0.69971578464E+03 -0.11330529238E+04  0.13508801950E+04  0.00000000000E+00 0.  1.
          2    1    6    6  503    0  0.50907003761E+02  0.28165734511E+02 -0.91822951282E+03  0.92007079610E+03  0.00000000000E+00 0.  1.
         -2    1    6    6    0  503  0.72804027761E+02 -0.34816058764E+02 -0.43578334158E+03  0.44319262765E+03  0.00000000000E+00 0. -1.
<mgrwt>
<rscale>  0 0.20295457E+04</rscale>
<asrwt>0</asrwt>
<pdfrwt beam="1">  1        2 0.70567296E+00 0.20295457E+04</pdfrwt>
<pdfrwt beam="2">  1       -1 0.34538819E-01 0.20295457E+04</pdfrwt>
<totfact> 0.85946125E-01</totfact>
</mgrwt>
</event>
<event>
12    6  0.1450532E-007  0.3194662E+04  0.7818608E-02  0.8190228E-01
         -1   -1    0    0    0  501 -0.00000000000E+00  0.00000000000E+00  0.11235838893E+04  0.11235838893E+04  0.00000000000E+00 0.  1.
          2   -1    0    0  501    0  0.00000000000E+00 -0.00000000000E+00 -0.22708286922E+04  0.22708286922E+04  0.00000000000E+00 0. -1.
         24    2    1    2    0    0 -0.16210994330E+03  0.14259153916E+04 -0.87480584865E+03  0.16826320327E+04  0.80317786523E+02 0.  0.
        254    2    1    2    0    0  0.16210994330E+03 -0.14259153916E+04 -0.27243895419E+03  0.17117805488E+04  0.89244345806E+03 0.  0.
         23    2    4    4    0    0  0.15446546490E+03  0.37822059264E+02 -0.15654006772E+03  0.24025030690E+03  0.89024317736E+02 0.  0.
         23    2    4    4    0    0  0.76444784028E+01 -0.14637374509E+04 -0.11589888647E+03  0.14715302419E+04  0.96865566102E+02 0.  0.
          4    1    3    3  502    0 -0.16869660833E+03  0.14078032435E+04 -0.85972511614E+03  0.16581603642E+04  0.00000000000E+00 0. -1.
         -3    1    3    3    0  502  0.65866650286E+01  0.18112148087E+02 -0.15080732508E+02  0.24471668466E+02  0.00000000000E+00 0.  1.
         11    1    5    5    0    0  0.73294311620E+02  0.57561166864E+02 -0.52995467020E+02  0.10720943788E+03  0.00000000000E+00 0.  1.
        -11    1    5    5    0    0  0.81171153279E+02 -0.19739107600E+02 -0.10354460070E+03  0.13304086901E+03  0.00000000000E+00 0. -1.
          1    1    6    6  503    0  0.19523347913E+02 -0.11679809131E+04 -0.12900082756E+03  0.11752454161E+04  0.00000000000E+00 0. -1.
         -1    1    6    6    0  503 -0.11878869510E+02 -0.29575653775E+03  0.13101941090E+02  0.29628482584E+03  0.00000000000E+00 0.  1.
<mgrwt>
<rscale>  0 0.31946621E+04</rscale>
<asrwt>0</asrwt>
<pdfrwt beam="1">  1        2 0.34935826E+00 0.31946621E+04</pdfrwt>
<pdfrwt beam="2">  1       -1 0.17285906E+00 0.31946621E+04</pdfrwt>
<totfact> 0.10575285E+00</totfact>
</mgrwt>
</event>
<event>
12    6  0.1539392E-007  0.1907554E+04  0.7818608E-02  0.8651105E-01
         -1   -1    0    0    0  501 -0.00000000000E+00  0.00000000000E+00  0.11164193390E+04  0.11164193390E+04  0.00000000000E+00 0.  1.
          2   -1    0    0  501    0  0.00000000000E+00 -0.00000000000E+00 -0.81482881793E+03  0.81482881793E+03  0.00000000000E+00 0. -1.
         24    2    1    2    0    0 -0.64667621478E+03  0.19424689085E+03 -0.18657416289E+03  0.70630769737E+03  0.90214542818E+02 0.  0.
        254    2    1    2    0    0  0.64667621478E+03 -0.19424689085E+03  0.48816468399E+03  0.12249404596E+04  0.89791558039E+03 0.  0.
         23    2    4    4    0    0  0.51276203248E+03 -0.38576721001E+03  0.65665530796E+03  0.92264037371E+03  0.91256909114E+02 0.  0.
         23    2    4    4    0    0  0.13391418229E+03  0.19152031915E+03 -0.16849062397E+03  0.30230008589E+03  0.91559874901E+02 0.  0.
          4    1    3    3  502    0 -0.64977174139E+03  0.19267816417E+03 -0.18592018745E+03  0.70277628515E+03  0.00000000000E+00 0. -1.
         -3    1    3    3    0  502  0.30955266132E+01  0.15687266796E+01 -0.65397543844E+00  0.35314122221E+01  0.00000000000E+00 0.  1.
         11    1    5    5    0    0  0.39924954531E+03 -0.34355138194E+03  0.52266893260E+03  0.74203137708E+03  0.00000000000E+00 0. -1.
        -11    1    5    5    0    0  0.11351248718E+03 -0.42215828068E+02  0.13398637536E+03  0.18060899663E+03  0.00000000000E+00 0.  1.
          2    1    6    6  503    0 -0.12966565162E+02  0.57952832490E+01 -0.92902663902E+01  0.16971333761E+02  0.00000000000E+00 0.  1.
         -2    1    6    6    0  503  0.14688074746E+03  0.18572503591E+03 -0.15920035758E+03  0.28532875212E+03  0.00000000000E+00 0. -1.
<mgrwt>
<rscale>  0 0.19075541E+04</rscale>
<asrwt>0</asrwt>
<pdfrwt beam="1">  1        2 0.12535828E+00 0.19075541E+04</pdfrwt>
<pdfrwt beam="2">  1       -1 0.17175682E+00 0.19075541E+04</pdfrwt>
<totfact> 0.85760502E+00</totfact>
</mgrwt>
</event>
<event>
12    6  0.1450532E-007  0.2298323E+04  0.7818608E-02  0.8478583E-01
          2   -1    0    0  501    0  0.00000000000E+00  0.00000000000E+00  0.22277193829E+04  0.22277193829E+04  0.00000000000E+00 0. -1.
         -1   -1    0    0    0  501 -0.00000000000E+00 -0.00000000000E+00 -0.59279091812E+03  0.59279091812E+03  0.00000000000E+00 0.  1.
         24    2    1    2    0    0 -0.77454464772E+03 -0.21137798592E+03  0.13328857311E+04  0.15591827530E+04  0.99329858769E+02 0.  0.
        254    2    1    2    0    0  0.77454464772E+03  0.21137798592E+03  0.30204273373E+03  0.12613275481E+04  0.92472553025E+03 0.  0.
         23    2    4    4    0    0  0.30655837629E+03  0.42994133604E+03  0.46766731694E+03  0.71124848220E+03  0.91291256931E+02 0.  0.
         23    2    4    4    0    0  0.46798627143E+03 -0.21856335012E+03 -0.16562458321E+03  0.55007906588E+03  0.91511681718E+02 0.  0.
          2    1    3    3  502    0 -0.73747436433E+02 -0.34977023632E+02  0.90183827431E+02  0.12163551822E+03  0.00000000000E+00 0. -1.
         -1    1    3    3    0  502 -0.70079721128E+03 -0.17640096229E+03  0.12427019037E+04  0.14375472348E+04  0.00000000000E+00 0.  1.
         11    1    5    5    0    0  0.51291678372E+02  0.89086252073E+02  0.48308692430E+02  0.11358224484E+03  0.00000000000E+00 0. -1.
        -11    1    5    5    0    0  0.25526669791E+03  0.34085508397E+03  0.41935862451E+03  0.59766623736E+03  0.00000000000E+00 0.  1.
          2    1    6    6  503    0  0.85688261023E+02 -0.14132842738E+02 -0.54530005517E+02  0.10254626674E+03  0.00000000000E+00 0. -1.
         -2    1    6    6    0  503  0.38229801041E+03 -0.20443050738E+03 -0.11109457769E+03  0.44753279914E+03  0.00000000000E+00 0.  1.
<mgrwt>
<rscale>  0 0.22983227E+04</rscale>
<asrwt>0</asrwt>
<pdfrwt beam="1">  1        2 0.34272605E+00 0.22983227E+04</pdfrwt>
<pdfrwt beam="2">  1       -1 0.91198604E-01 0.22983227E+04</pdfrwt>
<totfact> 0.60283880E+00</totfact>
</mgrwt>
</event>
<event>
12    6  0.1450532E-007  0.1295716E+04  0.7818608E-02  0.9032970E-01
         -1   -1    0    0    0  501 -0.00000000000E+00  0.00000000000E+00  0.16365513746E+03  0.16365513746E+03  0.00000000000E+00 0.  1.
          2   -1    0    0  501    0  0.00000000000E+00 -0.00000000000E+00 -0.25646601242E+04  0.25646601242E+04  0.00000000000E+00 0. -1.
         24    2    1    2    0    0 -0.82228911347E+02 -0.28598483133E+03 -0.77951904830E+03  0.83827047319E+03  0.80613410451E+02 0.  0.
        254    2    1    2    0    0  0.82228911347E+02  0.28598483133E+03 -0.16214859385E+04  0.18900447885E+04  0.92439371278E+03 0.  0.
         23    2    4    4    0    0 -0.17145795140E+03 -0.19955743126E+03 -0.10766680004E+04  0.11120710497E+04  0.90923258187E+02 0.  0.
         23    2    4    4    0    0  0.25368686275E+03  0.48554226259E+03 -0.54481793804E+03  0.77797373883E+03  0.91149545257E+02 0.  0.
          4    1    3    3  502    0 -0.78552354094E+02 -0.12823304408E+03 -0.39221910074E+03  0.42005953020E+03  0.00000000000E+00 0. -1.
         -3    1    3    3    0  502 -0.36765572526E+01 -0.15775178725E+03 -0.38729994756E+03  0.41821094299E+03  0.00000000000E+00 0.  1.
         11    1    5    5    0    0 -0.11547101451E+03 -0.15433134270E+03 -0.60551601923E+03  0.63545367107E+03  0.00000000000E+00 0. -1.
        -11    1    5    5    0    0 -0.55986936889E+02 -0.45226088560E+02 -0.47115198119E+03  0.47661737858E+03  0.00000000000E+00 0.  1.
          4    1    6    6  503    0  0.87783862238E+02  0.20881830446E+03 -0.28281512463E+03  0.36234718913E+03  0.00000000000E+00 0. -1.
         -4    1    6    6    0  503  0.16590300051E+03  0.27672395814E+03 -0.26200281341E+03  0.41562654970E+03  0.00000000000E+00 0.  1.
<mgrwt>
<rscale>  0 0.12957157E+04</rscale>
<asrwt>0</asrwt>
<pdfrwt beam="1">  1        2 0.39456310E+00 0.12957157E+04</pdfrwt>
<pdfrwt beam="2">  1       -1 0.25177713E-01 0.12957157E+04</pdfrwt>
<totfact> 0.49598117E+01</totfact>
</mgrwt>
</event>
<event>
12    6  0.1450532E-007  0.2189422E+04  0.7818608E-02  0.8522844E-01
         -1   -1    0    0    0  501 -0.00000000000E+00  0.00000000000E+00  0.50931150586E+03  0.50931150586E+03  0.00000000000E+00 0.  1.
          2   -1    0    0  501    0  0.00000000000E+00 -0.00000000000E+00 -0.23529650976E+04  0.23529650976E+04  0.00000000000E+00 0. -1.
         24    2    1    2    0    0  0.78823324011E+03  0.44371158375E+03 -0.87969802420E+03  0.12643174515E+04  0.80239603364E+02 0.  0.
        254    2    1    2    0    0 -0.78823324011E+03 -0.44371158375E+03 -0.96395556757E+03  0.15979591520E+04  0.89781485002E+03 0.  0.
         23    2    4    4    0    0 -0.90350914879E+03 -0.22114822521E+03 -0.49357590235E+03  0.10567657935E+04  0.88890109264E+02 0.  0.
         23    2    4    4    0    0  0.11527590868E+03 -0.22256335854E+03 -0.47037966523E+03  0.54119335850E+03  0.93862868828E+02 0.  0.
          2    1    3    3  502    0  0.48538026306E+03  0.27605379738E+03 -0.48804123919E+03  0.74160902770E+03  0.00000000000E+00 0. -1.
         -1    1    3    3    0  502  0.30285297705E+03  0.16765778637E+03 -0.39165678501E+03  0.52270842378E+03  0.00000000000E+00 0.  1.
         11    1    5    5    0    0 -0.45783943235E+03 -0.14210723488E+03 -0.21595353646E+03  0.52578259949E+03  0.00000000000E+00 0. -1.
        -11    1    5    5    0    0 -0.44566971644E+03 -0.79040990337E+02 -0.27762236589E+03  0.53098319403E+03  0.00000000000E+00 0.  1.
          3    1    6    6  503    0  0.64569842163E+01  0.73530972200E+01 -0.53800823807E+01  0.11167182739E+02  0.00000000000E+00 0. -1.
         -3    1    6    6    0  503  0.10881892446E+03 -0.22991645576E+03 -0.46499958285E+03  0.53002617576E+03  0.00000000000E+00 0.  1.
<mgrwt>
<rscale>  0 0.21894220E+04</rscale>
<asrwt>0</asrwt>
<pdfrwt beam="1">  1        2 0.36199463E+00 0.21894220E+04</pdfrwt>
<pdfrwt beam="2">  1       -1 0.78355617E-01 0.21894220E+04</pdfrwt>
<totfact> 0.71790122E+00</totfact>
</mgrwt>
</event>
<event>
12    6  0.1450532E-007  0.2164922E+04  0.7818608E-02  0.8533172E-01
         -1   -1    0    0    0  501 -0.00000000000E+00  0.00000000000E+00  0.29282331275E+03  0.29282331275E+03  0.00000000000E+00 0.  1.
          2   -1    0    0  501    0  0.00000000000E+00 -0.00000000000E+00 -0.40014623676E+04  0.40014623676E+04  0.00000000000E+00 0. -1.
         24    2    1    2    0    0 -0.10468105265E+03  0.76096810536E+03 -0.24369383641E+04  0.25564751916E+04  0.82862745600E+02 0.  0.
        254    2    1    2    0    0  0.10468105265E+03 -0.76096810536E+03 -0.12717006907E+04  0.17378104888E+04  0.90151653776E+03 0.  0.
         23    2    4    4    0    0 -0.27301579496E+03 -0.72763989337E+03 -0.73279815931E+03  0.10722894376E+04  0.93883209248E+02 0.  0.
         23    2    4    4    0    0  0.37769684761E+03 -0.33328211983E+02 -0.53890253143E+03  0.66552105116E+03  0.93470063364E+02 0.  0.
          2    1    3    3  502    0 -0.85371827116E+02  0.55430042986E+03 -0.16544075677E+04  0.17468834293E+04  0.00000000000E+00 0. -1.
         -1    1    3    3    0  502 -0.19309225532E+02  0.20666767549E+03 -0.78253079640E+03  0.80959176230E+03  0.00000000000E+00 0.  1.
         11    1    5    5    0    0 -0.62690759230E+02 -0.18718082913E+03 -0.13334908983E+03  0.23822001143E+03  0.00000000000E+00 0. -1.
        -11    1    5    5    0    0 -0.21032503573E+03 -0.54045906424E+03 -0.59944906948E+03  0.83406942617E+03  0.00000000000E+00 0.  1.
          2    1    6    6  503    0  0.26053598287E+03 -0.52663338230E+02 -0.31569910844E+03  0.41269644126E+03  0.00000000000E+00 0.  1.
         -2    1    6    6    0  503  0.11716086474E+03  0.19335126247E+02 -0.22320342299E+03  0.25282460989E+03  0.00000000000E+00 0. -1.
<mgrwt>
<rscale>  0 0.21649217E+04</rscale>
<asrwt>0</asrwt>
<pdfrwt beam="1">  1        2 0.61560954E+00 0.21649217E+04</pdfrwt>
<pdfrwt beam="2">  1       -1 0.45049744E-01 0.21649217E+04</pdfrwt>
<totfact> 0.17529174E+00</totfact>
</mgrwt>
</event>
<event>
12    6  0.1450532E-007  0.1076089E+04  0.7818608E-02  0.9228816E-01
          2   -1    0    0  501    0  0.00000000000E+00  0.00000000000E+00  0.28136391435E+04  0.28136391435E+04  0.00000000000E+00 0. -1.
         -1   -1    0    0    0  501 -0.00000000000E+00 -0.00000000000E+00 -0.10288868099E+03  0.10288868099E+03  0.00000000000E+00 0.  1.
         24    2    1    2    0    0 -0.31581984677E+02  0.55562806829E+02  0.61662775794E+02  0.11885718866E+03  0.78994215732E+02 0.  0.
        254    2    1    2    0    0  0.31581984677E+02 -0.55562806829E+02  0.26490876867E+04  0.27976706359E+04  0.89733537066E+03 0.  0.
         23    2    4    4    0    0 -0.21878477036E+03 -0.39484829435E+03  0.15548777576E+04  0.16217396248E+04  0.92858055429E+02 0.  0.
         23    2    4    4    0    0  0.25036675504E+03  0.33928548752E+03  0.10942099292E+04  0.11759310110E+04  0.87864779868E+02 0.  0.
          2    1    3    3  502    0  0.47991372194E+01 -0.10748641377E+02 -0.94084925034E+01  0.15069331130E+02  0.00000000000E+00 0. -1.
         -1    1    3    3    0  502 -0.36381121897E+02  0.66311448206E+02  0.71071268297E+02  0.10378785753E+03  0.00000000000E+00 0.  1.
         11    1    5    5    0    0 -0.37782552121E+02 -0.15965156735E+03  0.56077166889E+03  0.58427819473E+03  0.00000000000E+00 0. -1.
        -11    1    5    5    0    0 -0.18100221824E+03 -0.23519672700E+03  0.99410608868E+03  0.10374614301E+04  0.00000000000E+00 0.  1.
          2    1    6    6  503    0  0.11990272705E+03  0.13863604297E+03  0.36480059447E+03  0.40825983159E+03  0.00000000000E+00 0. -1.
         -2    1    6    6    0  503  0.13046402799E+03  0.20064944455E+03  0.72940933470E+03  0.76767117944E+03  0.00000000000E+00 0.  1.
<mgrwt>
<rscale>  0 0.10760885E+04</rscale>
<asrwt>0</asrwt>
<pdfrwt beam="1">  1        2 0.43286750E+00 0.10760885E+04</pdfrwt>
<pdfrwt beam="2">  1       -1 0.15829030E-01 0.10760885E+04</pdfrwt>
<totfact> 0.78652467E+01</totfact>
</mgrwt>
</event>
<event>
12    6  0.1450532E-007  0.1866019E+04  0.7818608E-02  0.8671958E-01
         -1   -1    0    0    0  501 -0.00000000000E+00  0.00000000000E+00  0.11427346237E+04  0.11427346237E+04  0.00000000000E+00 0.  1.
          2   -1    0    0  501    0  0.00000000000E+00 -0.00000000000E+00 -0.76177511943E+03  0.76177511943E+03  0.00000000000E+00 0. -1.
         24    2    1    2    0    0  0.51072963931E+03 -0.28358973138E+03 -0.27406989795E+03  0.64882224715E+03  0.67735509356E+02 0.  0.
        254    2    1    2    0    0 -0.51072963931E+03  0.28358973138E+03  0.65502940226E+03  0.12556874960E+04  0.89800872471E+03 0.  0.
         23    2    4    4    0    0 -0.57056389069E+02 -0.18224471353E+02  0.69382885111E+03  0.70249649061E+03  0.92278284516E+02 0.  0.
         23    2    4    4    0    0 -0.45367325024E+03  0.30181420273E+03 -0.38799448853E+02  0.55319100542E+03  0.87198969566E+02 0.  0.
          2    1    3    3  502    0  0.32989742876E+03 -0.14558112237E+03 -0.16514470801E+03  0.39660931819E+03  0.00000000000E+00 0. -1.
         -1    1    3    3    0  502  0.18083221055E+03 -0.13800860900E+03 -0.10892518994E+03  0.25221292896E+03  0.00000000000E+00 0.  1.
         11    1    5    5    0    0 -0.61838266195E+02 -0.21722426678E+02  0.69347050736E+03  0.69656096615E+03  0.00000000000E+00 0. -1.
        -11    1    5    5    0    0  0.47818771262E+01  0.34979553248E+01  0.35834374776E+00  0.59355244542E+01  0.00000000000E+00 0.  1.
          4    1    6    6  503    0 -0.33405485942E+03  0.21930770090E+03 -0.66939797827E+02  0.40517829817E+03  0.00000000000E+00 0. -1.
         -4    1    6    6    0  503 -0.11961839082E+03  0.82506501829E+02  0.28140348974E+02  0.14801270724E+03  0.00000000000E+00 0.  1.
<mgrwt>
<rscale>  0 0.18660191E+04</rscale>
<asrwt>0</asrwt>
<pdfrwt beam="1">  1        2 0.11719617E+00 0.18660191E+04</pdfrwt>
<pdfrwt beam="2">  1       -1 0.17580533E+00 0.18660191E+04</pdfrwt>
<totfact> 0.87903727E+00</totfact>
</mgrwt>
</event>
<event>
12    6  0.1450532E-007  0.1717756E+04  0.7818608E-02  0.8751302E-01
         -1   -1    0    0    0  501 -0.00000000000E+00  0.00000000000E+00  0.99591655618E+03  0.99591655618E+03  0.00000000000E+00 0.  1.
          2   -1    0    0  501    0  0.00000000000E+00 -0.00000000000E+00 -0.74069601503E+03  0.74069601503E+03  0.00000000000E+00 0. -1.
         24    2    1    2    0    0 -0.22149293403E+02  0.30507191664E+03 -0.45137089983E+03  0.55016868766E+03  0.73419548855E+02 0.  0.
        254    2    1    2    0    0  0.22149293403E+02 -0.30507191664E+03  0.70659144099E+03  0.11864438835E+04  0.90267278613E+03 0.  0.
         23    2    4    4    0    0  0.51443458941E+00  0.29909037731E+03  0.38319687665E+03  0.49486009828E+03  0.92689547182E+02 0.  0.
         23    2    4    4    0    0  0.21634858813E+02 -0.60416229394E+03  0.32339456434E+03  0.69158378527E+03  0.90685959572E+02 0.  0.
          4    1    3    3  502    0  0.66072184876E+00  0.24438270411E+03 -0.39377744221E+03  0.46344796538E+03  0.00000000000E+00 0. -1.
         -3    1    3    3    0  502 -0.22810015252E+02  0.60689212524E+02 -0.57593457619E+02  0.86720722281E+02  0.00000000000E+00 0.  1.
         11    1    5    5    0    0 -0.44587307539E+02  0.12312810877E+03  0.17470878089E+03  0.21833853824E+03  0.00000000000E+00 0. -1.
        -11    1    5    5    0    0  0.45101742128E+02  0.17596226854E+03  0.20848809576E+03  0.27652156004E+03  0.00000000000E+00 0.  1.
          3    1    6    6  503    0 -0.33313901332E+02 -0.15524562517E+03  0.93057455591E+02  0.18403996902E+03  0.00000000000E+00 0. -1.
         -3    1    6    6    0  503  0.54948760145E+02 -0.44891666878E+03  0.23033710875E+03  0.50754381625E+03  0.00000000000E+00 0.  1.
<mgrwt>
<rscale>  0 0.17177560E+04</rscale>
<asrwt>0</asrwt>
<pdfrwt beam="1">  1        2 0.11395323E+00 0.17177560E+04</pdfrwt>
<pdfrwt beam="2">  1       -1 0.15321793E+00 0.17177560E+04</pdfrwt>
<totfact> 0.13620389E+01</totfact>
</mgrwt>
</event>
<event>
12    6  0.1450532E-007  0.1661014E+04  0.7818608E-02  0.8783917E-01
          2   -1    0    0  501    0  0.00000000000E+00  0.00000000000E+00  0.58702200201E+03  0.58702200201E+03  0.00000000000E+00 0. -1.
         -1   -1    0    0    0  501 -0.00000000000E+00 -0.00000000000E+00 -0.11749848439E+04  0.11749848439E+04  0.00000000000E+00 0.  1.
         24    2    1    2    0    0  0.36111887189E+02 -0.49053559388E+03  0.12699372236E+03  0.51462864957E+03  0.82377206719E+02 0.  0.
        254    2    1    2    0    0 -0.36111887189E+02  0.49053559388E+03 -0.71495656421E+03  0.12473781963E+04  0.89602468639E+03 0.  0.
         23    2    4    4    0    0  0.26028002345E+03  0.39694815897E+03 -0.77947765858E+03  0.91707362759E+03  0.90139262754E+02 0.  0.
         23    2    4    4    0    0 -0.29639191064E+03  0.93587434910E+02  0.64521094363E+02  0.33030456870E+03  0.91276304822E+02 0.  0.
          4    1    3    3  502    0  0.32597449059E+02 -0.45176916146E+03  0.91801426745E+02  0.46215308166E+03  0.00000000000E+00 0. -1.
         -3    1    3    3    0  502  0.35144381300E+01 -0.38766432414E+02  0.35192295612E+02  0.52475567914E+02  0.00000000000E+00 0.  1.
         11    1    5    5    0    0  0.22330812711E+03  0.32967638501E+03 -0.58178776212E+03  0.70500357348E+03  0.00000000000E+00 0. -1.
        -11    1    5    5    0    0  0.36971896342E+02  0.67271773956E+02 -0.19768989645E+03  0.21207005411E+03  0.00000000000E+00 0.  1.
          2    1    6    6  503    0 -0.20838551231E+03  0.21362243464E+02  0.51483701825E+02  0.21571147105E+03  0.00000000000E+00 0. -1.
         -2    1    6    6    0  503 -0.88006398327E+02  0.72225191447E+02  0.13037392539E+02  0.11459309765E+03  0.00000000000E+00 0.  1.
<mgrwt>
<rscale>  0 0.16610141E+04</rscale>
<asrwt>0</asrwt>
<pdfrwt beam="1">  1        2 0.90311077E-01 0.16610141E+04</pdfrwt>
<pdfrwt beam="2">  1       -1 0.18076690E+00 0.16610141E+04</pdfrwt>
<totfact> 0.11409797E+01</totfact>
</mgrwt>
</event>
<event>
12    6  0.1450532E-007  0.2061914E+04  0.7818608E-02  0.8578209E-01
         -1   -1    0    0    0  501 -0.00000000000E+00  0.00000000000E+00  0.36620694423E+03  0.36620694423E+03  0.00000000000E+00 0.  1.
          2   -1    0    0  501    0  0.00000000000E+00 -0.00000000000E+00 -0.29023803242E+04  0.29023803242E+04  0.00000000000E+00 0. -1.
         24    2    1    2    0    0 -0.36532332645E+03 -0.47208801604E+03 -0.19434799621E+04  0.20346511393E+04  0.79766333960E+02 0.  0.
        254    2    1    2    0    0  0.36532332645E+03  0.47208801604E+03 -0.59269341785E+03  0.12339361291E+04  0.90276500558E+03 0.  0.
         23    2    4    4    0    0  0.18745430815E+03  0.72932932496E+03 -0.41569496432E+03  0.86465526016E+03  0.88125102377E+02 0.  0.
         23    2    4    4    0    0  0.17786901829E+03 -0.25724130892E+03 -0.17699845352E+03  0.36928086890E+03  0.85026048372E+02 0.  0.
          4    1    3    3  502    0 -0.35435269037E+03 -0.43840383958E+03 -0.18693003571E+04  0.19524465628E+04  0.00000000000E+00 0. -1.
         -3    1    3    3    0  502 -0.10970636081E+02 -0.33684176461E+02 -0.74179605042E+02  0.82204576540E+02  0.00000000000E+00 0.  1.
         11    1    5    5    0    0  0.17913341178E+03  0.57671668345E+03 -0.30987988056E+03  0.67876096865E+03  0.00000000000E+00 0. -1.
        -11    1    5    5    0    0  0.83208963761E+01  0.15261264151E+03 -0.10581508377E+03  0.18589429151E+03  0.00000000000E+00 0.  1.
          1    1    6    6  503    0  0.17542136475E+03 -0.20856756868E+03 -0.16669365728E+03  0.31946809120E+03  0.00000000000E+00 0. -1.
         -1    1    6    6    0  503  0.24476535424E+01 -0.48673740235E+02 -0.10304796242E+02  0.49812777697E+02  0.00000000000E+00 0.  1.
<mgrwt>
<rscale>  0 0.20619135E+04</rscale>
<asrwt>0</asrwt>
<pdfrwt beam="1">  1        2 0.44652007E+00 0.20619135E+04</pdfrwt>
<pdfrwt beam="2">  1       -1 0.56339527E-01 0.20619135E+04</pdfrwt>
<totfact> 0.67267233E+00</totfact>
</mgrwt>
</event>
<event>
12    6  0.1450532E-007  0.1512741E+04  0.7818608E-02  0.8876024E-01
         -1   -1    0    0    0  501 -0.00000000000E+00  0.00000000000E+00  0.23435554793E+03  0.23435554793E+03  0.00000000000E+00 0.  1.
          2   -1    0    0  501    0  0.00000000000E+00 -0.00000000000E+00 -0.24411467948E+04  0.24411467948E+04  0.00000000000E+00 0. -1.
         24    2    1    2    0    0 -0.88819478323E+01 -0.22615177926E+03 -0.14736737606E+04  0.14930663367E+04  0.79430579730E+02 0.  0.
        254    2    1    2    0    0  0.88819478323E+01  0.22615177926E+03 -0.73311748630E+03  0.11824360060E+04  0.89970558702E+03 0.  0.
         23    2    4    4    0    0  0.13256600723E+03  0.61368872808E+02 -0.89154646749E+03  0.90809682812E+03  0.91895923385E+02 0.  0.
         23    2    4    4    0    0 -0.12368405940E+03  0.16478290645E+03  0.15842898118E+03  0.27433917788E+03  0.87812810179E+02 0.  0.
          2    1    3    3  502    0 -0.35172728719E+02 -0.17423027135E+03 -0.12145590909E+04  0.12274962703E+04  0.00000000000E+00 0. -1.
         -3    1    3    3    0  502  0.26290780887E+02 -0.51921507911E+02 -0.25911466969E+03  0.26557006645E+03  0.00000000000E+00 0.  1.
         11    1    5    5    0    0  0.29038121131E+01  0.36371394921E+02 -0.12334091339E+03  0.12862461432E+03  0.00000000000E+00 0.  1.
        -11    1    5    5    0    0  0.12966219512E+03  0.24997477887E+02 -0.76820555410E+03  0.77947221381E+03  0.00000000000E+00 0. -1.
          3    1    6    6  503    0 -0.68282255926E+02  0.14981723234E+03  0.10101572680E+03  0.19316274652E+03  0.00000000000E+00 0. -1.
         -3    1    6    6    0  503 -0.55401803474E+02  0.14965674111E+02  0.57413254382E+02  0.81176431361E+02  0.00000000000E+00 0.  1.
<mgrwt>
<rscale>  0 0.15127409E+04</rscale>
<asrwt>0</asrwt>
<pdfrwt beam="1">  1        2 0.37556104E+00 0.15127409E+04</pdfrwt>
<pdfrwt beam="2">  1       -1 0.36054700E-01 0.15127409E+04</pdfrwt>
<totfact> 0.30515376E+01</totfact>
</mgrwt>
</event>
<event>
12    6  0.1450532E-007  0.2404652E+04  0.7818608E-02  0.8437764E-01
         -1   -1    0    0    0  501 -0.00000000000E+00  0.00000000000E+00  0.17300334943E+04  0.17300334943E+04  0.00000000000E+00 0.  1.
          2   -1    0    0  501    0  0.00000000000E+00 -0.00000000000E+00 -0.83558349424E+03  0.83558349424E+03  0.00000000000E+00 0. -1.
         24    2    1    2    0    0  0.71271246555E+03 -0.70101361952E+03  0.10589048365E+03  0.10084406117E+04  0.79752865413E+02 0.  0.
        254    2    1    2    0    0 -0.71271246555E+03  0.70101361952E+03  0.78855951642E+03  0.15571763768E+04  0.89643349128E+03 0.  0.
         23    2    4    4    0    0 -0.45472230871E+03  0.88899121790E+03  0.51270151326E+03  0.11254906443E+04  0.82392871483E+02 0.  0.
         23    2    4    4    0    0 -0.25799015684E+03 -0.18797759838E+03  0.27585800316E+03  0.43168573248E+03  0.91435415438E+02 0.  0.
          4    1    3    3  502    0  0.62674294977E+03 -0.64754596410E+03  0.10423984076E+03  0.90718710590E+03  0.00000000000E+00 0. -1.
         -3    1    3    3    0  502  0.85969515778E+02 -0.53467655415E+02  0.16506428936E+01  0.10125350582E+03  0.00000000000E+00 0.  1.
         11    1    5    5    0    0 -0.90416689036E+02  0.24649840491E+03  0.15422440525E+03  0.30450255903E+03  0.00000000000E+00 0. -1.
        -11    1    5    5    0    0 -0.36430561967E+03  0.64249281299E+03  0.35847710801E+03  0.82098808532E+03  0.00000000000E+00 0.  1.
          1    1    6    6  503    0 -0.73527704065E+02 -0.89783390275E+01  0.48617720349E+02  0.88603705164E+02  0.00000000000E+00 0. -1.
         -1    1    6    6    0  503 -0.18446245278E+03 -0.17899925935E+03  0.22724028281E+03  0.34308202731E+03  0.00000000000E+00 0.  1.
<mgrwt>
<rscale>  0 0.24046517E+04</rscale>
<asrwt>0</asrwt>
<pdfrwt beam="1">  1        2 0.12855131E+00 0.24046517E+04</pdfrwt>
<pdfrwt beam="2">  1       -1 0.26615900E+00 0.24046517E+04</pdfrwt>
<totfact> 0.18226822E+00</totfact>
</mgrwt>
</event>
<event>
12    6  0.1450532E-007  0.1287218E+04  0.7818608E-02  0.9039763E-01
         -1   -1    0    0    0  501 -0.00000000000E+00  0.00000000000E+00  0.25536511655E+03  0.25536511655E+03  0.00000000000E+00 0.  1.
          2   -1    0    0  501    0  0.00000000000E+00 -0.00000000000E+00 -0.16221186018E+04  0.16221186018E+04  0.00000000000E+00 0. -1.
         24    2    1    2    0    0 -0.12366422142E+03 -0.21144599440E+03 -0.64302573785E+03  0.69280783748E+03  0.80612355929E+02 0.  0.
        254    2    1    2    0    0  0.12366422142E+03  0.21144599440E+03 -0.72372774737E+03  0.11846758808E+04  0.90535785307E+03 0.  0.
         23    2    4    4    0    0 -0.23689369105E+03  0.43384220724E+03 -0.43131448673E+03  0.66223149976E+03  0.90447173335E+02 0.  0.
         23    2    4    4    0    0  0.36055791247E+03 -0.22239621285E+03 -0.29241326064E+03  0.52244438107E+03  0.89333826641E+02 0.  0.
          4    1    3    3  502    0 -0.13199421685E+03 -0.21151054166E+03 -0.61650059481E+03  0.66500538789E+03  0.00000000000E+00 0. -1.
         -3    1    3    3    0  502  0.83299954289E+01  0.64547259045E-01 -0.26525143037E+02  0.27802449592E+02  0.00000000000E+00 0.  1.
         11    1    5    5    0    0 -0.10295547228E+03  0.25257734817E+03 -0.27922342060E+03  0.39033429864E+03  0.00000000000E+00 0. -1.
        -11    1    5    5    0    0 -0.13393821877E+03  0.18126485907E+03 -0.15209106614E+03  0.27189720113E+03  0.00000000000E+00 0.  1.
          1    1    6    6  503    0  0.34172366625E+03 -0.19207952424E+03 -0.24204177150E+03  0.46071013323E+03  0.00000000000E+00 0. -1.
         -1    1    6    6    0  503  0.18834246222E+02 -0.30316688613E+02 -0.50371489141E+02  0.61734247849E+02  0.00000000000E+00 0.  1.
<mgrwt>
<rscale>  0 0.12872179E+04</rscale>
<asrwt>0</asrwt>
<pdfrwt beam="1">  1        2 0.24955671E+00 0.12872179E+04</pdfrwt>
<pdfrwt beam="2">  1       -1 0.39286941E-01 0.12872179E+04</pdfrwt>
<totfact> 0.76241722E+01</totfact>
</mgrwt>
</event>
<event>
12    6  0.1450532E-007  0.2855281E+04  0.7818608E-02  0.8286308E-01
         -1   -1    0    0    0  501 -0.00000000000E+00  0.00000000000E+00  0.52491072780E+03  0.52491072780E+03  0.00000000000E+00 0.  1.
          2   -1    0    0  501    0  0.00000000000E+00 -0.00000000000E+00 -0.38828661471E+04  0.38828661471E+04  0.00000000000E+00 0. -1.
         24    2    1    2    0    0  0.98404642188E+03  0.75266978408E+03 -0.10005301836E+04  0.15943861333E+04  0.78404906724E+02 0.  0.
        254    2    1    2    0    0 -0.98404642188E+03 -0.75266978408E+03 -0.23574252357E+04  0.28133907416E+04  0.90711331093E+03 0.  0.
         23    2    4    4    0    0 -0.54551249385E+03  0.10984522580E+03 -0.86111663559E+03  0.10292761483E+04  0.90761637751E+02 0.  0.
         23    2    4    4    0    0 -0.43853392803E+03 -0.86251500987E+03 -0.14963086001E+04  0.17841145933E+04  0.88776724968E+02 0.  0.
          4    1    3    3  502    0  0.66873190591E+03  0.53643630518E+03 -0.65246796167E+03  0.10773489279E+04  0.00000000000E+00 0. -1.
         -3    1    3    3    0  502  0.31531451597E+03  0.21623347890E+03 -0.34806222193E+03  0.51703720535E+03  0.00000000000E+00 0.  1.
         11    1    5    5    0    0 -0.31833917084E+03  0.85285394329E+02 -0.57909212713E+03  0.66630407314E+03  0.00000000000E+00 0.  1.
        -11    1    5    5    0    0 -0.22717332301E+03  0.24559831468E+02 -0.28202450847E+03  0.36297207521E+03  0.00000000000E+00 0. -1.
          1    1    6    6  503    0 -0.17237537346E+02 -0.13581334110E+02 -0.54132326591E+02  0.58411421076E+02  0.00000000000E+00 0. -1.
         -1    1    6    6    0  503 -0.42129639068E+03 -0.84893367576E+03 -0.14421762735E+04  0.17257031722E+04  0.00000000000E+00 0.  1.
<mgrwt>
<rscale>  0 0.28552815E+04</rscale>
<asrwt>0</asrwt>
<pdfrwt beam="1">  1        2 0.59736402E+00 0.28552815E+04</pdfrwt>
<pdfrwt beam="2">  1       -1 0.80755497E-01 0.28552815E+04</pdfrwt>
<totfact> 0.63814985E-01</totfact>
</mgrwt>
</event>
<event>
12    6  0.1450532E-007  0.3253430E+04  0.7818608E-02  0.8174847E-01
         -1   -1    0    0    0  501 -0.00000000000E+00  0.00000000000E+00  0.10466405952E+04  0.10466405952E+04  0.00000000000E+00 0.  1.
          2   -1    0    0  501    0  0.00000000000E+00 -0.00000000000E+00 -0.25282818367E+04  0.25282818367E+04  0.00000000000E+00 0. -1.
         24    2    1    2    0    0 -0.11723605945E+04 -0.70269608059E+03 -0.22975311377E+01  0.13690833605E+04  0.78567323315E+02 0.  0.
        254    2    1    2    0    0  0.11723605945E+04  0.70269608059E+03 -0.14793437104E+04  0.22058390714E+04  0.89947598634E+03 0.  0.
         23    2    4    4    0    0  0.96874855710E+03  0.30876631788E+03 -0.52209276527E+03  0.11469491927E+04  0.95400153321E+02 0.  0.
         23    2    4    4    0    0  0.20361203736E+03  0.39392976271E+03 -0.95725094516E+03  0.10588898786E+04  0.90993864052E+02 0.  0.
          4    1    3    3  502    0 -0.55807201207E+03 -0.35326334958E+03  0.34701254273E+02  0.66139514805E+03  0.00000000000E+00 0. -1.
         -3    1    3    3    0  502 -0.61428858239E+03 -0.34943273102E+03 -0.36998785411E+02  0.70768821248E+03  0.00000000000E+00 0.  1.
         11    1    5    5    0    0  0.38002403292E+03  0.83854039165E+02 -0.16609086502E+03  0.42312638883E+03  0.00000000000E+00 0.  1.
        -11    1    5    5    0    0  0.58872452418E+03  0.22491227872E+03 -0.35600190025E+03  0.72382280392E+03  0.00000000000E+00 0. -1.
          3    1    6    6  503    0  0.18832304889E+02  0.33525583216E+02 -0.16130669166E+03  0.16582662396E+03  0.00000000000E+00 0. -1.
         -3    1    6    6    0  503  0.18477973247E+03  0.36040417950E+03 -0.79594425350E+03  0.89306325465E+03  0.00000000000E+00 0.  1.
<mgrwt>
<rscale>  0 0.32534304E+04</rscale>
<asrwt>0</asrwt>
<pdfrwt beam="1">  1        2 0.38896643E+00 0.32534304E+04</pdfrwt>
<pdfrwt beam="2">  1       -1 0.16102163E+00 0.32534304E+04</pdfrwt>
<totfact> 0.91656072E-01</totfact>
</mgrwt>
</event>
<event>
12    6  0.1450532E-007  0.2110888E+04  0.7818608E-02  0.8556462E-01
          2   -1    0    0  501    0  0.00000000000E+00  0.00000000000E+00  0.84528514070E+03  0.84528514070E+03  0.00000000000E+00 0. -1.
         -3   -1    0    0    0  501 -0.00000000000E+00 -0.00000000000E+00 -0.13178535918E+04  0.13178535918E+04  0.00000000000E+00 0.  1.
         24    2    1    2    0    0  0.10912144935E+03 -0.51818431063E+03 -0.88827804699E+03  0.10371858632E+04  0.79335714169E+02 0.  0.
        254    2    1    2    0    0 -0.10912144935E+03  0.51818431063E+03  0.41570959586E+03  0.11259528694E+04  0.90251477850E+03 0.  0.
         23    2    4    4    0    0 -0.27130029708E+03  0.60952099188E+03  0.13509808376E+02  0.67350257260E+03  0.91123595352E+02 0.  0.
         23    2    4    4    0    0  0.16217884773E+03 -0.91336681248E+02  0.40219978748E+03  0.45245029676E+03  0.91116595591E+02 0.  0.
          2    1    3    3  502    0  0.91346985077E+02 -0.50533434760E+03 -0.85247536512E+03  0.99519913720E+03  0.00000000000E+00 0. -1.
         -1    1    3    3    0  502  0.17774464276E+02 -0.12849963029E+02 -0.35802681870E+02  0.41986725989E+02  0.00000000000E+00 0.  1.
         11    1    5    5    0    0 -0.23475259665E+03  0.42979107694E+03  0.18994702215E+01  0.48972722963E+03  0.00000000000E+00 0. -1.
        -11    1    5    5    0    0 -0.36547700436E+02  0.17972991494E+03  0.11610338154E+02  0.18377534297E+03  0.00000000000E+00 0.  1.
          1    1    6    6  503    0  0.13315047401E+03 -0.59127988121E+02  0.37227409967E+03  0.39976639803E+03  0.00000000000E+00 0. -1.
         -1    1    6    6    0  503  0.29028373724E+02 -0.32208693127E+02  0.29925687807E+02  0.52683898724E+02  0.00000000000E+00 0.  1.
<mgrwt>
<rscale>  0 0.21108880E+04</rscale>
<asrwt>0</asrwt>
<pdfrwt beam="1">  1        2 0.13004387E+00 0.21108880E+04</pdfrwt>
<pdfrwt beam="2">  1       -3 0.20274671E+00 0.21108880E+04</pdfrwt>
<totfact> 0.26034188E+00</totfact>
</mgrwt>
</event>
<event>
12    6  0.1450532E-007  0.1338033E+04  0.7818608E-02  0.8999937E-01
         -1   -1    0    0    0  501 -0.00000000000E+00  0.00000000000E+00  0.56187689712E+03  0.56187689712E+03  0.00000000000E+00 0.  1.
          2   -1    0    0  501    0  0.00000000000E+00 -0.00000000000E+00 -0.79658577971E+03  0.79658577971E+03  0.00000000000E+00 0. -1.
         24    2    1    2    0    0 -0.24600235430E+03  0.44034393270E+02 -0.32356433173E+03  0.41696914793E+03  0.81934165326E+02 0.  0.
        254    2    1    2    0    0  0.24600235430E+03 -0.44034393270E+02  0.88855449139E+02  0.94149352889E+03  0.90335961167E+03 0.  0.
         23    2    4    4    0    0 -0.11798199600E+03  0.16537694305E+03 -0.29263511790E+03  0.36660115847E+03  0.86555256836E+02 0.  0.
         23    2    4    4    0    0  0.36398435030E+03 -0.20941133632E+03  0.38149056704E+03  0.57489237043E+03  0.92889556924E+02 0.  0.
          2    1    3    3  502    0 -0.21719232185E+03  0.10844404363E+02 -0.25068151576E+03  0.33186040457E+03  0.00000000000E+00 0. -1.
         -1    1    3    3    0  502 -0.28810032453E+02  0.33189988908E+02 -0.72882815965E+02  0.85108743362E+02  0.00000000000E+00 0.  1.
         11    1    5    5    0    0 -0.92698440637E+02  0.60103661959E+02 -0.17283118052E+03  0.20512451837E+03  0.00000000000E+00 0. -1.
        -11    1    5    5    0    0 -0.25283555361E+02  0.10527328109E+03 -0.11980393738E+03  0.16147664010E+03  0.00000000000E+00 0.  1.
          2    1    6    6  503    0  0.19034025631E+03 -0.56935985062E+02  0.18738282938E+03  0.27309969666E+03  0.00000000000E+00 0. -1.
         -2    1    6    6    0  503  0.17364409399E+03 -0.15247535126E+03  0.19410773766E+03  0.30179267377E+03  0.00000000000E+00 0.  1.
<mgrwt>
<rscale>  0 0.13380331E+04</rscale>
<asrwt>0</asrwt>
<pdfrwt beam="1">  1        2 0.12255166E+00 0.13380331E+04</pdfrwt>
<pdfrwt beam="2">  1       -1 0.86442599E-01 0.13380331E+04</pdfrwt>
<totfact> 0.51055395E+01</totfact>
</mgrwt>
</event>
<event>
12    6  0.1450532E-007  0.1895262E+04  0.7818608E-02  0.8657218E-01
          2   -1    0    0  501    0  0.00000000000E+00  0.00000000000E+00  0.17452840776E+04  0.17452840776E+04  0.00000000000E+00 0. -1.
         -1   -1    0    0    0  501 -0.00000000000E+00 -0.00000000000E+00 -0.51453215795E+03  0.51453215795E+03  0.00000000000E+00 0.  1.
         24    2    1    2    0    0  0.29817751734E+03 -0.63675321866E+03  0.67481860708E+03  0.97951052491E+03  0.98469399477E+02 0.  0.
        254    2    1    2    0    0 -0.29817751734E+03  0.63675321866E+03  0.55593331262E+03  0.12803057107E+04  0.91419711848E+03 0.  0.
         23    2    4    4    0    0 -0.10820407783E+03 -0.89806886357E+02 -0.16495507650E+03  0.23489182982E+03  0.90501906925E+02 0.  0.
         23    2    4    4    0    0 -0.18997343951E+03  0.72656010501E+03  0.72088838912E+03  0.10454138809E+04  0.96076109569E+02 0.  0.
          2    1    3    3  502    0  0.20968542448E+03 -0.49468638721E+03  0.56291283073E+03  0.77817315164E+03  0.00000000000E+00 0. -1.
         -1    1    3    3    0  502  0.88492092855E+02 -0.14206683144E+03  0.11190577635E+03  0.20133737327E+03  0.00000000000E+00 0.  1.
         11    1    5    5    0    0 -0.63984665039E+02 -0.78169113396E+02 -0.15956099004E+03  0.18884956233E+03  0.00000000000E+00 0.  1.
        -11    1    5    5    0    0 -0.44219412793E+02 -0.11637772962E+02 -0.53940864632E+01  0.46042267495E+02  0.00000000000E+00 0. -1.
          1    1    6    6  503    0 -0.34680038373E+02  0.18424615268E+03  0.12781592171E+03  0.22690583880E+03  0.00000000000E+00 0. -1.
         -1    1    6    6    0  503 -0.15529340113E+03  0.54231395233E+03  0.59307246741E+03  0.81850804207E+03  0.00000000000E+00 0.  1.
<mgrwt>
<rscale>  0 0.18952623E+04</rscale>
<asrwt>0</asrwt>
<pdfrwt beam="1">  1        2 0.26850524E+00 0.18952623E+04</pdfrwt>
<pdfrwt beam="2">  1       -1 0.79158794E-01 0.18952623E+04</pdfrwt>
<totfact> 0.15754598E+01</totfact>
</mgrwt>
</event>
<event>
12    6  0.1450532E-007  0.2290498E+04  0.7818608E-02  0.8481677E-01
         -1   -1    0    0    0  501 -0.00000000000E+00  0.00000000000E+00  0.16487106058E+04  0.16487106058E+04  0.00000000000E+00 0.  1.
          2   -1    0    0  501    0  0.00000000000E+00 -0.00000000000E+00 -0.79552798713E+03  0.79552798713E+03  0.00000000000E+00 0. -1.
         24    2    1    2    0    0  0.56769444573E+03  0.54816050897E+03 -0.23446148466E+03  0.82748373137E+03  0.83667261115E+02 0.  0.
        254    2    1    2    0    0 -0.56769444573E+03 -0.54816050897E+03  0.10876441033E+04  0.16167548616E+04  0.89898256912E+03 0.  0.
         23    2    4    4    0    0  0.51148213930E+02  0.19522652328E+03  0.24333974882E+03  0.32941550495E+03  0.92578649625E+02 0.  0.
         23    2    4    4    0    0 -0.61884265966E+03 -0.74338703225E+03  0.84430435449E+03  0.12873393566E+04  0.93820354507E+02 0.  0.
          2    1    3    3  502    0  0.32440599330E+03  0.34558529599E+03 -0.10519475610E+03  0.48552485209E+03  0.00000000000E+00 0. -1.
         -1    1    3    3    0  502  0.24328845243E+03  0.20257521298E+03 -0.12926672856E+03  0.34195887927E+03  0.00000000000E+00 0.  1.
         11    1    5    5    0    0 -0.21636980949E+02  0.23047389986E+02  0.17102551322E+02  0.35942153406E+02  0.00000000000E+00 0.  1.
        -11    1    5    5    0    0  0.72785194879E+02  0.17217913329E+03  0.22623719750E+03  0.29347335155E+03  0.00000000000E+00 0. -1.
          1    1    6    6  503    0 -0.57993368985E+03 -0.66753518334E+03  0.74332972788E+03  0.11551906293E+04  0.00000000000E+00 0. -1.
         -1    1    6    6    0  503 -0.38908969806E+02 -0.75851848906E+02  0.10097462662E+03  0.13214872733E+03  0.00000000000E+00 0.  1.
<mgrwt>
<rscale>  0 0.22904981E+04</rscale>
<asrwt>0</asrwt>
<pdfrwt beam="1">  1        2 0.12238892E+00 0.22904981E+04</pdfrwt>
<pdfrwt beam="2">  1       -1 0.25364778E+00 0.22904981E+04</pdfrwt>
<totfact> 0.23707538E+00</totfact>
</mgrwt>
</event>
<event>
12    6  0.1450532E-007  0.1582457E+04  0.7818608E-02  0.8831398E-01
         -1   -1    0    0    0  501 -0.00000000000E+00  0.00000000000E+00  0.28784875031E+04  0.28784875031E+04  0.00000000000E+00 0.  1.
          2   -1    0    0  501    0  0.00000000000E+00 -0.00000000000E+00 -0.21749009133E+03  0.21749009133E+03  0.00000000000E+00 0. -1.
         24    2    1    2    0    0  0.26972823113E+03 -0.27007250968E+03  0.16214072285E+04  0.16675633503E+04  0.78189817061E+02 0.  0.
        254    2    1    2    0    0 -0.26972823113E+03  0.27007250968E+03  0.10395901833E+04  0.14284142441E+04  0.90217904239E+03 0.  0.
         23    2    4    4    0    0 -0.44264440564E+03 -0.40796142192E+02  0.16961608292E+03  0.48418039454E+03  0.89792225739E+02 0.  0.
         23    2    4    4    0    0  0.17291617451E+03  0.31086865187E+03  0.86997410034E+03  0.94423384959E+03  0.90461623437E+02 0.  0.
          4    1    3    3  502    0  0.69060322198E+02 -0.49338868550E+02  0.24767363750E+03  0.26181268641E+03  0.00000000000E+00 0. -1.
         -3    1    3    3    0  502  0.20066790893E+03 -0.22073364113E+03  0.13737335910E+04  0.14057506639E+04  0.00000000000E+00 0.  1.
         11    1    5    5    0    0 -0.38885493355E+03 -0.50065851285E+01  0.14611112454E+03  0.41542951984E+03  0.00000000000E+00 0. -1.
        -11    1    5    5    0    0 -0.53789472091E+02 -0.35789557064E+02  0.23504958387E+02  0.68750874696E+02  0.00000000000E+00 0.  1.
          2    1    6    6  503    0  0.16751697264E+03  0.23006277717E+03  0.64017796522E+03  0.70058450220E+03  0.00000000000E+00 0. -1.
         -2    1    6    6    0  503  0.53992018669E+01  0.80805874702E+02  0.22979613512E+03  0.24364934739E+03  0.00000000000E+00 0.  1.
<mgrwt>
<rscale>  0 0.15824570E+04</rscale>
<asrwt>0</asrwt>
<pdfrwt beam="1">  1        2 0.33460016E-01 0.15824570E+04</pdfrwt>
<pdfrwt beam="2">  1       -1 0.44284420E+00 0.15824570E+04</pdfrwt>
<totfact> 0.63105314E-01</totfact>
</mgrwt>
</event>
<event>
12    6  0.1450532E-007  0.1375360E+04  0.7818608E-02  0.8971850E-01
          2   -1    0    0  501    0  0.00000000000E+00  0.00000000000E+00  0.19293635137E+04  0.19293635137E+04  0.00000000000E+00 0. -1.
         -1   -1    0    0    0  501 -0.00000000000E+00 -0.00000000000E+00 -0.24510855058E+03  0.24510855058E+03  0.00000000000E+00 0.  1.
         24    2    1    2    0    0 -0.26612067827E+03 -0.12664783101E+03  0.85215069443E+02  0.31652611333E+03  0.77892771521E+02 0.  0.
        254    2    1    2    0    0  0.26612067827E+03  0.12664783101E+03  0.15990398937E+04  0.18579459510E+04  0.89898536508E+03 0.  0.
         23    2    4    4    0    0  0.33010509204E+03  0.23049384029E+03  0.21561504682E+03  0.46626173635E+03  0.93879583303E+02 0.  0.
         23    2    4    4    0    0 -0.63984413771E+02 -0.10384600929E+03  0.13834248469E+04  0.13916842146E+04  0.89680808722E+02 0.  0.
          2    1    3    3  502    0 -0.63427177660E+02 -0.65935401880E+02  0.41519533706E+02  0.10047067117E+03  0.00000000000E+00 0. -1.
         -1    1    3    3    0  502 -0.20269350061E+03 -0.60712429127E+02  0.43695535738E+02  0.21605544215E+03  0.00000000000E+00 0.  1.
         11    1    5    5    0    0  0.13225887394E+03  0.39305922495E+02  0.63581741483E+02  0.15192104241E+03  0.00000000000E+00 0.  1.
        -11    1    5    5    0    0  0.19784621811E+03  0.19118791780E+03  0.15203330534E+03  0.31434069393E+03  0.00000000000E+00 0. -1.
          3    1    6    6  503    0 -0.39729232009E+01 -0.88101027431E+02  0.72549011015E+03  0.73083067469E+03  0.00000000000E+00 0. -1.
         -3    1    6    6    0  503 -0.60011490571E+02 -0.15744981856E+02  0.65793473673E+03  0.66085353994E+03  0.00000000000E+00 0.  1.
<mgrwt>
<rscale>  0 0.13753596E+04</rscale>
<asrwt>0</asrwt>
<pdfrwt beam="1">  1        2 0.29682515E+00 0.13753596E+04</pdfrwt>
<pdfrwt beam="2">  1       -1 0.37709009E-01 0.13753596E+04</pdfrwt>
<totfact> 0.55121083E+01</totfact>
</mgrwt>
</event>
<event>
12    6  0.1450532E-007  0.1788381E+04  0.7818608E-02  0.8712503E-01
         -1   -1    0    0    0  501 -0.00000000000E+00  0.00000000000E+00  0.85677645793E+03  0.85677645793E+03  0.00000000000E+00 0.  1.
          2   -1    0    0  501    0  0.00000000000E+00 -0.00000000000E+00 -0.93323827141E+03  0.93323827141E+03  0.00000000000E+00 0. -1.
         24    2    1    2    0    0  0.21712548004E+03 -0.58427252314E+03  0.20051225902E+03  0.65944794749E+03  0.78412843688E+02 0.  0.
        254    2    1    2    0    0 -0.21712548004E+03  0.58427252314E+03 -0.27697407250E+03  0.11305667818E+04  0.90163670955E+03 0.  0.
         23    2    4    4    0    0 -0.27982353167E+03  0.42489018546E+03 -0.57660053237E+03  0.77358484620E+03  0.84453903199E+02 0.  0.
         23    2    4    4    0    0  0.62698051624E+02  0.15938233768E+03  0.29962645988E+03  0.35698193565E+03  0.91248625627E+02 0.  0.
          2    1    3    3  502    0  0.30398075061E+02 -0.90382499730E+02  0.20727924735E+01  0.95379954359E+02  0.00000000000E+00 0. -1.
         -1    1    3    3    0  502  0.18672740498E+03 -0.49389002341E+03  0.19843946655E+03  0.56406799314E+03  0.00000000000E+00 0.  1.
         11    1    5    5    0    0 -0.17136884521E+03  0.18511511314E+03 -0.26910404315E+03  0.36885210079E+03  0.00000000000E+00 0.  1.
        -11    1    5    5    0    0 -0.10845468646E+03  0.23977507232E+03 -0.30749648922E+03  0.40473274541E+03  0.00000000000E+00 0. -1.
          1    1    6    6  503    0  0.24519237467E+02  0.12099898752E+03  0.26599170688E+03  0.29324654494E+03  0.00000000000E+00 0. -1.
         -1    1    6    6    0  503  0.38178814157E+02  0.38383350165E+02  0.33634752991E+02  0.63735390711E+02  0.00000000000E+00 0.  1.
<mgrwt>
<rscale>  0 0.17883809E+04</rscale>
<asrwt>0</asrwt>
<pdfrwt beam="1">  1        2 0.14357512E+00 0.17883809E+04</pdfrwt>
<pdfrwt beam="2">  1       -1 0.13181176E+00 0.17883809E+04</pdfrwt>
<totfact> 0.14707219E+01</totfact>
</mgrwt>
</event>
<event>
12    6  0.1450532E-007  0.2758929E+04  0.7818608E-02  0.8316134E-01
          2   -1    0    0  501    0  0.00000000000E+00  0.00000000000E+00  0.19628182654E+04  0.19628182654E+04  0.00000000000E+00 0. -1.
         -1   -1    0    0    0  501 -0.00000000000E+00 -0.00000000000E+00 -0.96948451930E+03  0.96948451930E+03  0.00000000000E+00 0.  1.
         24    2    1    2    0    0  0.65070515507E+03  0.18667613499E+02 -0.66953495626E+03  0.93733774025E+03  0.80989524121E+02 0.  0.
        254    2    1    2    0    0 -0.65070515507E+03 -0.18667613499E+02  0.16628687024E+04  0.19949650445E+04  0.88937479652E+03 0.  0.
         23    2    4    4    0    0 -0.17794736004E+03  0.35719502599E+03  0.10573044471E+04  0.11346617109E+04  0.10154287130E+03 0.  0.
         23    2    4    4    0    0 -0.47275779503E+03 -0.37586263949E+03  0.60556425523E+03  0.86030333356E+03  0.92957527892E+02 0.  0.
          4    1    3    3  502    0  0.27658644902E+03  0.35674598790E+02 -0.32747150246E+03  0.43012826657E+03  0.00000000000E+00 0. -1.
         -3    1    3    3    0  502  0.37411870605E+03 -0.17006985291E+02 -0.34206345381E+03  0.50720947369E+03  0.00000000000E+00 0.  1.
         11    1    5    5    0    0  0.32409127666E+01 -0.15911892895E+00  0.57103995430E+02  0.57196111131E+02  0.00000000000E+00 0. -1.
        -11    1    5    5    0    0 -0.18118827281E+03  0.35735414492E+03  0.10002004517E+04  0.10774655998E+04  0.00000000000E+00 0.  1.
          1    1    6    6  503    0 -0.18141146845E+03 -0.10075964751E+03  0.16809897910E+03  0.26705784808E+03  0.00000000000E+00 0. -1.
         -1    1    6    6    0  503 -0.29134632658E+03 -0.27510299199E+03  0.43746527614E+03  0.59324548548E+03  0.00000000000E+00 0.  1.
<mgrwt>
<rscale>  0 0.27589287E+04</rscale>
<asrwt>0</asrwt>
<pdfrwt beam="1">  1        2 0.30197204E+00 0.27589287E+04</pdfrwt>
<pdfrwt beam="2">  1       -1 0.14915146E+00 0.27589287E+04</pdfrwt>
<totfact> 0.24659113E+00</totfact>
</mgrwt>
</event>
<event>
12    6  0.1450532E-007  0.2518078E+04  0.7818608E-02  0.8396573E-01
         -1   -1    0    0    0  501 -0.00000000000E+00  0.00000000000E+00  0.72016847731E+03  0.72016847731E+03  0.00000000000E+00 0.  1.
          2   -1    0    0  501    0  0.00000000000E+00 -0.00000000000E+00 -0.22011222298E+04  0.22011222298E+04  0.00000000000E+00 0. -1.
         24    2    1    2    0    0 -0.33663658059E+03 -0.22825923751E+03  0.53081121577E+03  0.67441450713E+03  0.87452351258E+02 0.  0.
        254    2    1    2    0    0  0.33663658059E+03  0.22825923751E+03 -0.20117649683E+04  0.22468762000E+04  0.91423624062E+03 0.  0.
         23    2    4    4    0    0  0.20789310477E+03  0.38570584297E+03 -0.34577484255E+03  0.56606447814E+03  0.94234873369E+02 0.  0.
         23    2    4    4    0    0  0.12874347582E+03 -0.15744660546E+03 -0.16659901257E+04  0.16808117219E+04  0.90777911481E+02 0.  0.
          4    1    3    3  502    0 -0.29773306245E+02 -0.55916537710E+02  0.67275504609E+02  0.92407264187E+02  0.00000000000E+00 0. -1.
         -3    1    3    3    0  502 -0.30686327434E+03 -0.17234269980E+03  0.46353571116E+03  0.58200724294E+03  0.00000000000E+00 0.  1.
         11    1    5    5    0    0  0.98599697189E+02  0.27304615233E+03 -0.20693445607E+03  0.35650802333E+03  0.00000000000E+00 0. -1.
        -11    1    5    5    0    0  0.10929340758E+03  0.11265969064E+03 -0.13884038648E+03  0.20955645481E+03  0.00000000000E+00 0.  1.
          2    1    6    6  503    0  0.11087327758E+03 -0.13471372136E+03 -0.15893560524E+04  0.15989037906E+04  0.00000000000E+00 0. -1.
         -2    1    6    6    0  503  0.17870198240E+02 -0.22732884097E+02 -0.76634073349E+02  0.81907931255E+02  0.00000000000E+00 0.  1.
<mgrwt>
<rscale>  0 0.25180777E+04</rscale>
<asrwt>0</asrwt>
<pdfrwt beam="1">  1        2 0.33863419E+00 0.25180777E+04</pdfrwt>
<pdfrwt beam="2">  1       -1 0.11079515E+00 0.25180777E+04</pdfrwt>
<totfact> 0.39185941E+00</totfact>
</mgrwt>
</event>
<event>
12    6  0.1450532E-007  0.1461032E+04  0.7818608E-02  0.8910788E-01
          2   -1    0    0  501    0  0.00000000000E+00  0.00000000000E+00  0.10366957952E+04  0.10366957952E+04  0.00000000000E+00 0. -1.
         -1   -1    0    0    0  501 -0.00000000000E+00 -0.00000000000E+00 -0.51476371038E+03  0.51476371038E+03  0.00000000000E+00 0.  1.
         24    2    1    2    0    0  0.72443362194E+02  0.12078611699E+03 -0.29081133994E+03  0.33293785679E+03  0.80243717933E+02 0.  0.
        254    2    1    2    0    0 -0.72443362194E+02 -0.12078611699E+03  0.81274342477E+03  0.12185216488E+04  0.89688673046E+03 0.  0.
         23    2    4    4    0    0 -0.31637852847E+03  0.19602412971E+03  0.99777392995E+02  0.39591954148E+03  0.90972097214E+02 0.  0.
         23    2    4    4    0    0  0.24393516628E+03 -0.31681024670E+03  0.71296603177E+03  0.82260210730E+03  0.92089992518E+02 0.  0.
          4    1    3    3  502    0  0.84090361167E+01  0.92216859301E+01  0.24378323216E+01  0.12715911538E+02  0.00000000000E+00 0. -1.
         -3    1    3    3    0  502  0.64034326077E+02  0.11156443106E+03 -0.29324917226E+03  0.32022194526E+03  0.00000000000E+00 0.  1.
         11    1    5    5    0    0 -0.66998480887E+02  0.74438131634E+02  0.56901021967E+02  0.11518488696E+03  0.00000000000E+00 0.  1.
        -11    1    5    5    0    0 -0.24938004758E+03  0.12158599807E+03  0.42876371028E+02  0.28073465453E+03  0.00000000000E+00 0. -1.
          3    1    6    6  503    0  0.20990539966E+03 -0.21817880370E+03  0.57249977816E+03  0.64762509462E+03  0.00000000000E+00 0. -1.
         -3    1    6    6    0  503  0.34029766620E+02 -0.98631442997E+02  0.14046625361E+03  0.17497701268E+03  0.00000000000E+00 0.  1.
<mgrwt>
<rscale>  0 0.14610317E+04</rscale>
<asrwt>0</asrwt>
<pdfrwt beam="1">  1        2 0.15949166E+00 0.14610317E+04</pdfrwt>
<pdfrwt beam="2">  1       -1 0.79194417E-01 0.14610317E+04</pdfrwt>
<totfact> 0.42057647E+01</totfact>
</mgrwt>
</event>
<event>
12    6  0.1450532E-007  0.2320668E+04  0.7818608E-02  0.8469816E-01
         -1   -1    0    0    0  501 -0.00000000000E+00  0.00000000000E+00  0.11786573063E+04  0.11786573063E+04  0.00000000000E+00 0.  1.
          2   -1    0    0  501    0  0.00000000000E+00 -0.00000000000E+00 -0.11422953832E+04  0.11422953832E+04  0.00000000000E+00 0. -1.
         24    2    1    2    0    0  0.80121799340E+02 -0.96464215439E+03  0.17082643019E+03  0.98599777516E+03  0.77820014158E+02 0.  0.
        254    2    1    2    0    0 -0.80121799340E+02  0.96464215439E+03 -0.13446450707E+03  0.13349549143E+04  0.90943385179E+03 0.  0.
         23    2    4    4    0    0 -0.27117473892E+03  0.81303447232E+03 -0.41073146212E+03  0.95480904459E+03  0.91647070061E+02 0.  0.
         23    2    4    4    0    0  0.19105293958E+03  0.15160768207E+03  0.27626695505E+03  0.38014586970E+03  0.93280956328E+02 0.  0.
          2    1    3    3  502    0  0.58931746890E+02 -0.45792106074E+03  0.11474415351E+03  0.47574244022E+03  0.00000000000E+00 0. -1.
         -1    1    3    3    0  502  0.21190052450E+02 -0.50672109365E+03  0.56082276674E+02  0.51025533493E+03  0.00000000000E+00 0.  1.
         11    1    5    5    0    0 -0.14936609532E+01  0.31708173380E+02  0.18296036938E+00  0.31743861716E+02  0.00000000000E+00 0.  1.
        -11    1    5    5    0    0 -0.26968107796E+03  0.78132629894E+03 -0.41091442249E+03  0.92306518288E+03  0.00000000000E+00 0. -1.
          1    1    6    6  503    0  0.13117019904E+03  0.15162770601E+03  0.22445894332E+03  0.30096245544E+03  0.00000000000E+00 0. -1.
         -1    1    6    6    0  503  0.59882740538E+02 -0.20023935743E-01  0.51808011726E+02  0.79183414263E+02  0.00000000000E+00 0.  1.
<mgrwt>
<rscale>  0 0.23206678E+04</rscale>
<asrwt>0</asrwt>
<pdfrwt beam="1">  1        2 0.17573775E+00 0.23206678E+04</pdfrwt>
<pdfrwt beam="2">  1       -1 0.18133189E+00 0.23206678E+04</pdfrwt>
<totfact> 0.43109212E+00</totfact>
</mgrwt>
</event>
<event>
12    6  0.1450532E-007  0.2139296E+04  0.7818608E-02  0.8544128E-01
         -1   -1    0    0    0  501 -0.00000000000E+00  0.00000000000E+00  0.68706571646E+03  0.68706571646E+03  0.00000000000E+00 0.  1.
          2   -1    0    0  501    0  0.00000000000E+00 -0.00000000000E+00 -0.16652654889E+04  0.16652654889E+04  0.00000000000E+00 0. -1.
         24    2    1    2    0    0  0.37748082693E+03 -0.45101366385E+03  0.26917367569E+03  0.65107776707E+03  0.74449253890E+02 0.  0.
        254    2    1    2    0    0 -0.37748082693E+03  0.45101366385E+03 -0.12473734481E+04  0.17012534383E+04  0.99620160735E+03 0.  0.
         23    2    4    4    0    0 -0.16628889339E+03  0.73387170446E+03 -0.10233759612E+04  0.12734823619E+04  0.90770554464E+02 0.  0.
         23    2    4    4    0    0 -0.21119193354E+03 -0.28285804060E+03 -0.22399748697E+03  0.42777107637E+03  0.90567740851E+02 0.  0.
          4    1    3    3  502    0  0.78725013120E+02 -0.90345823740E+02  0.23123806865E+02  0.12204386917E+03  0.00000000000E+00 0. -1.
         -3    1    3    3    0  502  0.29875581381E+03 -0.36066784011E+03  0.24604986883E+03  0.52903389790E+03  0.00000000000E+00 0.  1.
         11    1    5    5    0    0 -0.16038594879E+03  0.73456488839E+03 -0.10171754186E+04  0.12648932999E+04  0.00000000000E+00 0.  1.
        -11    1    5    5    0    0 -0.59029446054E+01 -0.69318393196E+00 -0.62005425727E+01  0.85890620660E+01  0.00000000000E+00 0. -1.
          2    1    6    6  503    0 -0.36119343486E+02 -0.48934634613E+02 -0.20602964473E+01  0.60855979657E+02  0.00000000000E+00 0. -1.
         -2    1    6    6    0  503 -0.17507259005E+03 -0.23392340599E+03 -0.22193719052E+03  0.36691509671E+03  0.00000000000E+00 0.  1.
<mgrwt>
<rscale>  0 0.21392960E+04</rscale>
<asrwt>0</asrwt>
<pdfrwt beam="1">  1        2 0.25619469E+00 0.21392960E+04</pdfrwt>
<pdfrwt beam="2">  1       -1 0.10570242E+00 0.21392960E+04</pdfrwt>
<totfact> 0.89916053E+00</totfact>
</mgrwt>
</event>
<event>
12    6  0.1450532E-007  0.1242624E+04  0.7818608E-02  0.9076344E-01
          2   -1    0    0  501    0  0.00000000000E+00  0.00000000000E+00  0.50003948440E+03  0.50003948440E+03  0.00000000000E+00 0. -1.
         -1   -1    0    0    0  501 -0.00000000000E+00 -0.00000000000E+00 -0.77199685542E+03  0.77199685542E+03  0.00000000000E+00 0.  1.
         24    2    1    2    0    0 -0.95432494907E+02 -0.19866054462E+03 -0.23191499166E+03  0.32988737184E+03  0.80422270977E+02 0.  0.
        254    2    1    2    0    0  0.95432494907E+02  0.19866054462E+03 -0.40042379355E+02  0.94214896798E+03  0.91513272953E+03 0.  0.
         23    2    4    4    0    0  0.24762599430E+03 -0.15366948582E+03 -0.33287566558E+03  0.45148227101E+03  0.89983822827E+02 0.  0.
         23    2    4    4    0    0 -0.15219349939E+03  0.35233003044E+03  0.29283328623E+03  0.49066669697E+03  0.87767661385E+02 0.  0.
          4    1    3    3  502    0 -0.39736008408E+02 -0.16085418120E+03 -0.14677211262E+03  0.22134830250E+03  0.00000000000E+00 0. -1.
         -3    1    3    3    0  502 -0.55696486499E+02 -0.37806363421E+02 -0.85142879037E+02  0.10853906934E+03  0.00000000000E+00 0.  1.
         11    1    5    5    0    0  0.21491495982E+03 -0.13314090401E+03 -0.32553006336E+03  0.41217079278E+03  0.00000000000E+00 0.  1.
        -11    1    5    5    0    0  0.32711034485E+02 -0.20528581818E+02 -0.73456022292E+01  0.39311478230E+02  0.00000000000E+00 0. -1.
          4    1    6    6  503    0 -0.12597019147E+03  0.18209618493E+03  0.16818330370E+03  0.27805239317E+03  0.00000000000E+00 0. -1.
         -4    1    6    6    0  503 -0.26223307926E+02  0.17023384552E+03  0.12464998253E+03  0.21261430380E+03  0.00000000000E+00 0.  1.
<mgrwt>
<rscale>  0 0.12426245E+04</rscale>
<asrwt>0</asrwt>
<pdfrwt beam="1">  1        2 0.76929151E-01 0.12426245E+04</pdfrwt>
<pdfrwt beam="2">  1       -1 0.11876875E+00 0.12426245E+04</pdfrwt>
<totfact> 0.44009397E+01</totfact>
</mgrwt>
</event>
<event>
12    6  0.1450532E-007  0.1632764E+04  0.7818608E-02  0.8800669E-01
          2   -1    0    0  501    0  0.00000000000E+00  0.00000000000E+00  0.65113149686E+03  0.65113149686E+03  0.00000000000E+00 0. -1.
         -1   -1    0    0    0  501 -0.00000000000E+00 -0.00000000000E+00 -0.10235717625E+04  0.10235717625E+04  0.00000000000E+00 0.  1.
         24    2    1    2    0    0  0.13555480430E+03  0.52671287295E+03 -0.29596806348E+03  0.62445512401E+03  0.80904584595E+02 0.  0.
        254    2    1    2    0    0 -0.13555480430E+03 -0.52671287295E+03 -0.76472202185E+02  0.10502481354E+04  0.89519360624E+03 0.  0.
         23    2    4    4    0    0  0.34971385607E+03 -0.20231617840E+03 -0.17581752632E+03  0.45088126536E+03  0.95658223486E+02 0.  0.
         23    2    4    4    0    0 -0.48526866037E+03 -0.32439669455E+03  0.99345324135E+02  0.59936687001E+03  0.93017542787E+02 0.  0.
          4    1    3    3  502    0  0.18660316426E+02  0.55335546982E+02 -0.57190531852E+01  0.58676551861E+02  0.00000000000E+00 0. -1.
         -3    1    3    3    0  502  0.11689448788E+03  0.47137732596E+03 -0.29024901029E+03  0.56577857215E+03  0.00000000000E+00 0.  1.
         11    1    5    5    0    0  0.53704356879E+02 -0.57776378899E+02 -0.31192513864E+01  0.78943002449E+02  0.00000000000E+00 0. -1.
        -11    1    5    5    0    0  0.29600949919E+03 -0.14453979950E+03 -0.17269827493E+03  0.37193826291E+03  0.00000000000E+00 0.  1.
          3    1    6    6  503    0 -0.30263598420E+03 -0.17490919763E+03  0.19023992101E+02  0.35006239247E+03  0.00000000000E+00 0. -1.
         -3    1    6    6    0  503 -0.18263267617E+03 -0.14948749692E+03  0.80321332034E+02  0.24930447754E+03  0.00000000000E+00 0.  1.
<mgrwt>
<rscale>  0 0.16327643E+04</rscale>
<asrwt>0</asrwt>
<pdfrwt beam="1">  1        2 0.10017408E+00 0.16327643E+04</pdfrwt>
<pdfrwt beam="2">  1       -1 0.15747258E+00 0.16327643E+04</pdfrwt>
<totfact> 0.14975096E+01</totfact>
</mgrwt>
</event>
<event>
12    6  0.1450532E-007  0.3363762E+04  0.7818608E-02  0.8146858E-01
         -1   -1    0    0    0  501 -0.00000000000E+00  0.00000000000E+00  0.10257242312E+04  0.10257242312E+04  0.00000000000E+00 0.  1.
          2   -1    0    0  501    0  0.00000000000E+00 -0.00000000000E+00 -0.27577814221E+04  0.27577814221E+04  0.00000000000E+00 0. -1.
         24    2    1    2    0    0  0.87108405971E+03  0.44817805736E+03  0.55925451306E+03  0.11316989485E+04  0.91246311854E+02 0.  0.
        254    2    1    2    0    0 -0.87108405971E+03 -0.44817805736E+03 -0.22913117039E+04  0.26518067048E+04  0.90681776820E+03 0.  0.
         23    2    4    4    0    0 -0.58928084145E+03 -0.55861591807E+03 -0.21586576279E+04  0.23081721093E+04  0.92477444237E+02 0.  0.
         23    2    4    4    0    0 -0.28180321827E+03  0.11043786072E+03 -0.13265407608E+03  0.34363459551E+03  0.94223438823E+02 0.  0.
          4    1    3    3  502    0  0.38608770380E+02  0.57131086572E+01  0.37824997569E+02  0.54350779221E+02  0.00000000000E+00 0. -1.
         -3    1    3    3    0  502  0.83247528933E+03  0.44246494870E+03  0.52142951549E+03  0.10773481693E+04  0.00000000000E+00 0.  1.
         11    1    5    5    0    0 -0.23008043860E+02 -0.26686173586E+01 -0.49007991820E+02  0.54205856354E+02  0.00000000000E+00 0. -1.
        -11    1    5    5    0    0 -0.56627279759E+03 -0.55594730071E+03 -0.21096496360E+04  0.22539662529E+04  0.00000000000E+00 0.  1.
          3    1    6    6  503    0 -0.34415334678E+02  0.99737190271E+01 -0.54857699859E+02  0.65522954497E+02  0.00000000000E+00 0. -1.
         -3    1    6    6    0  503 -0.24738788359E+03  0.10046414169E+03 -0.77796376221E+02  0.27811164101E+03  0.00000000000E+00 0.  1.
<mgrwt>
<rscale>  0 0.33637617E+04</rscale>
<asrwt>0</asrwt>
<pdfrwt beam="1">  1        2 0.42427406E+00 0.33637617E+04</pdfrwt>
<pdfrwt beam="2">  1       -1 0.15780373E+00 0.33637617E+04</pdfrwt>
<totfact> 0.70266066E-01</totfact>
</mgrwt>
</event>
<event>
12    6  0.1450532E-007  0.1900327E+04  0.7818608E-02  0.8654694E-01
         -1   -1    0    0    0  501 -0.00000000000E+00  0.00000000000E+00  0.49538500937E+03  0.49538500937E+03  0.00000000000E+00 0.  1.
          2   -1    0    0  501    0  0.00000000000E+00 -0.00000000000E+00 -0.18224427854E+04  0.18224427854E+04  0.00000000000E+00 0. -1.
         24    2    1    2    0    0 -0.66251073767E+03 -0.11014644368E+03 -0.87661602486E+03  0.11069503393E+04  0.76358902708E+02 0.  0.
        254    2    1    2    0    0  0.66251073767E+03  0.11014644368E+03 -0.45044175116E+03  0.12108774555E+04  0.90126229502E+03 0.  0.
         23    2    4    4    0    0  0.22138313677E+02 -0.27827185223E+03 -0.33701011433E+03  0.44718707013E+03  0.92060468493E+02 0.  0.
         23    2    4    4    0    0  0.64037242399E+03  0.38841829591E+03 -0.11343163683E+03  0.76369038535E+03  0.97008527650E+02 0.  0.
          4    1    3    3  502    0 -0.54237941661E+03 -0.70163858881E+02 -0.74653332475E+03  0.92542444512E+03  0.00000000000E+00 0. -1.
         -3    1    3    3    0  502 -0.12013132105E+03 -0.39982584797E+02 -0.13008270010E+03  0.18152589416E+03  0.00000000000E+00 0.  1.
         11    1    5    5    0    0 -0.17612614262E+02 -0.41667115031E+02 -0.19591149248E+02  0.49296711706E+02  0.00000000000E+00 0. -1.
        -11    1    5    5    0    0  0.39750927939E+02 -0.23660473720E+03 -0.31741896508E+03  0.39789035843E+03  0.00000000000E+00 0.  1.
          1    1    6    6  503    0  0.18996476704E+03  0.91475717401E+02 -0.71271529258E+02  0.22256246421E+03  0.00000000000E+00 0. -1.
         -1    1    6    6    0  503  0.45040765695E+03  0.29694257851E+03 -0.42160107573E+02  0.54112792114E+03  0.00000000000E+00 0.  1.
<mgrwt>
<rscale>  0 0.19003272E+04</rscale>
<asrwt>0</asrwt>
<pdfrwt beam="1">  1        2 0.28037581E+00 0.19003272E+04</pdfrwt>
<pdfrwt beam="2">  1       -1 0.76213078E-01 0.19003272E+04</pdfrwt>
<totfact> 0.15458783E+01</totfact>
</mgrwt>
</event>
<event>
12    6  0.1450532E-007  0.1959364E+04  0.7818608E-02  0.8625858E-01
         -1   -1    0    0    0  501 -0.00000000000E+00  0.00000000000E+00  0.13101412818E+04  0.13101412818E+04  0.00000000000E+00 0.  1.
          2   -1    0    0  501    0  0.00000000000E+00 -0.00000000000E+00 -0.73257537898E+03  0.73257537898E+03  0.00000000000E+00 0. -1.
         24    2    1    2    0    0  0.46566848859E+03 -0.10044315450E+03  0.85599129274E+03  0.98284707453E+03  0.79569529996E+02 0.  0.
        254    2    1    2    0    0 -0.46566848859E+03  0.10044315450E+03 -0.27842538988E+03  0.10598695863E+04  0.90491263316E+03 0.  0.
         23    2    4    4    0    0  0.22505424292E+03 -0.11331328797E+03 -0.18626885917E+03  0.32618619639E+03  0.90620270006E+02 0.  0.
         23    2    4    4    0    0 -0.69072273151E+03  0.21375644247E+03 -0.92156530706E+02  0.73368338989E+03  0.83718468306E+02 0.  0.
          2    1    3    3  502    0  0.27421689181E+03 -0.95888264344E+02  0.48502513452E+03  0.56536611510E+03  0.00000000000E+00 0. -1.
         -1    1    3    3    0  502  0.19145159678E+03 -0.45548901612E+01  0.37096615823E+03  0.41748095943E+03  0.00000000000E+00 0.  1.
         11    1    5    5    0    0  0.45533087752E+02 -0.55987783009E+02 -0.87500145012E+02  0.11342032139E+03  0.00000000000E+00 0. -1.
        -11    1    5    5    0    0  0.17952115517E+03 -0.57325504958E+02 -0.98768714161E+02  0.21276587501E+03  0.00000000000E+00 0.  1.
          3    1    6    6  503    0 -0.11404473267E+03  0.68793564774E+02 -0.13030170587E+02  0.13382279682E+03  0.00000000000E+00 0. -1.
         -3    1    6    6    0  503 -0.57667799884E+03  0.14496287770E+03 -0.79126360119E+02  0.59986059307E+03  0.00000000000E+00 0.  1.
<mgrwt>
<rscale>  0 0.19593644E+04</rscale>
<asrwt>0</asrwt>
<pdfrwt beam="1">  1        2 0.11270390E+00 0.19593644E+04</pdfrwt>
<pdfrwt beam="2">  1       -1 0.20156020E+00 0.19593644E+04</pdfrwt>
<totfact> 0.60385258E+00</totfact>
</mgrwt>
</event>
<event>
12    6  0.1450532E-007  0.1622854E+04  0.7818608E-02  0.8806630E-01
         -1   -1    0    0    0  501 -0.00000000000E+00  0.00000000000E+00  0.15684336889E+04  0.15684336889E+04  0.00000000000E+00 0.  1.
          2   -1    0    0  501    0  0.00000000000E+00 -0.00000000000E+00 -0.41979039962E+03  0.41979039962E+03  0.00000000000E+00 0. -1.
         24    2    1    2    0    0 -0.30133709969E+03  0.46650708684E+03  0.45223961578E+03  0.72106007811E+03  0.83510816321E+02 0.  0.
        254    2    1    2    0    0  0.30133709969E+03 -0.46650708684E+03  0.69640367353E+03  0.12671640104E+04  0.90127334541E+03 0.  0.
         23    2    4    4    0    0 -0.70815616839E+02 -0.57588127663E+03  0.17967005081E+03  0.61401455966E+03  0.89880231181E+02 0.  0.
         23    2    4    4    0    0  0.37215271653E+03  0.10937418979E+03  0.51673362272E+03  0.65314945078E+03  0.95552134476E+02 0.  0.
          2    1    3    3  502    0 -0.20860978967E+03  0.35809304791E+03  0.29468761526E+03  0.50851692783E+03  0.00000000000E+00 0. -1.
         -1    1    3    3    0  502 -0.92727310023E+02  0.10841403893E+03  0.15755200052E+03  0.21254315028E+03  0.00000000000E+00 0.  1.
         11    1    5    5    0    0 -0.38402599250E+02 -0.49205217970E+03  0.17624219447E+03  0.52407195908E+03  0.00000000000E+00 0. -1.
        -11    1    5    5    0    0 -0.32413017588E+02 -0.83829096925E+02  0.34278563409E+01  0.89942600583E+02  0.00000000000E+00 0.  1.
          4    1    6    6  503    0  0.19786467018E+03  0.10479164877E+03  0.31581225129E+03  0.38712930065E+03  0.00000000000E+00 0. -1.
         -4    1    6    6    0  503  0.17428804634E+03  0.45825410214E+01  0.20092137143E+03  0.26602015013E+03  0.00000000000E+00 0.  1.
<mgrwt>
<rscale>  0 0.16228535E+04</rscale>
<asrwt>0</asrwt>
<pdfrwt beam="1">  1        2 0.64583139E-01 0.16228535E+04</pdfrwt>
<pdfrwt beam="2">  1       -1 0.24129749E+00 0.16228535E+04</pdfrwt>
<totfact> 0.65533293E+00</totfact>
</mgrwt>
</event>
<event>
12    6  0.1450532E-007  0.3646935E+04  0.7818608E-02  0.8079824E-01
         -1   -1    0    0    0  501 -0.00000000000E+00  0.00000000000E+00  0.15653727476E+04  0.15653727476E+04  0.00000000000E+00 0.  1.
          2   -1    0    0  501    0  0.00000000000E+00 -0.00000000000E+00 -0.21241165288E+04  0.21241165288E+04  0.00000000000E+00 0. -1.
         24    2    1    2    0    0 -0.13130413545E+04  0.88362410426E+02 -0.13759824209E+04  0.19065550798E+04  0.98687057395E+02 0.  0.
        254    2    1    2    0    0  0.13130413545E+04 -0.88362410426E+02  0.81723863975E+03  0.17829341966E+04  0.88266066006E+03 0.  0.
         23    2    4    4    0    0  0.12304463393E+04 -0.15603835818E+03  0.34504077377E+03  0.12905371707E+04  0.89927138278E+02 0.  0.
         23    2    4    4    0    0  0.82595015207E+02  0.67675947758E+02  0.47219786598E+03  0.49239702591E+03  0.89900144841E+02 0.  0.
          4    1    3    3  502    0 -0.12790739581E+04  0.95779788890E+02 -0.13191768200E+04  0.18399541953E+04  0.00000000000E+00 0. -1.
         -3    1    3    3    0  502 -0.33967396422E+02 -0.74173784635E+01 -0.56805600890E+02  0.66600884494E+02  0.00000000000E+00 0.  1.
         11    1    5    5    0    0  0.11118963744E+02 -0.22317200306E+01  0.13464516256E+02  0.17604122444E+02  0.00000000000E+00 0. -1.
        -11    1    5    5    0    0  0.12193273756E+04 -0.15380663815E+03  0.33157625751E+03  0.12729330482E+04  0.00000000000E+00 0.  1.
          1    1    6    6  503    0  0.55413107152E+02  0.73556809752E+02  0.21761470807E+03  0.23629933956E+03  0.00000000000E+00 0. -1.
         -1    1    6    6    0  503  0.27181908055E+02 -0.58808619943E+01  0.25458315791E+03  0.25609768635E+03  0.00000000000E+00 0.  1.
<mgrwt>
<rscale>  0 0.36469352E+04</rscale>
<asrwt>0</asrwt>
<pdfrwt beam="1">  1        2 0.32678716E+00 0.36469352E+04</pdfrwt>
<pdfrwt beam="2">  1       -1 0.24082658E+00 0.36469352E+04</pdfrwt>
<totfact> 0.42111393E-01</totfact>
</mgrwt>
</event>
<event>
12    6  0.1450532E-007  0.3654674E+04  0.7818608E-02  0.8078082E-01
         -1   -1    0    0    0  501 -0.00000000000E+00  0.00000000000E+00  0.11214397247E+04  0.11214397247E+04  0.00000000000E+00 0.  1.
          2   -1    0    0  501    0  0.00000000000E+00 -0.00000000000E+00 -0.29775656103E+04  0.29775656103E+04  0.00000000000E+00 0. -1.
         24    2    1    2    0    0  0.50105457390E+03  0.87225526910E+03 -0.24231301596E+04  0.26250147938E+04  0.85193644105E+02 0.  0.
        254    2    1    2    0    0 -0.50105457390E+03 -0.87225526910E+03  0.56700427404E+03  0.14739905411E+04  0.91611643807E+03 0.  0.
         23    2    4    4    0    0 -0.61183166270E+03 -0.21365362302E+03  0.12073000848E+03  0.66542527760E+03  0.90714998879E+02 0.  0.
         23    2    4    4    0    0  0.11077708880E+03 -0.65860164609E+03  0.44627426556E+03  0.80856526354E+03  0.92678873881E+02 0.  0.
          4    1    3    3  502    0  0.28445392816E+03  0.53986396903E+03 -0.15586095300E+04  0.16738072796E+04  0.00000000000E+00 0. -1.
         -3    1    3    3    0  502  0.21660064573E+03  0.33239130007E+03 -0.86452062960E+03  0.95120751421E+03  0.00000000000E+00 0.  1.
         11    1    5    5    0    0 -0.21000704361E+03 -0.44363025787E+02  0.67677634877E+01  0.21474831558E+03  0.00000000000E+00 0.  1.
        -11    1    5    5    0    0 -0.40182461909E+03 -0.16929059723E+03  0.11396224499E+03  0.45067696203E+03  0.00000000000E+00 0. -1.
          4    1    6    6  503    0  0.58002438056E+02 -0.17933719011E+03  0.16406455297E+03  0.24988655049E+03  0.00000000000E+00 0. -1.
         -4    1    6    6    0  503  0.52774650746E+02 -0.47926445598E+03  0.28220971259E+03  0.55867871304E+03  0.00000000000E+00 0.  1.
<mgrwt>
<rscale>  0 0.36546739E+04</rscale>
<asrwt>0</asrwt>
<pdfrwt beam="1">  1        2 0.45808701E+00 0.36546739E+04</pdfrwt>
<pdfrwt beam="2">  1       -1 0.17252919E+00 0.36546739E+04</pdfrwt>
<totfact> 0.39045138E-01</totfact>
</mgrwt>
</event>
<event>
12    6  0.1450532E-007  0.1528404E+04  0.7818608E-02  0.8865781E-01
          2   -1    0    0  501    0  0.00000000000E+00  0.00000000000E+00  0.15650414890E+04  0.15650414890E+04  0.00000000000E+00 0. -1.
         -1   -1    0    0    0  501 -0.00000000000E+00 -0.00000000000E+00 -0.37315596806E+03  0.37315596806E+03  0.00000000000E+00 0.  1.
         24    2    1    2    0    0  0.40995006732E+03  0.21876446775E+03  0.59527817905E+03  0.75958820628E+03  0.81860751462E+02 0.  0.
        254    2    1    2    0    0 -0.40995006732E+03 -0.21876446775E+03  0.59660734191E+03  0.11786092508E+04  0.90402571622E+03 0.  0.
         23    2    4    4    0    0 -0.36220810270E+03 -0.77967473087E+02  0.81452040915E+03  0.89948156623E+03  0.91378085713E+02 0.  0.
         23    2    4    4    0    0 -0.47741964626E+02 -0.14079699467E+03 -0.21791306723E+03  0.27912768457E+03  0.91230863899E+02 0.  0.
          4    1    3    3  502    0  0.10348666452E+03  0.25616013415E+02  0.10166868572E+03  0.14731663699E+03  0.00000000000E+00 0. -1.
         -3    1    3    3    0  502  0.30646340280E+03  0.19314845434E+03  0.49360949332E+03  0.61227156929E+03  0.00000000000E+00 0.  1.
         11    1    5    5    0    0 -0.18617552817E+03 -0.32884084875E+02  0.52126519503E+03  0.55449084201E+03  0.00000000000E+00 0. -1.
        -11    1    5    5    0    0 -0.17603257453E+03 -0.45083388212E+02  0.29325521412E+03  0.34499072422E+03  0.00000000000E+00 0.  1.
          1    1    6    6  503    0 -0.34380595752E+02 -0.15219470952E+03 -0.20334743108E+03  0.25631120283E+03  0.00000000000E+00 0.  1.
         -1    1    6    6    0  503 -0.13361368874E+02  0.11397714858E+02 -0.14565636155E+02  0.22816481735E+02  0.00000000000E+00 0. -1.
<mgrwt>
<rscale>  0 0.15284038E+04</rscale>
<asrwt>0</asrwt>
<pdfrwt beam="1">  1        2 0.24077561E+00 0.15284038E+04</pdfrwt>
<pdfrwt beam="2">  1       -1 0.57408611E-01 0.15284038E+04</pdfrwt>
<totfact> 0.39380359E+01</totfact>
</mgrwt>
</event>
<event>
12    6  0.1450532E-007  0.1893061E+04  0.7818608E-02  0.8658318E-01
          2   -1    0    0  501    0  0.00000000000E+00  0.00000000000E+00  0.10726536049E+04  0.10726536049E+04  0.00000000000E+00 0. -1.
         -1   -1    0    0    0  501 -0.00000000000E+00 -0.00000000000E+00 -0.83523714211E+03  0.83523714211E+03  0.00000000000E+00 0.  1.
         24    2    1    2    0    0  0.39195672902E+02  0.19131565313E+03  0.78722514064E+03  0.81559945092E+03  0.85679999833E+02 0.  0.
        254    2    1    2    0    0 -0.39195672902E+02 -0.19131565313E+03 -0.54980867780E+03  0.10922912961E+04  0.92340279051E+03 0.  0.
         23    2    4    4    0    0 -0.32458607533E+03  0.23134364382E+03 -0.34479346601E+03  0.53482271175E+03  0.90976903472E+02 0.  0.
         23    2    4    4    0    0  0.28539040243E+03 -0.42265929695E+03 -0.20501521179E+03  0.55746858439E+03  0.93013022834E+02 0.  0.
          4    1    3    3  502    0  0.50383919930E+01  0.15822865089E+03  0.68191642074E+03  0.70005120972E+03  0.00000000000E+00 0. -1.
         -3    1    3    3    0  502  0.34157280909E+02  0.33087002241E+02  0.10530871990E+03  0.11554824120E+03  0.00000000000E+00 0.  1.
         11    1    5    5    0    0 -0.87886273022E+01 -0.48091858695E+01  0.13656644887E+01  0.10111047329E+02  0.00000000000E+00 0. -1.
        -11    1    5    5    0    0 -0.31579744803E+03  0.23615282969E+03 -0.34615913050E+03  0.52471166442E+03  0.00000000000E+00 0.  1.
          3    1    6    6  503    0  0.65898410832E+02 -0.51476756341E+02 -0.10060684516E+02  0.84223953638E+02  0.00000000000E+00 0. -1.
         -3    1    6    6    0  503  0.21949199160E+03 -0.37118254061E+03 -0.19495452727E+03  0.47324463075E+03  0.00000000000E+00 0.  1.
<mgrwt>
<rscale>  0 0.18930612E+04</rscale>
<asrwt>0</asrwt>
<pdfrwt beam="1">  1        2 0.16502363E+00 0.18930612E+04</pdfrwt>
<pdfrwt beam="2">  1       -1 0.12849802E+00 0.18930612E+04</pdfrwt>
<totfact> 0.12646995E+01</totfact>
</mgrwt>
</event>
<event>
12    6  0.1450532E-007  0.2723727E+04  0.7818608E-02  0.8327347E-01
          2   -1    0    0  501    0  0.00000000000E+00  0.00000000000E+00  0.18305248626E+04  0.18305248626E+04  0.00000000000E+00 0. -1.
         -1   -1    0    0    0  501 -0.00000000000E+00 -0.00000000000E+00 -0.10131911688E+04  0.10131911688E+04  0.00000000000E+00 0.  1.
         24    2    1    2    0    0 -0.22755753341E+03  0.41528620085E+03 -0.79944987871E+03  0.93267167342E+03  0.80692516367E+02 0.  0.
        254    2    1    2    0    0  0.22755753341E+03 -0.41528620085E+03  0.16167835725E+04  0.19110443580E+04  0.90213987730E+03 0.  0.
         23    2    4    4    0    0  0.54524204717E+03 -0.17091478161E+03  0.71165715075E+03  0.91701914084E+03  0.89260584142E+02 0.  0.
         23    2    4    4    0    0 -0.31768451376E+03 -0.24437141925E+03  0.90512642175E+03  0.99402521713E+03  0.90506641340E+02 0.  0.
          4    1    3    3  502    0 -0.36129209117E+02  0.24566553511E+02 -0.53149223250E+02  0.68801709535E+02  0.00000000000E+00 0. -1.
         -3    1    3    3    0  502 -0.19142832429E+03  0.39071964734E+03 -0.74630065546E+03  0.86386996388E+03  0.00000000000E+00 0.  1.
         11    1    5    5    0    0  0.31728051232E+03 -0.12378819858E+03  0.48054892879E+03  0.58899721101E+03  0.00000000000E+00 0.  1.
        -11    1    5    5    0    0  0.22796153484E+03 -0.47126583029E+02  0.23110822196E+03  0.32802192983E+03  0.00000000000E+00 0. -1.
          4    1    6    6  503    0 -0.50280138134E+01  0.26996596504E+01  0.76218743969E+00  0.57576049560E+01  0.00000000000E+00 0.  1.
         -4    1    6    6    0  503 -0.31265649994E+03 -0.24707107890E+03  0.90436423431E+03  0.98826761218E+03  0.00000000000E+00 0. -1.
<mgrwt>
<rscale>  0 0.27237266E+04</rscale>
<asrwt>0</asrwt>
<pdfrwt beam="1">  1        2 0.28161921E+00 0.27237266E+04</pdfrwt>
<pdfrwt beam="2">  1       -1 0.15587556E+00 0.27237266E+04</pdfrwt>
<totfact> 0.25984106E+00</totfact>
</mgrwt>
</event>
<event>
12    6  0.1450532E-007  0.9704411E+03  0.7818608E-02  0.9341572E-01
          2   -1    0    0  501    0  0.00000000000E+00  0.00000000000E+00  0.13182524304E+04  0.13182524304E+04  0.00000000000E+00 0. -1.
         -1   -1    0    0    0  501 -0.00000000000E+00 -0.00000000000E+00 -0.17859931440E+03  0.17859931440E+03  0.00000000000E+00 0.  1.
         24    2    1    2    0    0 -0.36481330952E+01  0.10560866321E+03  0.35111738961E+03  0.37518273197E+03  0.79449118692E+02 0.  0.
        254    2    1    2    0    0  0.36481330952E+01 -0.10560866321E+03  0.78853572636E+03  0.11216690128E+04  0.79068722257E+03 0.  0.
         23    2    4    4    0    0 -0.29359623047E+03  0.12959804594E+03  0.13420695111E+03  0.36010566380E+03  0.93113819173E+02 0.  0.
         23    2    4    4    0    0  0.29724436356E+03 -0.23520670915E+03  0.65432877525E+03  0.76156334901E+03  0.90311575866E+02 0.  0.
          4    1    3    3  502    0  0.27501682539E+02  0.48810807058E+02  0.24098345508E+03  0.24741031314E+03  0.00000000000E+00 0. -1.
         -3    1    3    3    0  502 -0.31149815634E+02  0.56797856147E+02  0.11013393454E+03  0.12777241883E+03  0.00000000000E+00 0.  1.
         11    1    5    5    0    0 -0.69358222626E+02  0.17580737874E+02  0.72710209163E+02  0.10201186160E+03  0.00000000000E+00 0.  1.
        -11    1    5    5    0    0 -0.22423800784E+03  0.11201730807E+03  0.61496741945E+02  0.25809380220E+03  0.00000000000E+00 0. -1.
          3    1    6    6  503    0  0.20130662606E+03 -0.19895008257E+03  0.52574426253E+03  0.59708669608E+03  0.00000000000E+00 0. -1.
         -3    1    6    6    0  503  0.95937737504E+02 -0.36256626581E+02  0.12858451272E+03  0.16447665294E+03  0.00000000000E+00 0.  1.
<mgrwt>
<rscale>  0 0.97044110E+03</rscale>
<asrwt>0</asrwt>
<pdfrwt beam="1">  1        2 0.20280806E+00 0.97044110E+03</pdfrwt>
<pdfrwt beam="2">  1       -1 0.27476818E-01 0.97044110E+03</pdfrwt>
<totfact> 0.21835701E+02</totfact>
</mgrwt>
</event>
<event>
12    6  0.1450532E-007  0.2423728E+04  0.7818608E-02  0.8430673E-01
         -3   -1    0    0    0  501 -0.00000000000E+00  0.00000000000E+00  0.45376304858E+03  0.45376304858E+03  0.00000000000E+00 0.  1.
          2   -1    0    0  501    0  0.00000000000E+00 -0.00000000000E+00 -0.32365232291E+04  0.32365232291E+04  0.00000000000E+00 0. -1.
         24    2    1    2    0    0 -0.75364603980E+03  0.34600236655E+03 -0.21536757288E+04  0.23092283609E+04  0.80724760012E+02 0.  0.
        254    2    1    2    0    0  0.75364603980E+03 -0.34600236655E+03 -0.62908445175E+03  0.13810579168E+04  0.90767490394E+03 0.  0.
         23    2    4    4    0    0 -0.22044952129E+02  0.44079105068E+02  0.16971668955E+03  0.19787914037E+03  0.89013774572E+02 0.  0.
         23    2    4    4    0    0  0.77569099193E+03 -0.39008147162E+03 -0.79880114130E+03  0.11831787765E+04  0.89267487171E+02 0.  0.
          2    1    3    3  502    0 -0.72357596567E+03  0.32619650066E+03 -0.20958871190E+04  0.22411401453E+04  0.00000000000E+00 0. -1.
         -1    1    3    3    0  502 -0.30070074131E+02  0.19805865894E+02 -0.57788609801E+02  0.68088215609E+02  0.00000000000E+00 0.  1.
         11    1    5    5    0    0 -0.18647645063E+02  0.59076828751E+02  0.17154957011E+03  0.18239260228E+03  0.00000000000E+00 0.  1.
        -11    1    5    5    0    0 -0.33973070655E+01 -0.14997723683E+02 -0.18328805562E+01  0.15486538093E+02  0.00000000000E+00 0. -1.
          1    1    6    6  503    0  0.23095601997E+03 -0.78564195777E+02 -0.19453729438E+03  0.31202207441E+03  0.00000000000E+00 0. -1.
         -1    1    6    6    0  503  0.54473497196E+03 -0.31151727584E+03 -0.60426384692E+03  0.87115670205E+03  0.00000000000E+00 0.  1.
<mgrwt>
<rscale>  0 0.24237282E+04</rscale>
<asrwt>0</asrwt>
<pdfrwt beam="1">  1        2 0.49792663E+00 0.24237282E+04</pdfrwt>
<pdfrwt beam="2">  1       -3 0.69809703E-01 0.24237282E+04</pdfrwt>
<totfact> 0.13919521E+00</totfact>
</mgrwt>
</event>
<event>
12    6  0.1450532E-007  0.1288446E+04  0.7818608E-02  0.9038778E-01
         -1   -1    0    0    0  501 -0.00000000000E+00  0.00000000000E+00  0.19934315680E+03  0.19934315680E+03  0.00000000000E+00 0.  1.
          2   -1    0    0  501    0  0.00000000000E+00 -0.00000000000E+00 -0.20819532480E+04  0.20819532480E+04  0.00000000000E+00 0. -1.
         24    2    1    2    0    0  0.59672395695E+02  0.18091543925E+03 -0.93701675576E+03  0.95960634259E+03  0.80949003580E+02 0.  0.
        254    2    1    2    0    0 -0.59672395695E+02 -0.18091543925E+03 -0.94559333539E+03  0.13216900622E+04  0.90356332016E+03 0.  0.
         23    2    4    4    0    0  0.35166660763E+03 -0.84342938274E+02 -0.12368682806E+03  0.39295990778E+03  0.91301278893E+02 0.  0.
         23    2    4    4    0    0 -0.41133900332E+03 -0.96572500979E+02 -0.82190650734E+03  0.92873015440E+03  0.92105207736E+02 0.  0.
          2    1    3    3  502    0  0.10975577614E+02  0.76328718920E+02 -0.56140531111E+03  0.56667668028E+03  0.00000000000E+00 0. -1.
         -1    1    3    3    0  502  0.48696818081E+02  0.10458672033E+03 -0.37561144466E+03  0.39292966230E+03  0.00000000000E+00 0.  1.
         11    1    5    5    0    0  0.26935113621E+03 -0.97157583558E+02 -0.73193265516E+02  0.29554506380E+03  0.00000000000E+00 0.  1.
        -11    1    5    5    0    0  0.82315471419E+02  0.12814645284E+02 -0.50493562543E+02  0.97414843976E+02  0.00000000000E+00 0. -1.
          4    1    6    6  503    0 -0.56370623712E+00 -0.87216889080E+01 -0.41927248912E+02  0.42828493127E+02  0.00000000000E+00 0. -1.
         -4    1    6    6    0  503 -0.41077529708E+03 -0.87850812071E+02 -0.77997925842E+03  0.88590166127E+03  0.00000000000E+00 0.  1.
<mgrwt>
<rscale>  0 0.12884458E+04</rscale>
<asrwt>0</asrwt>
<pdfrwt beam="1">  1        2 0.32030048E+00 0.12884458E+04</pdfrwt>
<pdfrwt beam="2">  1       -1 0.30668180E-01 0.12884458E+04</pdfrwt>
<totfact> 0.66053000E+01</totfact>
</mgrwt>
</event>
<event>
12    6  0.1826466E-007  0.2019178E+04  0.7818608E-02  0.8597707E-01
          2   -1    0    0  501    0  0.00000000000E+00  0.00000000000E+00  0.12950135970E+04  0.12950135970E+04  0.00000000000E+00 0. -1.
         -1   -1    0    0    0  501 -0.00000000000E+00 -0.00000000000E+00 -0.78707241851E+03  0.78707241851E+03  0.00000000000E+00 0.  1.
         24    2    1    2    0    0  0.31453847745E+03  0.16243793115E+03  0.95742950482E+03  0.10241850866E+04  0.83446388057E+02 0.  0.
        254    2    1    2    0    0 -0.31453847745E+03 -0.16243793115E+03 -0.44948832628E+03  0.10579009289E+04  0.88982812089E+03 0.  0.
         23    2    4    4    0    0  0.94893658610E+02 -0.37424021289E+03 -0.43328874929E+03  0.58765527843E+03  0.92406940277E+02 0.  0.
         23    2    4    4    0    0 -0.40943213606E+03  0.21180228175E+03 -0.16199576995E+02  0.47024565052E+03  0.91507731581E+02 0.  0.
          4    1    3    3  502    0  0.23154667955E+03  0.87875517099E+02  0.58132483798E+03  0.63188174413E+03  0.00000000000E+00 0. -1.
         -1    1    3    3    0  502  0.82991797908E+02  0.74562414047E+02  0.37610466683E+03  0.39230334248E+03  0.00000000000E+00 0.  1.
         11    1    5    5    0    0 -0.47505109217E+01 -0.16072815637E+02 -0.35526202804E-01  0.16760191485E+02  0.00000000000E+00 0. -1.
        -11    1    5    5    0    0  0.99644169532E+02 -0.35816739726E+03 -0.43325322308E+03  0.57089508694E+03  0.00000000000E+00 0.  1.
          4    1    6    6  503    0 -0.23567932044E+02  0.45365803142E+01 -0.21476615673E+02  0.32206722940E+02  0.00000000000E+00 0. -1.
         -4    1    6    6    0  503 -0.38586420402E+03  0.20726570143E+03  0.52770386776E+01  0.43803892758E+03  0.00000000000E+00 0.  1.
<mgrwt>
<rscale>  0 0.20191775E+04</rscale>
<asrwt>0</asrwt>
<pdfrwt beam="1">  1        2 0.19923286E+00 0.20191775E+04</pdfrwt>
<pdfrwt beam="2">  1       -1 0.12108806E+00 0.20191775E+04</pdfrwt>
<totfact> 0.10656111E+01</totfact>
</mgrwt>
</event>
<event>
12    6  0.1450532E-007  0.1124525E+04  0.7818608E-02  0.9181612E-01
          2   -1    0    0  501    0  0.00000000000E+00  0.00000000000E+00  0.10880308929E+04  0.10880308929E+04  0.00000000000E+00 0. -1.
         -1   -1    0    0    0  501 -0.00000000000E+00 -0.00000000000E+00 -0.29056079802E+03  0.29056079802E+03  0.00000000000E+00 0.  1.
         24    2    1    2    0    0  0.44270276460E+02 -0.13936716033E+03  0.26078979010E+03  0.30930321023E+03  0.79209207041E+02 0.  0.
        254    2    1    2    0    0 -0.44270276460E+02  0.13936716033E+03  0.53668030478E+03  0.10692884807E+04  0.91321905514E+03 0.  0.
         23    2    4    4    0    0  0.42501988086E+03  0.74678833533E+02  0.28550996279E+03  0.52548433020E+03  0.91646140846E+02 0.  0.
         23    2    4    4    0    0 -0.46929015732E+03  0.64688326794E+02  0.25117034198E+03  0.54380415050E+03  0.90656395392E+02 0.  0.
          4    1    3    3  502    0  0.95873848489E+01 -0.12090725211E+03  0.22748034229E+03  0.25779408001E+03  0.00000000000E+00 0. -1.
         -3    1    3    3    0  502  0.34682891612E+02 -0.18459908220E+02  0.33309447809E+02  0.51509130213E+02  0.00000000000E+00 0.  1.
         11    1    5    5    0    0  0.12450762520E+03  0.64704128496E+02  0.84276341419E+02  0.16368040415E+03  0.00000000000E+00 0.  1.
        -11    1    5    5    0    0  0.30051225565E+03  0.99747050373E+01  0.20123362138E+03  0.36180392606E+03  0.00000000000E+00 0. -1.
          3    1    6    6  503    0 -0.40805850138E+03  0.67702238211E+02  0.18355736667E+03  0.45253578915E+03  0.00000000000E+00 0. -1.
         -3    1    6    6    0  503 -0.61231655938E+02 -0.30139114165E+01  0.67612975317E+02  0.91268361343E+02  0.00000000000E+00 0.  1.
<mgrwt>
<rscale>  0 0.11245250E+04</rscale>
<asrwt>0</asrwt>
<pdfrwt beam="1">  1        2 0.16738937E+00 0.11245250E+04</pdfrwt>
<pdfrwt beam="2">  1       -1 0.44701662E-01 0.11245250E+04</pdfrwt>
<totfact> 0.12415370E+02</totfact>
</mgrwt>
</event>
<event>
12    6  0.1450532E-007  0.1798436E+04  0.7818608E-02  0.8707131E-01
          2   -1    0    0  501    0  0.00000000000E+00  0.00000000000E+00  0.99692367546E+03  0.99692367546E+03  0.00000000000E+00 0. -1.
         -1   -1    0    0    0  501 -0.00000000000E+00 -0.00000000000E+00 -0.81108863118E+03  0.81108863118E+03  0.00000000000E+00 0.  1.
         24    2    1    2    0    0 -0.21839693557E+03 -0.16718247196E+03 -0.54071788489E+03  0.61156738805E+03  0.77405676126E+02 0.  0.
        254    2    1    2    0    0  0.21839693557E+03  0.16718247196E+03  0.72655292917E+03  0.11964449186E+04  0.90991982282E+03 0.  0.
         23    2    4    4    0    0 -0.14203246752E+03 -0.15909554960E+03 -0.84947292706E+02  0.24569791171E+03  0.87560296624E+02 0.  0.
         23    2    4    4    0    0  0.36042940309E+03  0.32627802156E+03  0.81150022188E+03  0.95074700689E+03  0.94976623615E+02 0.  0.
          2    1    3    3  502    0 -0.69505921432E+02 -0.97868464684E+02 -0.19833641655E+03  0.23183322372E+03  0.00000000000E+00 0. -1.
         -1    1    3    3    0  502 -0.14889101414E+03 -0.69314007274E+02 -0.34238146834E+03  0.37973416433E+03  0.00000000000E+00 0.  1.
         11    1    5    5    0    0 -0.15370240619E+02 -0.54872716644E+02  0.73938480349E+01  0.57462407862E+02  0.00000000000E+00 0. -1.
        -11    1    5    5    0    0 -0.12666222690E+03 -0.10422283296E+03 -0.92341140741E+02  0.18823550385E+03  0.00000000000E+00 0.  1.
          4    1    6    6  503    0  0.11341462932E+03  0.12417161016E+03  0.36529485155E+03  0.40214648510E+03  0.00000000000E+00 0. -1.
         -4    1    6    6    0  503  0.24701477378E+03  0.20210641140E+03  0.44620537032E+03  0.54860052178E+03  0.00000000000E+00 0.  1.
<mgrwt>
<rscale>  0 0.17984365E+04</rscale>
<asrwt>0</asrwt>
<pdfrwt beam="1">  1        2 0.15337287E+00 0.17984365E+04</pdfrwt>
<pdfrwt beam="2">  1       -1 0.12478287E+00 0.17984365E+04</pdfrwt>
<totfact> 0.15322019E+01</totfact>
</mgrwt>
</event>
<event>
12    6  0.1450532E-007  0.2958234E+04  0.7818608E-02  0.8255759E-01
         -1   -1    0    0    0  501 -0.00000000000E+00  0.00000000000E+00  0.12324124339E+04  0.12324124339E+04  0.00000000000E+00 0.  1.
          2   -1    0    0  501    0  0.00000000000E+00 -0.00000000000E+00 -0.17752070363E+04  0.17752070363E+04  0.00000000000E+00 0. -1.
         24    2    1    2    0    0 -0.12371536055E+04  0.43282907091E+03  0.17567449454E+02  0.13130465595E+04  0.76763298809E+02 0.  0.
        254    2    1    2    0    0  0.12371536055E+04 -0.43282907091E+03 -0.56036205185E+03  0.16945729107E+04  0.91634146062E+03 0.  0.
         23    2    4    4    0    0  0.68489103017E+03 -0.67411138576E+03 -0.48495975239E+03  0.10801570135E+04  0.89729197362E+02 0.  0.
         23    2    4    4    0    0  0.55226257532E+03  0.24128231485E+03 -0.75402299460E+02  0.61441589719E+03  0.92791596617E+02 0.  0.
          2    1    3    3  502    0 -0.10940150932E+04  0.38927557220E+03  0.39217631933E+02  0.11618702673E+04  0.00000000000E+00 0. -1.
         -1    1    3    3    0  502 -0.14313851226E+03  0.43553498708E+02 -0.21650182479E+02  0.15117629227E+03  0.00000000000E+00 0.  1.
         11    1    5    5    0    0  0.64318016183E+03 -0.65370752703E+03 -0.47452961191E+03  0.10325660289E+04  0.00000000000E+00 0.  1.
        -11    1    5    5    0    0  0.41710868340E+02 -0.20403858726E+02 -0.10430140477E+02  0.47590984639E+02  0.00000000000E+00 0. -1.
          3    1    6    6  503    0  0.27166456524E+03  0.10178335697E+03  0.77515500080E+01  0.29020953514E+03  0.00000000000E+00 0. -1.
         -3    1    6    6    0  503  0.28059801008E+03  0.13949895788E+03 -0.83153849468E+02  0.32420636205E+03  0.00000000000E+00 0.  1.
<mgrwt>
<rscale>  0 0.29582341E+04</rscale>
<asrwt>0</asrwt>
<pdfrwt beam="1">  1        2 0.27310877E+00 0.29582341E+04</pdfrwt>
<pdfrwt beam="2">  1       -1 0.18960191E+00 0.29582341E+04</pdfrwt>
<totfact> 0.15484603E+00</totfact>
</mgrwt>
</event>
<event>
12    6  0.1450532E-007  0.3088760E+04  0.7818608E-02  0.8218829E-01
          2   -1    0    0  501    0  0.00000000000E+00  0.00000000000E+00  0.24491866963E+04  0.24491866963E+04  0.00000000000E+00 0. -1.
         -1   -1    0    0    0  501 -0.00000000000E+00 -0.00000000000E+00 -0.97383750382E+03  0.97383750382E+03  0.00000000000E+00 0.  1.
         24    2    1    2    0    0 -0.42999778030E+03 -0.11691292159E+04  0.14141393199E+04  0.18865236050E+04  0.86139896206E+02 0.  0.
        254    2    1    2    0    0  0.42999778030E+03  0.11691292159E+04  0.61209872584E+02  0.15365005951E+04  0.89739969680E+03 0.  0.
         23    2    4    4    0    0  0.42443280188E+03  0.12814698180E+04  0.15865145950E+03  0.13620805856E+04  0.88233430283E+02 0.  0.
         23    2    4    4    0    0  0.55649784188E+01 -0.11234060216E+03 -0.97441586917E+02  0.17442000952E+03  0.90973056356E+02 0.  0.
          4    1    3    3  502    0 -0.36043838737E+03 -0.87527839334E+03  0.10829069930E+04  0.14383030461E+04  0.00000000000E+00 0. -1.
         -3    1    3    3    0  502 -0.69559392930E+02 -0.29385082253E+03  0.33123232690E+03  0.44822055891E+03  0.00000000000E+00 0.  1.
         11    1    5    5    0    0  0.75513155610E+02  0.16673230170E+03  0.45070197802E+02  0.18850257248E+03  0.00000000000E+00 0. -1.
        -11    1    5    5    0    0  0.34891964628E+03  0.11147375163E+04  0.11358126170E+03  0.11735780131E+04  0.00000000000E+00 0.  1.
          1    1    6    6  503    0 -0.16793346369E+02  0.73061157492E+01  0.29864071995E+00  0.18316249504E+02  0.00000000000E+00 0. -1.
         -1    1    6    6    0  503  0.22358324788E+02 -0.11964671791E+03 -0.97740227637E+02  0.15610376002E+03  0.00000000000E+00 0.  1.
<mgrwt>
<rscale>  0 0.30887602E+04</rscale>
<asrwt>0</asrwt>
<pdfrwt beam="1">  1        2 0.37679795E+00 0.30887602E+04</pdfrwt>
<pdfrwt beam="2">  1       -1 0.14982116E+00 0.30887602E+04</pdfrwt>
<totfact> 0.12590962E+00</totfact>
</mgrwt>
</event>
<event>
12    6  0.1450532E-007  0.1171904E+04  0.7818608E-02  0.9137811E-01
          2   -1    0    0  501    0  0.00000000000E+00  0.00000000000E+00  0.11590640815E+04  0.11590640815E+04  0.00000000000E+00 0. -1.
         -1   -1    0    0    0  501 -0.00000000000E+00 -0.00000000000E+00 -0.29622150986E+03  0.29622150986E+03  0.00000000000E+00 0.  1.
         24    2    1    2    0    0  0.96424052820E+02  0.77872047494E+02  0.43966502354E+03  0.46317812061E+03  0.76596244933E+02 0.  0.
        254    2    1    2    0    0 -0.96424052820E+02 -0.77872047494E+02  0.42317754806E+03  0.99210747071E+03  0.88872737243E+03 0.  0.
         23    2    4    4    0    0 -0.33153882411E+02 -0.12806520057E+02  0.68963115714E+03  0.69621511109E+03  0.88663189285E+02 0.  0.
         23    2    4    4    0    0 -0.63270170409E+02 -0.65065527438E+02 -0.26645360909E+03  0.29589235962E+03  0.91203757385E+02 0.  0.
          2    1    3    3  502    0  0.10316139067E+03  0.47983402115E+02  0.36938510395E+03  0.38651007027E+03  0.00000000000E+00 0. -1.
         -1    1    3    3    0  502 -0.67373378446E+01  0.29888645380E+02  0.70279919596E+02  0.76668050336E+02  0.00000000000E+00 0.  1.
         11    1    5    5    0    0  0.73397905257E+01  0.17826046352E+02  0.38014917866E+02  0.42623637033E+02  0.00000000000E+00 0. -1.
        -11    1    5    5    0    0 -0.40493672937E+02 -0.30632566409E+02  0.65161623928E+03  0.65359147406E+03  0.00000000000E+00 0.  1.
          2    1    6    6  503    0 -0.67775485680E+02 -0.88093246266E+01 -0.10926716748E+03  0.12888147481E+03  0.00000000000E+00 0. -1.
         -2    1    6    6    0  503  0.45053152710E+01 -0.56256202811E+02 -0.15718644160E+03  0.16701088481E+03  0.00000000000E+00 0.  1.
<mgrwt>
<rscale>  0 0.11719039E+04</rscale>
<asrwt>0</asrwt>
<pdfrwt beam="1">  1        2 0.17831755E+00 0.11719039E+04</pdfrwt>
<pdfrwt beam="2">  1       -1 0.45572540E-01 0.11719039E+04</pdfrwt>
<totfact> 0.10800552E+02</totfact>
</mgrwt>
</event>
<event>
12    6  0.1450532E-007  0.1475521E+04  0.7818608E-02  0.8900896E-01
         -1   -1    0    0    0  501 -0.00000000000E+00  0.00000000000E+00  0.38716450610E+03  0.38716450610E+03  0.00000000000E+00 0.  1.
          2   -1    0    0  501    0  0.00000000000E+00 -0.00000000000E+00 -0.14058381746E+04  0.14058381746E+04  0.00000000000E+00 0. -1.
         24    2    1    2    0    0 -0.45918814696E+03 -0.32437201591E+01 -0.42761946794E+03  0.63285073689E+03  0.82324782343E+02 0.  0.
        254    2    1    2    0    0  0.45918814696E+03  0.32437201591E+01 -0.59105420055E+03  0.11601519438E+04  0.88642156377E+03 0.  0.
         23    2    4    4    0    0  0.64343946839E+03 -0.22066948578E+03 -0.34024801107E+03  0.76655273463E+03  0.95524941795E+02 0.  0.
         23    2    4    4    0    0 -0.18425132143E+03  0.22391320594E+03 -0.25080618948E+03  0.39359920917E+03  0.89055710318E+02 0.  0.
          2    1    3    3  502    0 -0.33452380421E+03 -0.13060307610E+02 -0.26084906851E+03  0.42440426925E+03  0.00000000000E+00 0. -1.
         -1    1    3    3    0  502 -0.12466434275E+03  0.98165874509E+01 -0.16677039943E+03  0.20844646763E+03  0.00000000000E+00 0.  1.
         11    1    5    5    0    0  0.45919210337E+03 -0.11088826589E+03 -0.23767915761E+03  0.52881469086E+03  0.00000000000E+00 0. -1.
        -11    1    5    5    0    0  0.18424736502E+03 -0.10978121989E+03 -0.10256885346E+03  0.23773804378E+03  0.00000000000E+00 0.  1.
          1    1    6    6  503    0 -0.26813555868E+02  0.86581582920E+00 -0.42220045913E+02  0.50022481868E+02  0.00000000000E+00 0. -1.
         -1    1    6    6    0  503 -0.15743776556E+03  0.22304739011E+03 -0.20858614357E+03  0.34357672731E+03  0.00000000000E+00 0.  1.
<mgrwt>
<rscale>  0 0.14755211E+04</rscale>
<asrwt>0</asrwt>
<pdfrwt beam="1">  1        2 0.21628279E+00 0.14755211E+04</pdfrwt>
<pdfrwt beam="2">  1       -1 0.59563772E-01 0.14755211E+04</pdfrwt>
<totfact> 0.45264263E+01</totfact>
</mgrwt>
</event>
<event>
12    6  0.1450532E-007  0.1246911E+04  0.7818608E-02  0.9072758E-01
         -1   -1    0    0    0  501 -0.00000000000E+00  0.00000000000E+00  0.11535311621E+04  0.11535311621E+04  0.00000000000E+00 0.  1.
          2   -1    0    0  501    0  0.00000000000E+00 -0.00000000000E+00 -0.33696260721E+03  0.33696260721E+03  0.00000000000E+00 0. -1.
         24    2    1    2    0    0 -0.18302920623E+03  0.74509603909E+02 -0.63537153088E+02  0.22151340034E+03  0.77329459448E+02 0.  0.
        254    2    1    2    0    0  0.18302920623E+03 -0.74509603909E+02  0.88010570797E+03  0.12689803690E+04  0.89256582288E+03 0.  0.
         23    2    4    4    0    0  0.49597499487E+02  0.34070064465E+03  0.70428480212E+03  0.79001065030E+03  0.97790101087E+02 0.  0.
         23    2    4    4    0    0  0.13343170675E+03 -0.41521024856E+03  0.17582090585E+03  0.47896971866E+03  0.91079248926E+02 0.  0.
          4    1    3    3  502    0 -0.70293498270E+02 -0.80850938719E+01 -0.83119160644E+01  0.71243474021E+02  0.00000000000E+00 0. -1.
         -3    1    3    3    0  502 -0.11273570796E+03  0.82594697781E+02 -0.55225237024E+02  0.15026992632E+03  0.00000000000E+00 0.  1.
         11    1    5    5    0    0 -0.15216973565E+02  0.26209656749E+02  0.11493222919E+03  0.11886092587E+03  0.00000000000E+00 0. -1.
        -11    1    5    5    0    0  0.64814473053E+02  0.31449098790E+03  0.58935257293E+03  0.67114972443E+03  0.00000000000E+00 0.  1.
          1    1    6    6  503    0  0.29604228090E+02 -0.77352040094E+02  0.74198656513E+02  0.11119887165E+03  0.00000000000E+00 0. -1.
         -1    1    6    6    0  503  0.10382747866E+03 -0.33785820846E+03  0.10162224934E+03  0.36777084701E+03  0.00000000000E+00 0.  1.
<mgrwt>
<rscale>  0 0.12469112E+04</rscale>
<asrwt>0</asrwt>
<pdfrwt beam="1">  1        2 0.51840402E-01 0.12469112E+04</pdfrwt>
<pdfrwt beam="2">  1       -1 0.17746633E+00 0.12469112E+04</pdfrwt>
<totfact> 0.23576755E+01</totfact>
</mgrwt>
</event>
<event>
12    6  0.1450532E-007  0.1296921E+04  0.7818608E-02  0.9032010E-01
          2   -1    0    0  501    0  0.00000000000E+00  0.00000000000E+00  0.15824409701E+04  0.15824409701E+04  0.00000000000E+00 0. -1.
         -1   -1    0    0    0  501 -0.00000000000E+00 -0.00000000000E+00 -0.26572938194E+03  0.26572938194E+03  0.00000000000E+00 0.  1.
         24    2    1    2    0    0  0.10474451178E+03 -0.45091108561E+02  0.78780855079E+03  0.80015700320E+03  0.81266821408E+02 0.  0.
        254    2    1    2    0    0 -0.10474451178E+03  0.45091108561E+02  0.52890303736E+03  0.10480133488E+04  0.89754606319E+03 0.  0.
         23    2    4    4    0    0  0.30463301749E+03 -0.33530014169E+02 -0.54921537199E+02  0.32512066884E+03  0.93603081486E+02 0.  0.
         23    2    4    4    0    0 -0.40937752927E+03  0.78621122730E+02  0.58382457456E+03  0.72289267997E+03  0.89170906075E+02 0.  0.
          2    1    3    3  502    0  0.65378079953E+02 -0.22102267549E+02  0.67450420309E+03  0.67802560686E+03  0.00000000000E+00 0. -1.
         -1    1    3    3    0  502  0.39366431831E+02 -0.22988841012E+02  0.11330434770E+03  0.12213139635E+03  0.00000000000E+00 0.  1.
         11    1    5    5    0    0  0.22079610382E+03 -0.62163192000E+02 -0.21312130205E+02  0.23036794220E+03  0.00000000000E+00 0. -1.
        -11    1    5    5    0    0  0.83836913670E+02  0.28633177831E+02 -0.33609406993E+02  0.94752726635E+02  0.00000000000E+00 0.  1.
          3    1    6    6  503    0 -0.58556830704E+02 -0.35584200043E+01  0.13597365123E+03  0.14808915762E+03  0.00000000000E+00 0. -1.
         -3    1    6    6    0  503 -0.35082069857E+03  0.82179542734E+02  0.44785092332E+03  0.57480352235E+03  0.00000000000E+00 0.  1.
<mgrwt>
<rscale>  0 0.12969211E+04</rscale>
<asrwt>0</asrwt>
<pdfrwt beam="1">  1        2 0.24345245E+00 0.12969211E+04</pdfrwt>
<pdfrwt beam="2">  1       -1 0.40881444E-01 0.12969211E+04</pdfrwt>
<totfact> 0.74547804E+01</totfact>
</mgrwt>
</event>
<event>
12    6  0.1450532E-007  0.1993168E+04  0.7818608E-02  0.8609821E-01
          2   -1    0    0  501    0  0.00000000000E+00  0.00000000000E+00  0.76013569535E+03  0.76013569535E+03  0.00000000000E+00 0. -1.
         -1   -1    0    0    0  501 -0.00000000000E+00 -0.00000000000E+00 -0.13065825047E+04  0.13065825047E+04  0.00000000000E+00 0.  1.
         24    2    1    2    0    0 -0.20900853258E+02  0.47488810123E+03 -0.88046579092E+03  0.10020516514E+04  0.54147471434E+02 0.  0.
        254    2    1    2    0    0  0.20900853258E+02 -0.47488810123E+03  0.33401898153E+03  0.10646665487E+04  0.89218306731E+03 0.  0.
         23    2    4    4    0    0 -0.37759591881E+03 -0.37761364880E+03  0.22712104806E+02  0.54217890971E+03  0.90947153730E+02 0.  0.
         23    2    4    4    0    0  0.39849677207E+03 -0.97274452428E+02  0.31130687673E+03  0.52248763901E+03  0.88427173316E+02 0.  0.
          4    1    3    3  502    0 -0.20811803960E+01  0.30074114648E+01 -0.96968032903E+00  0.37836642954E+01  0.00000000000E+00 0. -1.
         -3    1    3    3    0  502 -0.18819672862E+02  0.47188068976E+03 -0.87949611059E+03  0.99826798707E+03  0.00000000000E+00 0.  1.
         11    1    5    5    0    0 -0.24273765639E+03 -0.17893507751E+03  0.10529732405E+02  0.30174526849E+03  0.00000000000E+00 0.  1.
        -11    1    5    5    0    0 -0.13485826242E+03 -0.19867857129E+03  0.12182372401E+02  0.24043364122E+03  0.00000000000E+00 0. -1.
          3    1    6    6  503    0  0.26291229218E+03 -0.65403897618E+02  0.25564186674E+03  0.37249604995E+03  0.00000000000E+00 0. -1.
         -3    1    6    6    0  503  0.13558447989E+03 -0.31870554810E+02  0.55665009983E+02  0.14999158906E+03  0.00000000000E+00 0.  1.
<mgrwt>
<rscale>  0 0.19931683E+04</rscale>
<asrwt>0</asrwt>
<pdfrwt beam="1">  1        2 0.11694395E+00 0.19931683E+04</pdfrwt>
<pdfrwt beam="2">  1       -1 0.20101269E+00 0.19931683E+04</pdfrwt>
<totfact> 0.57898188E+00</totfact>
</mgrwt>
</event>
<event>
12    6  0.1450532E-007  0.2039870E+04  0.7818608E-02  0.8588204E-01
         -1   -1    0    0    0  501 -0.00000000000E+00  0.00000000000E+00  0.53400627768E+03  0.53400627768E+03  0.00000000000E+00 0.  1.
          2   -1    0    0  501    0  0.00000000000E+00 -0.00000000000E+00 -0.19480433328E+04  0.19480433328E+04  0.00000000000E+00 0. -1.
         24    2    1    2    0    0  0.38164069113E+03 -0.11686814035E+03  0.29900651813E+03  0.50521166425E+03  0.80784580547E+02 0.  0.
        254    2    1    2    0    0 -0.38164069113E+03  0.11686814035E+03 -0.17130435733E+04  0.19768379462E+04  0.90225395676E+03 0.  0.
         23    2    4    4    0    0 -0.35645896590E+03  0.47428554057E+03 -0.87895690339E+03  0.10645367350E+04  0.93077675763E+02 0.  0.
         23    2    4    4    0    0 -0.25181725234E+02 -0.35741740022E+03 -0.83408666986E+03  0.91230121127E+03  0.90617934054E+02 0.  0.
          4    1    3    3  502    0 -0.19132450653E+01  0.37367095847E+01  0.84017026716E-01  0.41988765236E+01  0.00000000000E+00 0. -1.
         -3    1    3    3    0  502  0.38355393620E+03 -0.12060484993E+03  0.29892250110E+03  0.50101278772E+03  0.00000000000E+00 0.  1.
         11    1    5    5    0    0 -0.20160877476E+02  0.19927914233E+02 -0.14966421012E+02  0.32055834167E+02  0.00000000000E+00 0.  1.
        -11    1    5    5    0    0 -0.33629808842E+03  0.45435762634E+03 -0.86399048238E+03  0.10324809008E+04  0.00000000000E+00 0. -1.
          3    1    6    6  503    0 -0.31174698287E+02 -0.16993848861E+03 -0.50201694713E+03  0.53091615809E+03  0.00000000000E+00 0. -1.
         -3    1    6    6    0  503  0.59929730536E+01 -0.18747891162E+03 -0.33206972274E+03  0.38138505317E+03  0.00000000000E+00 0.  1.
<mgrwt>
<rscale>  0 0.20398700E+04</rscale>
<asrwt>0</asrwt>
<pdfrwt beam="1">  1        2 0.29969898E+00 0.20398700E+04</pdfrwt>
<pdfrwt beam="2">  1       -1 0.82154811E-01 0.20398700E+04</pdfrwt>
<totfact> 0.11094318E+01</totfact>
</mgrwt>
</event>
<event>
12    6  0.1450532E-007  0.1846923E+04  0.7818608E-02  0.8681737E-01
         -1   -1    0    0    0  501 -0.00000000000E+00  0.00000000000E+00  0.35118471778E+03  0.35118471778E+03  0.00000000000E+00 0.  1.
          2   -1    0    0  501    0  0.00000000000E+00 -0.00000000000E+00 -0.24282974083E+04  0.24282974083E+04  0.00000000000E+00 0. -1.
         24    2    1    2    0    0 -0.62945073108E+03  0.11099106292E+03 -0.12335545867E+04  0.13911500504E+04  0.71514372292E+02 0.  0.
        254    2    1    2    0    0  0.62945073108E+03 -0.11099106292E+03 -0.84355810379E+03  0.13883320757E+04  0.89852570297E+03 0.  0.
         23    2    4    4    0    0  0.19346947359E+03 -0.32484504063E+02 -0.90633843011E+03  0.93199797682E+03  0.93194413390E+02 0.  0.
         23    2    4    4    0    0  0.43598125749E+03 -0.78506558860E+02  0.62780326322E+02  0.45633409883E+03  0.89758028697E+02 0.  0.
          4    1    3    3  502    0 -0.62454546783E+03  0.10737767835E+03 -0.12000401685E+04  0.13570863691E+04  0.00000000000E+00 0. -1.
         -3    1    3    3    0  502 -0.49052632508E+01  0.36133845725E+01 -0.33514418247E+02  0.34063681334E+02  0.00000000000E+00 0.  1.
         11    1    5    5    0    0  0.39988118556E+02  0.13077708743E+01 -0.39583193291E+03  0.39784881426E+03  0.00000000000E+00 0.  1.
        -11    1    5    5    0    0  0.15348135504E+03 -0.33792274938E+02 -0.51050649720E+03  0.53414916257E+03  0.00000000000E+00 0. -1.
          4    1    6    6  503    0  0.34317831508E+03 -0.68247824294E+02  0.85600871219E+02  0.36021747684E+03  0.00000000000E+00 0. -1.
         -4    1    6    6    0  503  0.92802942404E+02 -0.10258734566E+02 -0.22820544898E+02  0.96116621992E+02  0.00000000000E+00 0.  1.
<mgrwt>
<rscale>  0 0.18469228E+04</rscale>
<asrwt>0</asrwt>
<pdfrwt beam="1">  1        2 0.37358421E+00 0.18469228E+04</pdfrwt>
<pdfrwt beam="2">  1       -1 0.54028419E-01 0.18469228E+04</pdfrwt>
<totfact> 0.14193955E+01</totfact>
</mgrwt>
</event>
<event>
12    6  0.1450532E-007  0.2238130E+04  0.7818608E-02  0.8502723E-01
         -1   -1    0    0    0  501 -0.00000000000E+00  0.00000000000E+00  0.35894581844E+03  0.35894581844E+03  0.00000000000E+00 0.  1.
          2   -1    0    0  501    0  0.00000000000E+00 -0.00000000000E+00 -0.34888440668E+04  0.34888440668E+04  0.00000000000E+00 0. -1.
         24    2    1    2    0    0  0.20138307902E+03  0.59739481825E+03 -0.25211099394E+04  0.25999818307E+04  0.80464151413E+02 0.  0.
        254    2    1    2    0    0 -0.20138307902E+03 -0.59739481825E+03 -0.60878830889E+03  0.12478080546E+04  0.88823759355E+03 0.  0.
         23    2    4    4    0    0 -0.52877323164E+03 -0.40731726177E+03 -0.25065581127E+03  0.71877853957E+03  0.91136002753E+02 0.  0.
         23    2    4    4    0    0  0.32739015262E+03 -0.19007755648E+03 -0.35813249762E+03  0.52902951499E+03  0.91101879020E+02 0.  0.
          2    1    3    3  502    0  0.87340324283E+02  0.16418380203E+03 -0.65822746421E+03  0.68399418692E+03  0.00000000000E+00 0. -1.
         -1    1    3    3    0  502  0.11404275473E+03  0.43321101622E+03 -0.18628824752E+04  0.19159876438E+04  0.00000000000E+00 0.  1.
         11    1    5    5    0    0 -0.47414510751E+02 -0.13222747890E+02 -0.34818842564E+02  0.60293686975E+02  0.00000000000E+00 0. -1.
        -11    1    5    5    0    0 -0.48135872089E+03 -0.39409451387E+03 -0.21583696870E+03  0.65848485260E+03  0.00000000000E+00 0.  1.
          3    1    6    6  503    0  0.28145591456E+03 -0.18651519182E+03 -0.34098174325E+03  0.47986862562E+03  0.00000000000E+00 0.  1.
         -3    1    6    6    0  503  0.45934238059E+02 -0.35623646629E+01 -0.17150754374E+02  0.49160889370E+02  0.00000000000E+00 0. -1.
<mgrwt>
<rscale>  0 0.22381296E+04</rscale>
<asrwt>0</asrwt>
<pdfrwt beam="1">  1        2 0.53674522E+00 0.22381296E+04</pdfrwt>
<pdfrwt beam="2">  1       -1 0.55222436E-01 0.22381296E+04</pdfrwt>
<totfact> 0.28535330E+00</totfact>
</mgrwt>
</event>
<event>
12    6  0.1450532E-007  0.1612810E+04  0.7818608E-02  0.8812717E-01
         -1   -1    0    0    0  501 -0.00000000000E+00  0.00000000000E+00  0.53092195023E+03  0.53092195023E+03  0.00000000000E+00 0.  1.
          2   -1    0    0  501    0  0.00000000000E+00 -0.00000000000E+00 -0.12248293159E+04  0.12248293159E+04  0.00000000000E+00 0. -1.
         24    2    1    2    0    0  0.16200366222E+03 -0.39019278654E+03 -0.62712912373E+03  0.76045392235E+03  0.80645104859E+02 0.  0.
        254    2    1    2    0    0 -0.16200366222E+03  0.39019278654E+03 -0.66778241902E+02  0.99529734375E+03  0.89870010105E+03 0.  0.
         23    2    4    4    0    0  0.72079133306E+01  0.55218316990E+03 -0.31476527188E+03  0.64211583130E+03  0.90979982902E+02 0.  0.
         23    2    4    4    0    0 -0.16921157555E+03 -0.16199038336E+03  0.24798702998E+03  0.35318151245E+03  0.91466781373E+02 0.  0.
          4    1    3    3  502    0  0.15554591908E+03 -0.34873834838E+03 -0.59747901935E+03  0.70907978898E+03  0.00000000000E+00 0. -1.
         -3    1    3    3    0  502  0.64577431472E+01 -0.41454438156E+02 -0.29650104381E+02  0.51374133367E+02  0.00000000000E+00 0.  1.
         11    1    5    5    0    0  0.18164428267E+02  0.25923203969E+02 -0.71667794270E+01  0.32454917742E+02  0.00000000000E+00 0. -1.
        -11    1    5    5    0    0 -0.10956514936E+02  0.52625996593E+03 -0.30759849245E+03  0.60966091356E+03  0.00000000000E+00 0.  1.
          1    1    6    6  503    0 -0.41255251539E+02 -0.37899512441E+02  0.11744278188E+02  0.57238945597E+02  0.00000000000E+00 0. -1.
         -1    1    6    6    0  503 -0.12795632401E+03 -0.12409087092E+03  0.23624275179E+03  0.29594256685E+03  0.00000000000E+00 0.  1.
<mgrwt>
<rscale>  0 0.16128097E+04</rscale>
<asrwt>0</asrwt>
<pdfrwt beam="1">  1        2 0.18843527E+00 0.16128097E+04</pdfrwt>
<pdfrwt beam="2">  1       -1 0.81680302E-01 0.16128097E+04</pdfrwt>
<totfact> 0.29837320E+01</totfact>
</mgrwt>
</event>
<event>
12    6  0.1450532E-007  0.3537796E+04  0.7818608E-02  0.8104891E-01
         -1   -1    0    0    0  501 -0.00000000000E+00  0.00000000000E+00  0.10212159888E+04  0.10212159888E+04  0.00000000000E+00 0.  1.
          2   -1    0    0  501    0  0.00000000000E+00 -0.00000000000E+00 -0.30639936253E+04  0.30639936253E+04  0.00000000000E+00 0. -1.
         24    2    1    2    0    0  0.89488133009E+03  0.53399466776E+03 -0.24325031873E+04  0.26477002083E+04  0.85333093906E+02 0.  0.
        254    2    1    2    0    0 -0.89488133009E+03 -0.53399466776E+03  0.38972555079E+03  0.14375094057E+04  0.91026610754E+03 0.  0.
         23    2    4    4    0    0 -0.10492617356E+03 -0.42613833048E+03  0.44658028478E+03  0.63294368344E+03  0.92630324692E+02 0.  0.
         23    2    4    4    0    0 -0.78995515653E+03 -0.10785633729E+03 -0.56854733991E+02  0.80456572231E+03  0.91822665571E+02 0.  0.
          4    1    3    3  502    0  0.78618397874E+03  0.49398018564E+03 -0.22013158113E+04  0.23891197067E+04  0.00000000000E+00 0. -1.
         -3    1    3    3    0  502  0.10869735135E+03  0.40014482118E+02 -0.23118737599E+03  0.25858050156E+03  0.00000000000E+00 0.  1.
         11    1    5    5    0    0 -0.38122098535E+02 -0.11351652360E+03  0.18258202638E+03  0.21834718199E+03  0.00000000000E+00 0. -1.
        -11    1    5    5    0    0 -0.66804075025E+02 -0.31262180688E+03  0.26399825841E+03  0.41459650145E+03  0.00000000000E+00 0.  1.
          2    1    6    6  503    0 -0.85659758251E+02 -0.34717661180E+02 -0.25080952229E+02  0.95770373008E+02  0.00000000000E+00 0. -1.
         -2    1    6    6    0  503 -0.70429539828E+03 -0.73138676106E+02 -0.31773781762E+02  0.70879534930E+03  0.00000000000E+00 0.  1.
<mgrwt>
<rscale>  0 0.35377955E+04</rscale>
<asrwt>0</asrwt>
<pdfrwt beam="1">  1        2 0.47138363E+00 0.35377955E+04</pdfrwt>
<pdfrwt beam="2">  1       -1 0.15711015E+00 0.35377955E+04</pdfrwt>
<totfact> 0.45334877E-01</totfact>
</mgrwt>
</event>
<event>
12    6  0.1450532E-007  0.1684817E+04  0.7818608E-02  0.8770072E-01
         -1   -1    0    0    0  501 -0.00000000000E+00  0.00000000000E+00  0.59249864178E+03  0.59249864178E+03  0.00000000000E+00 0.  1.
          2   -1    0    0  501    0  0.00000000000E+00 -0.00000000000E+00 -0.11977276380E+04  0.11977276380E+04  0.00000000000E+00 0. -1.
         24    2    1    2    0    0 -0.21613552441E+03 -0.37600885149E+03  0.22027790667E+03  0.49303880064E+03  0.80421896636E+02 0.  0.
        254    2    1    2    0    0  0.21613552441E+03  0.37600885149E+03 -0.82550690286E+03  0.12971874791E+04  0.90174080976E+03 0.  0.
         23    2    4    4    0    0  0.27112313846E+03  0.62077174513E+02  0.10373572656E+03  0.31059334857E+03  0.91355324994E+02 0.  0.
         23    2    4    4    0    0 -0.54987614053E+02  0.31393167698E+03 -0.92924262942E+03  0.98659413054E+03  0.91100925270E+02 0.  0.
          2    1    3    3  502    0 -0.85655426255E+02 -0.11334167757E+03  0.35640863893E+02  0.14646999385E+03  0.00000000000E+00 0. -1.
         -1    1    3    3    0  502 -0.13048009815E+03 -0.26266717392E+03  0.18463704278E+03  0.34656880679E+03  0.00000000000E+00 0.  1.
         11    1    5    5    0    0  0.13450130917E+03  0.34379250779E+02  0.10008940108E+03  0.17114445145E+03  0.00000000000E+00 0.  1.
        -11    1    5    5    0    0  0.13662182929E+03  0.27697923734E+02  0.36463254754E+01  0.13944889712E+03  0.00000000000E+00 0. -1.
          1    1    6    6  503    0 -0.60755567844E+01 -0.52968346648E+01 -0.15730605556E+02  0.17675429241E+02  0.00000000000E+00 0. -1.
         -1    1    6    6    0  503 -0.48912057268E+02  0.31922851164E+03 -0.91351202386E+03  0.96891870130E+03  0.00000000000E+00 0.  1.
<mgrwt>
<rscale>  0 0.16848169E+04</rscale>
<asrwt>0</asrwt>
<pdfrwt beam="1">  1        2 0.18426579E+00 0.16848169E+04</pdfrwt>
<pdfrwt beam="2">  1       -1 0.91153637E-01 0.16848169E+04</pdfrwt>
<totfact> 0.24241901E+01</totfact>
</mgrwt>
</event>
<event>
12    6  0.1450532E-007  0.1471786E+04  0.7818608E-02  0.8903435E-01
         -1   -1    0    0    0  501 -0.00000000000E+00  0.00000000000E+00  0.60714603734E+03  0.60714603734E+03  0.00000000000E+00 0.  1.
          2   -1    0    0  501    0  0.00000000000E+00 -0.00000000000E+00 -0.89194132151E+03  0.89194132151E+03  0.00000000000E+00 0. -1.
         24    2    1    2    0    0  0.63248554823E+02 -0.34492534011E+03 -0.36838465599E+03  0.51478354932E+03  0.79504578167E+02 0.  0.
        254    2    1    2    0    0 -0.63248554823E+02  0.34492534011E+03  0.83589371816E+02  0.98430380953E+03  0.91591098718E+03 0.  0.
         23    2    4    4    0    0 -0.17598078163E+03 -0.24521755037E+03  0.18822609012E+03  0.36706656496E+03  0.90597569491E+02 0.  0.
         23    2    4    4    0    0  0.11273222680E+03  0.59014289048E+03 -0.10463671831E+03  0.61723724457E+03  0.95161899571E+02 0.  0.
          2    1    3    3  502    0  0.31875076362E+02 -0.16359312294E+03 -0.23230408318E+03  0.28590893205E+03  0.00000000000E+00 0. -1.
         -1    1    3    3    0  502  0.31373478461E+02 -0.18133221717E+03 -0.13608057281E+03  0.22887461727E+03  0.00000000000E+00 0.  1.
         11    1    5    5    0    0 -0.75677556765E+01 -0.68365324460E+02  0.24348344483E+02  0.72965268406E+02  0.00000000000E+00 0.  1.
        -11    1    5    5    0    0 -0.16841302595E+03 -0.17685222590E+03  0.16387774564E+03  0.29410129655E+03  0.00000000000E+00 0. -1.
          1    1    6    6  503    0  0.95960301067E+02  0.25928642997E+03 -0.60654077114E+02  0.28304902264E+03  0.00000000000E+00 0. -1.
         -1    1    6    6    0  503  0.16771925736E+02  0.33085646050E+03 -0.43982641192E+02  0.33418822193E+03  0.00000000000E+00 0.  1.
<mgrwt>
<rscale>  0 0.14717862E+04</rscale>
<asrwt>0</asrwt>
<pdfrwt beam="1">  1        2 0.13722174E+00 0.14717862E+04</pdfrwt>
<pdfrwt beam="2">  1       -1 0.93407083E-01 0.14717862E+04</pdfrwt>
<totfact> 0.36505257E+01</totfact>
</mgrwt>
</event>
<event>
12    6  0.1450532E-007  0.1290882E+04  0.7818608E-02  0.9036827E-01
         -1   -1    0    0    0  501 -0.00000000000E+00  0.00000000000E+00  0.64360865714E+03  0.64360865714E+03  0.00000000000E+00 0.  1.
          2   -1    0    0  501    0  0.00000000000E+00 -0.00000000000E+00 -0.64727869239E+03  0.64727869239E+03  0.00000000000E+00 0. -1.
         24    2    1    2    0    0  0.25908959891E+03 -0.97164428980E+01 -0.18997291810E+03  0.33123142284E+03  0.80016975338E+02 0.  0.
        254    2    1    2    0    0 -0.25908959891E+03  0.97164428980E+01  0.18630288285E+03  0.95965592668E+03  0.90499110710E+03 0.  0.
         23    2    4    4    0    0 -0.30727817000E+03 -0.25918639649E+03  0.42083486219E+03  0.58895572684E+03  0.90384761203E+02 0.  0.
         23    2    4    4    0    0  0.48188571093E+02  0.26890283939E+03 -0.23453197934E+03  0.37070019985E+03  0.88218554859E+02 0.  0.
          4    1    3    3  502    0  0.26210577401E+03 -0.74723903003E+01 -0.17369211727E+03  0.31452221700E+03  0.00000000000E+00 0. -1.
         -3    1    3    3    0  502 -0.30161750999E+01 -0.22440525977E+01 -0.16280800824E+02  0.16709205839E+02  0.00000000000E+00 0.  1.
         11    1    5    5    0    0 -0.25633544771E+03 -0.22314256394E+03  0.30161990149E+03  0.45439523608E+03  0.00000000000E+00 0. -1.
        -11    1    5    5    0    0 -0.50942722291E+02 -0.36043832545E+02  0.11921496070E+03  0.13456049076E+03  0.00000000000E+00 0.  1.
          1    1    6    6  503    0  0.34748835450E+02  0.26531642249E+03 -0.23590414943E+03  0.35672265603E+03  0.00000000000E+00 0. -1.
         -1    1    6    6    0  503  0.13439735643E+02  0.35864168997E+01  0.13721700974E+01  0.13977543816E+02  0.00000000000E+00 0.  1.
<mgrwt>
<rscale>  0 0.12908821E+04</rscale>
<asrwt>0</asrwt>
<pdfrwt beam="1">  1        2 0.99581338E-01 0.12908821E+04</pdfrwt>
<pdfrwt beam="2">  1       -1 0.99016716E-01 0.12908821E+04</pdfrwt>
<totfact> 0.49400250E+01</totfact>
</mgrwt>
</event>
<event>
12    6  0.1450532E-007  0.1549384E+04  0.7818608E-02  0.8852261E-01
         -1   -1    0    0    0  501 -0.00000000000E+00  0.00000000000E+00  0.75568557402E+03  0.75568557402E+03  0.00000000000E+00 0.  1.
          2   -1    0    0  501    0  0.00000000000E+00 -0.00000000000E+00 -0.79417657796E+03  0.79417657796E+03  0.00000000000E+00 0. -1.
         24    2    1    2    0    0 -0.38693333360E+03 -0.20507638551E+03  0.24834139465E+03  0.51088608907E+03  0.86933417998E+02 0.  0.
        254    2    1    2    0    0  0.38693333360E+03  0.20507638551E+03 -0.28683239860E+03  0.10389760629E+04  0.89745457037E+03 0.  0.
         23    2    4    4    0    0  0.88492679490E+02  0.45006875453E+03  0.10725873657E+03  0.47991710728E+03  0.91777748730E+02 0.  0.
         23    2    4    4    0    0  0.29844065411E+03 -0.24499236903E+03 -0.39409113517E+03  0.55905895563E+03  0.90282933835E+02 0.  0.
          4    1    3    3  502    0 -0.35326713689E+02  0.66371863988E+01  0.17188947223E+02  0.39843303703E+02  0.00000000000E+00 0. -1.
         -3    1    3    3    0  502 -0.35160661991E+03 -0.21171357190E+03  0.23115244743E+03  0.47104278537E+03  0.00000000000E+00 0.  1.
         11    1    5    5    0    0  0.25656050137E+02  0.45977671139E+02 -0.11867061598E+02  0.53972273465E+02  0.00000000000E+00 0. -1.
        -11    1    5    5    0    0  0.62836629354E+02  0.40409108339E+03  0.11912579817E+03  0.42594483382E+03  0.00000000000E+00 0.  1.
          3    1    6    6  503    0  0.20964463682E+01 -0.29161214614E+02 -0.21044160640E+02  0.36022607099E+02  0.00000000000E+00 0. -1.
         -3    1    6    6    0  503  0.29634420774E+03 -0.21583115441E+03 -0.37304697453E+03  0.52303634853E+03  0.00000000000E+00 0.  1.
<mgrwt>
<rscale>  0 0.15493841E+04</rscale>
<asrwt>0</asrwt>
<pdfrwt beam="1">  1        2 0.12218101E+00 0.15493841E+04</pdfrwt>
<pdfrwt beam="2">  1       -1 0.11625932E+00 0.15493841E+04</pdfrwt>
<totfact> 0.25567872E+01</totfact>
</mgrwt>
</event>
<event>
12    6  0.1450532E-007  0.2151731E+04  0.7818608E-02  0.8538792E-01
          2   -1    0    0  501    0  0.00000000000E+00  0.00000000000E+00  0.15175007235E+04  0.15175007235E+04  0.00000000000E+00 0. -1.
         -1   -1    0    0    0  501 -0.00000000000E+00 -0.00000000000E+00 -0.76275831585E+03  0.76275831585E+03  0.00000000000E+00 0.  1.
         24    2    1    2    0    0 -0.51705884479E+03 -0.38841113023E+02  0.10751477031E+04  0.11963362307E+04  0.80120611298E+02 0.  0.
        254    2    1    2    0    0  0.51705884479E+03  0.38841113023E+02 -0.32040529547E+03  0.10839228086E+04  0.89630944471E+03 0.  0.
         23    2    4    4    0    0 -0.73350612152E+02 -0.31377334960E+03 -0.47490564554E+02  0.33833615755E+03  0.91553124241E+02 0.  0.
         23    2    4    4    0    0  0.59040945694E+03  0.35261446262E+03 -0.27291473092E+03  0.74558665109E+03  0.92177642810E+02 0.  0.
          4    1    3    3  502    0 -0.17466216651E+03 -0.51266329952E+02  0.37757476355E+03  0.41916322724E+03  0.00000000000E+00 0. -1.
         -3    1    3    3    0  502 -0.34239667828E+03  0.12425216930E+02  0.69757293957E+03  0.77717300348E+03  0.00000000000E+00 0.  1.
         11    1    5    5    0    0 -0.86766385008E+02 -0.21148383914E+03 -0.10819273173E+02  0.22884684061E+03  0.00000000000E+00 0.  1.
        -11    1    5    5    0    0  0.13415772856E+02 -0.10228951046E+03 -0.36671291382E+02  0.10948931694E+03  0.00000000000E+00 0. -1.
          1    1    6    6  503    0  0.13075821160E+03  0.79352553704E+02 -0.10337331563E+03  0.18460926321E+03  0.00000000000E+00 0. -1.
         -1    1    6    6    0  503  0.45965124535E+03  0.27326190892E+03 -0.16954141529E+03  0.56097738788E+03  0.00000000000E+00 0.  1.
<mgrwt>
<rscale>  0 0.21517307E+04</rscale>
<asrwt>0</asrwt>
<pdfrwt beam="1">  1        2 0.23346165E+00 0.21517307E+04</pdfrwt>
<pdfrwt beam="2">  1       -1 0.11734743E+00 0.21517307E+04</pdfrwt>
<totfact> 0.84807083E+00</totfact>
</mgrwt>
</event>
<event>
12    6  0.1450532E-007  0.1364001E+04  0.7818608E-02  0.8980297E-01
          2   -1    0    0  501    0  0.00000000000E+00  0.00000000000E+00  0.29956089652E+04  0.29956089652E+04  0.00000000000E+00 0. -1.
         -1   -1    0    0    0  501 -0.00000000000E+00 -0.00000000000E+00 -0.15526871304E+03  0.15526871304E+03  0.00000000000E+00 0.  1.
         24    2    1    2    0    0 -0.23805681968E+03  0.29327730307E+03  0.95570046485E+03  0.10308141530E+04  0.80819635661E+02 0.  0.
        254    2    1    2    0    0  0.23805681968E+03 -0.29327730307E+03  0.18846397873E+04  0.21200635253E+04  0.89449404550E+03 0.  0.
         23    2    4    4    0    0  0.21164728365E+03  0.29361455434E+03  0.81504088856E+03  0.89644102863E+03  0.91163526640E+02 0.  0.
         23    2    4    4    0    0  0.26409536039E+02 -0.58689185741E+03  0.10695988987E+04  0.12236224966E+04  0.89837042607E+02 0.  0.
          4    1    3    3  502    0 -0.37163238903E+02  0.45236163742E+02  0.24213487034E+03  0.24911184690E+03  0.00000000000E+00 0. -1.
         -3    1    3    3    0  502 -0.20089358078E+03  0.24804113933E+03  0.71356559452E+03  0.78170230605E+03  0.00000000000E+00 0.  1.
         11    1    5    5    0    0  0.20970939765E+03  0.23936755165E+03  0.67533288176E+03  0.74655834162E+03  0.00000000000E+00 0. -1.
        -11    1    5    5    0    0  0.19378859946E+01  0.54247002693E+02  0.13970800679E+03  0.14988268701E+03  0.00000000000E+00 0.  1.
          1    1    6    6  503    0  0.41647306569E+02 -0.39445213290E+03  0.64499276184E+03  0.75719392900E+03  0.00000000000E+00 0. -1.
         -1    1    6    6    0  503 -0.15237770531E+02 -0.19243972451E+03  0.42460613690E+03  0.46642856764E+03  0.00000000000E+00 0.  1.
<mgrwt>
<rscale>  0 0.13640005E+04</rscale>
<asrwt>0</asrwt>
<pdfrwt beam="1">  1        2 0.46086288E+00 0.13640005E+04</pdfrwt>
<pdfrwt beam="2">  1       -1 0.23887496E-01 0.13640005E+04</pdfrwt>
<totfact> 0.29780392E+01</totfact>
</mgrwt>
</event>
<event>
12    6  0.1450532E-007  0.2690339E+04  0.7818608E-02  0.8338146E-01
          2   -1    0    0  501    0  0.00000000000E+00  0.00000000000E+00  0.16299064383E+04  0.16299064383E+04  0.00000000000E+00 0. -1.
         -1   -1    0    0    0  501 -0.00000000000E+00 -0.00000000000E+00 -0.11101748054E+04  0.11101748054E+04  0.00000000000E+00 0.  1.
         24    2    1    2    0    0  0.31242517132E+03 -0.32080501601E+03 -0.89744020835E+03  0.10060954136E+04  0.79395892528E+02 0.  0.
        254    2    1    2    0    0 -0.31242517132E+03  0.32080501601E+03  0.14171718412E+04  0.17339858302E+04  0.89319957772E+03 0.  0.
         23    2    4    4    0    0 -0.37999949803E+03  0.32604921602E+03  0.26016975953E+03  0.57149128575E+03  0.90588498987E+02 0.  0.
         23    2    4    4    0    0  0.67574326712E+02 -0.52442000150E+01  0.11570020817E+04  0.11624945444E+04  0.90254957981E+02 0.  0.
          4    1    3    3  502    0  0.90543667638E+02 -0.56891924368E+02 -0.26525650728E+03  0.28599975780E+03  0.00000000000E+00 0. -1.
         -3    1    3    3    0  502  0.22188150368E+03 -0.26391309164E+03 -0.63218370107E+03  0.72009565581E+03  0.00000000000E+00 0.  1.
         11    1    5    5    0    0 -0.26951102816E+03  0.18305146480E+03  0.19317884594E+03  0.37876391008E+03  0.00000000000E+00 0.  1.
        -11    1    5    5    0    0 -0.11048846987E+03  0.14299775122E+03  0.66990913589E+02  0.19272737567E+03  0.00000000000E+00 0. -1.
          4    1    6    6  503    0 -0.25884173745E+01  0.22360194925E+02  0.59885734277E+03  0.59928023096E+03  0.00000000000E+00 0. -1.
         -4    1    6    6    0  503  0.70162744086E+02 -0.27604394940E+02  0.55814473893E+03  0.56321431345E+03  0.00000000000E+00 0.  1.
<mgrwt>
<rscale>  0 0.26903391E+04</rscale>
<asrwt>0</asrwt>
<pdfrwt beam="1">  1        2 0.25075484E+00 0.26903391E+04</pdfrwt>
<pdfrwt beam="2">  1       -1 0.17079612E+00 0.26903391E+04</pdfrwt>
<totfact> 0.26041896E+00</totfact>
</mgrwt>
</event>
<event>
12    6  0.1450532E-007  0.1391536E+04  0.7818608E-02  0.8959968E-01
         -1   -1    0    0    0  501 -0.00000000000E+00  0.00000000000E+00  0.52505948483E+03  0.52505948483E+03  0.00000000000E+00 0.  1.
          2   -1    0    0  501    0  0.00000000000E+00 -0.00000000000E+00 -0.92197723984E+03  0.92197723984E+03  0.00000000000E+00 0. -1.
         24    2    1    2    0    0  0.14446387685E+03  0.29525776510E+03  0.11867967523E+03  0.35881853984E+03  0.81356743131E+02 0.  0.
        254    2    1    2    0    0 -0.14446387685E+03 -0.29525776510E+03 -0.51559743024E+03  0.10882181848E+04  0.90018395240E+03 0.  0.
         23    2    4    4    0    0  0.29185289535E+03 -0.34386509667E+03 -0.88175396924E+02  0.46884708790E+03  0.92851354223E+02 0.  0.
         23    2    4    4    0    0 -0.43631677220E+03  0.48607331561E+02 -0.42742203332E+03  0.61937109693E+03  0.90531556738E+02 0.  0.
          2    1    3    3  502    0 -0.11690350060E+01  0.28184823492E+02  0.31689413114E+02  0.42426051214E+02  0.00000000000E+00 0. -1.
         -1    1    3    3    0  502  0.14563291186E+03  0.26707294161E+03  0.86990262119E+02  0.31639248863E+03  0.00000000000E+00 0.  1.
         11    1    5    5    0    0  0.26864078112E+03 -0.27444866032E+03 -0.94126982566E+02  0.39541095746E+03  0.00000000000E+00 0. -1.
        -11    1    5    5    0    0  0.23212114223E+02 -0.69416436349E+02  0.59515856420E+01  0.73436130438E+02  0.00000000000E+00 0.  1.
          3    1    6    6  503    0 -0.32596740283E+03  0.41891928172E+02 -0.26149445409E+03  0.41998694131E+03  0.00000000000E+00 0. -1.
         -3    1    6    6    0  503 -0.11034936937E+03  0.67154033884E+01 -0.16592757923E+03  0.19938415562E+03  0.00000000000E+00 0.  1.
<mgrwt>
<rscale>  0 0.13915357E+04</rscale>
<asrwt>0</asrwt>
<pdfrwt beam="1">  1        2 0.14184265E+00 0.13915357E+04</pdfrwt>
<pdfrwt beam="2">  1       -1 0.80778383E-01 0.13915357E+04</pdfrwt>
<totfact> 0.48139813E+01</totfact>
</mgrwt>
</event>
<event>
12    6  0.1450532E-007  0.1828121E+04  0.7818608E-02  0.8691486E-01
         -1   -1    0    0    0  501 -0.00000000000E+00  0.00000000000E+00  0.40938426048E+03  0.40938426048E+03  0.00000000000E+00 0.  1.
          2   -1    0    0  501    0  0.00000000000E+00 -0.00000000000E+00 -0.20408865083E+04  0.20408865083E+04  0.00000000000E+00 0. -1.
         24    2    1    2    0    0  0.28750788897E+03  0.47057660197E+03 -0.65438429290E+02  0.56106109367E+03  0.80026484758E+02 0.  0.
        254    2    1    2    0    0 -0.28750788897E+03 -0.47057660197E+03 -0.15660638186E+04  0.18892096752E+04  0.90136240678E+03 0.  0.
         23    2    4    4    0    0  0.27004883887E+03 -0.38596861577E+03 -0.61705298618E+03  0.78149324450E+03  0.89884123810E+02 0.  0.
         23    2    4    4    0    0 -0.55755672784E+03 -0.84607986190E+02 -0.94901083239E+03  0.11077164307E+04  0.91575731877E+02 0.  0.
          2    1    3    3  502    0  0.12521891613E+03  0.16343999596E+03 -0.56765661392E+02  0.21357609780E+03  0.00000000000E+00 0. -1.
         -1    1    3    3    0  502  0.16228897284E+03  0.30713660600E+03 -0.86727678981E+01  0.34748499587E+03  0.00000000000E+00 0.  1.
         11    1    5    5    0    0  0.22936942716E+03 -0.32237343923E+03 -0.45659903931E+03  0.60416690669E+03  0.00000000000E+00 0.  1.
        -11    1    5    5    0    0  0.40679411705E+02 -0.63595176543E+02 -0.16045394687E+03  0.17732633782E+03  0.00000000000E+00 0. -1.
          1    1    6    6  503    0 -0.38661073083E+02  0.89543342357E+01 -0.10833261410E+03  0.11537250084E+03  0.00000000000E+00 0. -1.
         -1    1    6    6    0  503 -0.51889565476E+03 -0.93562320426E+02 -0.84067821829E+03  0.99234392982E+03  0.00000000000E+00 0.  1.
<mgrwt>
<rscale>  0 0.18281212E+04</rscale>
<asrwt>0</asrwt>
<pdfrwt beam="1">  1        2 0.31398254E+00 0.18281212E+04</pdfrwt>
<pdfrwt beam="2">  1       -1 0.62982193E-01 0.18281212E+04</pdfrwt>
<totfact> 0.17388880E+01</totfact>
</mgrwt>
</event>
<event>
12    6  0.1450532E-007  0.1471954E+04  0.7818608E-02  0.8903321E-01
         -1   -1    0    0    0  501 -0.00000000000E+00  0.00000000000E+00  0.34678713368E+03  0.34678713368E+03  0.00000000000E+00 0.  1.
          2   -1    0    0  501    0  0.00000000000E+00 -0.00000000000E+00 -0.15619437280E+04  0.15619437280E+04  0.00000000000E+00 0. -1.
         24    2    1    2    0    0 -0.15776330195E+03  0.83504410251E+01  0.17424691039E+03  0.24866858747E+03  0.80716115518E+02 0.  0.
        254    2    1    2    0    0  0.15776330195E+03 -0.83504410251E+01 -0.13894035047E+04  0.16600622742E+04  0.89465393647E+03 0.  0.
         23    2    4    4    0    0 -0.10685581349E+03  0.80837017415E+02 -0.13547655207E+04  0.13642725880E+04  0.88866697918E+02 0.  0.
         23    2    4    4    0    0  0.26461911544E+03 -0.89187458440E+02 -0.34637984025E+02  0.29578968623E+03  0.91181519756E+02 0.  0.
          4    1    3    3  502    0 -0.76231459616E+02 -0.34549358825E+02  0.66456085558E+02  0.10687050546E+03  0.00000000000E+00 0. -1.
         -3    1    3    3    0  502 -0.81531842334E+02  0.42899799850E+02  0.10779082484E+03  0.14179808201E+03  0.00000000000E+00 0.  1.
         11    1    5    5    0    0 -0.99004236146E+02  0.99561774498E+02 -0.11963096814E+04  0.12045211660E+04  0.00000000000E+00 0.  1.
        -11    1    5    5    0    0 -0.78515773449E+01 -0.18724757083E+02 -0.15845583932E+03  0.15975142193E+03  0.00000000000E+00 0. -1.
          3    1    6    6  503    0  0.17873229307E+02  0.14403225092E+02  0.89817013239E+01  0.24649060380E+02  0.00000000000E+00 0. -1.
         -3    1    6    6    0  503  0.24674588613E+03 -0.10359068353E+03 -0.43619685349E+02  0.27114062585E+03  0.00000000000E+00 0.  1.
<mgrwt>
<rscale>  0 0.14719538E+04</rscale>
<asrwt>0</asrwt>
<pdfrwt beam="1">  1        2 0.24029904E+00 0.14719538E+04</pdfrwt>
<pdfrwt beam="2">  1       -1 0.53351867E-01 0.14719538E+04</pdfrwt>
<totfact> 0.45792231E+01</totfact>
</mgrwt>
</event>
<event>
12    6  0.1450532E-007  0.1421311E+04  0.7818608E-02  0.8938535E-01
          2   -1    0    0  501    0  0.00000000000E+00  0.00000000000E+00  0.52200650949E+03  0.52200650949E+03  0.00000000000E+00 0. -1.
         -1   -1    0    0    0  501 -0.00000000000E+00 -0.00000000000E+00 -0.96748112982E+03  0.96748112982E+03  0.00000000000E+00 0.  1.
         24    2    1    2    0    0  0.13665183457E+03  0.26446508135E+02  0.27000461652E+03  0.31430826343E+03  0.80709663817E+02 0.  0.
        254    2    1    2    0    0 -0.13665183457E+03 -0.26446508135E+02 -0.71547923685E+03  0.11751793759E+04  0.92182584334E+03 0.  0.
         23    2    4    4    0    0 -0.25132784858E+03 -0.68261496385E+01 -0.89932142922E+03  0.93892819612E+03  0.97953257334E+02 0.  0.
         23    2    4    4    0    0  0.11467601400E+03 -0.19620358497E+02  0.18384219236E+03  0.23625117977E+03  0.92093005120E+02 0.  0.
          4    1    3    3  502    0  0.98267187265E+02 -0.97561311777E+01  0.22200988886E+03  0.24298150740E+03  0.00000000000E+00 0. -1.
         -3    1    3    3    0  502  0.38384647310E+02  0.36202639313E+02  0.47994727664E+02  0.71326756031E+02  0.00000000000E+00 0.  1.
         11    1    5    5    0    0 -0.11907220252E+03  0.35617505982E+02 -0.32252431542E+03  0.34564248897E+03  0.00000000000E+00 0. -1.
        -11    1    5    5    0    0 -0.13225564606E+03 -0.42443655620E+02 -0.57679711380E+03  0.59328570714E+03  0.00000000000E+00 0.  1.
          1    1    6    6  503    0  0.11586466166E+03 -0.14733945329E+02  0.19312330225E+03  0.22569519011E+03  0.00000000000E+00 0.  1.
         -1    1    6    6    0  503 -0.11886476554E+01 -0.48864131680E+01 -0.92811098863E+01  0.10555989656E+02  0.00000000000E+00 0. -1.
<mgrwt>
<rscale>  0 0.14213113E+04</rscale>
<asrwt>0</asrwt>
<pdfrwt beam="1">  1        2 0.80308696E-01 0.14213113E+04</pdfrwt>
<pdfrwt beam="2">  1       -1 0.14884325E+00 0.14213113E+04</pdfrwt>
<totfact> 0.23178262E+01</totfact>
</mgrwt>
</event>
<event>
12    6  0.1450532E-007  0.1557691E+04  0.7818608E-02  0.8846970E-01
          2   -1    0    0  501    0  0.00000000000E+00  0.00000000000E+00  0.18319393486E+04  0.18319393486E+04  0.00000000000E+00 0. -1.
         -1   -1    0    0    0  501 -0.00000000000E+00 -0.00000000000E+00 -0.33112469252E+03  0.33112469252E+03  0.00000000000E+00 0.  1.
         24    2    1    2    0    0  0.10275919421E+03  0.37091873378E+03  0.97056718034E+03  0.10471506592E+04  0.79898013091E+02 0.  0.
        254    2    1    2    0    0 -0.10275919421E+03 -0.37091873378E+03  0.53024747576E+03  0.11159133819E+04  0.90330511530E+03 0.  0.
         23    2    4    4    0    0  0.24321175710E+03 -0.32700996581E+02  0.56376464302E+03  0.62147927490E+03  0.90468792672E+02 0.  0.
         23    2    4    4    0    0 -0.34597095131E+03 -0.33821773720E+03 -0.33517167261E+02  0.49443410702E+03  0.96200565334E+02 0.  0.
          2    1    3    3  502    0  0.90220431856E+02  0.32429509824E+03  0.90613095783E+03  0.96663351370E+03  0.00000000000E+00 0. -1.
         -1    1    3    3    0  502  0.12538762357E+02  0.46623635537E+02  0.64436222513E+02  0.80517145528E+02  0.00000000000E+00 0.  1.
         11    1    5    5    0    0  0.24429016680E+03 -0.27148284060E+02  0.49682608823E+03  0.55430215304E+03  0.00000000000E+00 0.  1.
        -11    1    5    5    0    0 -0.10784097056E+01 -0.55527125211E+01  0.66938554792E+02  0.67177121861E+02  0.00000000000E+00 0. -1.
          4    1    6    6  503    0 -0.50595590715E+02 -0.27933516978E+02 -0.31945127931E+02  0.66035493253E+02  0.00000000000E+00 0. -1.
         -4    1    6    6    0  503 -0.29537536060E+03 -0.31028422022E+03 -0.15720393305E+01  0.42839861376E+03  0.00000000000E+00 0.  1.
<mgrwt>
<rscale>  0 0.15576911E+04</rscale>
<asrwt>0</asrwt>
<pdfrwt beam="1">  1        2 0.28183682E+00 0.15576911E+04</pdfrwt>
<pdfrwt beam="2">  1       -1 0.50942261E-01 0.15576911E+04</pdfrwt>
<totfact> 0.35161466E+01</totfact>
</mgrwt>
</event>
<event>
12    6  0.1450532E-007  0.1190559E+04  0.7818608E-02  0.9121161E-01
          2   -1    0    0  501    0  0.00000000000E+00  0.00000000000E+00  0.82368706723E+03  0.82368706723E+03  0.00000000000E+00 0. -1.
         -1   -1    0    0    0  501 -0.00000000000E+00 -0.00000000000E+00 -0.43020911250E+03  0.43020911250E+03  0.00000000000E+00 0.  1.
         24    2    1    2    0    0  0.11639481238E+03  0.79485049041E+02 -0.12116781459E+03  0.20257353517E+03  0.80552917341E+02 0.  0.
        254    2    1    2    0    0 -0.11639481238E+03 -0.79485049041E+02  0.51464576932E+03  0.10513226446E+04  0.90584403167E+03 0.  0.
         23    2    4    4    0    0  0.12460520496E+03 -0.41369088343E+02  0.70853918163E+03  0.72625828269E+03  0.90473546949E+02 0.  0.
         23    2    4    4    0    0 -0.24100001734E+03 -0.38115960698E+02 -0.19389341231E+03  0.32506436186E+03  0.92403188257E+02 0.  0.
          4    1    3    3  502    0  0.64693532499E+01  0.42009986146E+02 -0.52886569941E+02  0.67850429236E+02  0.00000000000E+00 0. -1.
         -3    1    3    3    0  502  0.10992545913E+03  0.37475062895E+02 -0.68281244645E+02  0.13472310594E+03  0.00000000000E+00 0.  1.
         11    1    5    5    0    0  0.74630033752E+02  0.22508925366E+02  0.37272105657E+03  0.38078508331E+03  0.00000000000E+00 0. -1.
        -11    1    5    5    0    0  0.49975171207E+02 -0.63878013709E+02  0.33581812506E+03  0.34547319938E+03  0.00000000000E+00 0.  1.
          2    1    6    6  503    0 -0.12998092751E+03 -0.65798287921E+02 -0.95887156876E+02  0.17440987089E+03  0.00000000000E+00 0. -1.
         -2    1    6    6    0  503 -0.11101908982E+03  0.27682327224E+02 -0.98006255436E+02  0.15065449097E+03  0.00000000000E+00 0.  1.
<mgrwt>
<rscale>  0 0.11905590E+04</rscale>
<asrwt>0</asrwt>
<pdfrwt beam="1">  1        2 0.12672109E+00 0.11905590E+04</pdfrwt>
<pdfrwt beam="2">  1       -1 0.66186017E-01 0.11905590E+04</pdfrwt>
<totfact> 0.86385385E+01</totfact>
</mgrwt>
</event>
<event>
12    6  0.1450532E-007  0.1241422E+04  0.7818608E-02  0.9077353E-01
          2   -1    0    0  501    0  0.00000000000E+00  0.00000000000E+00  0.47525009192E+03  0.47525009192E+03  0.00000000000E+00 0. -1.
         -1   -1    0    0    0  501 -0.00000000000E+00 -0.00000000000E+00 -0.81069292478E+03  0.81069292478E+03  0.00000000000E+00 0.  1.
         24    2    1    2    0    0 -0.22317327349E+03  0.49872791199E+02  0.94554457991E+02  0.26087750574E+03  0.82600981677E+02 0.  0.
        254    2    1    2    0    0  0.22317327349E+03 -0.49872791199E+02 -0.42999729085E+03  0.10250655110E+04  0.90198005872E+03 0.  0.
         23    2    4    4    0    0 -0.15032789980E+02 -0.23694508774E+03  0.19937995964E+03  0.32069775345E+03  0.82010495530E+02 0.  0.
         23    2    4    4    0    0  0.23820606347E+03  0.18707229655E+03 -0.62937725050E+03  0.70436775752E+03  0.90994733801E+02 0.  0.
          2    1    3    3  502    0 -0.20915180231E+03  0.46756430532E+02  0.58632106992E+02  0.22218992816E+03  0.00000000000E+00 0. -1.
         -1    1    3    3    0  502 -0.14021471181E+02  0.31163606671E+01  0.35922351000E+02  0.38687577583E+02  0.00000000000E+00 0.  1.
         11    1    5    5    0    0  0.23219286022E+02 -0.18484766859E+03  0.14162433864E+03  0.23401976224E+03  0.00000000000E+00 0. -1.
        -11    1    5    5    0    0 -0.38252076003E+02 -0.52097419158E+02  0.57755621003E+02  0.86677991203E+02  0.00000000000E+00 0.  1.
          2    1    6    6  503    0  0.48911674728E+01  0.84575128065E+01  0.89165966222E-02  0.97700113421E+01  0.00000000000E+00 0. -1.
         -2    1    6    6    0  503  0.23331489600E+03  0.17861478374E+03 -0.62938616709E+03  0.69459774618E+03  0.00000000000E+00 0.  1.
<mgrwt>
<rscale>  0 0.12414216E+04</rscale>
<asrwt>0</asrwt>
<pdfrwt beam="1">  1        2 0.73115399E-01 0.12414216E+04</pdfrwt>
<pdfrwt beam="2">  1       -1 0.12472199E+00 0.12414216E+04</pdfrwt>
<totfact> 0.41384623E+01</totfact>
</mgrwt>
</event>
<event>
12    6  0.1450532E-007  0.1461916E+04  0.7818608E-02  0.8910181E-01
         -1   -1    0    0    0  501 -0.00000000000E+00  0.00000000000E+00  0.17343293312E+03  0.17343293312E+03  0.00000000000E+00 0.  1.
          2   -1    0    0  501    0  0.00000000000E+00 -0.00000000000E+00 -0.30807266717E+04  0.30807266717E+04  0.00000000000E+00 0. -1.
         24    2    1    2    0    0 -0.52100138866E+02  0.29039649520E+03 -0.16226459016E+04  0.16511768258E+04  0.79753615983E+02 0.  0.
        254    2    1    2    0    0  0.52100138866E+02 -0.29039649520E+03 -0.12846478371E+04  0.16029827791E+04  0.91224403307E+03 0.  0.
         23    2    4    4    0    0  0.25361480866E+02 -0.54834068549E+03 -0.42519871615E+03  0.70010323326E+03  0.89609580582E+02 0.  0.
         23    2    4    4    0    0  0.26738657999E+02  0.25794419030E+03 -0.85944912091E+03  0.90287954582E+03  0.96376976974E+02 0.  0.
          2    1    3    3  502    0 -0.33304882165E+02  0.20623911830E+03 -0.13221547581E+04  0.13385578036E+04  0.00000000000E+00 0. -1.
         -1    1    3    3    0  502 -0.18795256701E+02  0.84157376900E+02 -0.30049114347E+03  0.31261902223E+03  0.00000000000E+00 0.  1.
         11    1    5    5    0    0  0.27815242630E+01 -0.40765471759E+03 -0.26762704374E+03  0.48766211683E+03  0.00000000000E+00 0. -1.
        -11    1    5    5    0    0  0.22579956603E+02 -0.14068596790E+03 -0.15757167241E+03  0.21244111643E+03  0.00000000000E+00 0.  1.
          4    1    6    6  503    0 -0.11943032960E+02  0.61131640654E+02 -0.10372029616E+03  0.12098600482E+03  0.00000000000E+00 0.  1.
         -4    1    6    6    0  503  0.38681690959E+02  0.19681254964E+03 -0.75572882474E+03  0.78189354100E+03  0.00000000000E+00 0. -1.
<mgrwt>
<rscale>  0 0.14619158E+04</rscale>
<asrwt>0</asrwt>
<pdfrwt beam="1">  1        2 0.47395793E+00 0.14619158E+04</pdfrwt>
<pdfrwt beam="2">  1       -1 0.26681991E-01 0.14619158E+04</pdfrwt>
<totfact> 0.21578372E+01</totfact>
</mgrwt>
</event>
<event>
12    6  0.1450532E-007  0.2658631E+04  0.7818608E-02  0.8348554E-01
         -1   -1    0    0    0  501 -0.00000000000E+00  0.00000000000E+00  0.61301624182E+03  0.61301624182E+03  0.00000000000E+00 0.  1.
          2   -1    0    0  501    0  0.00000000000E+00 -0.00000000000E+00 -0.28825978258E+04  0.28825978258E+04  0.00000000000E+00 0. -1.
         24    2    1    2    0    0  0.25604110160E+02 -0.11809016300E+04 -0.92907054872E+03  0.15050848348E+04  0.83210848307E+02 0.  0.
        254    2    1    2    0    0 -0.25604110160E+02  0.11809016300E+04 -0.13405110353E+04  0.19905292328E+04  0.87752638760E+03 0.  0.
         23    2    4    4    0    0  0.20775031507E+03  0.11751252491E+04 -0.95588562024E+03  0.15316590912E+04  0.90458322925E+02 0.  0.
         23    2    4    4    0    0 -0.23335442523E+03  0.57763808520E+01 -0.38462541503E+03  0.45887014162E+03  0.90207774771E+02 0.  0.
          4    1    3    3  502    0 -0.20993579553E+02 -0.17400596680E+03 -0.11764511098E+03  0.21109045218E+03  0.00000000000E+00 0. -1.
         -3    1    3    3    0  502  0.46597689713E+02 -0.10068956632E+04 -0.81142543774E+03  0.12939943826E+04  0.00000000000E+00 0.  1.
         11    1    5    5    0    0  0.14271706986E+03  0.85065636095E+03 -0.63871521556E+03  0.10732853922E+04  0.00000000000E+00 0. -1.
        -11    1    5    5    0    0  0.65033245211E+02  0.32446888818E+03 -0.31717040468E+03  0.45837369905E+03  0.00000000000E+00 0.  1.
          1    1    6    6  503    0 -0.16328170521E+03  0.33099717619E+02 -0.31516711082E+03  0.35649237622E+03  0.00000000000E+00 0. -1.
         -1    1    6    6    0  503 -0.70072720020E+02 -0.27323336767E+02 -0.69458304214E+02  0.10237776540E+03  0.00000000000E+00 0.  1.
<mgrwt>
<rscale>  0 0.26586307E+04</rscale>
<asrwt>0</asrwt>
<pdfrwt beam="1">  1        2 0.44347660E+00 0.26586307E+04</pdfrwt>
<pdfrwt beam="2">  1       -1 0.94310189E-01 0.26586307E+04</pdfrwt>
<totfact> 0.22424860E+00</totfact>
</mgrwt>
</event>
<event>
12    6  0.1450532E-007  0.2057112E+04  0.7818608E-02  0.8580375E-01
         -1   -1    0    0    0  501 -0.00000000000E+00  0.00000000000E+00  0.86136376030E+03  0.86136376030E+03  0.00000000000E+00 0.  1.
          2   -1    0    0  501    0  0.00000000000E+00 -0.00000000000E+00 -0.12282010610E+04  0.12282010610E+04  0.00000000000E+00 0. -1.
         24    2    1    2    0    0  0.65539809073E+03 -0.15834268669E+03  0.33957977085E+03  0.75924005900E+03  0.80696856511E+02 0.  0.
        254    2    1    2    0    0 -0.65539809073E+03  0.15834268669E+03 -0.70641707157E+03  0.13303247623E+04  0.90339350809E+03 0.  0.
         23    2    4    4    0    0 -0.33692939429E+03 -0.36587382215E+03 -0.26706660680E+03  0.57157379868E+03  0.89369818153E+02 0.  0.
         23    2    4    4    0    0 -0.31846869644E+03  0.52421650884E+03 -0.43935046478E+03  0.75875096364E+03  0.80305262444E+02 0.  0.
          4    1    3    3  502    0  0.75086546013E+02 -0.14201360856E+01  0.60628045041E+02  0.96518216023E+02  0.00000000000E+00 0. -1.
         -3    1    3    3    0  502  0.58031154472E+03 -0.15692255061E+03  0.27895172581E+03  0.66272184297E+03  0.00000000000E+00 0.  1.
         11    1    5    5    0    0 -0.25620484516E+03 -0.32116351145E+03 -0.19653215124E+03  0.45542486784E+03  0.00000000000E+00 0. -1.
        -11    1    5    5    0    0 -0.80724549126E+02 -0.44710310694E+02 -0.70534455554E+02  0.11614893084E+03  0.00000000000E+00 0.  1.
          3    1    6    6  503    0 -0.77491349551E+02  0.15913203149E+03 -0.16768064982E+03  0.24381286476E+03  0.00000000000E+00 0. -1.
         -3    1    6    6    0  503 -0.24097734689E+03  0.36508447735E+03 -0.27166981496E+03  0.51493809888E+03  0.00000000000E+00 0.  1.
<mgrwt>
<rscale>  0 0.20571124E+04</rscale>
<asrwt>0</asrwt>
<pdfrwt beam="1">  1        2 0.18895401E+00 0.20571124E+04</pdfrwt>
<pdfrwt beam="2">  1       -1 0.13251750E+00 0.20571124E+04</pdfrwt>
<totfact> 0.92801210E+00</totfact>
</mgrwt>
</event>
<event>
12    6  0.1450532E-007  0.2607341E+04  0.7818608E-02  0.8365712E-01
         -1   -1    0    0    0  501 -0.00000000000E+00  0.00000000000E+00  0.59300171089E+03  0.59300171089E+03  0.00000000000E+00 0.  1.
          2   -1    0    0  501    0  0.00000000000E+00 -0.00000000000E+00 -0.28660238042E+04  0.28660238042E+04  0.00000000000E+00 0. -1.
         24    2    1    2    0    0 -0.11439818758E+04 -0.19659613624E+02 -0.11071141854E+04  0.15941544178E+04  0.80903989909E+02 0.  0.
        254    2    1    2    0    0  0.11439818758E+04  0.19659613624E+02 -0.11659079079E+04  0.18648710973E+04  0.89962321400E+03 0.  0.
         23    2    4    4    0    0  0.50890056979E+03 -0.42559474123E+03 -0.61072981231E+03  0.90657070023E+03  0.93642176192E+02 0.  0.
         23    2    4    4    0    0  0.63508130605E+03  0.44525435486E+03 -0.55517809563E+03  0.95830039710E+03  0.92397117922E+02 0.  0.
          4    1    3    3  502    0 -0.68914465867E+03  0.65674344352E+01 -0.61733142750E+03  0.92523596079E+03  0.00000000000E+00 0. -1.
         -1    1    3    3    0  502 -0.45483721718E+03 -0.26227048059E+02 -0.48978275788E+03  0.66891845698E+03  0.00000000000E+00 0.  1.
         11    1    5    5    0    0  0.34605313619E+02 -0.89150284486E+01 -0.15730554985E+02  0.39044280286E+02  0.00000000000E+00 0.  1.
        -11    1    5    5    0    0  0.47429525617E+03 -0.41667971278E+03 -0.59499925733E+03  0.86752641994E+03  0.00000000000E+00 0. -1.
          1    1    6    6  503    0  0.29741936809E+03  0.25988110976E+03 -0.25760411729E+03  0.47154676647E+03  0.00000000000E+00 0. -1.
         -1    1    6    6    0  503  0.33766193796E+03  0.18537324510E+03 -0.29757397833E+03  0.48675363063E+03  0.00000000000E+00 0.  1.
<mgrwt>
<rscale>  0 0.26073412E+04</rscale>
<asrwt>0</asrwt>
<pdfrwt beam="1">  1        2 0.44092674E+00 0.26073412E+04</pdfrwt>
<pdfrwt beam="2">  1       -1 0.91231033E-01 0.26073412E+04</pdfrwt>
<totfact> 0.24830518E+00</totfact>
</mgrwt>
</event>
<event>
12    6  0.1450532E-007  0.2893278E+04  0.7818608E-02  0.8274880E-01
          2   -1    0    0  501    0  0.00000000000E+00  0.00000000000E+00  0.41240181523E+04  0.41240181523E+04  0.00000000000E+00 0. -1.
         -1   -1    0    0    0  501 -0.00000000000E+00 -0.00000000000E+00 -0.50745744905E+03  0.50745744905E+03  0.00000000000E+00 0.  1.
         24    2    1    2    0    0  0.17272055888E+03  0.81084532227E+03  0.20366588416E+02  0.83312046598E+03  0.79827218411E+02 0.  0.
        254    2    1    2    0    0 -0.17272055888E+03 -0.81084532227E+03  0.35961941148E+04  0.37983551354E+04  0.89865849730E+03 0.  0.
         23    2    4    4    0    0 -0.51483322358E+03 -0.49713994887E+03  0.25514386665E+04  0.26514395582E+04  0.89950459488E+02 0.  0.
         23    2    4    4    0    0  0.34211266470E+03 -0.31370537340E+03  0.10447554483E+04  0.11469155772E+04  0.91919843562E+02 0.  0.
          2    1    3    3  502    0  0.44329292181E+02  0.25197055152E+03 -0.29440089334E+02  0.25752856897E+03  0.00000000000E+00 0. -1.
         -1    1    3    3    0  502  0.12839126670E+03  0.55887477075E+03  0.49806677750E+02  0.57559189701E+03  0.00000000000E+00 0.  1.
         11    1    5    5    0    0 -0.41936908837E+03 -0.41937258485E+03  0.19815817501E+04  0.20684317802E+04  0.00000000000E+00 0.  1.
        -11    1    5    5    0    0 -0.95464135210E+02 -0.77767364020E+02  0.56985691641E+03  0.58300777800E+03  0.00000000000E+00 0. -1.
          3    1    6    6  503    0  0.31620171836E+02 -0.25947094642E+02  0.42812135917E+02  0.59211198004E+02  0.00000000000E+00 0. -1.
         -3    1    6    6    0  503  0.31049249286E+03 -0.28775827876E+03  0.10019433124E+04  0.10877043792E+04  0.00000000000E+00 0.  1.
<mgrwt>
<rscale>  0 0.28932775E+04</rscale>
<asrwt>0</asrwt>
<pdfrwt beam="1">  1        2 0.63446431E+00 0.28932775E+04</pdfrwt>
<pdfrwt beam="2">  1       -1 0.78070380E-01 0.28932775E+04</pdfrwt>
<totfact> 0.43559740E-01</totfact>
</mgrwt>
</event>
<event>
12    6  0.1450532E-007  0.1502371E+04  0.7818608E-02  0.8882878E-01
         -1   -1    0    0    0  501 -0.00000000000E+00  0.00000000000E+00  0.39792927444E+03  0.39792927444E+03  0.00000000000E+00 0.  1.
          2   -1    0    0  501    0  0.00000000000E+00 -0.00000000000E+00 -0.14180393377E+04  0.14180393377E+04  0.00000000000E+00 0. -1.
         24    2    1    2    0    0  0.51372627341E+02  0.28246237291E+03 -0.82486426642E+03  0.87708326533E+03  0.80311003936E+02 0.  0.
        254    2    1    2    0    0 -0.51372627341E+02 -0.28246237291E+03 -0.19524579686E+03  0.93888534682E+03  0.87233057629E+03 0.  0.
         23    2    4    4    0    0 -0.27291972854E+03 -0.44105282087E+03  0.89919002134E+02  0.53435047801E+03  0.91827214779E+02 0.  0.
         23    2    4    4    0    0  0.22154710120E+03  0.15859044796E+03 -0.28516479899E+03  0.40453486881E+03  0.89974714589E+02 0.  0.
          4    1    3    3  502    0  0.52001438632E+02  0.28336024471E+03 -0.82641126768E+03  0.87518727210E+03  0.00000000000E+00 0. -1.
         -3    1    3    3    0  502 -0.62881129101E+00 -0.89787179814E+00  0.15470012617E+01  0.18959932251E+01  0.00000000000E+00 0.  1.
         11    1    5    5    0    0 -0.25446474714E+03 -0.43476755012E+03  0.73971597211E+02  0.50916296740E+03  0.00000000000E+00 0.  1.
        -11    1    5    5    0    0 -0.18454981399E+02 -0.62852707527E+01  0.15947404923E+02  0.25187510609E+02  0.00000000000E+00 0. -1.
          1    1    6    6  503    0  0.21937477445E+02  0.59921316510E+02 -0.54281204315E+02  0.83775093141E+02  0.00000000000E+00 0. -1.
         -1    1    6    6    0  503  0.19960962376E+03  0.98669131454E+02 -0.23088359468E+03  0.32075977567E+03  0.00000000000E+00 0.  1.
<mgrwt>
<rscale>  0 0.15023706E+04</rscale>
<asrwt>0</asrwt>
<pdfrwt beam="1">  1        2 0.21815990E+00 0.15023706E+04</pdfrwt>
<pdfrwt beam="2">  1       -1 0.61219888E-01 0.15023706E+04</pdfrwt>
<totfact> 0.42097544E+01</totfact>
</mgrwt>
</event>
<event>
12    6  0.1450532E-007  0.2997090E+04  0.7818608E-02  0.8244562E-01
         -1   -1    0    0    0  501 -0.00000000000E+00  0.00000000000E+00  0.10869794281E+04  0.10869794281E+04  0.00000000000E+00 0.  1.
          2   -1    0    0  501    0  0.00000000000E+00 -0.00000000000E+00 -0.20659421086E+04  0.20659421086E+04  0.00000000000E+00 0. -1.
         24    2    1    2    0    0 -0.26158651824E+03  0.19788679522E+03  0.94870428755E+03  0.10067324661E+04  0.76705559586E+02 0.  0.
        254    2    1    2    0    0  0.26158651824E+03 -0.19788679522E+03 -0.19276669680E+04  0.21461890706E+04  0.88466993684E+03 0.  0.
         23    2    4    4    0    0  0.38881668726E+03  0.11314466971E+03 -0.38965341670E+03  0.56920745897E+03  0.90483222867E+02 0.  0.
         23    2    4    4    0    0 -0.12723016903E+03 -0.31103146493E+03 -0.15380135513E+04  0.15769816117E+04  0.91963207147E+02 0.  0.
          4    1    3    3  502    0 -0.14723639666E+02  0.42870430657E+02  0.12338371262E+03  0.13144656682E+03  0.00000000000E+00 0. -1.
         -3    1    3    3    0  502 -0.24686287857E+03  0.15501636456E+03  0.82532057492E+03  0.87528589929E+03  0.00000000000E+00 0.  1.
         11    1    5    5    0    0  0.36476304855E+03  0.93164996386E+02 -0.32483949974E+03  0.49724490820E+03  0.00000000000E+00 0. -1.
        -11    1    5    5    0    0  0.24053638715E+02  0.19979673320E+02 -0.64813916962E+02  0.71962550770E+02  0.00000000000E+00 0.  1.
          2    1    6    6  503    0 -0.12291907444E+03 -0.24339976299E+03 -0.13464755239E+04  0.13738081671E+04  0.00000000000E+00 0. -1.
         -2    1    6    6    0  503 -0.43110945860E+01 -0.67631701936E+02 -0.19153802739E+03  0.20317344458E+03  0.00000000000E+00 0.  1.
<mgrwt>
<rscale>  0 0.29970896E+04</rscale>
<asrwt>0</asrwt>
<pdfrwt beam="1">  1        2 0.31783725E+00 0.29970896E+04</pdfrwt>
<pdfrwt beam="2">  1       -1 0.16722761E+00 0.29970896E+04</pdfrwt>
<totfact> 0.15421251E+00</totfact>
</mgrwt>
</event>
<event>
12    6  0.1450532E-007  0.1419842E+04  0.7818608E-02  0.8939580E-01
         -1   -1    0    0    0  501 -0.00000000000E+00  0.00000000000E+00  0.25827933894E+03  0.25827933894E+03  0.00000000000E+00 0.  1.
          2   -1    0    0  501    0  0.00000000000E+00 -0.00000000000E+00 -0.19513286533E+04  0.19513286533E+04  0.00000000000E+00 0. -1.
         24    2    1    2    0    0 -0.28478340900E+03 -0.24316166320E+03 -0.73012380965E+03  0.82400890271E+03  0.75370483883E+02 0.  0.
        254    2    1    2    0    0  0.28478340900E+03  0.24316166320E+03 -0.96292550473E+03  0.13855990895E+04  0.92327142530E+03 0.  0.
         23    2    4    4    0    0  0.11821417697E+03 -0.13735305729E+03  0.11070223023E+03  0.23084788194E+03  0.90527933988E+02 0.  0.
         23    2    4    4    0    0  0.16656923203E+03  0.38051472050E+03 -0.10736277350E+04  0.11547512076E+04  0.90758341826E+02 0.  0.
          2    1    3    3  502    0 -0.25091642863E+03 -0.23296897722E+03 -0.61891217858E+03  0.70730890232E+03  0.00000000000E+00 0. -1.
         -1    1    3    3    0  502 -0.33866980367E+02 -0.10192685977E+02 -0.11121163107E+03  0.11670000039E+03  0.00000000000E+00 0.  1.
         11    1    5    5    0    0  0.55905805127E+02 -0.10132500088E+02  0.53610055935E+02  0.78116353616E+02  0.00000000000E+00 0. -1.
        -11    1    5    5    0    0  0.62308371845E+02 -0.12722055721E+03  0.57092174293E+02  0.15273152832E+03  0.00000000000E+00 0.  1.
          1    1    6    6  503    0 -0.66563434920E+01  0.60017675365E+01 -0.54909599759E+02  0.55636249586E+02  0.00000000000E+00 0. -1.
         -1    1    6    6    0  503  0.17322557552E+03  0.37451295296E+03 -0.10187181352E+04  0.10991149580E+04  0.00000000000E+00 0.  1.
<mgrwt>
<rscale>  0 0.14198421E+04</rscale>
<asrwt>0</asrwt>
<pdfrwt beam="1">  1        2 0.30020441E+00 0.14198421E+04</pdfrwt>
<pdfrwt beam="2">  1       -1 0.39735283E-01 0.14198421E+04</pdfrwt>
<totfact> 0.48559525E+01</totfact>
</mgrwt>
</event>
<event>
12    6  0.1450532E-007  0.1711805E+04  0.7818608E-02  0.8754660E-01
         -1   -1    0    0    0  501 -0.00000000000E+00  0.00000000000E+00  0.25803714561E+03  0.25803714561E+03  0.00000000000E+00 0.  1.
          2   -1    0    0  501    0  0.00000000000E+00 -0.00000000000E+00 -0.28390059978E+04  0.28390059978E+04  0.00000000000E+00 0. -1.
         24    2    1    2    0    0  0.16644193928E+03 -0.57901113654E+03 -0.87802347129E+03  0.10678798143E+04  0.80531150410E+02 0.  0.
        254    2    1    2    0    0 -0.16644193928E+03  0.57901113654E+03 -0.17029453809E+04  0.20291633291E+04  0.92440468983E+03 0.  0.
         23    2    4    4    0    0 -0.35772155940E+03  0.76243593306E+01 -0.22896023752E+03  0.43423040431E+03  0.90057807804E+02 0.  0.
         23    2    4    4    0    0  0.19127962012E+03  0.57138677721E+03 -0.14739851434E+04  0.15949329248E+04  0.90044930609E+02 0.  0.
          4    1    3    3  502    0  0.55537512304E+02 -0.30031998190E+03 -0.49090963012E+03  0.57815981506E+03  0.00000000000E+00 0. -1.
         -3    1    3    3    0  502  0.11090442698E+03 -0.27869115464E+03 -0.38711384116E+03  0.48971999920E+03  0.00000000000E+00 0.  1.
         11    1    5    5    0    0 -0.89934284762E+02 -0.16172669854E+02 -0.10191433634E+03  0.13688046894E+03  0.00000000000E+00 0. -1.
        -11    1    5    5    0    0 -0.26778727464E+03  0.23797029185E+02 -0.12704590118E+03  0.29734993537E+03  0.00000000000E+00 0.  1.
          3    1    6    6  503    0  0.11277135041E+03  0.42880395815E+03 -0.10035093702E+04  0.10970967451E+04  0.00000000000E+00 0. -1.
         -3    1    6    6    0  503  0.78508269711E+02  0.14258281907E+03 -0.47047577319E+03  0.49783617974E+03  0.00000000000E+00 0.  1.
<mgrwt>
<rscale>  0 0.17118049E+04</rscale>
<asrwt>0</asrwt>
<pdfrwt beam="1">  1        2 0.43677015E+00 0.17118049E+04</pdfrwt>
<pdfrwt beam="2">  1       -1 0.39698023E-01 0.17118049E+04</pdfrwt>
<totfact> 0.14689802E+01</totfact>
</mgrwt>
</event>
<event>
12    6  0.1450532E-007  0.2460409E+04  0.7818608E-02  0.8417227E-01
          2   -1    0    0  501    0  0.00000000000E+00  0.00000000000E+00  0.84924420407E+03  0.84924420407E+03  0.00000000000E+00 0. -1.
         -1   -1    0    0    0  501 -0.00000000000E+00 -0.00000000000E+00 -0.17820590964E+04  0.17820590964E+04  0.00000000000E+00 0.  1.
         24    2    1    2    0    0  0.40596216353E+03  0.60078025977E+03  0.42834384574E+03  0.84573831333E+03  0.77798751290E+02 0.  0.
        254    2    1    2    0    0 -0.40596216353E+03 -0.60078025977E+03 -0.13611587381E+04  0.17855649872E+04  0.89985944146E+03 0.  0.
         23    2    4    4    0    0 -0.17660897337E+03  0.99898106601E+02 -0.86214935352E+03  0.89049349075E+03  0.92232250962E+02 0.  0.
         23    2    4    4    0    0 -0.22935319016E+03 -0.70067836637E+03 -0.49900938459E+03  0.89507149643E+03  0.92679873156E+02 0.  0.
          2    1    3    3  502    0  0.37952337471E+03  0.55504758658E+03  0.37173900940E+03  0.76831354695E+03  0.00000000000E+00 0. -1.
         -1    1    3    3    0  502  0.26438788821E+02  0.45732673182E+02  0.56604836342E+02  0.77424766374E+02  0.00000000000E+00 0.  1.
         11    1    5    5    0    0 -0.51548985622E+02  0.81415387850E+02 -0.35958321035E+03  0.37227120284E+03  0.00000000000E+00 0.  1.
        -11    1    5    5    0    0 -0.12505998775E+03  0.18482718751E+02 -0.50256614317E+03  0.51822228791E+03  0.00000000000E+00 0. -1.
          1    1    6    6  503    0 -0.49987691248E+02 -0.13306422694E+03 -0.54889796969E+02  0.15237371026E+03  0.00000000000E+00 0. -1.
         -1    1    6    6    0  503 -0.17936549891E+03 -0.56761413943E+03 -0.44411958762E+03  0.74269778617E+03  0.00000000000E+00 0.  1.
<mgrwt>
<rscale>  0 0.24604092E+04</rscale>
<asrwt>0</asrwt>
<pdfrwt beam="1">  1        2 0.13065296E+00 0.24604092E+04</pdfrwt>
<pdfrwt beam="2">  1       -1 0.27416293E+00 0.24604092E+04</pdfrwt>
<totfact> 0.15745984E+00</totfact>
</mgrwt>
</event>
<event>
12    6  0.1450532E-007  0.1522531E+04  0.7818608E-02  0.8869607E-01
         -1   -1    0    0    0  501 -0.00000000000E+00  0.00000000000E+00  0.45303219484E+03  0.45303219484E+03  0.00000000000E+00 0.  1.
          2   -1    0    0  501    0  0.00000000000E+00 -0.00000000000E+00 -0.12792144892E+04  0.12792144892E+04  0.00000000000E+00 0. -1.
         24    2    1    2    0    0 -0.18011192317E+03  0.36104770222E+03  0.51035009035E+02  0.41464277983E+03  0.80797986167E+02 0.  0.
        254    2    1    2    0    0  0.18011192317E+03 -0.36104770222E+03 -0.87721730337E+03  0.13176039042E+04  0.89653449619E+03 0.  0.
         23    2    4    4    0    0  0.52112411380E+03 -0.15526583772E+03 -0.35867388325E+03  0.65772887279E+03  0.91008204209E+02 0.  0.
         23    2    4    4    0    0 -0.34101219063E+03 -0.20578186451E+03 -0.51854342012E+03  0.65987503140E+03  0.88951046052E+02 0.  0.
          2    1    3    3  502    0 -0.11979116067E+03  0.29491275506E+03  0.62525300662E+02  0.32439615980E+03  0.00000000000E+00 0. -1.
         -3    1    3    3    0  502 -0.60320762498E+02  0.66134947169E+02 -0.11490291627E+02  0.90246620031E+02  0.00000000000E+00 0.  1.
         11    1    5    5    0    0  0.50267331510E+03 -0.16300296912E+03 -0.35683417756E+03  0.63763709108E+03  0.00000000000E+00 0. -1.
        -11    1    5    5    0    0  0.18450798702E+02  0.77371314060E+01 -0.18397056927E+01  0.20091781708E+02  0.00000000000E+00 0.  1.
          2    1    6    6  503    0 -0.21053580384E+03 -0.12898600121E+03 -0.38835693031E+03  0.46019975937E+03  0.00000000000E+00 0. -1.
         -2    1    6    6    0  503 -0.13047638679E+03 -0.76795863302E+02 -0.13018648981E+03  0.19967527202E+03  0.00000000000E+00 0.  1.
<mgrwt>
<rscale>  0 0.15225312E+04</rscale>
<asrwt>0</asrwt>
<pdfrwt beam="1">  1        2 0.19680223E+00 0.15225312E+04</pdfrwt>
<pdfrwt beam="2">  1       -1 0.69697261E-01 0.15225312E+04</pdfrwt>
<totfact> 0.38918405E+01</totfact>
</mgrwt>
</event>
<event>
12    6  0.1450532E-007  0.1663800E+04  0.7818608E-02  0.8782284E-01
         -1   -1    0    0    0  501 -0.00000000000E+00  0.00000000000E+00  0.26949863576E+03  0.26949863576E+03  0.00000000000E+00 0.  1.
          2   -1    0    0  501    0  0.00000000000E+00 -0.00000000000E+00 -0.25679452140E+04  0.25679452140E+04  0.00000000000E+00 0. -1.
         24    2    1    2    0    0  0.48305046298E+03  0.67275851857E+02 -0.26061031042E+03  0.55866126468E+03  0.79503991911E+02 0.  0.
        254    2    1    2    0    0 -0.48305046298E+03 -0.67275851857E+02 -0.20378362678E+04  0.22787825850E+04  0.89566155752E+03 0.  0.
         23    2    4    4    0    0 -0.27763527254E+03  0.39540104902E+03 -0.11803407592E+04  0.12787818773E+04  0.93034659149E+02 0.  0.
         23    2    4    4    0    0 -0.20541519043E+03 -0.46267690088E+03 -0.85749550860E+03  0.10000007077E+04  0.91856154729E+02 0.  0.
          4    1    3    3  502    0  0.21551501665E+03  0.45173399131E+02 -0.15910435125E+03  0.27166441243E+03  0.00000000000E+00 0. -1.
         -3    1    3    3    0  502  0.26753544632E+03  0.22102452727E+02 -0.10150595917E+03  0.28699685225E+03  0.00000000000E+00 0.  1.
         11    1    5    5    0    0 -0.71492801977E+02  0.18062778884E+03 -0.47574534801E+03  0.51387863839E+03  0.00000000000E+00 0. -1.
        -11    1    5    5    0    0 -0.20614247057E+03  0.21477326018E+03 -0.70459541117E+03  0.76490323891E+03  0.00000000000E+00 0.  1.
          3    1    6    6  503    0 -0.36238254281E+02 -0.25864372064E+02 -0.98466787350E+02  0.10806426341E+03  0.00000000000E+00 0. -1.
         -3    1    6    6    0  503 -0.16917693615E+03 -0.43681252881E+03 -0.75902872125E+03  0.89193644434E+03  0.00000000000E+00 0.  1.
<mgrwt>
<rscale>  0 0.16638001E+04</rscale>
<asrwt>0</asrwt>
<pdfrwt beam="1">  1        2 0.39506849E+00 0.16638001E+04</pdfrwt>
<pdfrwt beam="2">  1       -1 0.41461329E-01 0.16638001E+04</pdfrwt>
<totfact> 0.19732237E+01</totfact>
</mgrwt>
</event>
<event>
12    6  0.1450532E-007  0.2005299E+04  0.7818608E-02  0.8604147E-01
          2   -1    0    0  501    0  0.00000000000E+00  0.00000000000E+00  0.16710776262E+04  0.16710776262E+04  0.00000000000E+00 0. -1.
         -1   -1    0    0    0  501 -0.00000000000E+00 -0.00000000000E+00 -0.60159157597E+03  0.60159157597E+03  0.00000000000E+00 0.  1.
         24    2    1    2    0    0 -0.41636617764E+03 -0.67087073111E+03  0.55459842641E+03  0.96813610526E+03  0.79245012431E+02 0.  0.
        254    2    1    2    0    0  0.41636617764E+03  0.67087073111E+03  0.51488762382E+03  0.13045330969E+04  0.90181428468E+03 0.  0.
         23    2    4    4    0    0  0.21080924860E+03  0.19645346698E+03 -0.23950502971E+03  0.38540980767E+03  0.90241656732E+02 0.  0.
         23    2    4    4    0    0  0.20555692904E+03  0.47441726413E+03  0.75439265352E+03  0.91912328925E+03  0.91399964827E+02 0.  0.
          2    1    3    3  502    0  0.20024649950E+01  0.47218018592E+00  0.44625565530E-02  0.20573867158E+01  0.00000000000E+00 0. -1.
         -1    1    3    3    0  502 -0.41836864263E+03 -0.67134291129E+03  0.55459396385E+03  0.96607871855E+03  0.00000000000E+00 0.  1.
         11    1    5    5    0    0  0.86711937645E+01 -0.89040312453E+01 -0.18395643815E+02  0.22200700104E+02  0.00000000000E+00 0. -1.
        -11    1    5    5    0    0  0.20213805483E+03  0.20535749822E+03 -0.22110938589E+03  0.36320910756E+03  0.00000000000E+00 0.  1.
          2    1    6    6  503    0  0.88997285133E+02  0.12269772435E+03  0.26496364436E+03  0.30525559971E+03  0.00000000000E+00 0. -1.
         -2    1    6    6    0  503  0.11655964391E+03  0.35171953978E+03  0.48942900917E+03  0.61386768954E+03  0.00000000000E+00 0.  1.
<mgrwt>
<rscale>  0 0.20052992E+04</rscale>
<asrwt>0</asrwt>
<pdfrwt beam="1">  1        2 0.25708886E+00 0.20052992E+04</pdfrwt>
<pdfrwt beam="2">  1       -1 0.92552551E-01 0.20052992E+04</pdfrwt>
<totfact> 0.12220647E+01</totfact>
</mgrwt>
</event>
<event>
12    6  0.1450532E-007  0.1855968E+04  0.7818608E-02  0.8677090E-01
         -1   -1    0    0    0  501 -0.00000000000E+00  0.00000000000E+00  0.43516428090E+03  0.43516428090E+03  0.00000000000E+00 0.  1.
          2   -1    0    0  501    0  0.00000000000E+00 -0.00000000000E+00 -0.19789176233E+04  0.19789176233E+04  0.00000000000E+00 0. -1.
         24    2    1    2    0    0 -0.46994938940E+03 -0.32430572516E+03 -0.46082344694E+02  0.57869013707E+03  0.82049133373E+02 0.  0.
        254    2    1    2    0    0  0.46994938940E+03  0.32430572516E+03 -0.14976709977E+04  0.18353917671E+04  0.89421355920E+03 0.  0.
         23    2    4    4    0    0  0.27108738001E+03  0.39587673565E+03 -0.15272287243E+04  0.16034396483E+04  0.91566216433E+02 0.  0.
         23    2    4    4    0    0  0.19886200939E+03 -0.71571010493E+02  0.29557726674E+02  0.23195211874E+03  0.90882439779E+02 0.  0.
          2    1    3    3  502    0 -0.31059296997E+03 -0.24236451347E+03 -0.61922966220E+02  0.39880196104E+03  0.00000000000E+00 0. -1.
         -1    1    3    3    0  502 -0.15935641943E+03 -0.81941211685E+02  0.15840621526E+02  0.17988817603E+03  0.00000000000E+00 0.  1.
         11    1    5    5    0    0  0.21787941176E+02  0.35166518875E+01 -0.46818595298E+02  0.51759656943E+02  0.00000000000E+00 0.  1.
        -11    1    5    5    0    0  0.24929943883E+03  0.39236008376E+03 -0.14804101290E+04  0.15516799914E+04  0.00000000000E+00 0. -1.
          4    1    6    6  503    0  0.16816302798E+03 -0.93230208623E+02  0.28400335517E+02  0.19436371790E+03  0.00000000000E+00 0. -1.
         -4    1    6    6    0  503  0.30698981418E+02  0.21659198130E+02  0.11573911573E+01  0.37588400845E+02  0.00000000000E+00 0.  1.
<mgrwt>
<rscale>  0 0.18559680E+04</rscale>
<asrwt>0</asrwt>
<pdfrwt beam="1">  1        2 0.30444887E+00 0.18559680E+04</pdfrwt>
<pdfrwt beam="2">  1       -1 0.66948351E-01 0.18559680E+04</pdfrwt>
<totfact> 0.16604535E+01</totfact>
</mgrwt>
</event>
<event>
12    6  0.1450532E-007  0.1630732E+04  0.7818608E-02  0.8801888E-01
         -1   -1    0    0    0  501 -0.00000000000E+00  0.00000000000E+00  0.71821371002E+03  0.71821371002E+03  0.00000000000E+00 0.  1.
          2   -1    0    0  501    0  0.00000000000E+00 -0.00000000000E+00 -0.92565975782E+03  0.92565975782E+03  0.00000000000E+00 0. -1.
         24    2    1    2    0    0 -0.18805094515E+03  0.10023813148E+03 -0.59949904199E+03  0.64125448346E+03  0.79983562261E+02 0.  0.
        254    2    1    2    0    0  0.18805094515E+03 -0.10023813148E+03  0.39205299419E+03  0.10026189844E+04  0.89784655516E+03 0.  0.
         23    2    4    4    0    0 -0.22499167829E+03 -0.17363406226E+03 -0.12930275927E+03  0.32731872215E+03  0.98225757516E+02 0.  0.
         23    2    4    4    0    0  0.41304262343E+03  0.73395930785E+02  0.52135575345E+03  0.67530026223E+03  0.90705297957E+02 0.  0.
          2    1    3    3  502    0 -0.15921731406E+03  0.10679483896E+03 -0.56003580992E+03  0.59194205723E+03  0.00000000000E+00 0. -1.
         -1    1    3    3    0  502 -0.28833631093E+02 -0.65567074808E+01 -0.39463232069E+02  0.49312426227E+02  0.00000000000E+00 0.  1.
         11    1    5    5    0    0 -0.12194470412E+02 -0.15502013998E+02  0.15633793970E+02  0.25168096084E+02  0.00000000000E+00 0. -1.
        -11    1    5    5    0    0 -0.21279720787E+03 -0.15813204827E+03 -0.14493655324E+03  0.30215062607E+03  0.00000000000E+00 0.  1.
          3    1    6    6  503    0  0.14360157909E+03  0.32874070199E+02  0.11904059600E+03  0.18940111273E+03  0.00000000000E+00 0. -1.
         -3    1    6    6    0  503  0.26944104434E+03  0.40521860586E+02  0.40231515746E+03  0.48589914950E+03  0.00000000000E+00 0.  1.
<mgrwt>
<rscale>  0 0.16307318E+04</rscale>
<asrwt>0</asrwt>
<pdfrwt beam="1">  1        2 0.14240919E+00 0.16307318E+04</pdfrwt>
<pdfrwt beam="2">  1       -1 0.11049442E+00 0.16307318E+04</pdfrwt>
<totfact> 0.23235698E+01</totfact>
</mgrwt>
</event>
<event>
12    6  0.1450532E-007  0.1734612E+04  0.7818608E-02  0.8741867E-01
         -1   -1    0    0    0  501 -0.00000000000E+00  0.00000000000E+00  0.37188441267E+03  0.37188441267E+03  0.00000000000E+00 0.  1.
          2   -1    0    0  501    0  0.00000000000E+00 -0.00000000000E+00 -0.20227239822E+04  0.20227239822E+04  0.00000000000E+00 0. -1.
         24    2    1    2    0    0  0.50551611285E+03  0.37372346594E+03 -0.48750864479E+03  0.79949932568E+03  0.79490399909E+02 0.  0.
        254    2    1    2    0    0 -0.50551611285E+03 -0.37372346594E+03 -0.11633309248E+04  0.15951090692E+04  0.89208650526E+03 0.  0.
         23    2    4    4    0    0 -0.16674767206E+02 -0.18756114074E+03 -0.10252599070E+04  0.10463179924E+04  0.90367223136E+02 0.  0.
         23    2    4    4    0    0 -0.48884134565E+03 -0.18616232519E+03 -0.13807101777E+03  0.54879107679E+03  0.92118225547E+02 0.  0.
          2    1    3    3  502    0  0.32997378551E+03  0.28325942656E+03 -0.31107874789E+03  0.53468550500E+03  0.00000000000E+00 0. -1.
         -1    1    3    3    0  502  0.17554232734E+03  0.90464039372E+02 -0.17642989690E+03  0.26481382069E+03  0.00000000000E+00 0.  1.
         11    1    5    5    0    0 -0.23851869269E+02 -0.10275585584E+02 -0.68774848534E+02  0.73515162501E+02  0.00000000000E+00 0. -1.
        -11    1    5    5    0    0  0.71771020627E+01 -0.17728555516E+03 -0.95648505848E+03  0.97280282995E+03  0.00000000000E+00 0.  1.
          1    1    6    6  503    0 -0.25131733062E+03 -0.51504407423E+02 -0.45902008610E+02  0.26061484810E+03  0.00000000000E+00 0. -1.
         -1    1    6    6    0  503 -0.23752401503E+03 -0.13465791777E+03 -0.92169009158E+02  0.28817622869E+03  0.00000000000E+00 0.  1.
<mgrwt>
<rscale>  0 0.17346118E+04</rscale>
<asrwt>0</asrwt>
<pdfrwt beam="1">  1        2 0.31118831E+00 0.17346118E+04</pdfrwt>
<pdfrwt beam="2">  1       -1 0.57212986E-01 0.17346118E+04</pdfrwt>
<totfact> 0.21698828E+01</totfact>
</mgrwt>
</event>
<event>
12    6  0.1450532E-007  0.1627540E+04  0.7818608E-02  0.8803806E-01
         -1   -1    0    0    0  501 -0.00000000000E+00  0.00000000000E+00  0.30250406866E+03  0.30250406866E+03  0.00000000000E+00 0.  1.
          2   -1    0    0  501    0  0.00000000000E+00 -0.00000000000E+00 -0.21891317728E+04  0.21891317728E+04  0.00000000000E+00 0. -1.
         24    2    1    2    0    0 -0.21267507020E+03 -0.41711640767E+02  0.13408551689E+03  0.26712413545E+03  0.80036438189E+02 0.  0.
        254    2    1    2    0    0  0.21267507020E+03  0.41711640767E+02 -0.20207132210E+04  0.22245117060E+04  0.90454400784E+03 0.  0.
         23    2    4    4    0    0  0.40901523844E+02  0.35783508092E+03 -0.34186837360E+03  0.50511746146E+03  0.92470455923E+02 0.  0.
         23    2    4    4    0    0  0.17177354635E+03 -0.31612344015E+03 -0.16788448474E+04  0.17193942446E+04  0.91413159996E+02 0.  0.
          4    1    3    3  502    0 -0.72199251316E+02  0.23127358062E+02  0.52471687310E+02  0.92200241598E+02  0.00000000000E+00 0. -1.
         -3    1    3    3    0  502 -0.14047581888E+03 -0.64838998829E+02  0.81613829582E+02  0.17492389385E+03  0.00000000000E+00 0.  1.
         11    1    5    5    0    0  0.30894026699E+02  0.33274621932E+03 -0.27425420624E+03  0.43230759535E+03  0.00000000000E+00 0.  1.
        -11    1    5    5    0    0  0.10007497145E+02  0.25088861594E+02 -0.67614167358E+02  0.72809866108E+02  0.00000000000E+00 0. -1.
          4    1    6    6  503    0  0.51882298024E+02 -0.53745842051E+02 -0.22103626438E+03  0.23331827737E+03  0.00000000000E+00 0. -1.
         -4    1    6    6    0  503  0.11989124833E+03 -0.26237759810E+03 -0.14578085831E+04  0.14860759672E+04  0.00000000000E+00 0.  1.
<mgrwt>
<rscale>  0 0.16275396E+04</rscale>
<asrwt>0</asrwt>
<pdfrwt beam="1">  1        2 0.33678949E+00 0.16275396E+04</pdfrwt>
<pdfrwt beam="2">  1       -1 0.46539089E-01 0.16275396E+04</pdfrwt>
<totfact> 0.26260419E+01</totfact>
</mgrwt>
</event>
<event>
12    6  0.1450532E-007  0.1543590E+04  0.7818608E-02  0.8855973E-01
         -1   -1    0    0    0  501 -0.00000000000E+00  0.00000000000E+00  0.40809111524E+03  0.40809111524E+03  0.00000000000E+00 0.  1.
          2   -1    0    0  501    0  0.00000000000E+00 -0.00000000000E+00 -0.14596433621E+04  0.14596433621E+04  0.00000000000E+00 0. -1.
         24    2    1    2    0    0  0.27624679322E+03  0.39197783259E+03 -0.39228711286E+03  0.62452036109E+03  0.78597649449E+02 0.  0.
        254    2    1    2    0    0 -0.27624679322E+03 -0.39197783259E+03 -0.65926513398E+03  0.12432141162E+04  0.93861169281E+03 0.  0.
         23    2    4    4    0    0 -0.35178332897E+03 -0.48926445345E+03 -0.81844943607E+03  0.10203981117E+04  0.90673099379E+02 0.  0.
         23    2    4    4    0    0  0.75536535750E+02  0.97286620868E+02  0.15918430209E+03  0.22281600454E+03  0.95587002336E+02 0.  0.
          2    1    3    3  502    0  0.20454190497E+03  0.24551488601E+03 -0.22442379717E+03  0.39048814435E+03  0.00000000000E+00 0. -1.
         -1    1    3    3    0  502  0.71704888245E+02  0.14646294658E+03 -0.16786331569E+03  0.23403221674E+03  0.00000000000E+00 0.  1.
         11    1    5    5    0    0 -0.30305642583E+03 -0.40590032130E+03 -0.73573129640E+03  0.89325181700E+03  0.00000000000E+00 0. -1.
        -11    1    5    5    0    0 -0.48726903139E+02 -0.83364132157E+02 -0.82718139673E+02  0.12714629468E+03  0.00000000000E+00 0.  1.
          1    1    6    6  503    0  0.53694807402E+02  0.39464953804E+02  0.14473701425E+03  0.15934057304E+03  0.00000000000E+00 0. -1.
         -1    1    6    6    0  503  0.21841728348E+02  0.57821667063E+02  0.14447287840E+02  0.63475431508E+02  0.00000000000E+00 0.  1.
<mgrwt>
<rscale>  0 0.15435900E+04</rscale>
<asrwt>0</asrwt>
<pdfrwt beam="1">  1        2 0.22456051E+00 0.15435900E+04</pdfrwt>
<pdfrwt beam="2">  1       -1 0.62783249E-01 0.15435900E+04</pdfrwt>
<totfact> 0.37783738E+01</totfact>
</mgrwt>
</event>
<event>
12    6  0.1450532E-007  0.5396534E+04  0.7818608E-02  0.7770089E-01
         -1   -1    0    0    0  501 -0.00000000000E+00  0.00000000000E+00  0.32507477681E+04  0.32507477681E+04  0.00000000000E+00 0.  1.
          2   -1    0    0  501    0  0.00000000000E+00 -0.00000000000E+00 -0.22396830788E+04  0.22396830788E+04  0.00000000000E+00 0. -1.
         24    2    1    2    0    0  0.10645698640E+04  0.12624566801E+04  0.25648536637E+04  0.30518338856E+04  0.90054896853E+02 0.  0.
        254    2    1    2    0    0 -0.10645698640E+04 -0.12624566801E+04 -0.15537889745E+04  0.24385969613E+04  0.89743473205E+03 0.  0.
         23    2    4    4    0    0 -0.35298309912E+03 -0.51824861297E+03 -0.80928546241E+02  0.63916152043E+03  0.93804725317E+02 0.  0.
         23    2    4    4    0    0 -0.71158676492E+03 -0.74420806709E+03 -0.14728604282E+04  0.17994354409E+04  0.91916777010E+02 0.  0.
          4    1    3    3  502    0  0.13297204979E+03  0.20735309530E+03  0.38228469141E+03  0.45477297352E+03  0.00000000000E+00 0. -1.
         -3    1    3    3    0  502  0.93159781424E+03  0.10551035848E+04  0.21825689723E+04  0.25970609121E+04  0.00000000000E+00 0.  1.
         11    1    5    5    0    0 -0.30986381038E+03 -0.48764349467E+03 -0.55310695910E+02  0.58040591999E+03  0.00000000000E+00 0. -1.
        -11    1    5    5    0    0 -0.43119288737E+02 -0.30605118301E+02 -0.25617850331E+02  0.58755600439E+02  0.00000000000E+00 0.  1.
          2    1    6    6  503    0 -0.52559404025E+03 -0.50327131279E+03 -0.99055527091E+03  0.12291179171E+04  0.00000000000E+00 0. -1.
         -2    1    6    6    0  503 -0.18599272467E+03 -0.24093675431E+03 -0.48230515730E+03  0.57031752381E+03  0.00000000000E+00 0.  1.
<mgrwt>
<rscale>  0 0.53965340E+04</rscale>
<asrwt>0</asrwt>
<pdfrwt beam="1">  1        2 0.34456663E+00 0.53965340E+04</pdfrwt>
<pdfrwt beam="2">  1       -1 0.50011504E+00 0.53965340E+04</pdfrwt>
<totfact> 0.59104839E-03</totfact>
</mgrwt>
</event>
<event>
12    6  0.1450532E-007  0.1289920E+04  0.7818608E-02  0.9037597E-01
          2   -1    0    0  501    0  0.00000000000E+00  0.00000000000E+00  0.87532497490E+03  0.87532497490E+03  0.00000000000E+00 0. -1.
         -1   -1    0    0    0  501 -0.00000000000E+00 -0.00000000000E+00 -0.47522165435E+03  0.47522165435E+03  0.00000000000E+00 0.  1.
         24    2    1    2    0    0  0.73681509667E+01  0.16550858337E+03 -0.18658501676E+03  0.26371629354E+03  0.85351825868E+02 0.  0.
        254    2    1    2    0    0 -0.73681509667E+01 -0.16550858337E+03  0.58668833732E+03  0.10868303357E+04  0.89974973891E+03 0.  0.
         23    2    4    4    0    0  0.85166181810E+02 -0.33974445106E+03 -0.93641977921E+02  0.37263383765E+03  0.86067336332E+02 0.  0.
         23    2    4    4    0    0 -0.92534332777E+02  0.17423586770E+03  0.68033031524E+03  0.71419649806E+03  0.91140329609E+02 0.  0.
          4    1    3    3  502    0 -0.20185869194E+02  0.89797528542E+01 -0.54834144594E+01  0.22763416056E+02  0.00000000000E+00 0. -1.
         -3    1    3    3    0  502  0.27554020160E+02  0.15652883051E+03 -0.18110160230E+03  0.24095287748E+03  0.00000000000E+00 0.  1.
         11    1    5    5    0    0  0.89169373025E+02 -0.20711425108E+03 -0.79910766167E+02  0.23923465601E+03  0.00000000000E+00 0. -1.
        -11    1    5    5    0    0 -0.40031912150E+01 -0.13263019998E+03 -0.13731211754E+02  0.13339918164E+03  0.00000000000E+00 0.  1.
          3    1    6    6  503    0 -0.46568365408E+02  0.16577024899E+02  0.21896158696E+03  0.22447179550E+03  0.00000000000E+00 0. -1.
         -3    1    6    6    0  503 -0.45965967369E+02  0.15765884280E+03  0.46136872827E+03  0.48972470256E+03  0.00000000000E+00 0.  1.
<mgrwt>
<rscale>  0 0.12899200E+04</rscale>
<asrwt>0</asrwt>
<pdfrwt beam="1">  1        2 0.13466538E+00 0.12899200E+04</pdfrwt>
<pdfrwt beam="2">  1       -1 0.73111024E-01 0.12899200E+04</pdfrwt>
<totfact> 0.64365261E+01</totfact>
</mgrwt>
</event>
<event>
12    6  0.1450532E-007  0.1404642E+04  0.7818608E-02  0.8950465E-01
          2   -1    0    0  501    0  0.00000000000E+00  0.00000000000E+00  0.12745433865E+04  0.12745433865E+04  0.00000000000E+00 0. -1.
         -1   -1    0    0    0  501 -0.00000000000E+00 -0.00000000000E+00 -0.38700507734E+03  0.38700507734E+03  0.00000000000E+00 0.  1.
         24    2    1    2    0    0 -0.38775904454E+03  0.12129856554E+03  0.22382465037E+03  0.47104329243E+03  0.81938334205E+02 0.  0.
        254    2    1    2    0    0  0.38775904454E+03 -0.12129856554E+03  0.66371365884E+03  0.11905051714E+04  0.90095300859E+03 0.  0.
         23    2    4    4    0    0 -0.20287823904E+03  0.64519191784E+02 -0.53537117530E+02  0.23864939150E+03  0.93621595400E+02 0.  0.
         23    2    4    4    0    0  0.59063728358E+03 -0.18581775732E+03  0.71725077637E+03  0.95185577994E+03  0.90554458304E+02 0.  0.
          2    1    3    3  502    0 -0.42410117616E+02  0.27132684593E+02  0.57212780750E+02  0.76210910837E+02  0.00000000000E+00 0. -1.
         -1    1    3    3    0  502 -0.34534892692E+03  0.94165880944E+02  0.16661186962E+03  0.39483238160E+03  0.00000000000E+00 0.  1.
         11    1    5    5    0    0 -0.16079422124E+03  0.64719167136E+02 -0.36319527690E+01  0.17336823025E+03  0.00000000000E+00 0.  1.
        -11    1    5    5    0    0 -0.42084017801E+02 -0.19997535141E+00 -0.49905164762E+02  0.65281161251E+02  0.00000000000E+00 0. -1.
          3    1    6    6  503    0  0.24763889058E+03 -0.93766128129E+02  0.37148091697E+03  0.45619642544E+03  0.00000000000E+00 0. -1.
         -3    1    6    6    0  503  0.34299839300E+03 -0.92051629192E+02  0.34576985940E+03  0.49565935450E+03  0.00000000000E+00 0.  1.
<mgrwt>
<rscale>  0 0.14046420E+04</rscale>
<asrwt>0</asrwt>
<pdfrwt beam="1">  1        2 0.19608360E+00 0.14046420E+04</pdfrwt>
<pdfrwt beam="2">  1       -1 0.59539243E-01 0.14046420E+04</pdfrwt>
<totfact> 0.54268725E+01</totfact>
</mgrwt>
</event>
<event>
12    6  0.1450532E-007  0.2346976E+04  0.7818608E-02  0.8459626E-01
         -1   -1    0    0    0  501 -0.00000000000E+00  0.00000000000E+00  0.59604464293E+03  0.59604464293E+03  0.00000000000E+00 0.  1.
          2   -1    0    0  501    0  0.00000000000E+00 -0.00000000000E+00 -0.23103548608E+04  0.23103548608E+04  0.00000000000E+00 0. -1.
         24    2    1    2    0    0 -0.77685882346E+03  0.23797787673E+03 -0.14588452792E+04  0.16717394910E+04  0.79625848133E+02 0.  0.
        254    2    1    2    0    0  0.77685882346E+03 -0.23797787673E+03 -0.25546493861E+03  0.12346600127E+04  0.89385676181E+03 0.  0.
         23    2    4    4    0    0  0.87187477224E+03 -0.41848397655E+03 -0.13279878975E+03  0.98033765374E+03  0.90177268062E+02 0.  0.
         23    2    4    4    0    0 -0.95015948778E+02  0.18050609981E+03 -0.12266614886E+03  0.25432235894E+03  0.89567826757E+02 0.  0.
          4    1    3    3  502    0 -0.57600580967E+03  0.15400187746E+03 -0.10093461073E+04  0.11722963940E+04  0.00000000000E+00 0. -1.
         -3    1    3    3    0  502 -0.20085301379E+03  0.83975999269E+02 -0.44949917198E+03  0.49944309707E+03  0.00000000000E+00 0.  1.
         11    1    5    5    0    0  0.16746421697E+03 -0.11911707482E+03 -0.16519162833E+02  0.20616989164E+03  0.00000000000E+00 0. -1.
        -11    1    5    5    0    0  0.70441055527E+03 -0.29936690172E+03 -0.11627962692E+03  0.77416776209E+03  0.00000000000E+00 0.  1.
          3    1    6    6  503    0 -0.71265261216E+02  0.18229825996E+03 -0.94245721195E+02  0.21724099292E+03  0.00000000000E+00 0. -1.
         -3    1    6    6    0  503 -0.23750687562E+02 -0.17921601454E+01 -0.28420427664E+02  0.37081366025E+02  0.00000000000E+00 0.  1.
<mgrwt>
<rscale>  0 0.23469765E+04</rscale>
<asrwt>0</asrwt>
<pdfrwt beam="1">  1        2 0.35543921E+00 0.23469765E+04</pdfrwt>
<pdfrwt beam="2">  1       -1 0.91699175E-01 0.23469765E+04</pdfrwt>
<totfact> 0.53253826E+00</totfact>
</mgrwt>
</event>
<event>
12    6  0.1450532E-007  0.2348841E+04  0.7818608E-02  0.8458909E-01
         -1   -1    0    0    0  501 -0.00000000000E+00  0.00000000000E+00  0.32024371064E+03  0.32024371064E+03  0.00000000000E+00 0.  1.
          2   -1    0    0  501    0  0.00000000000E+00 -0.00000000000E+00 -0.43069170411E+04  0.43069170411E+04  0.00000000000E+00 0. -1.
         24    2    1    2    0    0 -0.99254948202E+03  0.16231286052E+03 -0.18996765423E+04  0.21509970851E+04  0.80731378228E+02 0.  0.
        254    2    1    2    0    0  0.99254948202E+03 -0.16231286052E+03 -0.20869967881E+04  0.24761636667E+04  0.87426024252E+03 0.  0.
         23    2    4    4    0    0  0.63862025899E+03 -0.29819587781E+03 -0.19285000803E+04  0.20553098529E+04  0.91811844109E+02 0.  0.
         23    2    4    4    0    0  0.35392922303E+03  0.13588301730E+03 -0.15849670779E+03  0.42085381382E+03  0.90921047754E+02 0.  0.
          4    1    3    3  502    0 -0.98087540246E+03  0.16177113617E+03 -0.18524462143E+04  0.21023423681E+04  0.00000000000E+00 0. -1.
         -3    1    3    3    0  502 -0.11674079553E+02  0.54172434394E+00 -0.47230328042E+02  0.48654716993E+02  0.00000000000E+00 0.  1.
         11    1    5    5    0    0  0.44072066158E+03 -0.24809406009E+03 -0.14189231769E+04  0.15063626211E+04  0.00000000000E+00 0. -1.
        -11    1    5    5    0    0  0.19789959740E+03 -0.50101817723E+02 -0.50957690344E+03  0.54894723181E+03  0.00000000000E+00 0.  1.
          3    1    6    6  503    0  0.28104504160E+03  0.14466563229E+03 -0.12142052202E+03  0.33861099176E+03  0.00000000000E+00 0. -1.
         -3    1    6    6    0  503  0.72884181430E+02 -0.87826149993E+01 -0.37076185775E+02  0.82242822061E+02  0.00000000000E+00 0.  1.
<mgrwt>
<rscale>  0 0.23488406E+04</rscale>
<asrwt>0</asrwt>
<pdfrwt beam="1">  1        2 0.66260259E+00 0.23488406E+04</pdfrwt>
<pdfrwt beam="2">  1       -1 0.49268266E-01 0.23488406E+04</pdfrwt>
<totfact> 0.79865512E-01</totfact>
</mgrwt>
</event>
<event>
12    6  0.1450532E-007  0.2569602E+04  0.7818608E-02  0.8378601E-01
          2   -1    0    0  501    0  0.00000000000E+00  0.00000000000E+00  0.16391465675E+04  0.16391465675E+04  0.00000000000E+00 0. -1.
         -1   -1    0    0    0  501 -0.00000000000E+00 -0.00000000000E+00 -0.10070569096E+04  0.10070569096E+04  0.00000000000E+00 0.  1.
         24    2    1    2    0    0  0.26045833878E+03  0.10315412022E+04 -0.11299135364E+03  0.10727211425E+04  0.77767638417E+02 0.  0.
        254    2    1    2    0    0 -0.26045833878E+03 -0.10315412022E+04  0.74508101157E+03  0.15734823346E+04  0.88813576964E+03 0.  0.
         23    2    4    4    0    0  0.20811738184E+03 -0.38242892936E+03 -0.43023016768E+02  0.44649844058E+03  0.89135553128E+02 0.  0.
         23    2    4    4    0    0 -0.46857572062E+03 -0.64911227282E+03  0.78810402834E+03  0.11269838940E+04  0.89859830404E+02 0.  0.
          2    1    3    3  502    0  0.38898053010E+02  0.14043553508E+03 -0.42444760292E+02  0.15177864052E+03  0.00000000000E+00 0. -1.
         -1    1    3    3    0  502  0.22156028577E+03  0.89110566710E+03 -0.70546593352E+02  0.92094250201E+03  0.00000000000E+00 0.  1.
         11    1    5    5    0    0  0.47571327199E+02 -0.15716796954E+03  0.11295583845E+02  0.16459766717E+03  0.00000000000E+00 0.  1.
        -11    1    5    5    0    0  0.16054605464E+03 -0.22526095982E+03 -0.54318600613E+02  0.28190077341E+03  0.00000000000E+00 0. -1.
          1    1    6    6  503    0 -0.42709873285E+03 -0.59001552544E+03  0.67657783857E+03  0.99412736584E+03  0.00000000000E+00 0. -1.
         -1    1    6    6    0  503 -0.41476987768E+02 -0.59096747385E+02  0.11152618977E+03  0.13285652814E+03  0.00000000000E+00 0.  1.
<mgrwt>
<rscale>  0 0.25696022E+04</rscale>
<asrwt>0</asrwt>
<pdfrwt beam="1">  1        2 0.25217639E+00 0.25696022E+04</pdfrwt>
<pdfrwt beam="2">  1       -1 0.15493183E+00 0.25696022E+04</pdfrwt>
<totfact> 0.34209937E+00</totfact>
</mgrwt>
</event>
<event>
12    6  0.1450532E-007  0.1229312E+04  0.7818608E-02  0.9087580E-01
         -1   -1    0    0    0  501 -0.00000000000E+00  0.00000000000E+00  0.21972787248E+03  0.21972787248E+03  0.00000000000E+00 0.  1.
          2   -1    0    0  501    0  0.00000000000E+00 -0.00000000000E+00 -0.17194093983E+04  0.17194093983E+04  0.00000000000E+00 0. -1.
         24    2    1    2    0    0 -0.42343127637E+02  0.21993948333E+03 -0.58631364187E+03  0.63267225581E+03  0.79650359912E+02 0.  0.
        254    2    1    2    0    0  0.42343127637E+02 -0.21993948333E+03 -0.91336788398E+03  0.13064650150E+04  0.90688677749E+03 0.  0.
         23    2    4    4    0    0  0.11815657225E+03 -0.49681681573E+03 -0.85551835603E+03  0.10001931396E+04  0.87674027283E+02 0.  0.
         23    2    4    4    0    0 -0.75813444613E+02  0.27687733239E+03 -0.57849527948E+02  0.30627187541E+03  0.89705954117E+02 0.  0.
          2    1    3    3  502    0 -0.44160200263E+02  0.16032281402E+03 -0.33026021321E+03  0.36976389279E+03  0.00000000000E+00 0. -1.
         -1    1    3    3    0  502  0.18170726266E+01  0.59616669309E+02 -0.25605342866E+03  0.26290836301E+03  0.00000000000E+00 0.  1.
         11    1    5    5    0    0  0.58341628690E+02 -0.92455460036E+02 -0.17438187954E+03  0.20581738906E+03  0.00000000000E+00 0.  1.
        -11    1    5    5    0    0  0.59814943559E+02 -0.40436135569E+03 -0.68113647649E+03  0.79437575055E+03  0.00000000000E+00 0. -1.
          3    1    6    6  503    0 -0.12620749996E+02  0.19680443586E+03 -0.23327240675E+02  0.19858355789E+03  0.00000000000E+00 0. -1.
         -3    1    6    6    0  503 -0.63192694616E+02  0.80072896532E+02 -0.34522287272E+02  0.10768831752E+03  0.00000000000E+00 0.  1.
<mgrwt>
<rscale>  0 0.12293123E+04</rscale>
<asrwt>0</asrwt>
<pdfrwt beam="1">  1        2 0.26452452E+00 0.12293123E+04</pdfrwt>
<pdfrwt beam="2">  1       -1 0.33804289E-01 0.12293123E+04</pdfrwt>
<totfact> 0.88630827E+01</totfact>
</mgrwt>
</event>
<event>
12    6  0.1450532E-007  0.1623247E+04  0.7818608E-02  0.8806393E-01
          2   -1    0    0  501    0  0.00000000000E+00  0.00000000000E+00  0.61290593725E+03  0.61290593725E+03  0.00000000000E+00 0. -1.
         -1   -1    0    0    0  501 -0.00000000000E+00 -0.00000000000E+00 -0.10747690407E+04  0.10747690407E+04  0.00000000000E+00 0.  1.
         24    2    1    2    0    0  0.84227662699E+02  0.11228359629E+03  0.39751525084E+03  0.43003576990E+03  0.84914566372E+02 0.  0.
        254    2    1    2    0    0 -0.84227662699E+02 -0.11228359629E+03 -0.85937835434E+03  0.12576392081E+04  0.90742675554E+03 0.  0.
         23    2    4    4    0    0  0.25379840775E+03  0.27561068551E+03 -0.27220404197E+03  0.47136598351E+03  0.87840584054E+02 0.  0.
         23    2    4    4    0    0 -0.33802607045E+03 -0.38789428180E+03 -0.58717431237E+03  0.78627322458E+03  0.93425437814E+02 0.  0.
          2    1    3    3  502    0  0.90256488991E+02  0.75305666346E+02  0.35186139569E+03  0.37097657468E+03  0.00000000000E+00 0. -1.
         -1    1    3    3    0  502 -0.60288262919E+01  0.36977929939E+02  0.45653855154E+02  0.59059195215E+02  0.00000000000E+00 0.  1.
         11    1    5    5    0    0  0.46018300121E+02  0.20656470921E+02 -0.66392404445E+02  0.83380603889E+02  0.00000000000E+00 0. -1.
        -11    1    5    5    0    0  0.20778010763E+03  0.25495421459E+03 -0.20581163752E+03  0.38798537962E+03  0.00000000000E+00 0.  1.
          1    1    6    6  503    0 -0.97090010412E+02 -0.12159273687E+03 -0.11720951041E+03  0.19480588572E+03  0.00000000000E+00 0. -1.
         -1    1    6    6    0  503 -0.24093606003E+03 -0.26630154493E+03 -0.46996480196E+03  0.59146733886E+03  0.00000000000E+00 0.  1.
<mgrwt>
<rscale>  0 0.16232465E+04</rscale>
<asrwt>0</asrwt>
<pdfrwt beam="1">  1        2 0.94293222E-01 0.16232465E+04</pdfrwt>
<pdfrwt beam="2">  1       -1 0.16534908E+00 0.16232465E+04</pdfrwt>
<totfact> 0.14078567E+01</totfact>
</mgrwt>
</event>
<event>
12    6  0.1450532E-007  0.1956489E+04  0.7818608E-02  0.8627238E-01
         -1   -1    0    0    0  501 -0.00000000000E+00  0.00000000000E+00  0.50885496207E+03  0.50885496207E+03  0.00000000000E+00 0.  1.
          2   -1    0    0  501    0  0.00000000000E+00 -0.00000000000E+00 -0.18806192028E+04  0.18806192028E+04  0.00000000000E+00 0. -1.
         24    2    1    2    0    0  0.76230028124E+02 -0.15711715986E+03  0.35720232413E+03  0.40551841896E+03  0.79717429981E+02 0.  0.
        254    2    1    2    0    0 -0.76230028124E+02  0.15711715986E+03 -0.17289665648E+04  0.19839557459E+04  0.95721376933E+03 0.  0.
         23    2    4    4    0    0 -0.22413163566E+03 -0.34947863628E+03 -0.92501024041E+03  0.10179614466E+04  0.90726261385E+02 0.  0.
         23    2    4    4    0    0  0.14790160753E+03  0.50659579614E+03 -0.80395632440E+03  0.96599429930E+03  0.91022132264E+02 0.  0.
          4    1    3    3  502    0  0.63362114553E+02 -0.51782775884E+02  0.11553263697E+03  0.14157684713E+03  0.00000000000E+00 0. -1.
         -3    1    3    3    0  502  0.12867913571E+02 -0.10533438397E+03  0.24166968716E+03  0.26394157182E+03  0.00000000000E+00 0.  1.
         11    1    5    5    0    0 -0.17766798987E+03 -0.23092327302E+03 -0.55798557564E+03  0.62947547630E+03  0.00000000000E+00 0. -1.
        -11    1    5    5    0    0 -0.46463645789E+02 -0.11855536326E+03 -0.36702466477E+03  0.38848597026E+03  0.00000000000E+00 0.  1.
          2    1    6    6  503    0  0.62908550273E+02  0.10928446811E+03 -0.23738379366E+03  0.26879666322E+03  0.00000000000E+00 0. -1.
         -2    1    6    6    0  503  0.84993057260E+02  0.39731132803E+03 -0.56657253075E+03  0.69719763608E+03  0.00000000000E+00 0.  1.
<mgrwt>
<rscale>  0 0.19564891E+04</rscale>
<asrwt>0</asrwt>
<pdfrwt beam="1">  1        2 0.28932603E+00 0.19564891E+04</pdfrwt>
<pdfrwt beam="2">  1       -1 0.78285379E-01 0.19564891E+04</pdfrwt>
<totfact> 0.13498007E+01</totfact>
</mgrwt>
</event>
<event>
12    6  0.1450532E-007  0.3784936E+04  0.7818608E-02  0.8049395E-01
         -1   -1    0    0    0  501 -0.00000000000E+00  0.00000000000E+00  0.14440494619E+04  0.14440494619E+04  0.00000000000E+00 0.  1.
          2   -1    0    0  501    0  0.00000000000E+00 -0.00000000000E+00 -0.24801332001E+04  0.24801332001E+04  0.00000000000E+00 0. -1.
         24    2    1    2    0    0  0.15522981420E+03  0.32460634982E+03 -0.22994808423E+04  0.23287284168E+04  0.76800505231E+02 0.  0.
        254    2    1    2    0    0 -0.15522981420E+03 -0.32460634982E+03  0.12633971042E+04  0.15954542452E+04  0.90544819173E+03 0.  0.
         23    2    4    4    0    0 -0.27258166307E+03 -0.56416896869E+03  0.11016483594E+04  0.12706839091E+04  0.91766555961E+02 0.  0.
         23    2    4    4    0    0  0.11735184887E+03  0.23956261887E+03  0.16174874479E+03  0.32477033604E+03  0.90285159025E+02 0.  0.
          4    1    3    3  502    0  0.12595294399E+03  0.31020283026E+03 -0.20584212387E+04  0.20854706749E+04  0.00000000000E+00 0. -1.
         -3    1    3    3    0  502  0.29276870215E+02  0.14403519566E+02 -0.24105960360E+03  0.24325774189E+03  0.00000000000E+00 0.  1.
         11    1    5    5    0    0 -0.16822702383E+03 -0.38951526480E+03  0.81960352836E+03  0.92291517311E+03  0.00000000000E+00 0. -1.
        -11    1    5    5    0    0 -0.10435463924E+03 -0.17465370389E+03  0.28204483107E+03  0.34776873601E+03  0.00000000000E+00 0.  1.
          1    1    6    6  503    0  0.88855787112E+02  0.13066063577E+03  0.48969640377E+02  0.16542544641E+03  0.00000000000E+00 0. -1.
         -1    1    6    6    0  503  0.28496061761E+02  0.10890198310E+03  0.11277910441E+03  0.15934488963E+03  0.00000000000E+00 0.  1.
<mgrwt>
<rscale>  0 0.37849359E+04</rscale>
<asrwt>0</asrwt>
<pdfrwt beam="1">  1        2 0.38155895E+00 0.37849359E+04</pdfrwt>
<pdfrwt beam="2">  1       -1 0.22216146E+00 0.37849359E+04</pdfrwt>
<totfact> 0.34715544E-01</totfact>
</mgrwt>
</event>
<event>
12    6  0.1450532E-007  0.1686634E+04  0.7818608E-02  0.8769024E-01
         -1   -1    0    0    0  501 -0.00000000000E+00  0.00000000000E+00  0.28292033211E+03  0.28292033211E+03  0.00000000000E+00 0.  1.
          2   -1    0    0  501    0  0.00000000000E+00 -0.00000000000E+00 -0.25137243750E+04  0.25137243750E+04  0.00000000000E+00 0. -1.
         24    2    1    2    0    0 -0.91923712279E+02  0.22552869986E+03 -0.17147052115E+04  0.17336753758E+04  0.78122871543E+02 0.  0.
        254    2    1    2    0    0  0.91923712279E+02 -0.22552869986E+03 -0.51609883138E+03  0.10629693313E+04  0.89679018290E+03 0.  0.
         23    2    4    4    0    0  0.37244398500E+03  0.11595066536E+03 -0.32001923993E+02  0.40164183703E+03  0.90182943825E+02 0.  0.
         23    2    4    4    0    0 -0.28052027272E+03 -0.34147936522E+03 -0.48409690739E+03  0.66132749425E+03  0.87775045583E+02 0.  0.
          4    1    3    3  502    0 -0.79125248851E+02  0.22753348185E+03 -0.16637238076E+04  0.16810738229E+04  0.00000000000E+00 0. -1.
         -3    1    3    3    0  502 -0.12798463427E+02 -0.20047819967E+01 -0.50981403911E+02  0.52601552845E+02  0.00000000000E+00 0.  1.
         11    1    5    5    0    0  0.15886759357E+03  0.13793045768E+02 -0.41236790297E+02  0.16471075639E+03  0.00000000000E+00 0. -1.
        -11    1    5    5    0    0  0.21357639143E+03  0.10215761960E+03  0.92348663040E+01  0.23693108064E+03  0.00000000000E+00 0.  1.
          1    1    6    6  503    0 -0.27682690945E+03 -0.30216432413E+03 -0.45456510998E+03  0.61201785577E+03  0.00000000000E+00 0. -1.
         -1    1    6    6    0  503 -0.36933632644E+01 -0.39315041094E+02 -0.29531797409E+02  0.49309638476E+02  0.00000000000E+00 0.  1.
<mgrwt>
<rscale>  0 0.16866342E+04</rscale>
<asrwt>0</asrwt>
<pdfrwt beam="1">  1        2 0.38672681E+00 0.16866342E+04</pdfrwt>
<pdfrwt beam="2">  1       -1 0.43526207E-01 0.16866342E+04</pdfrwt>
<totfact> 0.19353340E+01</totfact>
</mgrwt>
</event>
<event>
12    6  0.1450532E-007  0.1535767E+04  0.7818608E-02  0.8861010E-01
          2   -1    0    0  501    0  0.00000000000E+00  0.00000000000E+00  0.57010103414E+03  0.57010103414E+03  0.00000000000E+00 0. -1.
         -1   -1    0    0    0  501 -0.00000000000E+00 -0.00000000000E+00 -0.10342822694E+04  0.10342822694E+04  0.00000000000E+00 0.  1.
         24    2    1    2    0    0 -0.37701858566E+03 -0.26266443204E+03 -0.40487154946E+03  0.61759186070E+03  0.79769148491E+02 0.  0.
        254    2    1    2    0    0  0.37701858566E+03  0.26266443204E+03 -0.59309685763E+02  0.98679144280E+03  0.87126580041E+03 0.  0.
         23    2    4    4    0    0  0.47852708801E+03 -0.86072741849E+02  0.19799197373E+03  0.53281933696E+03  0.91098481476E+02 0.  0.
         23    2    4    4    0    0 -0.10150850235E+03  0.34873717389E+03 -0.25730165949E+03  0.45397210584E+03  0.89246492400E+02 0.  0.
          2    1    3    3  502    0 -0.11601896710E+03 -0.76471874485E+02 -0.76323016255E+02  0.15853564622E+03  0.00000000000E+00 0. -1.
         -1    1    3    3    0  502 -0.26099961856E+03 -0.18619255755E+03 -0.32854853321E+03  0.45905621448E+03  0.00000000000E+00 0.  1.
         11    1    5    5    0    0  0.52670146689E+02 -0.93927442134E+01 -0.70997419181E+01  0.53970124434E+02  0.00000000000E+00 0. -1.
        -11    1    5    5    0    0  0.42585694132E+03 -0.76679997636E+02  0.20509171564E+03  0.47884921252E+03  0.00000000000E+00 0.  1.
          4    1    6    6  503    0 -0.73662137918E+00 -0.38630458348E+01  0.24020593845E+01  0.46082126106E+01  0.00000000000E+00 0. -1.
         -4    1    6    6    0  503 -0.10077188097E+03  0.35260021972E+03 -0.25970371887E+03  0.44936389323E+03  0.00000000000E+00 0.  1.
<mgrwt>
<rscale>  0 0.15357674E+04</rscale>
<asrwt>0</asrwt>
<pdfrwt beam="1">  1        2 0.87707852E-01 0.15357674E+04</pdfrwt>
<pdfrwt beam="2">  1       -1 0.15912035E+00 0.15357674E+04</pdfrwt>
<totfact> 0.17237446E+01</totfact>
</mgrwt>
</event>
<event>
12    6  0.1450532E-007  0.2942472E+04  0.7818608E-02  0.8260352E-01
         -1   -1    0    0    0  501 -0.00000000000E+00  0.00000000000E+00  0.71950333016E+03  0.71950333016E+03  0.00000000000E+00 0.  1.
          2   -1    0    0  501    0  0.00000000000E+00 -0.00000000000E+00 -0.30083753600E+04  0.30083753600E+04  0.00000000000E+00 0. -1.
         24    2    1    2    0    0 -0.32468923069E+03 -0.12097536826E+04 -0.16132182590E+04  0.20437714700E+04  0.74843846599E+02 0.  0.
        254    2    1    2    0    0  0.32468923069E+03  0.12097536826E+04 -0.67565377093E+03  0.16841072202E+04  0.90043436285E+03 0.  0.
         23    2    4    4    0    0  0.23164790922E+03  0.97065353405E+03 -0.51932245509E+02  0.10034044809E+04  0.91074459951E+02 0.  0.
         23    2    4    4    0    0  0.93041321470E+02  0.23910014858E+03 -0.62372152542E+03  0.68070273925E+03  0.92206883712E+02 0.  0.
          4    1    3    3  502    0 -0.29142686143E+03 -0.10339256353E+04 -0.13447137155E+04  0.17211004653E+04  0.00000000000E+00 0. -1.
         -3    1    3    3    0  502 -0.33262369265E+02 -0.17582804736E+03 -0.26850454343E+03  0.32267100472E+03  0.00000000000E+00 0.  1.
         11    1    5    5    0    0  0.21727192680E+03  0.91184059486E+03 -0.70663860954E+02  0.94002858566E+03  0.00000000000E+00 0. -1.
        -11    1    5    5    0    0  0.14375982423E+02  0.58812939191E+02  0.18731615445E+02  0.63375895292E+02  0.00000000000E+00 0.  1.
          3    1    6    6  503    0  0.10869166158E+03  0.19786620362E+03 -0.55364102117E+03  0.59789906519E+03  0.00000000000E+00 0. -1.
         -3    1    6    6    0  503 -0.15650340112E+02  0.41233944964E+02 -0.70080504252E+02  0.82803674068E+02  0.00000000000E+00 0.  1.
<mgrwt>
<rscale>  0 0.29424725E+04</rscale>
<asrwt>0</asrwt>
<pdfrwt beam="1">  1        2 0.46282697E+00 0.29424725E+04</pdfrwt>
<pdfrwt beam="2">  1       -1 0.11069282E+00 0.29424725E+04</pdfrwt>
<totfact> 0.12633136E+00</totfact>
</mgrwt>
</event>
<event>
12    6  0.1450532E-007  0.3108767E+04  0.7818608E-02  0.8213336E-01
          2   -1    0    0  501    0  0.00000000000E+00  0.00000000000E+00  0.26498832989E+04  0.26498832989E+04  0.00000000000E+00 0. -1.
         -1   -1    0    0    0  501 -0.00000000000E+00 -0.00000000000E+00 -0.91177892466E+03  0.91177892466E+03  0.00000000000E+00 0.  1.
         24    2    1    2    0    0  0.44628109317E+03 -0.12966881122E+04  0.12239473118E+04  0.18398279766E+04  0.79706254434E+02 0.  0.
        254    2    1    2    0    0 -0.44628109317E+03  0.12966881122E+04  0.51415706249E+03  0.17218342470E+04  0.90542189868E+03 0.  0.
         23    2    4    4    0    0 -0.42017832467E+03  0.20109042073E+03  0.39123539912E+03  0.61528388815E+03  0.92314374107E+02 0.  0.
         23    2    4    4    0    0 -0.26102768501E+02  0.10955976915E+04  0.12292166337E+03  0.11065503588E+04  0.91259548143E+02 0.  0.
          2    1    3    3  502    0  0.40233956454E+03 -0.11376634414E+04  0.11073961890E+04  0.16378283031E+04  0.00000000000E+00 0. -1.
         -1    1    3    3    0  502  0.43941528632E+02 -0.15902467081E+03  0.11655112279E+03  0.20199967349E+03  0.00000000000E+00 0.  1.
         11    1    5    5    0    0 -0.11815488059E+03  0.47289347013E+02  0.57601691014E+02  0.13969542926E+03  0.00000000000E+00 0.  1.
        -11    1    5    5    0    0 -0.30202344408E+03  0.15380107372E+03  0.33363370811E+03  0.47558845889E+03  0.00000000000E+00 0. -1.
          4    1    6    6  503    0  0.42501045334E+01  0.28514195025E+03 -0.65954003396E+01  0.28524988078E+03  0.00000000000E+00 0.  1.
         -4    1    6    6    0  503 -0.30352873034E+02  0.81045574125E+03  0.12951706371E+03  0.82130047803E+03  0.00000000000E+00 0. -1.
<mgrwt>
<rscale>  0 0.31087668E+04</rscale>
<asrwt>0</asrwt>
<pdfrwt beam="1">  1        2 0.40767435E+00 0.31087668E+04</pdfrwt>
<pdfrwt beam="2">  1       -1 0.14027368E+00 0.31087668E+04</pdfrwt>
<totfact> 0.11429711E+00</totfact>
</mgrwt>
</event>
<event>
12    6  0.1450532E-007  0.1650450E+04  0.7818608E-02  0.8790140E-01
         -1   -1    0    0    0  501 -0.00000000000E+00  0.00000000000E+00  0.55350769131E+03  0.55350769131E+03  0.00000000000E+00 0.  1.
          2   -1    0    0  501    0  0.00000000000E+00 -0.00000000000E+00 -0.12303287827E+04  0.12303287827E+04  0.00000000000E+00 0. -1.
         24    2    1    2    0    0 -0.46419733604E+03  0.24398892629E+03 -0.45107689608E+03  0.69609301912E+03  0.77880434993E+02 0.  0.
        254    2    1    2    0    0  0.46419733604E+03 -0.24398892629E+03 -0.22574419535E+03  0.10877434549E+04  0.92585939486E+03 0.  0.
         23    2    4    4    0    0  0.37486469835E+03 -0.22037689613E+03  0.30655592928E+03  0.53973297124E+03  0.90805418614E+02 0.  0.
         23    2    4    4    0    0  0.89332637686E+02 -0.23612030159E+02 -0.53230012463E+03  0.54801048368E+03  0.91838006392E+02 0.  0.
          4    1    3    3  502    0 -0.37563480051E+03  0.18374145680E+03 -0.39482536849E+03  0.57510824885E+03  0.00000000000E+00 0. -1.
         -3    1    3    3    0  502 -0.88562535535E+02  0.60247469491E+02 -0.56251527588E+02  0.12098477027E+03  0.00000000000E+00 0.  1.
         11    1    5    5    0    0  0.21782858894E+03 -0.77384966735E+02  0.17459605644E+03  0.28969209544E+03  0.00000000000E+00 0.  1.
        -11    1    5    5    0    0  0.15703610941E+03 -0.14299192939E+03  0.13195987284E+03  0.25004087580E+03  0.00000000000E+00 0. -1.
          1    1    6    6  503    0  0.47212432821E+02 -0.16176741671E+02 -0.84240741619E+02  0.97914265215E+02  0.00000000000E+00 0. -1.
         -1    1    6    6    0  503  0.42120204865E+02 -0.74352884878E+01 -0.44805938301E+03  0.45009621847E+03  0.00000000000E+00 0.  1.
<mgrwt>
<rscale>  0 0.16504502E+04</rscale>
<asrwt>0</asrwt>
<pdfrwt beam="1">  1        2 0.18928135E+00 0.16504502E+04</pdfrwt>
<pdfrwt beam="2">  1       -1 0.85155030E-01 0.16504502E+04</pdfrwt>
<totfact> 0.26987328E+01</totfact>
</mgrwt>
</event>
<event>
12    6  0.1450532E-007  0.2090517E+04  0.7818608E-02  0.8565432E-01
          2   -1    0    0  501    0  0.00000000000E+00  0.00000000000E+00  0.68802377356E+03  0.68802377356E+03  0.00000000000E+00 0. -1.
         -1   -1    0    0    0  501 -0.00000000000E+00 -0.00000000000E+00 -0.15879762944E+04  0.15879762944E+04  0.00000000000E+00 0.  1.
         24    2    1    2    0    0  0.51698225674E+03  0.35792884531E+03 -0.98437427482E+03  0.11707022776E+04  0.78532781707E+02 0.  0.
        254    2    1    2    0    0 -0.51698225674E+03 -0.35792884531E+03  0.84421753969E+02  0.11052977904E+04  0.90508146635E+03 0.  0.
         23    2    4    4    0    0 -0.26033037444E+03 -0.57112270711E+03 -0.19126471534E+03  0.66253665852E+03  0.91758280906E+02 0.  0.
         23    2    4    4    0    0 -0.25665188230E+03  0.21319386179E+03  0.27568646931E+03  0.44276113184E+03  0.93341197277E+02 0.  0.
          2    1    3    3  502    0  0.17909385917E+02  0.11014599716E+02 -0.12620688961E+02  0.24522424445E+02  0.00000000000E+00 0. -1.
         -1    1    3    3    0  502  0.49907287082E+03  0.34691424560E+03 -0.97175358586E+03  0.11461798532E+04  0.00000000000E+00 0.  1.
         11    1    5    5    0    0 -0.24071701310E+03 -0.44922916506E+03 -0.16996141560E+03  0.53725078495E+03  0.00000000000E+00 0.  1.
        -11    1    5    5    0    0 -0.19613361339E+02 -0.12189354204E+03 -0.21303299747E+02  0.12528587357E+03  0.00000000000E+00 0. -1.
          2    1    6    6  503    0 -0.22561007209E+02  0.11793695097E+02  0.62583702388E+02  0.67563378356E+02  0.00000000000E+00 0. -1.
         -2    1    6    6    0  503 -0.23409087509E+03  0.20140016670E+03  0.21310276693E+03  0.37519775348E+03  0.00000000000E+00 0.  1.
<mgrwt>
<rscale>  0 0.20905171E+04</rscale>
<asrwt>0</asrwt>
<pdfrwt beam="1">  1        2 0.10584981E+00 0.20905171E+04</pdfrwt>
<pdfrwt beam="2">  1       -1 0.24430405E+00 0.20905171E+04</pdfrwt>
<totfact> 0.33489404E+00</totfact>
</mgrwt>
</event>
<event>
12    6  0.1450532E-007  0.1610909E+04  0.7818608E-02  0.8813874E-01
         -1   -1    0    0    0  501 -0.00000000000E+00  0.00000000000E+00  0.26437792143E+03  0.26437792143E+03  0.00000000000E+00 0.  1.
          2   -1    0    0  501    0  0.00000000000E+00 -0.00000000000E+00 -0.24539011152E+04  0.24539011152E+04  0.00000000000E+00 0. -1.
         24    2    1    2    0    0  0.25238343798E+03  0.13260204662E+03  0.37746650826E+02  0.29803448167E+03  0.78224293422E+02 0.  0.
        254    2    1    2    0    0 -0.25238343798E+03 -0.13260204662E+03 -0.22272698446E+04  0.24202445550E+04  0.90309027378E+03 0.  0.
         23    2    4    4    0    0  0.13724821912E+03 -0.34136107359E+03 -0.45895153867E+03  0.59525716291E+03  0.91269485230E+02 0.  0.
         23    2    4    4    0    0 -0.38963165710E+03  0.20875902696E+03 -0.17683183059E+04  0.18249873921E+04  0.90753459963E+02 0.  0.
          2    1    3    3  502    0  0.31139955757E+01  0.96614542086E+01 -0.11959433421E+02  0.15686577498E+02  0.00000000000E+00 0. -1.
         -1    1    3    3    0  502  0.24926944240E+03  0.12294059241E+03  0.49706084247E+02  0.28234790417E+03  0.00000000000E+00 0.  1.
         11    1    5    5    0    0  0.51287972731E+02 -0.12573556355E+03 -0.10357382945E+03  0.17078473654E+03  0.00000000000E+00 0. -1.
        -11    1    5    5    0    0  0.85960246391E+02 -0.21562551004E+03 -0.35537770922E+03  0.42447242637E+03  0.00000000000E+00 0.  1.
          2    1    6    6  503    0 -0.81977978727E+02  0.60598194738E+02 -0.56650818549E+03  0.57560755244E+03  0.00000000000E+00 0. -1.
         -2    1    6    6    0  503 -0.30765367837E+03  0.14816083223E+03 -0.12018101205E+04  0.12493798396E+04  0.00000000000E+00 0.  1.
<mgrwt>
<rscale>  0 0.16109094E+04</rscale>
<asrwt>0</asrwt>
<pdfrwt beam="1">  1        2 0.37752325E+00 0.16109094E+04</pdfrwt>
<pdfrwt beam="2">  1       -1 0.40673526E-01 0.16109094E+04</pdfrwt>
<totfact> 0.23901728E+01</totfact>
</mgrwt>
</event>
<event>
12    6  0.1450532E-007  0.1367934E+04  0.7818608E-02  0.8977362E-01
          2   -1    0    0  501    0  0.00000000000E+00  0.00000000000E+00  0.20321544230E+04  0.20321544230E+04  0.00000000000E+00 0. -1.
         -1   -1    0    0    0  501 -0.00000000000E+00 -0.00000000000E+00 -0.23020435402E+03  0.23020435402E+03  0.00000000000E+00 0.  1.
         24    2    1    2    0    0  0.16131864525E+03  0.66288540126E+02  0.10762654053E+04  0.10932379803E+04  0.80026138676E+02 0.  0.
        254    2    1    2    0    0 -0.16131864525E+03 -0.66288540126E+02  0.72568466363E+03  0.11691207968E+04  0.89989295504E+03 0.  0.
         23    2    4    4    0    0 -0.51956409510E+03 -0.67521980818E+02  0.52947859180E+03  0.75046370960E+03  0.91335280351E+02 0.  0.
         23    2    4    4    0    0  0.35824544985E+03  0.12334406915E+01  0.19620607183E+03  0.41865708716E+03  0.91845578513E+02 0.  0.
          4    1    3    3  502    0  0.72452437424E+01  0.14346167981E+02  0.28432121201E+03  0.28477510019E+03  0.00000000000E+00 0. -1.
         -3    1    3    3    0  502  0.15407340151E+03  0.51942372146E+02  0.79194419334E+03  0.80846288006E+03  0.00000000000E+00 0.  1.
         11    1    5    5    0    0 -0.29688726053E+02 -0.37262675390E+01  0.56820961218E+01  0.30456390803E+02  0.00000000000E+00 0. -1.
        -11    1    5    5    0    0 -0.48987536905E+03 -0.63795713279E+02  0.52379649568E+03  0.72000731880E+03  0.00000000000E+00 0.  1.
          4    1    6    6  503    0  0.55156923586E+02 -0.14934848694E+02 -0.18148696072E+00  0.57143406116E+02  0.00000000000E+00 0. -1.
         -4    1    6    6    0  503  0.30308852627E+03  0.16168289385E+02  0.19638755879E+03  0.36151368105E+03  0.00000000000E+00 0.  1.
<mgrwt>
<rscale>  0 0.13679339E+04</rscale>
<asrwt>0</asrwt>
<pdfrwt beam="1">  1        2 0.31263913E+00 0.13679339E+04</pdfrwt>
<pdfrwt beam="2">  1       -1 0.35416056E-01 0.13679339E+04</pdfrwt>
<totfact> 0.54168320E+01</totfact>
</mgrwt>
</event>
<event>
12    6  0.1450532E-007  0.1671217E+04  0.7818608E-02  0.8777953E-01
          2   -1    0    0  501    0  0.00000000000E+00  0.00000000000E+00  0.21877775387E+04  0.21877775387E+04  0.00000000000E+00 0. -1.
         -1   -1    0    0    0  501 -0.00000000000E+00 -0.00000000000E+00 -0.31915567879E+03  0.31915567879E+03  0.00000000000E+00 0.  1.
         24    2    1    2    0    0 -0.25587061134E+03 -0.23411037500E+03  0.13854040780E+04  0.14303173254E+04  0.78649567181E+02 0.  0.
        254    2    1    2    0    0  0.25587061134E+03  0.23411037500E+03  0.48321778185E+03  0.10766158921E+04  0.89739897312E+03 0.  0.
         23    2    4    4    0    0 -0.19830310361E+03  0.25046471419E+03 -0.85002386211E+02  0.34281847096E+03  0.90787688678E+02 0.  0.
         23    2    4    4    0    0  0.45417371495E+03 -0.16354339185E+02  0.56822016806E+03  0.73379742112E+03  0.95096099223E+02 0.  0.
          4    1    3    3  502    0 -0.91237168927E+02 -0.11691966347E+03  0.46871791469E+03  0.49162069958E+03  0.00000000000E+00 0. -1.
         -3    1    3    3    0  502 -0.16463344241E+03 -0.11719071153E+03  0.91668616334E+03  0.93869662580E+03  0.00000000000E+00 0.  1.
         11    1    5    5    0    0 -0.12353864951E+03  0.21516427434E+03 -0.76856097168E+02  0.25973895077E+03  0.00000000000E+00 0.  1.
        -11    1    5    5    0    0 -0.74764454100E+02  0.35300439853E+02 -0.81462890431E+01  0.83079520195E+02  0.00000000000E+00 0. -1.
          3    1    6    6  503    0 -0.47922346348E+01 -0.14809804328E+01  0.47614389652E+01  0.69159321032E+01  0.00000000000E+00 0. -1.
         -3    1    6    6    0  503  0.45896594959E+03 -0.14873358752E+02  0.56345872910E+03  0.72688148902E+03  0.00000000000E+00 0.  1.
<mgrwt>
<rscale>  0 0.16712171E+04</rscale>
<asrwt>0</asrwt>
<pdfrwt beam="1">  1        2 0.33658115E+00 0.16712171E+04</pdfrwt>
<pdfrwt beam="2">  1       -1 0.49100875E-01 0.16712171E+04</pdfrwt>
<totfact> 0.23688247E+01</totfact>
</mgrwt>
</event>
<event>
12    6  0.1450532E-007  0.2409430E+04  0.7818608E-02  0.8435982E-01
          2   -1    0    0  501    0  0.00000000000E+00  0.00000000000E+00  0.21598967567E+04  0.21598967567E+04  0.00000000000E+00 0. -1.
         -1   -1    0    0    0  501 -0.00000000000E+00 -0.00000000000E+00 -0.67194773340E+03  0.67194773340E+03  0.00000000000E+00 0.  1.
         24    2    1    2    0    0  0.63590568583E+03 -0.80119901655E+03  0.40814141742E+03  0.11039686354E+04  0.76625230755E+02 0.  0.
        254    2    1    2    0    0 -0.63590568583E+03  0.80119901655E+03  0.10798076059E+04  0.17278758547E+04  0.87936033463E+03 0.  0.
         23    2    4    4    0    0 -0.52410468135E+03  0.24389142049E+03  0.98433872995E+03  0.11451706379E+04  0.91237671370E+02 0.  0.
         23    2    4    4    0    0 -0.11180100448E+03  0.55730759606E+03  0.95468875973E+02  0.58270521680E+03  0.85672878880E+02 0.  0.
          2    1    3    3  502    0  0.42684531134E+03 -0.54490808652E+03  0.23748625899E+03  0.73179332177E+03  0.00000000000E+00 0. -1.
         -3    1    3    3    0  502  0.20906037449E+03 -0.25629093002E+03  0.17065515843E+03  0.37217531365E+03  0.00000000000E+00 0.  1.
         11    1    5    5    0    0 -0.46221478648E+03  0.23115805952E+03  0.82188295645E+03  0.97085949109E+03  0.00000000000E+00 0. -1.
        -11    1    5    5    0    0 -0.61889894868E+02  0.12733360963E+02  0.16245577350E+03  0.17431114683E+03  0.00000000000E+00 0.  1.
          3    1    6    6  503    0 -0.31400630772E+02  0.28088411385E+03  0.11656360734E+02  0.28287409880E+03  0.00000000000E+00 0. -1.
         -3    1    6    6    0  503 -0.80400373707E+02  0.27642348220E+03  0.83812515239E+02  0.29983111799E+03  0.00000000000E+00 0.  1.
<mgrwt>
<rscale>  0 0.24094296E+04</rscale>
<asrwt>0</asrwt>
<pdfrwt beam="1">  1        2 0.33229181E+00 0.24094296E+04</pdfrwt>
<pdfrwt beam="2">  1       -1 0.10337658E+00 0.24094296E+04</pdfrwt>
<totfact> 0.49081271E+00</totfact>
</mgrwt>
</event>
<event>
12    6  0.1450532E-007  0.1665128E+04  0.7818608E-02  0.8781507E-01
         -1   -1    0    0    0  501 -0.00000000000E+00  0.00000000000E+00  0.41799885871E+03  0.41799885871E+03  0.00000000000E+00 0.  1.
          2   -1    0    0  501    0  0.00000000000E+00 -0.00000000000E+00 -0.16582891197E+04  0.16582891197E+04  0.00000000000E+00 0. -1.
         24    2    1    2    0    0 -0.54491058379E+03  0.12553437103E+03 -0.24049015170E+03  0.61410919050E+03  0.81290603095E+02 0.  0.
        254    2    1    2    0    0  0.54491058379E+03 -0.12553437103E+03 -0.99980010928E+03  0.14621787879E+04  0.90866942651E+03 0.  0.
         23    2    4    4    0    0 -0.12462463702E+03 -0.26112561556E+03 -0.58073503148E+03  0.65494517920E+03  0.89342731714E+02 0.  0.
         23    2    4    4    0    0  0.66953522081E+03  0.13559124453E+03 -0.41906507780E+03  0.80723360872E+03  0.96685894093E+02 0.  0.
          2    1    3    3  502    0 -0.53986305553E+03  0.12291295963E+03 -0.24629033330E+03  0.60598567859E+03  0.00000000000E+00 0. -1.
         -1    1    3    3    0  502 -0.50475282574E+01  0.26214114060E+01  0.58001815958E+01  0.81235119137E+01  0.00000000000E+00 0.  1.
         11    1    5    5    0    0  0.78550894026E+01 -0.31385656923E+02 -0.10985285326E+03  0.11451816999E+03  0.00000000000E+00 0.  1.
        -11    1    5    5    0    0 -0.13247972642E+03 -0.22973995864E+03 -0.47088217822E+03  0.54042700920E+03  0.00000000000E+00 0. -1.
          4    1    6    6  503    0  0.55792505102E+03  0.11992369534E+03 -0.30575473744E+03  0.64741641524E+03  0.00000000000E+00 0. -1.
         -4    1    6    6    0  503  0.11161016979E+03  0.15667549183E+02 -0.11331034036E+03  0.15981719347E+03  0.00000000000E+00 0.  1.
<mgrwt>
<rscale>  0 0.16651282E+04</rscale>
<asrwt>0</asrwt>
<pdfrwt beam="1">  1        2 0.25512140E+00 0.16651282E+04</pdfrwt>
<pdfrwt beam="2">  1       -1 0.64307518E-01 0.16651282E+04</pdfrwt>
<totfact> 0.27575438E+01</totfact>
</mgrwt>
</event>
<event>
12    6  0.1450532E-007  0.2193549E+04  0.7818608E-02  0.8521118E-01
          2   -1    0    0  501    0  0.00000000000E+00  0.00000000000E+00  0.11080989865E+04  0.11080989865E+04  0.00000000000E+00 0. -1.
         -1   -1    0    0    0  501 -0.00000000000E+00 -0.00000000000E+00 -0.10855657974E+04  0.10855657974E+04  0.00000000000E+00 0.  1.
         24    2    1    2    0    0 -0.86821155935E+02  0.35833848362E+03 -0.81903985972E+03  0.90288208629E+03  0.91789912206E+02 0.  0.
        254    2    1    2    0    0  0.86821155935E+02 -0.35833848362E+03  0.84157304887E+03  0.12907826976E+04  0.90660376894E+03 0.  0.
         23    2    4    4    0    0 -0.86449361228E+02 -0.38323295509E+03  0.97381629844E+03  0.10537797852E+04  0.88276058927E+02 0.  0.
         23    2    4    4    0    0  0.17327051716E+03  0.24894471467E+02 -0.13224324957E+03  0.23700291243E+03  0.89664355338E+02 0.  0.
          4    1    3    3  502    0 -0.52581285779E+02  0.63941027369E+02 -0.15566235129E+03  0.17630659150E+03  0.00000000000E+00 0. -1.
         -1    1    3    3    0  502 -0.34239870156E+02  0.29439745625E+03 -0.66337750842E+03  0.72657549480E+03  0.00000000000E+00 0.  1.
         11    1    5    5    0    0  0.12780734869E+02 -0.78782473609E+02  0.14985576429E+03  0.16978449700E+03  0.00000000000E+00 0. -1.
        -11    1    5    5    0    0 -0.99230096097E+02 -0.30445048148E+03  0.82396053415E+03  0.88399528816E+03  0.00000000000E+00 0.  1.
          4    1    6    6  503    0  0.18784485592E+01  0.13836933783E+02  0.72585969032E+01  0.15737742358E+02  0.00000000000E+00 0. -1.
         -4    1    6    6    0  503  0.17139206860E+03  0.11057537684E+02 -0.13950184647E+03  0.22126517008E+03  0.00000000000E+00 0.  1.
<mgrwt>
<rscale>  0 0.21935491E+04</rscale>
<asrwt>0</asrwt>
<pdfrwt beam="1">  1        2 0.17047677E+00 0.21935491E+04</pdfrwt>
<pdfrwt beam="2">  1       -1 0.16701012E+00 0.21935491E+04</pdfrwt>
<totfact> 0.58146941E+00</totfact>
</mgrwt>
</event>
<event>
12    6  0.1450532E-007  0.1595670E+04  0.7818608E-02  0.8823213E-01
         -1   -1    0    0    0  501 -0.00000000000E+00  0.00000000000E+00  0.33128321704E+04  0.33128321704E+04  0.00000000000E+00 0.  1.
          2   -1    0    0  501    0  0.00000000000E+00 -0.00000000000E+00 -0.19214391843E+03  0.19214391843E+03  0.00000000000E+00 0. -1.
         24    2    1    2    0    0  0.46098056241E+03  0.17168596304E+03  0.59815083970E+03  0.77857364513E+03  0.80083363045E+02 0.  0.
        254    2    1    2    0    0 -0.46098056241E+03 -0.17168596304E+03  0.25225374122E+04  0.27264024437E+04  0.90999787907E+03 0.  0.
         23    2    4    4    0    0  0.25938376062E+03 -0.71222779961E+02  0.49758455913E+03  0.57285298467E+03  0.90650586882E+02 0.  0.
         23    2    4    4    0    0 -0.72036432303E+03 -0.10046318308E+03  0.20249528531E+04  0.21535494590E+04  0.91233798726E+02 0.  0.
          2    1    3    3  502    0  0.46375543099E+03  0.17319438740E+03  0.59239828526E+03  0.77201109058E+03  0.00000000000E+00 0. -1.
         -1    1    3    3    0  502 -0.27748685791E+01 -0.15084243581E+01  0.57525544469E+01  0.65625545590E+01  0.00000000000E+00 0.  1.
         11    1    5    5    0    0  0.18775144897E+03 -0.19364669834E+02  0.27691548692E+03  0.33512353532E+03  0.00000000000E+00 0. -1.
        -11    1    5    5    0    0  0.71632311645E+02 -0.51858110127E+02  0.22066907222E+03  0.23772944935E+03  0.00000000000E+00 0.  1.
          4    1    6    6  503    0 -0.42887883733E+03 -0.56558983361E+02  0.10700759456E+04  0.11542090387E+04  0.00000000000E+00 0. -1.
         -4    1    6    6    0  503 -0.29148548569E+03 -0.43904199719E+02  0.95487690754E+03  0.99934042031E+03  0.00000000000E+00 0.  1.
<mgrwt>
<rscale>  0 0.15956698E+04</rscale>
<asrwt>0</asrwt>
<pdfrwt beam="1">  1        2 0.29560605E-01 0.15956698E+04</pdfrwt>
<pdfrwt beam="2">  1       -1 0.50966645E+00 0.15956698E+04</pdfrwt>
<totfact> 0.25655257E-01</totfact>
</mgrwt>
</event>
<event>
12    6  0.1450532E-007  0.2003927E+04  0.7818608E-02  0.8604787E-01
          2   -1    0    0  501    0  0.00000000000E+00  0.00000000000E+00  0.35104832961E+04  0.35104832961E+04  0.00000000000E+00 0. -1.
         -1   -1    0    0    0  501 -0.00000000000E+00 -0.00000000000E+00 -0.28598086506E+03  0.28598086506E+03  0.00000000000E+00 0.  1.
         24    2    1    2    0    0  0.51299464574E+03 -0.54644457497E+03  0.17997088436E+04  0.19511889142E+04  0.80131621964E+02 0.  0.
        254    2    1    2    0    0 -0.51299464574E+03  0.54644457497E+03  0.14247935874E+04  0.18452752470E+04  0.90179753290E+03 0.  0.
         23    2    4    4    0    0 -0.29629352290E+03  0.14725675406E+03  0.13285353016E+04  0.13721841221E+04  0.91699585778E+02 0.  0.
         23    2    4    4    0    0 -0.21670112284E+03  0.39918782091E+03  0.96258285754E+02  0.47309112483E+03  0.90770379595E+02 0.  0.
          2    1    3    3  502    0  0.48504161126E+03 -0.51447766731E+03  0.17375609724E+04  0.18759186463E+04  0.00000000000E+00 0. -1.
         -1    1    3    3    0  502  0.27953034486E+02 -0.31966907667E+02  0.62147871232E+02  0.75270267845E+02  0.00000000000E+00 0.  1.
         11    1    5    5    0    0 -0.25519390144E+03  0.10757148066E+03  0.95640845951E+03  0.99569708857E+03  0.00000000000E+00 0.  1.
        -11    1    5    5    0    0 -0.41099621464E+02  0.39685273401E+02  0.37212684213E+03  0.37648703356E+03  0.00000000000E+00 0. -1.
          2    1    6    6  503    0 -0.21402841658E+03  0.40321740463E+03  0.99566702304E+02  0.46723224066E+03  0.00000000000E+00 0.  1.
         -2    1    6    6    0  503 -0.26727062563E+01 -0.40295837188E+01 -0.33084165492E+01  0.58588841721E+01  0.00000000000E+00 0. -1.
<mgrwt>
<rscale>  0 0.20039272E+04</rscale>
<asrwt>0</asrwt>
<pdfrwt beam="1">  1        2 0.54007432E+00 0.20039272E+04</pdfrwt>
<pdfrwt beam="2">  1       -1 0.43997059E-01 0.20039272E+04</pdfrwt>
<totfact> 0.43405895E+00</totfact>
</mgrwt>
</event>
<event>
12    6  0.1450532E-007  0.3498292E+04  0.7818608E-02  0.8114195E-01
          2   -1    0    0  501    0  0.00000000000E+00  0.00000000000E+00  0.95368874556E+03  0.95368874556E+03  0.00000000000E+00 0. -1.
         -1   -1    0    0    0  501 -0.00000000000E+00 -0.00000000000E+00 -0.32080817425E+04  0.32080817425E+04  0.00000000000E+00 0.  1.
         24    2    1    2    0    0  0.67582957607E+03  0.86804481845E+03 -0.24894063222E+04  0.27228183119E+04  0.79676221248E+02 0.  0.
        254    2    1    2    0    0 -0.67582957607E+03 -0.86804481845E+03  0.23501332517E+03  0.14389521762E+04  0.89727625602E+03 0.  0.
         23    2    4    4    0    0 -0.58547795401E+03 -0.69383713557E+03  0.54362293215E+03  0.10619709364E+04  0.89788485491E+02 0.  0.
         23    2    4    4    0    0 -0.90351622061E+02 -0.17420768287E+03 -0.30860960698E+03  0.37698123976E+03  0.91450714762E+02 0.  0.
          4    1    3    3  502    0  0.51148343232E+03  0.64567183040E+03 -0.17770083543E+04  0.19586388399E+04  0.00000000000E+00 0. -1.
         -1    1    3    3    0  502  0.16434614375E+03  0.22237298805E+03 -0.71239796790E+03  0.76417947201E+03  0.00000000000E+00 0.  1.
         11    1    5    5    0    0 -0.17906517586E+03 -0.17966241905E+03  0.19257773869E+03  0.31847936740E+03  0.00000000000E+00 0. -1.
        -11    1    5    5    0    0 -0.40641277815E+03 -0.51417471653E+03  0.35104519346E+03  0.74349156902E+03  0.00000000000E+00 0.  1.
          2    1    6    6  503    0 -0.36565014297E+02 -0.73069904569E+02 -0.54418146556E+02  0.98171003350E+02  0.00000000000E+00 0. -1.
         -2    1    6    6    0  503 -0.53786607764E+02 -0.10113777830E+03 -0.25419146042E+03  0.27881023641E+03  0.00000000000E+00 0.  1.
<mgrwt>
<rscale>  0 0.34982918E+04</rscale>
<asrwt>0</asrwt>
<pdfrwt beam="1">  1        2 0.14672134E+00 0.34982918E+04</pdfrwt>
<pdfrwt beam="2">  1       -1 0.49355104E+00 0.34982918E+04</pdfrwt>
<totfact> 0.41465939E-02</totfact>
</mgrwt>
</event>
<event>
12    6  0.1450532E-007  0.1982779E+04  0.7818608E-02  0.8614714E-01
          2   -1    0    0  501    0  0.00000000000E+00  0.00000000000E+00  0.24646947443E+04  0.24646947443E+04  0.00000000000E+00 0. -1.
         -1   -1    0    0    0  501 -0.00000000000E+00 -0.00000000000E+00 -0.39877293203E+03  0.39877293203E+03  0.00000000000E+00 0.  1.
         24    2    1    2    0    0 -0.70771893784E+03  0.31826463664E+03  0.98962299032E+03  0.12600301697E+04  0.78510456092E+02 0.  0.
        254    2    1    2    0    0  0.70771893784E+03 -0.31826463664E+03  0.10762988220E+04  0.16034375066E+04  0.90024119522E+03 0.  0.
         23    2    4    4    0    0 -0.41028380466E+01  0.24991483841E+03  0.17455001713E+03  0.31835132866E+03  0.91682060622E+02 0.  0.
         23    2    4    4    0    0  0.71182177589E+03 -0.56817947505E+03  0.90174880482E+03  0.12850861780E+04  0.93687892916E+02 0.  0.
          4    1    3    3  502    0 -0.67749566362E+03  0.30623695302E+03  0.96955438322E+03  0.12218089653E+04  0.00000000000E+00 0. -1.
         -3    1    3    3    0  502 -0.30223274221E+02  0.12027683614E+02  0.20068607107E+02  0.38221204441E+02  0.00000000000E+00 0.  1.
         11    1    5    5    0    0 -0.10488682559E+02  0.25656486828E+03  0.17081162166E+03  0.30840258461E+03  0.00000000000E+00 0.  1.
        -11    1    5    5    0    0  0.63858445125E+01 -0.66500298726E+01  0.37383954667E+01  0.99487440469E+01  0.00000000000E+00 0. -1.
          1    1    6    6  503    0  0.34398589486E+03 -0.24324804228E+03  0.47261414358E+03  0.63313508405E+03  0.00000000000E+00 0. -1.
         -1    1    6    6    0  503  0.36783588103E+03 -0.32493143277E+03  0.42913466124E+03  0.65195109391E+03  0.00000000000E+00 0.  1.
<mgrwt>
<rscale>  0 0.19827794E+04</rscale>
<asrwt>0</asrwt>
<pdfrwt beam="1">  1        2 0.37918380E+00 0.19827794E+04</pdfrwt>
<pdfrwt beam="2">  1       -1 0.61349684E-01 0.19827794E+04</pdfrwt>
<totfact> 0.10418831E+01</totfact>
</mgrwt>
</event>
<event>
12    6  0.1450532E-007  0.2158842E+04  0.7818608E-02  0.8535757E-01
         -1   -1    0    0    0  501 -0.00000000000E+00  0.00000000000E+00  0.54985290026E+03  0.54985290026E+03  0.00000000000E+00 0.  1.
          2   -1    0    0  501    0  0.00000000000E+00 -0.00000000000E+00 -0.21190200379E+04  0.21190200379E+04  0.00000000000E+00 0. -1.
         24    2    1    2    0    0  0.21916915201E+03 -0.31491968234E+03 -0.16456895134E+04  0.16916881387E+04  0.79405670746E+02 0.  0.
        254    2    1    2    0    0 -0.21916915201E+03  0.31491968234E+03  0.76522375822E+02  0.97718479941E+03  0.89544677936E+03 0.  0.
         23    2    4    4    0    0 -0.42214009294E+03  0.10601650772E+03 -0.26506231920E+03  0.51747716299E+03  0.89904522603E+02 0.  0.
         23    2    4    4    0    0  0.20297094093E+03  0.20890317462E+03  0.34158469502E+03  0.45970763641E+03  0.99061939610E+02 0.  0.
          4    1    3    3  502    0  0.19415139334E+03 -0.22146238502E+03 -0.12760904026E+04  0.13096362347E+04  0.00000000000E+00 0. -1.
         -3    1    3    3    0  502  0.25017758674E+02 -0.93457297319E+02 -0.36959911078E+03  0.38205190401E+03  0.00000000000E+00 0.  1.
         11    1    5    5    0    0 -0.38598389786E+03  0.10856691452E+03 -0.21295906154E+03  0.45400650461E+03  0.00000000000E+00 0. -1.
        -11    1    5    5    0    0 -0.36156195079E+02 -0.25504067950E+01 -0.52103257652E+02  0.63470658381E+02  0.00000000000E+00 0.  1.
          1    1    6    6  503    0  0.12964885195E+03  0.81834172102E+02  0.22523999785E+03  0.27246782042E+03  0.00000000000E+00 0. -1.
         -1    1    6    6    0  503  0.73322088976E+02  0.12706900252E+03  0.11634469717E+03  0.18723981599E+03  0.00000000000E+00 0.  1.
<mgrwt>
<rscale>  0 0.21588416E+04</rscale>
<asrwt>0</asrwt>
<pdfrwt beam="1">  1        2 0.32600309E+00 0.21588416E+04</pdfrwt>
<pdfrwt beam="2">  1       -1 0.84592752E-01 0.21588416E+04</pdfrwt>
<totfact> 0.82795540E+00</totfact>
</mgrwt>
</event>
<event>
12    6  0.1450532E-007  0.2309372E+04  0.7818608E-02  0.8474235E-01
          2   -1    0    0  501    0  0.00000000000E+00  0.00000000000E+00  0.21345987999E+04  0.21345987999E+04  0.00000000000E+00 0. -1.
         -1   -1    0    0    0  501 -0.00000000000E+00 -0.00000000000E+00 -0.62461392867E+03  0.62461392867E+03  0.00000000000E+00 0.  1.
         24    2    1    2    0    0  0.47253312267E+03 -0.20845920284E+03 -0.34691779828E+03  0.62668017085E+03  0.75055223033E+02 0.  0.
        254    2    1    2    0    0 -0.47253312267E+03  0.20845920284E+03  0.18569026695E+04  0.21325325577E+04  0.91261426376E+03 0.  0.
         23    2    4    4    0    0  0.23455235353E+03  0.15954401204E+03  0.82710168582E+03  0.87901959794E+03  0.90050855343E+02 0.  0.
         23    2    4    4    0    0 -0.70708547620E+03  0.48915190800E+02  0.10298009837E+04  0.12535129598E+04  0.91880943540E+02 0.  0.
          4    1    3    3  502    0  0.21405880921E+03 -0.11403086505E+03 -0.12321085345E+03  0.27203883251E+03  0.00000000000E+00 0. -1.
         -3    1    3    3    0  502  0.25847431346E+03 -0.94428337789E+02 -0.22370694483E+03  0.35464133834E+03  0.00000000000E+00 0.  1.
         11    1    5    5    0    0  0.20837495511E+03  0.98599915510E+02  0.61481681700E+03  0.65661387719E+03  0.00000000000E+00 0. -1.
        -11    1    5    5    0    0  0.26177398413E+02  0.60944096526E+02  0.21228486882E+03  0.22240572075E+03  0.00000000000E+00 0.  1.
          1    1    6    6  503    0 -0.19136671775E+03  0.51204934737E+02  0.31425996418E+03  0.37148686530E+03  0.00000000000E+00 0. -1.
         -1    1    6    6    0  503 -0.51571875844E+03 -0.22897439362E+01  0.71554101949E+03  0.88202609446E+03  0.00000000000E+00 0.  1.
<mgrwt>
<rscale>  0 0.23093723E+04</rscale>
<asrwt>0</asrwt>
<pdfrwt beam="1">  1        2 0.32839981E+00 0.23093723E+04</pdfrwt>
<pdfrwt beam="2">  1       -1 0.96094451E-01 0.23093723E+04</pdfrwt>
<totfact> 0.60443823E+00</totfact>
</mgrwt>
</event>
<event>
12    6  0.1450532E-007  0.2189815E+04  0.7818608E-02  0.8522679E-01
         -1   -1    0    0    0  501 -0.00000000000E+00  0.00000000000E+00  0.51125231968E+03  0.51125231968E+03  0.00000000000E+00 0.  1.
          2   -1    0    0  501    0  0.00000000000E+00 -0.00000000000E+00 -0.23448751167E+04  0.23448751167E+04  0.00000000000E+00 0. -1.
         24    2    1    2    0    0  0.37180937645E+03  0.21435024991E+03  0.28476441627E+03  0.52124680725E+03  0.80120030259E+02 0.  0.
        254    2    1    2    0    0 -0.37180937645E+03 -0.21435024991E+03 -0.21183872133E+04  0.23348806291E+04  0.88312792095E+03 0.  0.
         23    2    4    4    0    0 -0.42205943497E+03 -0.33680532823E+03 -0.61706067408E+03  0.82495924438E+03  0.90674602937E+02 0.  0.
         23    2    4    4    0    0  0.50250058521E+02  0.12245507832E+03 -0.15013265392E+04  0.15099213847E+04  0.91437936304E+02 0.  0.
          2    1    3    3  502    0  0.90157874564E+02  0.65638054055E+02  0.36250962686E+02  0.11726435427E+03  0.00000000000E+00 0. -1.
         -1    1    3    3    0  502  0.28165150188E+03  0.14871219585E+03  0.24851345358E+03  0.40398245298E+03  0.00000000000E+00 0.  1.
         11    1    5    5    0    0 -0.14580499392E+03 -0.90605527360E+02 -0.14198791224E+03  0.22277572817E+03  0.00000000000E+00 0.  1.
        -11    1    5    5    0    0 -0.27625444105E+03 -0.24619980087E+03 -0.47507276184E+03  0.60218351621E+03  0.00000000000E+00 0. -1.
          1    1    6    6  503    0  0.48948271676E+02  0.80183658052E+02 -0.57448083466E+03  0.58211131385E+03  0.00000000000E+00 0. -1.
         -1    1    6    6    0  503  0.13017868455E+01  0.42271420270E+02 -0.92684570452E+03  0.92781007087E+03  0.00000000000E+00 0.  1.
<mgrwt>
<rscale>  0 0.21898154E+04</rscale>
<asrwt>0</asrwt>
<pdfrwt beam="1">  1        2 0.36075002E+00 0.21898154E+04</pdfrwt>
<pdfrwt beam="2">  1       -1 0.78654203E-01 0.21898154E+04</pdfrwt>
<totfact> 0.71971238E+00</totfact>
</mgrwt>
</event>
<event>
12    6  0.1450532E-007  0.1926913E+04  0.7818608E-02  0.8641575E-01
         -1   -1    0    0    0  501 -0.00000000000E+00  0.00000000000E+00  0.43538048097E+03  0.43538048097E+03  0.00000000000E+00 0.  1.
          2   -1    0    0  501    0  0.00000000000E+00 -0.00000000000E+00 -0.21320403794E+04  0.21320403794E+04  0.00000000000E+00 0. -1.
         24    2    1    2    0    0  0.74545178252E+03  0.44920550623E+02 -0.55630127762E+03  0.93470265384E+03  0.80509152762E+02 0.  0.
        254    2    1    2    0    0 -0.74545178252E+03 -0.44920550623E+02 -0.11403586208E+04  0.16327182065E+04  0.89868500704E+03 0.  0.
         23    2    4    4    0    0 -0.48635091039E+03 -0.45709697806E+03 -0.64532439357E+03  0.93274144349E+03  0.89934265347E+02 0.  0.
         23    2    4    4    0    0 -0.25910087214E+03  0.41217642743E+03 -0.49503422719E+03  0.69997676299E+03  0.88802665253E+02 0.  0.
          4    1    3    3  502    0  0.15865142804E+02  0.63892723336E+01 -0.12076244680E+01  0.17145959116E+02  0.00000000000E+00 0. -1.
         -3    1    3    3    0  502  0.72958663972E+03  0.38531278289E+02 -0.55509365315E+03  0.91755669472E+03  0.00000000000E+00 0.  1.
         11    1    5    5    0    0 -0.29315366651E+03 -0.24257550063E+03 -0.41833653448E+03  0.56549748167E+03  0.00000000000E+00 0.  1.
        -11    1    5    5    0    0 -0.19319724388E+03 -0.21452147743E+03 -0.22698785909E+03  0.36724396182E+03  0.00000000000E+00 0. -1.
          4    1    6    6  503    0 -0.21332942686E+03  0.38552271566E+03 -0.45668187018E+03  0.63458296480E+03  0.00000000000E+00 0. -1.
         -4    1    6    6    0  503 -0.45771445272E+02  0.26653711771E+02 -0.38352357014E+02  0.65393798193E+02  0.00000000000E+00 0.  1.
<mgrwt>
<rscale>  0 0.19269134E+04</rscale>
<asrwt>0</asrwt>
<pdfrwt beam="1">  1        2 0.32800620E+00 0.19269134E+04</pdfrwt>
<pdfrwt beam="2">  1       -1 0.66981615E-01 0.19269134E+04</pdfrwt>
<totfact> 0.13546811E+01</totfact>
</mgrwt>
</event>
<event>
12    6  0.1450532E-007  0.1782006E+04  0.7818608E-02  0.8715928E-01
          2   -1    0    0  501    0  0.00000000000E+00  0.00000000000E+00  0.30823110081E+04  0.30823110081E+04  0.00000000000E+00 0. -1.
         -1   -1    0    0    0  501 -0.00000000000E+00 -0.00000000000E+00 -0.25756196827E+03  0.25756196827E+03  0.00000000000E+00 0.  1.
         24    2    1    2    0    0 -0.64976233745E+03 -0.16008375173E+03  0.12480397046E+04  0.14186648918E+04  0.84788373610E+02 0.  0.
        254    2    1    2    0    0  0.64976233745E+03  0.16008375173E+03  0.15767093353E+04  0.19212080846E+04  0.87017829988E+03 0.  0.
         23    2    4    4    0    0  0.40352460678E+03  0.99879102354E+02  0.15936230212E+04  0.16494899436E+04  0.91513917277E+02 0.  0.
         23    2    4    4    0    0  0.24623773067E+03  0.60204649376E+02 -0.16913685927E+02  0.27171814096E+03  0.96369370340E+02 0.  0.
          2    1    3    3  502    0 -0.53030120034E+03 -0.10928654951E+03  0.10583524709E+04  0.11888115350E+04  0.00000000000E+00 0. -1.
         -1    1    3    3    0  502 -0.11946113711E+03 -0.50797202224E+02  0.18968723365E+03  0.22985335682E+03  0.00000000000E+00 0.  1.
         11    1    5    5    0    0  0.38611811051E+03  0.93353720667E+02  0.15697466691E+04  0.16192302855E+04  0.00000000000E+00 0.  1.
        -11    1    5    5    0    0  0.17406496272E+02  0.65253816868E+01  0.23876352117E+02  0.30259658112E+02  0.00000000000E+00 0. -1.
          3    1    6    6  503    0  0.60146948897E+02  0.53821083430E+02  0.16927590273E+02  0.82467616648E+02  0.00000000000E+00 0. -1.
         -3    1    6    6    0  503  0.18609078178E+03  0.63835659460E+01 -0.33841276200E+02  0.18925052431E+03  0.00000000000E+00 0.  1.
<mgrwt>
<rscale>  0 0.17820057E+04</rscale>
<asrwt>0</asrwt>
<pdfrwt beam="1">  1        2 0.47420167E+00 0.17820057E+04</pdfrwt>
<pdfrwt beam="2">  1       -1 0.39624920E-01 0.17820057E+04</pdfrwt>
<totfact> 0.10350100E+01</totfact>
</mgrwt>
</event>
<event>
12    6  0.1450532E-007  0.1381802E+04  0.7818608E-02  0.8967098E-01
         -1   -1    0    0    0  501 -0.00000000000E+00  0.00000000000E+00  0.79686043970E+03  0.79686043970E+03  0.00000000000E+00 0.  1.
          2   -1    0    0  501    0  0.00000000000E+00 -0.00000000000E+00 -0.59903110388E+03  0.59903110388E+03  0.00000000000E+00 0. -1.
         24    2    1    2    0    0 -0.30564837610E+03 -0.15280967245E+03 -0.91340296056E+02  0.36221354532E+03  0.77999211017E+02 0.  0.
        254    2    1    2    0    0  0.30564837610E+03  0.15280967245E+03  0.28916963188E+03  0.10336779983E+04  0.93171852094E+03 0.  0.
         23    2    4    4    0    0  0.10189800089E+02  0.48568718486E+03 -0.22892590276E+01  0.49430878215E+03  0.91323917141E+02 0.  0.
         23    2    4    4    0    0  0.29545857602E+03 -0.33287751240E+03  0.29145889090E+03  0.53936921611E+03  0.88699818464E+02 0.  0.
          2    1    3    3  502    0 -0.28009597053E+03 -0.13586314967E+03 -0.57544355686E+02  0.31658158667E+03  0.00000000000E+00 0. -1.
         -1    1    3    3    0  502 -0.25552405576E+02 -0.16946522785E+02 -0.33795940370E+02  0.45631958655E+02  0.00000000000E+00 0.  1.
         11    1    5    5    0    0  0.12583581478E+02  0.36179683791E+03  0.38013221143E+02  0.36400591125E+03  0.00000000000E+00 0. -1.
        -11    1    5    5    0    0 -0.23937813888E+01  0.12389034695E+03 -0.40302480171E+02  0.13030287090E+03  0.00000000000E+00 0.  1.
          1    1    6    6  503    0  0.17124324673E+03 -0.24397370690E+03  0.22148137241E+03  0.37135080118E+03  0.00000000000E+00 0. -1.
         -1    1    6    6    0  503  0.12421532929E+03 -0.88903805496E+02  0.69977518498E+02  0.16801841493E+03  0.00000000000E+00 0.  1.
<mgrwt>
<rscale>  0 0.13818020E+04</rscale>
<asrwt>0</asrwt>
<pdfrwt beam="1">  1        2 0.92158632E-01 0.13818020E+04</pdfrwt>
<pdfrwt beam="2">  1       -1 0.12259391E+00 0.13818020E+04</pdfrwt>
<totfact> 0.32515688E+01</totfact>
</mgrwt>
</event>
<event>
12    6  0.1450532E-007  0.2180244E+04  0.7818608E-02  0.8526696E-01
         -1   -1    0    0    0  501 -0.00000000000E+00  0.00000000000E+00  0.77765009637E+03  0.77765009637E+03  0.00000000000E+00 0.  1.
          2   -1    0    0  501    0  0.00000000000E+00 -0.00000000000E+00 -0.15281505054E+04  0.15281505054E+04  0.00000000000E+00 0. -1.
         24    2    1    2    0    0  0.72703409352E+02 -0.77603249597E+03  0.17098665785E+03  0.80192217280E+03  0.79564524332E+02 0.  0.
        254    2    1    2    0    0 -0.72703409352E+02  0.77603249597E+03 -0.92148706692E+03  0.15038784290E+04  0.89721775182E+03 0.  0.
         23    2    4    4    0    0 -0.44804523033E+03  0.58687206125E+03 -0.46762325648E+03  0.87881748886E+03  0.92115818562E+02 0.  0.
         23    2    4    4    0    0  0.37534182098E+03  0.18916043472E+03 -0.45386381044E+03  0.62506094014E+03  0.89697646731E+02 0.  0.
          4    1    3    3  502    0  0.28921844542E+02 -0.65832498604E+02  0.17638697419E+02  0.74037251507E+02  0.00000000000E+00 0. -1.
         -3    1    3    3    0  502  0.43781564810E+02 -0.71019999737E+03  0.15334796043E+03  0.72788492130E+03  0.00000000000E+00 0.  1.
         11    1    5    5    0    0 -0.27713027781E+03  0.30934651483E+03 -0.29970996292E+03  0.51217430528E+03  0.00000000000E+00 0. -1.
        -11    1    5    5    0    0 -0.17091495252E+03  0.27752554643E+03 -0.16791329356E+03  0.36664318358E+03  0.00000000000E+00 0.  1.
          3    1    6    6  503    0  0.23695227583E+03  0.12228536775E+03 -0.22243690309E+03  0.34724381642E+03  0.00000000000E+00 0. -1.
         -3    1    6    6    0  503  0.13838954515E+03  0.66875066973E+02 -0.23142690735E+03  0.27781712372E+03  0.00000000000E+00 0.  1.
<mgrwt>
<rscale>  0 0.21802444E+04</rscale>
<asrwt>0</asrwt>
<pdfrwt beam="1">  1        2 0.23510008E+00 0.21802444E+04</pdfrwt>
<pdfrwt beam="2">  1       -1 0.11963848E+00 0.21802444E+04</pdfrwt>
<totfact> 0.79604442E+00</totfact>
</mgrwt>
</event>
<event>
12    6  0.1450532E-007  0.2262633E+04  0.7818608E-02  0.8492802E-01
          2   -1    0    0  501    0  0.00000000000E+00  0.00000000000E+00  0.94744250757E+03  0.94744250757E+03  0.00000000000E+00 0. -1.
         -1   -1    0    0    0  501 -0.00000000000E+00 -0.00000000000E+00 -0.13508751649E+04  0.13508751649E+04  0.00000000000E+00 0.  1.
         24    2    1    2    0    0 -0.28353493536E+03  0.74154761915E+03  0.36429526308E+03  0.87732461727E+03  0.81868884931E+02 0.  0.
        254    2    1    2    0    0  0.28353493536E+03 -0.74154761915E+03 -0.76772792037E+03  0.14209930552E+04  0.89416451062E+03 0.  0.
         23    2    4    4    0    0  0.35164326762E+03  0.65266844535E+02 -0.33390958675E+03  0.49807955213E+03  0.93139033039E+02 0.  0.
         23    2    4    4    0    0 -0.68108332261E+02 -0.80681446369E+03 -0.43381833363E+03  0.92291350303E+03  0.89345753885E+02 0.  0.
          4    1    3    3  502    0 -0.22582593413E+03  0.62816443417E+03  0.27531195743E+03  0.72206965230E+03  0.00000000000E+00 0. -1.
         -3    1    3    3    0  502 -0.57709001228E+02  0.11338318499E+03  0.88983305653E+02  0.15525496496E+03  0.00000000000E+00 0.  1.
         11    1    5    5    0    0  0.26033688792E-01 -0.98212759395E+01 -0.11778997561E+02  0.15336326887E+02  0.00000000000E+00 0. -1.
        -11    1    5    5    0    0  0.35161723393E+03  0.75088120474E+02 -0.32213058918E+03  0.48274322525E+03  0.00000000000E+00 0.  1.
          1    1    6    6  503    0 -0.88739462922E+02 -0.66491103059E+03 -0.34630285461E+03  0.75492187542E+03  0.00000000000E+00 0. -1.
         -1    1    6    6    0  503  0.20631130661E+02 -0.14190343310E+03 -0.87515479022E+02  0.16799162761E+03  0.00000000000E+00 0.  1.
<mgrwt>
<rscale>  0 0.22626326E+04</rscale>
<asrwt>0</asrwt>
<pdfrwt beam="1">  1        2 0.14576039E+00 0.22626326E+04</pdfrwt>
<pdfrwt beam="2">  1       -1 0.20782695E+00 0.22626326E+04</pdfrwt>
<totfact> 0.37597274E+00</totfact>
</mgrwt>
</event>
<event>
12    6  0.1450532E-007  0.1113255E+04  0.7818608E-02  0.9192368E-01
          2   -1    0    0  501    0  0.00000000000E+00  0.00000000000E+00  0.10078116544E+04  0.10078116544E+04  0.00000000000E+00 0. -1.
         -1   -1    0    0    0  501 -0.00000000000E+00 -0.00000000000E+00 -0.30743288265E+03  0.30743288265E+03  0.00000000000E+00 0.  1.
         24    2    1    2    0    0 -0.23460294282E+02 -0.21462962003E+02 -0.92109707623E+02  0.12737151439E+03  0.82025973289E+02 0.  0.
        254    2    1    2    0    0  0.23460294282E+02  0.21462962003E+02  0.79248847933E+03  0.11878730226E+04  0.88430384137E+03 0.  0.
         23    2    4    4    0    0 -0.25762731432E+03 -0.18671782719E+03  0.75716905644E+03  0.82526746228E+03  0.80783811487E+02 0.  0.
         23    2    4    4    0    0  0.28108760860E+03  0.20818078919E+03  0.35319422891E+02  0.36260556034E+03  0.88802286365E+02 0.  0.
          2    1    3    3  502    0  0.18885590837E+02 -0.17864292929E+02 -0.72624624160E-01  0.25996226216E+02  0.00000000000E+00 0. -1.
         -1    1    3    3    0  502 -0.42345885119E+02 -0.35986690735E+01 -0.92037082999E+02  0.10137528818E+03  0.00000000000E+00 0.  1.
         11    1    5    5    0    0 -0.15203203173E+03 -0.85954097681E+02  0.49920651882E+03  0.52887521592E+03  0.00000000000E+00 0. -1.
        -11    1    5    5    0    0 -0.10559528259E+03 -0.10076372951E+03  0.25796253762E+03  0.29639224636E+03  0.00000000000E+00 0.  1.
          3    1    6    6  503    0  0.28775631812E+03  0.20055720529E+03  0.34208148931E+02  0.35241607322E+03  0.00000000000E+00 0. -1.
         -3    1    6    6    0  503 -0.66687095165E+01  0.76235838967E+01  0.11112739600E+01  0.10189487125E+02  0.00000000000E+00 0.  1.
<mgrwt>
<rscale>  0 0.11132555E+04</rscale>
<asrwt>0</asrwt>
<pdfrwt beam="1">  1        2 0.15504794E+00 0.11132555E+04</pdfrwt>
<pdfrwt beam="2">  1       -1 0.47297367E-01 0.11132555E+04</pdfrwt>
<totfact> 0.12559383E+02</totfact>
</mgrwt>
</event>
<event>
12    6  0.1450532E-007  0.3813760E+04  0.7818608E-02  0.8043208E-01
          2   -1    0    0  501    0  0.00000000000E+00  0.00000000000E+00  0.22197348475E+04  0.22197348475E+04  0.00000000000E+00 0. -1.
         -1   -1    0    0    0  501 -0.00000000000E+00 -0.00000000000E+00 -0.16381198002E+04  0.16381198002E+04  0.00000000000E+00 0.  1.
         24    2    1    2    0    0 -0.11609893554E+04  0.12994430033E+04 -0.18612405820E+03  0.17542602007E+04  0.79613344252E+02 0.  0.
        254    2    1    2    0    0  0.11609893554E+04 -0.12994430033E+04  0.76773910544E+03  0.21035944470E+04  0.89400104084E+03 0.  0.
         23    2    4    4    0    0  0.52210461115E+02 -0.61097724972E+03  0.42288845455E+03  0.75061609804E+03  0.92578343737E+02 0.  0.
         23    2    4    4    0    0  0.11087788943E+04 -0.68846575357E+03  0.34485065089E+03  0.13529783489E+04  0.90844432313E+02 0.  0.
          2    1    3    3  502    0 -0.50015547441E+02  0.82770661414E+02 -0.70077260890E+01  0.96962083319E+02  0.00000000000E+00 0. -1.
         -1    1    3    3    0  502 -0.11109738080E+04  0.12166723419E+04 -0.17911633211E+03  0.16572981174E+04  0.00000000000E+00 0.  1.
         11    1    5    5    0    0  0.55664907960E+02 -0.28386666801E+03  0.15747411599E+03  0.32935841327E+03  0.00000000000E+00 0. -1.
        -11    1    5    5    0    0 -0.34544468447E+01 -0.32711058171E+03  0.26541433856E+03  0.42125768477E+03  0.00000000000E+00 0.  1.
          4    1    6    6  503    0  0.97992134551E+02 -0.91126787446E+02  0.45246917862E+02  0.14125803836E+03  0.00000000000E+00 0. -1.
         -4    1    6    6    0  503  0.10107867598E+04 -0.59733896612E+03  0.29960373303E+03  0.12117203106E+04  0.00000000000E+00 0.  1.
<mgrwt>
<rscale>  0 0.38137601E+04</rscale>
<asrwt>0</asrwt>
<pdfrwt beam="1">  1        2 0.34149767E+00 0.38137601E+04</pdfrwt>
<pdfrwt beam="2">  1       -1 0.25201843E+00 0.38137601E+04</pdfrwt>
<totfact> 0.31004045E-01</totfact>
</mgrwt>
</event>
<event>
12    6  0.1450532E-007  0.4005202E+04  0.7818608E-02  0.8003498E-01
         -1   -1    0    0    0  501 -0.00000000000E+00  0.00000000000E+00  0.11281824179E+04  0.11281824179E+04  0.00000000000E+00 0.  1.
          2   -1    0    0  501    0  0.00000000000E+00 -0.00000000000E+00 -0.35547544085E+04  0.35547544085E+04  0.00000000000E+00 0. -1.
         24    2    1    2    0    0 -0.60841355745E+03 -0.77453254381E+03 -0.30496655457E+04  0.32058152860E+04  0.81999933831E+02 0.  0.
        254    2    1    2    0    0  0.60841355745E+03  0.77453254381E+03  0.62309355512E+03  0.14771215404E+04  0.90751019191E+03 0.  0.
         23    2    4    4    0    0  0.79990156019E+03  0.60922311421E+03  0.65919709057E+03  0.12057582469E+04  0.91196693574E+02 0.  0.
         23    2    4    4    0    0 -0.19148800273E+03  0.16530942961E+03 -0.36103535454E+02  0.27136329350E+03  0.91322007648E+02 0.  0.
          4    1    3    3  502    0 -0.56613387044E+03 -0.69077028593E+03 -0.27065831965E+04  0.28501339875E+04  0.00000000000E+00 0. -1.
         -3    1    3    3    0  502 -0.42279687016E+02 -0.83762257889E+02 -0.34308234917E+03  0.35568129849E+03  0.00000000000E+00 0.  1.
         11    1    5    5    0    0  0.15557394390E+02  0.30184768205E+02  0.14347406850E+02  0.36864628509E+02  0.00000000000E+00 0. -1.
        -11    1    5    5    0    0  0.78434416580E+03  0.57903834600E+03  0.64484968372E+03  0.11688936184E+04  0.00000000000E+00 0.  1.
          1    1    6    6  503    0 -0.79315523007E+02  0.28243703333E+02 -0.42128441887E+02  0.94145974867E+02  0.00000000000E+00 0. -1.
         -1    1    6    6    0  503 -0.11217247973E+03  0.13706572628E+03  0.60249064334E+01  0.17721731864E+03  0.00000000000E+00 0.  1.
<mgrwt>
<rscale>  0 0.40052023E+04</rscale>
<asrwt>0</asrwt>
<pdfrwt beam="1">  1        2 0.54688529E+00 0.40052023E+04</pdfrwt>
<pdfrwt beam="2">  1       -1 0.17356653E+00 0.40052023E+04</pdfrwt>
<totfact> 0.15390780E-01</totfact>
</mgrwt>
</event>
<event>
12    6  0.1450532E-007  0.1368827E+04  0.7818608E-02  0.8976697E-01
          2   -1    0    0  501    0  0.00000000000E+00  0.00000000000E+00  0.18564611864E+04  0.18564611864E+04  0.00000000000E+00 0. -1.
         -1   -1    0    0    0  501 -0.00000000000E+00 -0.00000000000E+00 -0.25231985197E+03  0.25231985197E+03  0.00000000000E+00 0.  1.
         24    2    1    2    0    0 -0.24756097785E+03 -0.14050758981E+03  0.85718987027E+02  0.30741982239E+03  0.78296755441E+02 0.  0.
        254    2    1    2    0    0  0.24756097785E+03  0.14050758981E+03  0.15184223474E+04  0.18013612159E+04  0.92642699914E+03 0.  0.
         23    2    4    4    0    0  0.37202070531E+03 -0.29315040829E+02  0.15245295904E+04  0.15721401296E+04  0.90417577149E+02 0.  0.
         23    2    4    4    0    0 -0.12445972745E+03  0.16982263064E+03 -0.61072430132E+01  0.22922108637E+03  0.90416029465E+02 0.  0.
          2    1    3    3  502    0 -0.52663846281E+02 -0.63234800308E+00  0.31853569827E+02  0.61551039632E+02  0.00000000000E+00 0. -1.
         -1    1    3    3    0  502 -0.19489713157E+03 -0.13987524180E+03  0.53865417200E+02  0.24586878276E+03  0.00000000000E+00 0.  1.
         11    1    5    5    0    0  0.18837790554E+03  0.27489010759E+02  0.69222745402E+03  0.71792808073E+03  0.00000000000E+00 0. -1.
        -11    1    5    5    0    0  0.18364279977E+03 -0.56804051587E+02  0.83230213636E+03  0.85421204884E+03  0.00000000000E+00 0.  1.
          2    1    6    6  503    0 -0.68458985909E+02  0.25976122205E+02 -0.14446694752E+02  0.74633093637E+02  0.00000000000E+00 0. -1.
         -2    1    6    6    0  503 -0.56000741545E+02  0.14384650843E+03  0.83394517391E+01  0.15458799273E+03  0.00000000000E+00 0.  1.
<mgrwt>
<rscale>  0 0.13688273E+04</rscale>
<asrwt>0</asrwt>
<pdfrwt beam="1">  1        2 0.28560940E+00 0.13688273E+04</pdfrwt>
<pdfrwt beam="2">  1       -1 0.38818440E-01 0.13688273E+04</pdfrwt>
<totfact> 0.57413195E+01</totfact>
</mgrwt>
</event>
<event>
12    6  0.1450532E-007  0.1699545E+04  0.7818608E-02  0.8761624E-01
          2   -1    0    0  501    0  0.00000000000E+00  0.00000000000E+00  0.18424110803E+04  0.18424110803E+04  0.00000000000E+00 0. -1.
         -1   -1    0    0    0  501 -0.00000000000E+00 -0.00000000000E+00 -0.39193931478E+03  0.39193931478E+03  0.00000000000E+00 0.  1.
         24    2    1    2    0    0  0.54371843154E+03  0.67688434482E+01  0.85026773521E+03  0.10124901654E+04  0.80657073175E+02 0.  0.
        254    2    1    2    0    0 -0.54371843154E+03 -0.67688434482E+01  0.60020403030E+03  0.12218602297E+04  0.91488906039E+03 0.  0.
         23    2    4    4    0    0  0.10760427157E+03  0.24040110620E+03  0.40723303594E+03  0.49334710689E+03  0.90450269160E+02 0.  0.
         23    2    4    4    0    0 -0.65132270310E+03 -0.24716994964E+03  0.19297099436E+03  0.72851312278E+03  0.90439581024E+02 0.  0.
          4    1    3    3  502    0  0.39524368271E+03 -0.91013607132E+00  0.54830879419E+03  0.67591488433E+03  0.00000000000E+00 0. -1.
         -3    1    3    3    0  502  0.14847474883E+03  0.76789795195E+01  0.30195894101E+03  0.33657528106E+03  0.00000000000E+00 0.  1.
         11    1    5    5    0    0 -0.91716446411E+01  0.65709623992E+02  0.73922576605E+02  0.99329859975E+02  0.00000000000E+00 0.  1.
        -11    1    5    5    0    0  0.11677591621E+03  0.17469148220E+03  0.33331045934E+03  0.39401724691E+03  0.00000000000E+00 0. -1.
          1    1    6    6  503    0 -0.31720386328E+03 -0.11668631423E+03  0.14040252119E+03  0.36598750630E+03  0.00000000000E+00 0. -1.
         -1    1    6    6    0  503 -0.33411883982E+03 -0.13048363541E+03  0.52568473162E+02  0.36252561648E+03  0.00000000000E+00 0.  1.
<mgrwt>
<rscale>  0 0.16995450E+04</rscale>
<asrwt>0</asrwt>
<pdfrwt beam="1">  1        2 0.28344785E+00 0.16995450E+04</pdfrwt>
<pdfrwt beam="2">  1       -1 0.60298357E-01 0.16995450E+04</pdfrwt>
<totfact> 0.24707347E+01</totfact>
</mgrwt>
</event>
<event>
12    6  0.1450532E-007  0.1409661E+04  0.7818608E-02  0.8946855E-01
         -1   -1    0    0    0  501 -0.00000000000E+00  0.00000000000E+00  0.26703679378E+03  0.26703679378E+03  0.00000000000E+00 0.  1.
          2   -1    0    0  501    0  0.00000000000E+00 -0.00000000000E+00 -0.18603654615E+04  0.18603654615E+04  0.00000000000E+00 0. -1.
         24    2    1    2    0    0  0.95222429748E+00 -0.14591398797E+03 -0.10755020215E+04  0.10885283300E+04  0.83051359934E+02 0.  0.
        254    2    1    2    0    0 -0.95222429748E+00  0.14591398797E+03 -0.51782664625E+03  0.10388739253E+04  0.88871975250E+03 0.  0.
         23    2    4    4    0    0 -0.32261902286E+03  0.29692495902E+03 -0.49915485375E+03  0.67132683555E+03  0.96315558964E+02 0.  0.
         23    2    4    4    0    0  0.32166679856E+03 -0.15101097105E+03 -0.18671792499E+02  0.36754708976E+03  0.92023826689E+02 0.  0.
          4    1    3    3  502    0  0.23069241073E+02 -0.14346031185E+03 -0.95464537139E+03  0.96564011726E+03  0.00000000000E+00 0. -1.
         -3    1    3    3    0  502 -0.22117016775E+02 -0.24536761221E+01 -0.12085665010E+03  0.12288821274E+03  0.00000000000E+00 0.  1.
         11    1    5    5    0    0 -0.28750440743E+03  0.23316988190E+03 -0.37188970263E+03  0.52471795189E+03  0.00000000000E+00 0. -1.
        -11    1    5    5    0    0 -0.35114615431E+02  0.63755077122E+02 -0.12726515113E+03  0.14660888366E+03  0.00000000000E+00 0.  1.
          1    1    6    6  503    0  0.24157141278E+03 -0.14512526163E+03 -0.39530585984E+02  0.28457117961E+03  0.00000000000E+00 0. -1.
         -1    1    6    6    0  503  0.80095385784E+02 -0.58857094194E+01  0.20858793486E+02  0.82975910149E+02  0.00000000000E+00 0.  1.
<mgrwt>
<rscale>  0 0.14096610E+04</rscale>
<asrwt>0</asrwt>
<pdfrwt beam="1">  1        2 0.28621007E+00 0.14096610E+04</pdfrwt>
<pdfrwt beam="2">  1       -1 0.41082584E-01 0.14096610E+04</pdfrwt>
<totfact> 0.51337718E+01</totfact>
</mgrwt>
</event>
<event>
12    6  0.1450532E-007  0.1765128E+04  0.7818608E-02  0.8725067E-01
          2   -1    0    0  501    0  0.00000000000E+00  0.00000000000E+00  0.14468014418E+04  0.14468014418E+04  0.00000000000E+00 0. -1.
         -1   -1    0    0    0  501 -0.00000000000E+00 -0.00000000000E+00 -0.53837348803E+03  0.53837348803E+03  0.00000000000E+00 0.  1.
         24    2    1    2    0    0  0.21407175750E+03  0.41619151034E+03 -0.18741189092E+03  0.51069915439E+03  0.81537223393E+02 0.  0.
        254    2    1    2    0    0 -0.21407175750E+03 -0.41619151034E+03  0.10958398447E+04  0.14744757754E+04  0.86843062847E+03 0.  0.
         23    2    4    4    0    0  0.26471835495E+03 -0.20183878878E+03  0.78607592092E+03  0.85862254526E+03  0.92209639820E+02 0.  0.
         23    2    4    4    0    0 -0.47879011245E+03 -0.21435272156E+03  0.30976392374E+03  0.61585323014E+03  0.90191194763E+02 0.  0.
          4    1    3    3  502    0  0.66978078267E+01  0.44925142836E+02 -0.40281621809E+02  0.60710280382E+02  0.00000000000E+00 0. -1.
         -3    1    3    3    0  502  0.20737394967E+03  0.37126636750E+03 -0.14713026911E+03  0.44998887401E+03  0.00000000000E+00 0.  1.
         11    1    5    5    0    0  0.20277284473E+03 -0.19685956683E+03  0.66390211787E+03  0.72155147961E+03  0.00000000000E+00 0. -1.
        -11    1    5    5    0    0  0.61945510211E+02 -0.49792219479E+01  0.12217380305E+03  0.13707106565E+03  0.00000000000E+00 0.  1.
          1    1    6    6  503    0 -0.23243824094E+03 -0.12721439174E+03  0.20202799689E+03  0.33320616568E+03  0.00000000000E+00 0. -1.
         -1    1    6    6    0  503 -0.24635187151E+03 -0.87138329822E+02  0.10773592685E+03  0.28264706447E+03  0.00000000000E+00 0.  1.
<mgrwt>
<rscale>  0 0.17651284E+04</rscale>
<asrwt>0</asrwt>
<pdfrwt beam="1">  1        2 0.22258484E+00 0.17651284E+04</pdfrwt>
<pdfrwt beam="2">  1       -1 0.82826691E-01 0.17651284E+04</pdfrwt>
<totfact> 0.21256709E+01</totfact>
</mgrwt>
</event>
<event>
12    6  0.1450532E-007  0.1204692E+04  0.7818608E-02  0.9108760E-01
          2   -1    0    0  501    0  0.00000000000E+00  0.00000000000E+00  0.13336650393E+04  0.13336650393E+04  0.00000000000E+00 0. -1.
         -1   -1    0    0    0  501 -0.00000000000E+00 -0.00000000000E+00 -0.27204771794E+03  0.27204771794E+03  0.00000000000E+00 0.  1.
         24    2    1    2    0    0  0.10870806636E+03 -0.97327497908E+02 -0.52148112542E+02  0.17325849058E+03  0.77517697180E+02 0.  0.
        254    2    1    2    0    0 -0.10870806636E+03  0.97327497908E+02  0.11137654339E+04  0.14324542666E+04  0.88891039973E+03 0.  0.
         23    2    4    4    0    0  0.22031621299E+03  0.23208971558E+03  0.91565137061E+02  0.34645742754E+03  0.96144188535E+02 0.  0.
         23    2    4    4    0    0 -0.32902427935E+03 -0.13476221767E+03  0.10222002968E+04  0.10859968391E+04  0.89876893496E+02 0.  0.
          2    1    3    3  502    0  0.11694771759E+03 -0.71896824398E+02 -0.35608916158E+02  0.14182354148E+03  0.00000000000E+00 0. -1.
         -1    1    3    3    0  502 -0.82396512364E+01 -0.25430673510E+02 -0.16539196384E+02  0.31434949096E+02  0.00000000000E+00 0.  1.
         11    1    5    5    0    0  0.10434559924E+03  0.62872113863E+02  0.40681328522E-01  0.12182326722E+03  0.00000000000E+00 0.  1.
        -11    1    5    5    0    0  0.11597061375E+03  0.16921760171E+03  0.91524455733E+02  0.22463416032E+03  0.00000000000E+00 0. -1.
          3    1    6    6  503    0 -0.10008633500E+03 -0.64916339986E+02  0.24032375511E+03  0.26830376986E+03  0.00000000000E+00 0. -1.
         -3    1    6    6    0  503 -0.22893794435E+03 -0.69845877682E+02  0.78187654172E+03  0.81769306924E+03  0.00000000000E+00 0.  1.
<mgrwt>
<rscale>  0 0.12046917E+04</rscale>
<asrwt>0</asrwt>
<pdfrwt beam="1">  1        2 0.20517923E+00 0.12046917E+04</pdfrwt>
<pdfrwt beam="2">  1       -1 0.41853496E-01 0.12046917E+04</pdfrwt>
<totfact> 0.99502527E+01</totfact>
</mgrwt>
</event>
<event>
12    6  0.1450532E-007  0.1670815E+04  0.7818608E-02  0.8778187E-01
          2   -1    0    0  501    0  0.00000000000E+00  0.00000000000E+00  0.22936593060E+04  0.22936593060E+04  0.00000000000E+00 0. -1.
         -1   -1    0    0    0  501 -0.00000000000E+00 -0.00000000000E+00 -0.30427604038E+03  0.30427604038E+03  0.00000000000E+00 0.  1.
         24    2    1    2    0    0 -0.44931776129E+03 -0.25048425292E+03  0.26189351795E+03  0.58291650395E+03  0.81084056761E+02 0.  0.
        254    2    1    2    0    0  0.44931776129E+03  0.25048425292E+03  0.17274897477E+04  0.20150188424E+04  0.90080591443E+03 0.  0.
         23    2    4    4    0    0 -0.11298590823E+03  0.27237469247E+03  0.11965170934E+04  0.12358159898E+04  0.92920489364E+02 0.  0.
         23    2    4    4    0    0  0.56230366952E+03 -0.21890439558E+02  0.53097265426E+03  0.77920285260E+03  0.92523066471E+02 0.  0.
          2    1    3    3  502    0 -0.67869710791E+02 -0.69105644811E+02  0.66802330207E+02  0.11766239462E+03  0.00000000000E+00 0. -1.
         -1    1    3    3    0  502 -0.38144805050E+03 -0.18137860811E+03  0.19509118775E+03  0.46525410933E+03  0.00000000000E+00 0.  1.
         11    1    5    5    0    0  0.16385530514E+02  0.39107653152E+02  0.17022531764E+03  0.17542677364E+03  0.00000000000E+00 0.  1.
        -11    1    5    5    0    0 -0.12937143874E+03  0.23326703932E+03  0.10262917758E+04  0.10603892162E+04  0.00000000000E+00 0. -1.
          1    1    6    6  503    0  0.54648330400E+03 -0.15184831284E+02  0.48759487180E+03  0.73254579356E+03  0.00000000000E+00 0. -1.
         -1    1    6    6    0  503  0.15820365519E+02 -0.67056082740E+01  0.43377782457E+02  0.46657059041E+02  0.00000000000E+00 0.  1.
<mgrwt>
<rscale>  0 0.16708149E+04</rscale>
<asrwt>0</asrwt>
<pdfrwt beam="1">  1        2 0.35287065E+00 0.16708149E+04</pdfrwt>
<pdfrwt beam="2">  1       -1 0.46811700E-01 0.16708149E+04</pdfrwt>
<totfact> 0.22599383E+01</totfact>
</mgrwt>
</event>
<event>
12    6  0.1450532E-007  0.1270664E+04  0.7818608E-02  0.9053158E-01
          2   -1    0    0  501    0  0.00000000000E+00  0.00000000000E+00  0.15836009087E+04  0.15836009087E+04  0.00000000000E+00 0. -1.
         -1   -1    0    0    0  501 -0.00000000000E+00 -0.00000000000E+00 -0.25489166423E+03  0.25489166423E+03  0.00000000000E+00 0.  1.
         24    2    1    2    0    0 -0.29499722958E+03  0.10135094122E+03  0.33005870213E+03  0.46166532706E+03  0.83070744629E+02 0.  0.
        254    2    1    2    0    0  0.29499722958E+03 -0.10135094122E+03  0.99865054237E+03  0.13768272459E+04  0.89501674874E+03 0.  0.
         23    2    4    4    0    0 -0.94827938627E+02  0.36398882744E+02 -0.11919707813E+03  0.18147612890E+03  0.91697466254E+02 0.  0.
         23    2    4    4    0    0  0.38982516821E+03 -0.13774982396E+03  0.11178476205E+04  0.11953511170E+04  0.91336271465E+02 0.  0.
          2    1    3    3  502    0 -0.99219336076E+02  0.32743224230E+02  0.17042899331E+03  0.19990657104E+03  0.00000000000E+00 0. -1.
         -1    1    3    3    0  502 -0.19577789351E+03  0.68607716988E+02  0.15962970881E+03  0.26175875602E+03  0.00000000000E+00 0.  1.
         11    1    5    5    0    0 -0.42912071866E+02  0.64757526593E+02 -0.67820451439E+02  0.10312418143E+03  0.00000000000E+00 0.  1.
        -11    1    5    5    0    0 -0.51915866761E+02 -0.28358643849E+02 -0.51376626690E+02  0.78351947471E+02  0.00000000000E+00 0. -1.
          1    1    6    6  503    0  0.10864527683E+03 -0.30328594998E+02  0.42958726007E+03  0.44414956250E+03  0.00000000000E+00 0. -1.
         -1    1    6    6    0  503  0.28117989138E+03 -0.10742122896E+03  0.68826036043E+03  0.75120155450E+03  0.00000000000E+00 0.  1.
<mgrwt>
<rscale>  0 0.12706639E+04</rscale>
<asrwt>0</asrwt>
<pdfrwt beam="1">  1        2 0.24363090E+00 0.12706639E+04</pdfrwt>
<pdfrwt beam="2">  1       -1 0.39214103E-01 0.12706639E+04</pdfrwt>
<totfact> 0.80482012E+01</totfact>
</mgrwt>
</event>
<event>
12    6  0.1450532E-007  0.3317624E+04  0.7818608E-02  0.8158425E-01
          2   -1    0    0  501    0  0.00000000000E+00  0.00000000000E+00  0.13035568075E+04  0.13035568075E+04  0.00000000000E+00 0. -1.
         -1   -1    0    0    0  501 -0.00000000000E+00 -0.00000000000E+00 -0.21108837217E+04  0.21108837217E+04  0.00000000000E+00 0.  1.
         24    2    1    2    0    0  0.25397522889E+03  0.14778060520E+04 -0.45277529992E+03  0.15687277962E+04  0.86529082722E+02 0.  0.
        254    2    1    2    0    0 -0.25397522889E+03 -0.14778060520E+04 -0.35455161423E+03  0.18457127330E+04  0.10161370487E+04 0.  0.
         23    2    4    4    0    0  0.17324525871E+02 -0.96566412367E+03 -0.67106867988E+03  0.11791440173E+04  0.85088785323E+02 0.  0.
         23    2    4    4    0    0 -0.27129975476E+03 -0.51214192830E+03  0.31651706565E+03  0.66656871579E+03  0.90762813778E+02 0.  0.
          2    1    3    3  502    0  0.17728882291E+03  0.86179221767E+03 -0.23255658982E+03  0.91005478991E+03  0.00000000000E+00 0. -1.
         -1    1    3    3    0  502  0.76686405979E+02  0.61601383429E+03 -0.22021871010E+03  0.65867300626E+03  0.00000000000E+00 0.  1.
         11    1    5    5    0    0 -0.16525573131E+02 -0.69507657048E+02 -0.66431745839E+02  0.97558115043E+02  0.00000000000E+00 0.  1.
        -11    1    5    5    0    0  0.33850099002E+02 -0.89615646662E+03 -0.60463693404E+03  0.10815859022E+04  0.00000000000E+00 0. -1.
          1    1    6    6  503    0 -0.97590853938E+02 -0.14872973421E+03  0.14190481488E+03  0.22755545499E+03  0.00000000000E+00 0. -1.
         -1    1    6    6    0  503 -0.17370890082E+03 -0.36341219408E+03  0.17461225078E+03  0.43901326080E+03  0.00000000000E+00 0.  1.
<mgrwt>
<rscale>  0 0.33176238E+04</rscale>
<asrwt>0</asrwt>
<pdfrwt beam="1">  1        2 0.20054720E+00 0.33176238E+04</pdfrwt>
<pdfrwt beam="2">  1       -1 0.32475134E+00 0.33176238E+04</pdfrwt>
<totfact> 0.35601082E-01</totfact>
</mgrwt>
</event>
<event>
12    6  0.1450532E-007  0.1904783E+04  0.7818608E-02  0.8652479E-01
          2   -1    0    0  501    0  0.00000000000E+00  0.00000000000E+00  0.12271478506E+04  0.12271478506E+04  0.00000000000E+00 0. -1.
         -1   -1    0    0    0  501 -0.00000000000E+00 -0.00000000000E+00 -0.73915224903E+03  0.73915224903E+03  0.00000000000E+00 0.  1.
         24    2    1    2    0    0  0.53168844386E+03  0.50306877589E+03  0.12148730278E+03  0.74633739158E+03  0.80557698071E+02 0.  0.
        254    2    1    2    0    0 -0.53168844386E+03 -0.50306877589E+03  0.36650829878E+03  0.12199627081E+04  0.90454954610E+03 0.  0.
         23    2    4    4    0    0  0.52791971329E+02 -0.36367189714E+03 -0.16296729008E+03  0.41419744976E+03  0.99784511543E+02 0.  0.
         23    2    4    4    0    0 -0.58448041519E+03 -0.13939687875E+03  0.52947558886E+03  0.80576525830E+03  0.88681490334E+02 0.  0.
          2    1    3    3  502    0  0.37882091108E+03  0.39055209533E+03  0.63046217126E+02  0.54773264220E+03  0.00000000000E+00 0. -1.
         -1    1    3    3    0  502  0.15286753278E+03  0.11251668057E+03  0.58441085657E+02  0.19860474938E+03  0.00000000000E+00 0.  1.
         11    1    5    5    0    0  0.28574176731E+02 -0.71178426120E+02 -0.76268706514E+02  0.10816546359E+03  0.00000000000E+00 0.  1.
        -11    1    5    5    0    0  0.24217794598E+02 -0.29249347102E+03 -0.86698583567E+02  0.30603198616E+03  0.00000000000E+00 0. -1.
          2    1    6    6  503    0 -0.34387387745E+03 -0.79527153905E+02  0.36786645309E+03  0.50980343184E+03  0.00000000000E+00 0. -1.
         -2    1    6    6    0  503 -0.24060653774E+03 -0.59869724849E+02  0.16160913577E+03  0.29596182646E+03  0.00000000000E+00 0.  1.
<mgrwt>
<rscale>  0 0.19047825E+04</rscale>
<asrwt>0</asrwt>
<pdfrwt beam="1">  1        2 0.18879198E+00 0.19047825E+04</pdfrwt>
<pdfrwt beam="2">  1       -1 0.11371573E+00 0.19047825E+04</pdfrwt>
<totfact> 0.13735817E+01</totfact>
</mgrwt>
</event>
<event>
12    6  0.1450532E-007  0.1392177E+04  0.7818608E-02  0.8959501E-01
         -1   -1    0    0    0  501 -0.00000000000E+00  0.00000000000E+00  0.39222088390E+03  0.39222088390E+03  0.00000000000E+00 0.  1.
          2   -1    0    0  501    0  0.00000000000E+00 -0.00000000000E+00 -0.12353736261E+04  0.12353736261E+04  0.00000000000E+00 0. -1.
         24    2    1    2    0    0 -0.29526693740E+03  0.16127612998E+03 -0.11711399371E+03  0.36524908964E+03  0.80614239022E+02 0.  0.
        254    2    1    2    0    0  0.29526693740E+03 -0.16127612998E+03 -0.72603874849E+03  0.12623454204E+04  0.97631508314E+03 0.  0.
         23    2    4    4    0    0  0.24208329809E+03  0.16664385177E+02  0.19146147452E+03  0.32164420832E+03  0.88968958477E+02 0.  0.
         23    2    4    4    0    0  0.53183639311E+02 -0.17794051515E+03 -0.91750022301E+03  0.94070121204E+03  0.92848180799E+02 0.  0.
          4    1    3    3  502    0 -0.10174588107E+03  0.40842895628E+02 -0.14513559039E+01  0.10964703768E+03  0.00000000000E+00 0. -1.
         -3    1    3    3    0  502 -0.19352105634E+03  0.12043323435E+03 -0.11566263780E+03  0.25560205196E+03  0.00000000000E+00 0.  1.
         11    1    5    5    0    0  0.21668176851E+03  0.24330534000E+02  0.19776735890E+03  0.29437202981E+03  0.00000000000E+00 0.  1.
        -11    1    5    5    0    0  0.25401529588E+02 -0.76661488233E+01 -0.63058843768E+01  0.27272178516E+02  0.00000000000E+00 0. -1.
          3    1    6    6  503    0  0.10453327205E+02 -0.62668574208E+02 -0.14264951150E+03  0.15615859046E+03  0.00000000000E+00 0. -1.
         -3    1    6    6    0  503  0.42730312107E+02 -0.11527194095E+03 -0.77485071152E+03  0.78454262158E+03  0.00000000000E+00 0.  1.
<mgrwt>
<rscale>  0 0.13921772E+04</rscale>
<asrwt>0</asrwt>
<pdfrwt beam="1">  1        2 0.19005748E+00 0.13921772E+04</pdfrwt>
<pdfrwt beam="2">  1       -1 0.60341674E-01 0.13921772E+04</pdfrwt>
<totfact> 0.55791883E+01</totfact>
</mgrwt>
</event>
<event>
12    6  0.1450532E-007  0.1944017E+04  0.7818608E-02  0.8633251E-01
          2   -1    0    0  501    0  0.00000000000E+00  0.00000000000E+00  0.13118059997E+04  0.13118059997E+04  0.00000000000E+00 0. -1.
         -1   -1    0    0    0  501 -0.00000000000E+00 -0.00000000000E+00 -0.72022906868E+03  0.72022906868E+03  0.00000000000E+00 0.  1.
         24    2    1    2    0    0  0.59361095245E+03  0.41680154608E+03  0.46095057719E+03  0.86313688757E+03  0.80201997351E+02 0.  0.
        254    2    1    2    0    0 -0.59361095245E+03 -0.41680154608E+03  0.13062635382E+03  0.11688981808E+04  0.90728287821E+03 0.  0.
         23    2    4    4    0    0 -0.42149791981E+03 -0.19126405587E+03 -0.36115582730E+03  0.59429540471E+03  0.92255411771E+02 0.  0.
         23    2    4    4    0    0 -0.17211303265E+03 -0.22553749021E+03  0.49178218112E+03  0.57460277610E+03  0.88479269534E+02 0.  0.
          4    1    3    3  502    0  0.31851459969E+03  0.18798049350E+03  0.20174635101E+03  0.42129539079E+03  0.00000000000E+00 0. -1.
         -3    1    3    3    0  502  0.27509635276E+03  0.22882105257E+03  0.25920422618E+03  0.44184149678E+03  0.00000000000E+00 0.  1.
         11    1    5    5    0    0 -0.39326136600E+03 -0.20146602368E+03 -0.34082007029E+03  0.55803349451E+03  0.00000000000E+00 0.  1.
        -11    1    5    5    0    0 -0.28236553800E+02  0.10201967814E+02 -0.20335757011E+02  0.36261910195E+02  0.00000000000E+00 0. -1.
          4    1    6    6  503    0 -0.16300839713E+03 -0.16128261288E+03  0.41435183732E+03  0.47357287068E+03  0.00000000000E+00 0.  1.
         -4    1    6    6    0  503 -0.91046355179E+01 -0.64254877328E+02  0.77430343800E+02  0.10102990542E+03  0.00000000000E+00 0. -1.
<mgrwt>
<rscale>  0 0.19440173E+04</rscale>
<asrwt>0</asrwt>
<pdfrwt beam="1">  1        2 0.20181631E+00 0.19440173E+04</pdfrwt>
<pdfrwt beam="2">  1       -1 0.11080447E+00 0.19440173E+04</pdfrwt>
<totfact> 0.12985079E+01</totfact>
</mgrwt>
</event>
<event>
12    6  0.1450532E-007  0.2569991E+04  0.7818608E-02  0.8378466E-01
          2   -1    0    0  501    0  0.00000000000E+00  0.00000000000E+00  0.22476203716E+04  0.22476203716E+04  0.00000000000E+00 0. -1.
         -1   -1    0    0    0  501 -0.00000000000E+00 -0.00000000000E+00 -0.73464974753E+03  0.73464974753E+03  0.00000000000E+00 0.  1.
         24    2    1    2    0    0 -0.11202923214E+04  0.61446608061E+02  0.56644363978E+03  0.12593961002E+04  0.79934781114E+02 0.  0.
        254    2    1    2    0    0  0.11202923214E+04 -0.61446608061E+02  0.94652698433E+03  0.17228740189E+04  0.90197061045E+03 0.  0.
         23    2    4    4    0    0  0.10907439705E+04  0.24075891465E+03  0.76987346049E+03  0.13598775088E+04  0.94204191272E+02 0.  0.
         23    2    4    4    0    0  0.29548350855E+02 -0.30220552271E+03  0.17665352384E+03  0.36299651011E+03  0.91426013127E+02 0.  0.
          2    1    3    3  502    0 -0.11033493137E+04  0.50388250981E+02  0.55411183764E+03  0.12357016681E+04  0.00000000000E+00 0. -1.
         -1    1    3    3    0  502 -0.16943007655E+02  0.11058357081E+02  0.12331802137E+02  0.23694432124E+02  0.00000000000E+00 0.  1.
         11    1    5    5    0    0  0.84483315139E+03  0.22634460497E+03  0.59933329743E+03  0.10602713498E+04  0.00000000000E+00 0. -1.
        -11    1    5    5    0    0  0.24591081913E+03  0.14414309678E+02  0.17054016306E+03  0.29960615899E+03  0.00000000000E+00 0.  1.
          1    1    6    6  503    0  0.84511283813E+01 -0.76175308258E+02  0.21649489752E+01  0.76673242812E+02  0.00000000000E+00 0. -1.
         -1    1    6    6    0  503  0.21097222474E+02 -0.22603021445E+03  0.17448857487E+03  0.28632326730E+03  0.00000000000E+00 0.  1.
<mgrwt>
<rscale>  0 0.25699912E+04</rscale>
<asrwt>0</asrwt>
<pdfrwt beam="1">  1        2 0.34578775E+00 0.25699912E+04</pdfrwt>
<pdfrwt beam="2">  1       -1 0.11302304E+00 0.25699912E+04</pdfrwt>
<totfact> 0.35027007E+00</totfact>
</mgrwt>
</event>
<event>
12    6  0.1450532E-007  0.1387431E+04  0.7818608E-02  0.8962967E-01
         -1   -1    0    0    0  501 -0.00000000000E+00  0.00000000000E+00  0.44821491524E+03  0.44821491524E+03  0.00000000000E+00 0.  1.
          2   -1    0    0  501    0  0.00000000000E+00 -0.00000000000E+00 -0.10736845047E+04  0.10736845047E+04  0.00000000000E+00 0. -1.
         24    2    1    2    0    0  0.33588839353E+03 -0.10832748769E+02 -0.40936330983E+03  0.53566023024E+03  0.80094952822E+02 0.  0.
        254    2    1    2    0    0 -0.33588839353E+03  0.10832748769E+02 -0.21610627961E+03  0.98623918968E+03  0.90168035013E+03 0.  0.
         23    2    4    4    0    0 -0.32328341732E+03 -0.32053248899E+03  0.14666990514E+03  0.48694646941E+03  0.91386862254E+02 0.  0.
         23    2    4    4    0    0 -0.12604976212E+02  0.33136523776E+03 -0.36277618475E+03  0.49929272026E+03  0.87891148993E+02 0.  0.
          2    1    3    3  502    0  0.71123521458E+02  0.21180697884E+02 -0.56087392198E+02  0.93021356854E+02  0.00000000000E+00 0. -1.
         -1    1    3    3    0  502  0.26476487207E+03 -0.32013446652E+02 -0.35327591764E+03  0.44263887339E+03  0.00000000000E+00 0.  1.
         11    1    5    5    0    0 -0.12421525174E+02 -0.14588085606E+02  0.29749046405E+02  0.35385198760E+02  0.00000000000E+00 0. -1.
        -11    1    5    5    0    0 -0.31086189214E+03 -0.30594440338E+03  0.11692085873E+03  0.45156127065E+03  0.00000000000E+00 0.  1.
          3    1    6    6  503    0 -0.11015824951E+02  0.13827836500E+03 -0.90986212312E+02  0.16589377763E+03  0.00000000000E+00 0. -1.
         -3    1    6    6    0  503 -0.15891512608E+01  0.19308687276E+03 -0.27178997243E+03  0.33339894263E+03  0.00000000000E+00 0.  1.
<mgrwt>
<rscale>  0 0.13874313E+04</rscale>
<asrwt>0</asrwt>
<pdfrwt beam="1">  1        2 0.16518223E+00 0.13874313E+04</pdfrwt>
<pdfrwt beam="2">  1       -1 0.68956141E-01 0.13874313E+04</pdfrwt>
<totfact> 0.53493774E+01</totfact>
</mgrwt>
</event>
<event>
12    6  0.1450532E-007  0.1034175E+04  0.7818608E-02  0.9271836E-01
         -1   -1    0    0    0  501 -0.00000000000E+00  0.00000000000E+00  0.99137166645E+02  0.99137166645E+02  0.00000000000E+00 0.  1.
          2   -1    0    0  501    0  0.00000000000E+00 -0.00000000000E+00 -0.26970686135E+04  0.26970686135E+04  0.00000000000E+00 0. -1.
         24    2    1    2    0    0 -0.54626910157E+02 -0.29562368331E+01 -0.47595804660E+03  0.48544213563E+03  0.78263441498E+02 0.  0.
        254    2    1    2    0    0  0.54626910157E+02  0.29562368331E+01 -0.21219734002E+04  0.23107636445E+04  0.91316190829E+03 0.  0.
         23    2    4    4    0    0 -0.27159186602E+03 -0.26238287061E+03 -0.15373805131E+04  0.15856941574E+04  0.90995639496E+02 0.  0.
         23    2    4    4    0    0  0.32621877618E+03  0.26533910745E+03 -0.58459288712E+03  0.72506948703E+03  0.84577689032E+02 0.  0.
          4    1    3    3  502    0 -0.28875686008E+02  0.16141367772E+02 -0.41717662550E+03  0.41848618359E+03  0.00000000000E+00 0. -1.
         -3    1    3    3    0  502 -0.25751224148E+02 -0.19097604605E+02 -0.58781421097E+02  0.66955952035E+02  0.00000000000E+00 0.  1.
         11    1    5    5    0    0 -0.21913818014E+03 -0.22802139213E+03 -0.13900989979E+04  0.14256193465E+04  0.00000000000E+00 0.  1.
        -11    1    5    5    0    0 -0.52453685885E+02 -0.34361478486E+02 -0.14728151521E+03  0.16007481092E+03  0.00000000000E+00 0. -1.
          4    1    6    6  503    0  0.15318859340E+03  0.13487728958E+03 -0.21370116993E+03  0.29551111387E+03  0.00000000000E+00 0. -1.
         -4    1    6    6    0  503  0.17303018278E+03  0.13046181787E+03 -0.37089171718E+03  0.42955837316E+03  0.00000000000E+00 0.  1.
<mgrwt>
<rscale>  0 0.10341755E+04</rscale>
<asrwt>0</asrwt>
<pdfrwt beam="1">  1        2 0.41493360E+00 0.10341755E+04</pdfrwt>
<pdfrwt beam="2">  1       -1 0.15251873E-01 0.10341755E+04</pdfrwt>
<totfact> 0.98385973E+01</totfact>
</mgrwt>
</event>
<event>
12    6  0.1450532E-007  0.1384113E+04  0.7818608E-02  0.8965400E-01
         -3   -1    0    0    0  501 -0.00000000000E+00  0.00000000000E+00  0.17196979162E+03  0.17196979162E+03  0.00000000000E+00 0.  1.
          4   -1    0    0  501    0  0.00000000000E+00 -0.00000000000E+00 -0.27850350458E+04  0.27850350458E+04  0.00000000000E+00 0. -1.
         24    2    1    2    0    0 -0.72802379457E+02  0.40277937785E+03 -0.76558941133E+03  0.87182461819E+03  0.80122434172E+02 0.  0.
        254    2    1    2    0    0  0.72802379457E+02 -0.40277937785E+03 -0.18474758429E+04  0.20851802192E+04  0.87594414383E+03 0.  0.
         23    2    4    4    0    0  0.40009532284E+03  0.33742186213E+02 -0.86101396161E+03  0.95434747343E+03  0.90660109597E+02 0.  0.
         23    2    4    4    0    0 -0.32729294338E+03 -0.43652156407E+03 -0.98646188125E+03  0.11308327458E+04  0.89464569275E+02 0.  0.
          4    1    3    3  502    0 -0.46356017754E+02  0.84605742078E+02 -0.14954824101E+03  0.17796541339E+03  0.00000000000E+00 0. -1.
         -3    1    3    3    0  502 -0.26446361704E+02  0.31817363578E+03 -0.61604117032E+03  0.69385920480E+03  0.00000000000E+00 0.  1.
         11    1    5    5    0    0  0.93364706366E+02  0.15173062195E+02 -0.12495795660E+03  0.15672166771E+03  0.00000000000E+00 0. -1.
        -11    1    5    5    0    0  0.30673061647E+03  0.18569124018E+02 -0.73605600501E+03  0.79762580573E+03  0.00000000000E+00 0.  1.
          1    1    6    6  503    0 -0.11523747981E+02 -0.56970369349E+02 -0.84146649627E+02  0.10226963574E+03  0.00000000000E+00 0. -1.
         -1    1    6    6    0  503 -0.31576919540E+03 -0.37955119472E+03 -0.90231523162E+03  0.10285631101E+04  0.00000000000E+00 0.  1.
<mgrwt>
<rscale>  0 0.13841126E+04</rscale>
<asrwt>0</asrwt>
<pdfrwt beam="1">  1        4 0.42846692E+00 0.13841126E+04</pdfrwt>
<pdfrwt beam="2">  1       -3 0.26456892E-01 0.13841126E+04</pdfrwt>
<totfact> 0.13375191E-01</totfact>
</mgrwt>
</event>
<event>
12    6  0.1450532E-007  0.2377936E+04  0.7818608E-02  0.8447810E-01
         -1   -1    0    0    0  501 -0.00000000000E+00  0.00000000000E+00  0.10755762476E+04  0.10755762476E+04  0.00000000000E+00 0.  1.
          2   -1    0    0  501    0  0.00000000000E+00 -0.00000000000E+00 -0.13143139135E+04  0.13143139135E+04  0.00000000000E+00 0. -1.
         24    2    1    2    0    0  0.94000600294E+03 -0.20436691623E+03 -0.34001655022E+03  0.10235493579E+04  0.81638909906E+02 0.  0.
        254    2    1    2    0    0 -0.94000600294E+03  0.20436691623E+03  0.10127888430E+03  0.13663408032E+04  0.96501432945E+03 0.  0.
         23    2    4    4    0    0 -0.10247801855E+04  0.80020273091E+02  0.32414622551E+03  0.10815523131E+04  0.90038645473E+02 0.  0.
         23    2    4    4    0    0  0.84774182605E+02  0.12434664314E+03 -0.22286734121E+03  0.28478849009E+03  0.93733039070E+02 0.  0.
          4    1    3    3  502    0  0.15662522260E+03 -0.43635408667E+02 -0.89132662677E+02  0.18541882537E+03  0.00000000000E+00 0. -1.
         -3    1    3    3    0  502  0.78338078034E+03 -0.16073150757E+03 -0.25088388755E+03  0.83813053253E+03  0.00000000000E+00 0.  1.
         11    1    5    5    0    0 -0.60796167563E+03  0.47757994479E+02  0.23844532373E+03  0.65479340061E+03  0.00000000000E+00 0. -1.
        -11    1    5    5    0    0 -0.41681850991E+03  0.32262278612E+02  0.85700901775E+02  0.42675891249E+03  0.00000000000E+00 0.  1.
          2    1    6    6  503    0  0.77107699594E+02  0.13080521525E+03 -0.22768111460E+03  0.27366821448E+03  0.00000000000E+00 0. -1.
         -2    1    6    6    0  503  0.76664830115E+01 -0.64585721029E+01  0.48137733905E+01  0.11120275609E+02  0.00000000000E+00 0.  1.
<mgrwt>
<rscale>  0 0.23779359E+04</rscale>
<asrwt>0</asrwt>
<pdfrwt beam="1">  1        2 0.20220214E+00 0.23779359E+04</pdfrwt>
<pdfrwt beam="2">  1       -1 0.16547327E+00 0.23779359E+04</pdfrwt>
<totfact> 0.44254011E+00</totfact>
</mgrwt>
</event>
<event>
12    6  0.1450532E-007  0.1578956E+04  0.7818608E-02  0.8833581E-01
         -1   -1    0    0    0  501 -0.00000000000E+00  0.00000000000E+00  0.69318538990E+03  0.69318538990E+03  0.00000000000E+00 0.  1.
          2   -1    0    0  501    0  0.00000000000E+00 -0.00000000000E+00 -0.89914722444E+03  0.89914722444E+03  0.00000000000E+00 0. -1.
         24    2    1    2    0    0  0.15869756322E+02 -0.31877464879E+03 -0.50547094733E+03  0.60317552311E+03  0.80316294781E+02 0.  0.
        254    2    1    2    0    0 -0.15869756322E+02  0.31877464879E+03  0.29950911279E+03  0.98915709123E+03  0.88704955702E+03 0.  0.
         23    2    4    4    0    0  0.25711829460E+03 -0.79551721295E+02  0.39694183923E+03  0.48792052778E+03  0.89807148484E+02 0.  0.
         23    2    4    4    0    0 -0.27298805092E+03  0.39832637009E+03 -0.97432726437E+02  0.50123656345E+03  0.92512611618E+02 0.  0.
          4    1    3    3  502    0  0.10701587400E+02 -0.28604151123E+03 -0.39479396622E+03  0.48764387198E+03  0.00000000000E+00 0. -1.
         -3    1    3    3    0  502  0.51681689215E+01 -0.32733137565E+02 -0.11067698111E+03  0.11553165113E+03  0.00000000000E+00 0.  1.
         11    1    5    5    0    0  0.23928539211E+03 -0.87403104538E+02  0.32253972816E+03  0.41100934029E+03  0.00000000000E+00 0. -1.
        -11    1    5    5    0    0  0.17832902486E+02  0.78513832431E+01  0.74402111068E+02  0.76911187491E+02  0.00000000000E+00 0.  1.
          3    1    6    6  503    0 -0.93967406463E+02  0.20086470690E+03 -0.15072702694E+02  0.22226940933E+03  0.00000000000E+00 0. -1.
         -3    1    6    6    0  503 -0.17902064446E+03  0.19746166319E+03 -0.82360023743E+02  0.27896715413E+03  0.00000000000E+00 0.  1.
<mgrwt>
<rscale>  0 0.15789563E+04</rscale>
<asrwt>0</asrwt>
<pdfrwt beam="1">  1        2 0.13833034E+00 0.15789563E+04</pdfrwt>
<pdfrwt beam="2">  1       -1 0.10664391E+00 0.15789563E+04</pdfrwt>
<totfact> 0.26430070E+01</totfact>
</mgrwt>
</event>
<event>
12    6  0.1450532E-007  0.2647217E+04  0.7818608E-02  0.8352337E-01
         -1   -1    0    0    0  501 -0.00000000000E+00  0.00000000000E+00  0.11280633594E+04  0.11280633594E+04  0.00000000000E+00 0.  1.
          2   -1    0    0  501    0  0.00000000000E+00 -0.00000000000E+00 -0.15530507036E+04  0.15530507036E+04  0.00000000000E+00 0. -1.
         24    2    1    2    0    0 -0.51117407972E+03 -0.10090188183E+04 -0.47728414864E+03  0.12302665055E+04  0.79609048674E+02 0.  0.
        254    2    1    2    0    0  0.51117407972E+03  0.10090188183E+04  0.52296804391E+02  0.14508475574E+04  0.90708641467E+03 0.  0.
         23    2    4    4    0    0  0.57337679559E+03  0.84763671940E+03 -0.28013080829E+03  0.10657476307E+04  0.10047778260E+03 0.  0.
         23    2    4    4    0    0 -0.62202715871E+02  0.16138209891E+03  0.33242761268E+03  0.38509992673E+03  0.88772046225E+02 0.  0.
          2    1    3    3  502    0 -0.36071842671E+03 -0.65318144677E+03 -0.34333244112E+03  0.82136529687E+03  0.00000000000E+00 0. -1.
         -1    1    3    3    0  502 -0.15045565301E+03 -0.35583737154E+03 -0.13395170752E+03  0.40890120867E+03  0.00000000000E+00 0.  1.
         11    1    5    5    0    0  0.40226379353E+03  0.53836318537E+03 -0.22050082665E+03  0.70729887142E+03  0.00000000000E+00 0. -1.
        -11    1    5    5    0    0  0.17111300205E+03  0.30927353402E+03 -0.59629981634E+02  0.35844875928E+03  0.00000000000E+00 0.  1.
          4    1    6    6  503    0  0.80465134341E+01 -0.63473866515E+01  0.73324579348E+01  0.12601612401E+02  0.00000000000E+00 0. -1.
         -4    1    6    6    0  503 -0.70249229305E+02  0.16772948556E+03  0.32509515474E+03  0.37249831433E+03  0.00000000000E+00 0.  1.
<mgrwt>
<rscale>  0 0.26472171E+04</rscale>
<asrwt>0</asrwt>
<pdfrwt beam="1">  1        2 0.23893088E+00 0.26472171E+04</pdfrwt>
<pdfrwt beam="2">  1       -1 0.17354821E+00 0.26472171E+04</pdfrwt>
<totfact> 0.27557076E+00</totfact>
</mgrwt>
</event>
<event>
12    6  0.1450532E-007  0.2391139E+04  0.7818608E-02  0.8442828E-01
         -1   -1    0    0    0  501 -0.00000000000E+00  0.00000000000E+00  0.46327084730E+03  0.46327084730E+03  0.00000000000E+00 0.  1.
          2   -1    0    0  501    0  0.00000000000E+00 -0.00000000000E+00 -0.30854234561E+04  0.30854234561E+04  0.00000000000E+00 0. -1.
         24    2    1    2    0    0  0.57208781046E+03  0.76233903917E+03 -0.55699452302E+03  0.11072402574E+04  0.85397982849E+02 0.  0.
        254    2    1    2    0    0 -0.57208781046E+03 -0.76233903917E+03 -0.20651580858E+04  0.24414540460E+04  0.88734134687E+03 0.  0.
         23    2    4    4    0    0  0.21538774279E+03 -0.22598794795E+03 -0.72326987906E+03  0.79313771409E+03  0.92117768064E+02 0.  0.
         23    2    4    4    0    0 -0.78747555325E+03 -0.53635109121E+03 -0.13418882067E+04  0.16483163319E+04  0.92154927327E+02 0.  0.
          2    1    3    3  502    0  0.24027805606E+03  0.26184987337E+03 -0.23251422585E+03  0.42469019959E+03  0.00000000000E+00 0. -1.
         -1    1    3    3    0  502  0.33180975440E+03  0.50048916580E+03 -0.32448029717E+03  0.68255005783E+03  0.00000000000E+00 0.  1.
         11    1    5    5    0    0  0.30848779109E+02 -0.93132420573E+02 -0.21749654056E+03  0.23860016783E+03  0.00000000000E+00 0.  1.
        -11    1    5    5    0    0  0.18453896368E+03 -0.13285552738E+03 -0.50577333850E+03  0.55453754626E+03  0.00000000000E+00 0. -1.
          4    1    6    6  503    0 -0.47133798378E+03 -0.36253485118E+03 -0.88383084362E+03  0.10652454991E+04  0.00000000000E+00 0. -1.
         -4    1    6    6    0  503 -0.31613756947E+03 -0.17381624003E+03 -0.45805736307E+03  0.58307083274E+03  0.00000000000E+00 0.  1.
<mgrwt>
<rscale>  0 0.23911393E+04</rscale>
<asrwt>0</asrwt>
<pdfrwt beam="1">  1        2 0.47468052E+00 0.23911393E+04</pdfrwt>
<pdfrwt beam="2">  1       -1 0.71272439E-01 0.23911393E+04</pdfrwt>
<totfact> 0.31307088E+00</totfact>
</mgrwt>
</event>
<event>
12    6  0.1450532E-007  0.1622785E+04  0.7818608E-02  0.8806671E-01
          2   -1    0    0  501    0  0.00000000000E+00  0.00000000000E+00  0.58439460893E+03  0.58439460893E+03  0.00000000000E+00 0. -1.
         -1   -1    0    0    0  501 -0.00000000000E+00 -0.00000000000E+00 -0.11265634855E+04  0.11265634855E+04  0.00000000000E+00 0.  1.
         24    2    1    2    0    0  0.40350363380E+03 -0.35768856611E+03 -0.50058638366E+02  0.54736112109E+03  0.79636905986E+02 0.  0.
        254    2    1    2    0    0 -0.40350363380E+03  0.35768856611E+03 -0.49211023819E+03  0.11635969733E+04  0.90610658147E+03 0.  0.
         23    2    4    4    0    0 -0.86624744510E+02  0.30540791645E+03  0.20600810399E+03  0.38960396508E+03  0.92596268304E+02 0.  0.
         23    2    4    4    0    0 -0.31687888929E+03  0.52280649660E+02 -0.69811834217E+03  0.77399300825E+03  0.92468699190E+02 0.  0.
          2    1    3    3  502    0  0.22141563425E+03 -0.17060745654E+03 -0.60869712903E+02  0.28607151076E+03  0.00000000000E+00 0. -1.
         -1    1    3    3    0  502  0.18208799955E+03 -0.18708110957E+03  0.10811074538E+02  0.26128961034E+03  0.00000000000E+00 0.  1.
         11    1    5    5    0    0 -0.87341483940E+02  0.21019559646E+03  0.18192935518E+03  0.29139151303E+03  0.00000000000E+00 0.  1.
        -11    1    5    5    0    0  0.71673943057E+00  0.95212319988E+02  0.24078748802E+02  0.98212452045E+02  0.00000000000E+00 0. -1.
          1    1    6    6  503    0 -0.63641092038E+02 -0.23926661653E+02 -0.11282993892E+03  0.13173180653E+03  0.00000000000E+00 0. -1.
         -1    1    6    6    0  503 -0.25323779725E+03  0.76207311313E+02 -0.58528840325E+03  0.64226120172E+03  0.00000000000E+00 0.  1.
<mgrwt>
<rscale>  0 0.16227848E+04</rscale>
<asrwt>0</asrwt>
<pdfrwt beam="1">  1        2 0.89906863E-01 0.16227848E+04</pdfrwt>
<pdfrwt beam="2">  1       -1 0.17331746E+00 0.16227848E+04</pdfrwt>
<totfact> 0.13028779E+01</totfact>
</mgrwt>
</event>
<event>
12    6  0.1450532E-007  0.1662346E+04  0.7818608E-02  0.8783136E-01
          2   -1    0    0  501    0  0.00000000000E+00  0.00000000000E+00  0.19456728383E+04  0.19456728383E+04  0.00000000000E+00 0. -1.
         -1   -1    0    0    0  501 -0.00000000000E+00 -0.00000000000E+00 -0.35506939610E+03  0.35506939610E+03  0.00000000000E+00 0.  1.
         24    2    1    2    0    0  0.15510456791E+03  0.53154875397E+03  0.29943350694E+03  0.63471519248E+03  0.81249280939E+02 0.  0.
        254    2    1    2    0    0 -0.15510456791E+03 -0.53154875397E+03  0.12911699352E+04  0.16660270419E+04  0.89550253927E+03 0.  0.
         23    2    4    4    0    0  0.18125119175E+03 -0.33539490899E+03  0.93166543079E+02  0.40331078425E+03  0.92940004625E+02 0.  0.
         23    2    4    4    0    0 -0.33635575967E+03 -0.19615384499E+03  0.11980033921E+04  0.12627162576E+04  0.87342382274E+02 0.  0.
          2    1    3    3  502    0  0.55895732211E+02  0.90071621174E+02  0.41229843273E+02  0.11374150428E+03  0.00000000000E+00 0. -1.
         -1    1    3    3    0  502  0.99208835703E+02  0.44147713280E+03  0.25820366367E+03  0.52097368820E+03  0.00000000000E+00 0.  1.
         11    1    5    5    0    0  0.88371241376E+02 -0.16368642171E+03 -0.22265637318E+01  0.18603139128E+03  0.00000000000E+00 0. -1.
        -11    1    5    5    0    0  0.92879950376E+02 -0.17170848727E+03  0.95393106811E+02  0.21727939297E+03  0.00000000000E+00 0.  1.
          1    1    6    6  503    0 -0.11026099952E+03 -0.10727672523E+03  0.53165699033E+03  0.55346629451E+03  0.00000000000E+00 0. -1.
         -1    1    6    6    0  503 -0.22609476015E+03 -0.88877119759E+02  0.66634640181E+03  0.70924996312E+03  0.00000000000E+00 0.  1.
<mgrwt>
<rscale>  0 0.16623464E+04</rscale>
<asrwt>0</asrwt>
<pdfrwt beam="1">  1        2 0.29933428E+00 0.16623464E+04</pdfrwt>
<pdfrwt beam="2">  1       -1 0.54626062E-01 0.16623464E+04</pdfrwt>
<totfact> 0.26362066E+01</totfact>
</mgrwt>
</event>
<event>
12    6  0.1450532E-007  0.1320985E+04  0.7818608E-02  0.9013088E-01
         -1   -1    0    0    0  501 -0.00000000000E+00  0.00000000000E+00  0.84962214075E+03  0.84962214075E+03  0.00000000000E+00 0.  1.
          2   -1    0    0  501    0  0.00000000000E+00 -0.00000000000E+00 -0.51346365221E+03  0.51346365221E+03  0.00000000000E+00 0. -1.
         24    2    1    2    0    0 -0.85162801782E+02 -0.23789694888E+03  0.25989647952E+03  0.37092633145E+03  0.78692453253E+02 0.  0.
        254    2    1    2    0    0  0.85162801782E+02  0.23789694888E+03  0.76262009011E+02  0.99215946151E+03  0.95640830295E+03 0.  0.
         23    2    4    4    0    0  0.10895912801E+03 -0.34443158110E+03  0.13783331086E+03  0.39788386116E+03  0.93852755707E+02 0.  0.
         23    2    4    4    0    0 -0.23796326231E+02  0.58232852998E+03 -0.61571301849E+02  0.59427560036E+03  0.98486963579E+02 0.  0.
          4    1    3    3  502    0 -0.45474288915E+02 -0.51112652875E+02  0.38297924079E+02  0.78403732214E+02  0.00000000000E+00 0. -1.
         -3    1    3    3    0  502 -0.39688512866E+02 -0.18678429601E+03  0.22159855545E+03  0.29252259924E+03  0.00000000000E+00 0.  1.
         11    1    5    5    0    0  0.18382102310E+02 -0.20429680856E+03  0.92243543676E+02  0.22490877934E+03  0.00000000000E+00 0. -1.
        -11    1    5    5    0    0  0.90577025703E+02 -0.14013477253E+03  0.45589767185E+02  0.17297508182E+03  0.00000000000E+00 0.  1.
          4    1    6    6  503    0 -0.39709278464E+02  0.29946506121E+03  0.93203387719E+01  0.30223007527E+03  0.00000000000E+00 0.  1.
         -4    1    6    6    0  503  0.15912952233E+02  0.28286346877E+03 -0.70891640621E+02  0.29204552509E+03  0.00000000000E+00 0. -1.
<mgrwt>
<rscale>  0 0.13209846E+04</rscale>
<asrwt>0</asrwt>
<pdfrwt beam="1">  1        2 0.78994408E-01 0.13209846E+04</pdfrwt>
<pdfrwt beam="2">  1       -1 0.13071110E+00 0.13209846E+04</pdfrwt>
<totfact> 0.33426598E+01</totfact>
</mgrwt>
</event>
<event>
12    6  0.1450532E-007  0.1380181E+04  0.7818608E-02  0.8968291E-01
          2   -1    0    0  501    0  0.00000000000E+00  0.00000000000E+00  0.37173294634E+03  0.37173294634E+03  0.00000000000E+00 0. -1.
         -1   -1    0    0    0  501 -0.00000000000E+00 -0.00000000000E+00 -0.12810934430E+04  0.12810934430E+04  0.00000000000E+00 0.  1.
         24    2    1    2    0    0 -0.28588292972E+03 -0.79049675674E+02  0.45923457743E+02  0.31079432950E+03  0.80661332429E+02 0.  0.
        254    2    1    2    0    0  0.28588292972E+03  0.79049675674E+02 -0.95528395442E+03  0.13420320598E+04  0.89470929098E+03 0.  0.
         23    2    4    4    0    0  0.18635937241E+03  0.59288215879E+02  0.12814249893E+03  0.25050576021E+03  0.89931794359E+02 0.  0.
         23    2    4    4    0    0  0.99523557305E+02  0.19761459795E+02 -0.10834264534E+04  0.10915262996E+04  0.85564766241E+02 0.  0.
          4    1    3    3  502    0 -0.17307309706E+03 -0.35214880679E+02  0.65144769553E+02  0.18825043359E+03  0.00000000000E+00 0. -1.
         -3    1    3    3    0  502 -0.11280983266E+03 -0.43834794995E+02 -0.19221311809E+02  0.12254389591E+03  0.00000000000E+00 0.  1.
         11    1    5    5    0    0  0.48112286240E+02  0.58368150037E+02  0.32110102011E+02  0.82174763018E+02  0.00000000000E+00 0.  1.
        -11    1    5    5    0    0  0.13824708617E+03  0.92006584228E+00  0.96032396923E+02  0.16833099719E+03  0.00000000000E+00 0. -1.
          2    1    6    6  503    0  0.93928440773E+02  0.46426996485E+02 -0.90208615865E+03  0.90815056880E+03  0.00000000000E+00 0. -1.
         -2    1    6    6    0  503  0.55951165312E+01 -0.26665536690E+02 -0.18134029470E+03  0.18337573083E+03  0.00000000000E+00 0.  1.
<mgrwt>
<rscale>  0 0.13801806E+04</rscale>
<asrwt>0</asrwt>
<pdfrwt beam="1">  1        2 0.57189684E-01 0.13801806E+04</pdfrwt>
<pdfrwt beam="2">  1       -1 0.19709130E+00 0.13801806E+04</pdfrwt>
<totfact> 0.15187888E+01</totfact>
</mgrwt>
</event>
<event>
12    6  0.1450532E-007  0.1751760E+04  0.7818608E-02  0.8732382E-01
          2   -1    0    0  501    0  0.00000000000E+00  0.00000000000E+00  0.10622767772E+04  0.10622767772E+04  0.00000000000E+00 0. -1.
         -1   -1    0    0    0  501 -0.00000000000E+00 -0.00000000000E+00 -0.72219042073E+03  0.72219042073E+03  0.00000000000E+00 0.  1.
         24    2    1    2    0    0 -0.57061292639E+03 -0.22432412019E+03 -0.52877151533E+02  0.62370077382E+03  0.10142109962E+03 0.  0.
        254    2    1    2    0    0  0.57061292639E+03  0.22432412019E+03  0.39296350804E+03  0.11607664241E+04  0.90390151572E+03 0.  0.
         23    2    4    4    0    0  0.71924648426E+03 -0.83108746300E+02  0.33159079763E+03  0.80131699417E+03  0.89072438185E+02 0.  0.
         23    2    4    4    0    0 -0.14863355788E+03  0.30743286649E+03  0.61372710415E+02  0.35944942997E+03  0.93970108011E+02 0.  0.
          2    1    3    3  502    0 -0.24112801878E+03 -0.13669222462E+03  0.83687110410E+01  0.27730402275E+03  0.00000000000E+00 0. -1.
         -1    1    3    3    0  502 -0.32948490761E+03 -0.87631895563E+02 -0.61245862574E+02  0.34639675106E+03  0.00000000000E+00 0.  1.
         11    1    5    5    0    0  0.28619511666E+03 -0.14269988061E+02  0.17469867701E+03  0.33560528170E+03  0.00000000000E+00 0. -1.
        -11    1    5    5    0    0  0.43305136761E+03 -0.68838758239E+02  0.15689212062E+03  0.46571171247E+03  0.00000000000E+00 0.  1.
          4    1    6    6  503    0 -0.10269899598E+03  0.27315040794E+03  0.73345585560E+02  0.30089500504E+03  0.00000000000E+00 0.  1.
         -4    1    6    6    0  503 -0.45934561893E+02  0.34282458544E+02 -0.11972875145E+02  0.58554424934E+02  0.00000000000E+00 0. -1.
<mgrwt>
<rscale>  0 0.17517604E+04</rscale>
<asrwt>0</asrwt>
<pdfrwt beam="1">  1        2 0.16342720E+00 0.17517604E+04</pdfrwt>
<pdfrwt beam="2">  1       -1 0.11110622E+00 0.17517604E+04</pdfrwt>
<totfact> 0.18530014E+01</totfact>
</mgrwt>
</event>
<event>
12    6  0.1450532E-007  0.2436516E+04  0.7818608E-02  0.8425958E-01
          2   -1    0    0  501    0  0.00000000000E+00  0.00000000000E+00  0.15812668968E+04  0.15812668968E+04  0.00000000000E+00 0. -1.
         -1   -1    0    0    0  501 -0.00000000000E+00 -0.00000000000E+00 -0.93858416589E+03  0.93858416589E+03  0.00000000000E+00 0.  1.
         24    2    1    2    0    0 -0.10015033530E+04 -0.30441474474E+03  0.13226324869E+03  0.10572041000E+04  0.67153846264E+02 0.  0.
        254    2    1    2    0    0  0.10015033530E+04  0.30441474474E+03  0.51041948226E+03  0.14626469628E+04  0.88494677065E+03 0.  0.
         23    2    4    4    0    0  0.17400113454E+03  0.27307054558E+03 -0.17976316770E+03  0.38106028774E+03  0.89711920872E+02 0.  0.
         23    2    4    4    0    0  0.82750221848E+03  0.31344199164E+02  0.69018264996E+03  0.10815866750E+04  0.87950354614E+02 0.  0.
          4    1    3    3  502    0 -0.58259737756E+03 -0.19914803111E+03  0.10334406110E+03  0.62430732624E+03  0.00000000000E+00 0. -1.
         -3    1    3    3    0  502 -0.41890597547E+03 -0.10526671363E+03  0.28919187597E+02  0.43289677372E+03  0.00000000000E+00 0.  1.
         11    1    5    5    0    0  0.18481488173E+03  0.25684764557E+03 -0.17110047424E+03  0.35972576476E+03  0.00000000000E+00 0. -1.
        -11    1    5    5    0    0 -0.10813747189E+02  0.16222900013E+02 -0.86626934571E+01  0.21334522985E+02  0.00000000000E+00 0.  1.
          4    1    6    6  503    0  0.33981241024E+03  0.52227941453E+02  0.30887717507E+03  0.46217457881E+03  0.00000000000E+00 0. -1.
         -4    1    6    6    0  503  0.48768980825E+03 -0.20883742290E+02  0.38130547488E+03  0.61941209621E+03  0.00000000000E+00 0.  1.
<mgrwt>
<rscale>  0 0.24365156E+04</rscale>
<asrwt>0</asrwt>
<pdfrwt beam="1">  1        2 0.24327183E+00 0.24365156E+04</pdfrwt>
<pdfrwt beam="2">  1       -1 0.14439756E+00 0.24365156E+04</pdfrwt>
<totfact> 0.45066827E+00</totfact>
</mgrwt>
</event>
<event>
12    6  0.1450532E-007  0.9825300E+03  0.7818608E-02  0.9327916E-01
         -1   -1    0    0    0  501 -0.00000000000E+00  0.00000000000E+00  0.64401067466E+02  0.64401067466E+02  0.00000000000E+00 0.  1.
          2   -1    0    0  501    0  0.00000000000E+00 -0.00000000000E+00 -0.37474732680E+04  0.37474732680E+04  0.00000000000E+00 0. -1.
         24    2    1    2    0    0 -0.24154100110E+02  0.29561555137E+02 -0.41659356398E+03  0.42577914284E+03  0.79248815989E+02 0.  0.
        254    2    1    2    0    0  0.24154100110E+02 -0.29561555137E+02 -0.32664786365E+04  0.33860951926E+04  0.89123547076E+03 0.  0.
         23    2    4    4    0    0 -0.30707909396E+03 -0.30254828248E+03 -0.19089897716E+04  0.19595363487E+04  0.98527765542E+02 0.  0.
         23    2    4    4    0    0  0.33123319407E+03  0.27298672734E+03 -0.13574888649E+04  0.14265588439E+04  0.89760428777E+02 0.  0.
          4    1    3    3  502    0  0.16893813047E+02  0.11143056039E+02 -0.30189056139E+03  0.30256814055E+03  0.00000000000E+00 0. -1.
         -3    1    3    3    0  502 -0.41047913158E+02  0.18418499098E+02 -0.11470300259E+03  0.12321100229E+03  0.00000000000E+00 0.  1.
         11    1    5    5    0    0 -0.19777013447E+02 -0.23268067147E+02 -0.29416512875E+03  0.29574593181E+03  0.00000000000E+00 0.  1.
        -11    1    5    5    0    0 -0.28730208051E+03 -0.27928021533E+03 -0.16148246428E+04  0.16637904169E+04  0.00000000000E+00 0. -1.
          4    1    6    6  503    0  0.31279497045E+03  0.22158835835E+03 -0.12111098604E+04  0.12703264100E+04  0.00000000000E+00 0. -1.
         -4    1    6    6    0  503  0.18438223617E+02  0.51398368989E+02 -0.14637900455E+03  0.15623243389E+03  0.00000000000E+00 0.  1.
<mgrwt>
<rscale>  0 0.98252996E+03</rscale>
<asrwt>0</asrwt>
<pdfrwt beam="1">  1        2 0.57653452E+00 0.98252996E+03</pdfrwt>
<pdfrwt beam="2">  1       -1 0.99078536E-02 0.98252996E+03</pdfrwt>
<totfact> 0.41190313E+01</totfact>
</mgrwt>
</event>
<event>
12    6  0.1450532E-007  0.1309336E+04  0.7818608E-02  0.9022194E-01
         -1   -1    0    0    0  501 -0.00000000000E+00  0.00000000000E+00  0.13923476733E+03  0.13923476733E+03  0.00000000000E+00 0.  1.
          2   -1    0    0  501    0  0.00000000000E+00 -0.00000000000E+00 -0.30781838965E+04  0.30781838965E+04  0.00000000000E+00 0. -1.
         24    2    1    2    0    0  0.33677315414E+03 -0.97929721655E+01 -0.71275885769E+03  0.79253526403E+03  0.81085731561E+02 0.  0.
        254    2    1    2    0    0 -0.33677315414E+03  0.97929721655E+01 -0.22261902714E+04  0.24248833998E+04  0.90034677660E+03 0.  0.
         23    2    4    4    0    0  0.59515885107E+02  0.28666070519E+03 -0.15977040118E+04  0.16267677953E+04  0.89436290232E+02 0.  0.
         23    2    4    4    0    0 -0.39628903925E+03 -0.27686773303E+03 -0.62848625965E+03  0.79811560448E+03  0.91064786382E+02 0.  0.
          2    1    3    3  502    0  0.12709529036E+03  0.32330200409E+02 -0.30774841846E+03  0.33452584915E+03  0.00000000000E+00 0. -1.
         -1    1    3    3    0  502  0.20967786377E+03 -0.42123172574E+02 -0.40501043924E+03  0.45800941488E+03  0.00000000000E+00 0.  1.
         11    1    5    5    0    0  0.34660487711E+02  0.20275210606E+03 -0.87851569388E+03  0.90227467565E+03  0.00000000000E+00 0.  1.
        -11    1    5    5    0    0  0.24855397396E+02  0.83908599138E+02 -0.71918831790E+03  0.72449311963E+03  0.00000000000E+00 0. -1.
          3    1    6    6  503    0 -0.20175846187E+03 -0.89899506501E+02 -0.31117179656E+03  0.38159701936E+03  0.00000000000E+00 0. -1.
         -3    1    6    6    0  503 -0.19453057737E+03 -0.18696822653E+03 -0.31731446309E+03  0.41651858512E+03  0.00000000000E+00 0.  1.
<mgrwt>
<rscale>  0 0.13093360E+04</rscale>
<asrwt>0</asrwt>
<pdfrwt beam="1">  1        2 0.47356680E+00 0.13093360E+04</pdfrwt>
<pdfrwt beam="2">  1       -1 0.21420731E-01 0.13093360E+04</pdfrwt>
<totfact> 0.31987543E+01</totfact>
</mgrwt>
</event>
<event>
12    6  0.1450532E-007  0.1669279E+04  0.7818608E-02  0.8779082E-01
          2   -1    0    0  501    0  0.00000000000E+00  0.00000000000E+00  0.12662997458E+04  0.12662997458E+04  0.00000000000E+00 0. -1.
         -1   -1    0    0    0  501 -0.00000000000E+00 -0.00000000000E+00 -0.55012487099E+03  0.55012487099E+03  0.00000000000E+00 0.  1.
         24    2    1    2    0    0 -0.16583301101E+03  0.15272130208E+03 -0.33785989496E+03  0.41386144065E+03  0.79420399044E+02 0.  0.
        254    2    1    2    0    0  0.16583301101E+03 -0.15272130208E+03  0.10540347698E+04  0.14025631762E+04  0.89742397092E+03 0.  0.
         23    2    4    4    0    0 -0.25035629033E+03 -0.32239848710E+03  0.72962350498E+03  0.84079542745E+03  0.89260490725E+02 0.  0.
         23    2    4    4    0    0  0.41618930134E+03  0.16967718502E+03  0.32441126484E+03  0.56176774875E+03  0.91304179060E+02 0.  0.
          2    1    3    3  502    0 -0.11107915262E+01  0.76716361387E+01 -0.56451432169E+02  0.56981155243E+02  0.00000000000E+00 0. -1.
         -3    1    3    3    0  502 -0.16472221949E+03  0.14504966594E+03 -0.28140846279E+03  0.35688028541E+03  0.00000000000E+00 0.  1.
         11    1    5    5    0    0 -0.89076980607E+02 -0.14413097854E+03  0.38474260922E+03  0.42039900428E+03  0.00000000000E+00 0. -1.
        -11    1    5    5    0    0 -0.16127930972E+03 -0.17826750856E+03  0.34488089576E+03  0.42039642316E+03  0.00000000000E+00 0.  1.
          2    1    6    6  503    0  0.21757075284E+03  0.10076790320E+03  0.22655483911E+03  0.32987618576E+03  0.00000000000E+00 0. -1.
         -2    1    6    6    0  503  0.19861854850E+03  0.68909281818E+02  0.97856425724E+02  0.23189156299E+03  0.00000000000E+00 0.  1.
<mgrwt>
<rscale>  0 0.16692789E+04</rscale>
<asrwt>0</asrwt>
<pdfrwt beam="1">  1        2 0.19481534E+00 0.16692789E+04</pdfrwt>
<pdfrwt beam="2">  1       -1 0.84634596E-01 0.16692789E+04</pdfrwt>
<totfact> 0.26001669E+01</totfact>
</mgrwt>
</event>
<event>
12    6  0.1450532E-007  0.1361967E+04  0.7818608E-02  0.8981819E-01
         -1   -1    0    0    0  501 -0.00000000000E+00  0.00000000000E+00  0.29780866716E+03  0.29780866716E+03  0.00000000000E+00 0.  1.
          2   -1    0    0  501    0  0.00000000000E+00 -0.00000000000E+00 -0.15571684082E+04  0.15571684082E+04  0.00000000000E+00 0. -1.
         24    2    1    2    0    0 -0.37139109438E+03  0.12559735419E+02 -0.40656216264E+03  0.55650838672E+03  0.79496543719E+02 0.  0.
        254    2    1    2    0    0  0.37139109438E+03 -0.12559735419E+02 -0.85279757836E+03  0.12984686886E+04  0.90590735379E+03 0.  0.
         23    2    4    4    0    0 -0.75944427733E+02  0.19407631333E+03 -0.75233918983E+03  0.78726346286E+03  0.10166775253E+03 0.  0.
         23    2    4    4    0    0  0.44733552211E+03 -0.20663604875E+03 -0.10045838853E+03  0.51120522572E+03  0.91822486314E+02 0.  0.
          4    1    3    3  502    0 -0.92097474350E+02 -0.33129074568E+01 -0.55348088455E+02  0.10750037690E+03  0.00000000000E+00 0. -1.
         -3    1    3    3    0  502 -0.27929362003E+03  0.15872642876E+02 -0.35121407418E+03  0.44900800982E+03  0.00000000000E+00 0.  1.
         11    1    5    5    0    0 -0.32718905050E+02  0.14039716020E+03 -0.34145364882E+03  0.37063794144E+03  0.00000000000E+00 0. -1.
        -11    1    5    5    0    0 -0.43225522683E+02  0.53679153133E+02 -0.41088554101E+03  0.41662552143E+03  0.00000000000E+00 0.  1.
          1    1    6    6  503    0  0.43707657503E+02 -0.47169214420E+02  0.52785636755E+01  0.64522533644E+02  0.00000000000E+00 0. -1.
         -1    1    6    6    0  503  0.40362786461E+03 -0.15946683433E+03 -0.10573695220E+03  0.44668269208E+03  0.00000000000E+00 0.  1.
<mgrwt>
<rscale>  0 0.13619666E+04</rscale>
<asrwt>0</asrwt>
<pdfrwt beam="1">  1        2 0.23956437E+00 0.13619666E+04</pdfrwt>
<pdfrwt beam="2">  1       -1 0.45816717E-01 0.13619666E+04</pdfrwt>
<totfact> 0.62050075E+01</totfact>
</mgrwt>
</event>
<event>
12    6  0.1450532E-007  0.1488800E+04  0.7818608E-02  0.8891935E-01
         -1   -1    0    0    0  501 -0.00000000000E+00  0.00000000000E+00  0.17856494933E+03  0.17856494933E+03  0.00000000000E+00 0.  1.
          2   -1    0    0  501    0  0.00000000000E+00 -0.00000000000E+00 -0.31032464274E+04  0.31032464274E+04  0.00000000000E+00 0. -1.
         24    2    1    2    0    0  0.53880182663E+02 -0.41524866159E+03 -0.13878949183E+04  0.14518962289E+04  0.80098877782E+02 0.  0.
        254    2    1    2    0    0 -0.53880182663E+02  0.41524866159E+03 -0.15367865597E+04  0.18299151478E+04  0.90085625540E+03 0.  0.
         23    2    4    4    0    0 -0.13066010049E+03  0.68194773212E+03 -0.10677033860E+04  0.12768876561E+04  0.91251272065E+02 0.  0.
         23    2    4    4    0    0  0.76779917824E+02 -0.26669907053E+03 -0.46908317372E+03  0.55302749167E+03  0.93684751539E+02 0.  0.
          2    1    3    3  502    0  0.31279315556E+02 -0.35916944687E+03 -0.12575687496E+04  0.13082279034E+04  0.00000000000E+00 0. -1.
         -1    1    3    3    0  502  0.22600867106E+02 -0.56079214721E+02 -0.13032616871E+03  0.14366832555E+03  0.00000000000E+00 0.  1.
         11    1    5    5    0    0 -0.13704208477E+03  0.51257722136E+03 -0.79436495872E+03  0.95526521370E+03  0.00000000000E+00 0.  1.
        -11    1    5    5    0    0  0.63819842788E+01  0.16937051075E+03 -0.27333842728E+03  0.32162244241E+03  0.00000000000E+00 0. -1.
          3    1    6    6  503    0  0.43290546681E+01 -0.14774860285E+03 -0.18638223467E+03  0.23787964973E+03  0.00000000000E+00 0. -1.
         -3    1    6    6    0  503  0.72450863156E+02 -0.11895046767E+03 -0.28270093906E+03  0.31514784193E+03  0.00000000000E+00 0.  1.
<mgrwt>
<rscale>  0 0.14887996E+04</rscale>
<asrwt>0</asrwt>
<pdfrwt beam="1">  1        2 0.47742247E+00 0.14887996E+04</pdfrwt>
<pdfrwt beam="2">  1       -1 0.27471534E-01 0.14887996E+04</pdfrwt>
<totfact> 0.19801275E+01</totfact>
</mgrwt>
</event>
<event>
12    6  0.1450532E-007  0.2223344E+04  0.7818608E-02  0.8508774E-01
         -1   -1    0    0    0  501 -0.00000000000E+00  0.00000000000E+00  0.18980730093E+04  0.18980730093E+04  0.00000000000E+00 0.  1.
          2   -1    0    0  501    0  0.00000000000E+00 -0.00000000000E+00 -0.65108908222E+03  0.65108908222E+03  0.00000000000E+00 0. -1.
         24    2    1    2    0    0  0.34891364475E+03  0.78873175695E+03  0.91664168217E+03  0.12610242521E+04  0.78177202900E+02 0.  0.
        254    2    1    2    0    0 -0.34891364475E+03 -0.78873175695E+03  0.33034224494E+03  0.12881378394E+04  0.89796134584E+03 0.  0.
         23    2    4    4    0    0 -0.64444769119E+03 -0.53912860434E+03  0.27136593918E+03  0.88651053354E+03  0.79303054433E+02 0.  0.
         23    2    4    4    0    0  0.29553404644E+03 -0.24960315262E+03  0.58976305752E+02  0.40162730587E+03  0.90466467687E+02 0.  0.
          4    1    3    3  502    0  0.36713933777E+01 -0.33036118010E+00  0.92445935392E+01  0.99524257118E+01  0.00000000000E+00 0. -1.
         -3    1    3    3    0  502  0.34524225137E+03  0.78906211813E+03  0.90739708863E+03  0.12510718264E+04  0.00000000000E+00 0.  1.
         11    1    5    5    0    0 -0.43258055659E+03 -0.32744912126E+03  0.20331339639E+03  0.57938346724E+03  0.00000000000E+00 0. -1.
        -11    1    5    5    0    0 -0.21186713460E+03 -0.21167948307E+03  0.68052542792E+02  0.30712706630E+03  0.00000000000E+00 0.  1.
          3    1    6    6  503    0  0.19845988324E+03 -0.19062253329E+03  0.34636929100E+01  0.27520042264E+03  0.00000000000E+00 0. -1.
         -3    1    6    6    0  503  0.97074163204E+02 -0.58980619324E+02  0.55512612842E+02  0.12642688323E+03  0.00000000000E+00 0.  1.
<mgrwt>
<rscale>  0 0.22233440E+04</rscale>
<asrwt>0</asrwt>
<pdfrwt beam="1">  1        2 0.10016755E+00 0.22233440E+04</pdfrwt>
<pdfrwt beam="2">  1       -1 0.29201123E+00 0.22233440E+04</pdfrwt>
<totfact> 0.17387554E+00</totfact>
</mgrwt>
</event>
<event>
12    6  0.1450532E-007  0.1323742E+04  0.7818608E-02  0.9010947E-01
         -1   -1    0    0    0  501 -0.00000000000E+00  0.00000000000E+00  0.31491466283E+03  0.31491466283E+03  0.00000000000E+00 0.  1.
          2   -1    0    0  501    0  0.00000000000E+00 -0.00000000000E+00 -0.13910847807E+04  0.13910847807E+04  0.00000000000E+00 0. -1.
         24    2    1    2    0    0  0.25570856538E+03 -0.21625545067E+03 -0.41437733575E+03  0.54080118801E+03  0.92758062791E+02 0.  0.
        254    2    1    2    0    0 -0.25570856538E+03  0.21625545067E+03 -0.66179278208E+03  0.11651982555E+04  0.89864564641E+03 0.  0.
         23    2    4    4    0    0  0.22016714344E+03  0.35296213259E+03 -0.16360565956E+03  0.45600233201E+03  0.90085941534E+02 0.  0.
         23    2    4    4    0    0 -0.47587570882E+03 -0.13670668192E+03 -0.49818712252E+03  0.70919592347E+03  0.98092006305E+02 0.  0.
          4    1    3    3  502    0  0.80269534585E+02 -0.60692448554E+02 -0.19628530055E+03  0.22057808301E+03  0.00000000000E+00 0. -1.
         -3    1    3    3    0  502  0.17543903080E+03 -0.15556300212E+03 -0.21809203521E+03  0.32022310500E+03  0.00000000000E+00 0.  1.
         11    1    5    5    0    0  0.11320457198E+03  0.23040012838E+03 -0.13760786123E+03  0.29126520175E+03  0.00000000000E+00 0.  1.
        -11    1    5    5    0    0  0.10696257146E+03  0.12256200421E+03 -0.25997798331E+02  0.16473713026E+03  0.00000000000E+00 0. -1.
          1    1    6    6  503    0 -0.41344439105E+03 -0.95531108702E+02 -0.45774722782E+03  0.62417544151E+03  0.00000000000E+00 0. -1.
         -1    1    6    6    0  503 -0.62431317775E+02 -0.41175573217E+02 -0.40439894703E+02  0.85020481958E+02  0.00000000000E+00 0.  1.
<mgrwt>
<rscale>  0 0.13237417E+04</rscale>
<asrwt>0</asrwt>
<pdfrwt beam="1">  1        2 0.21401304E+00 0.13237417E+04</pdfrwt>
<pdfrwt beam="2">  1       -1 0.48448410E-01 0.13237417E+04</pdfrwt>
<totfact> 0.69575976E+01</totfact>
</mgrwt>
</event>
<event>
12    6  0.1450532E-007  0.1464187E+04  0.7818608E-02  0.8908623E-01
         -1   -1    0    0    0  501 -0.00000000000E+00  0.00000000000E+00  0.47427994015E+03  0.47427994015E+03  0.00000000000E+00 0.  1.
          2   -1    0    0  501    0  0.00000000000E+00 -0.00000000000E+00 -0.11300523694E+04  0.11300523694E+04  0.00000000000E+00 0. -1.
         24    2    1    2    0    0 -0.41174334406E+03  0.15199780941E+03 -0.35033361151E+03  0.56727660551E+03  0.80207183953E+02 0.  0.
        254    2    1    2    0    0  0.41174334406E+03 -0.15199780941E+03 -0.30543881778E+03  0.10370557041E+04  0.88856949447E+03 0.  0.
         23    2    4    4    0    0 -0.47373960227E+02 -0.70982460032E+01  0.26542784494E+03  0.28449174107E+03  0.90492721600E+02 0.  0.
         23    2    4    4    0    0  0.45911730429E+03 -0.14489956340E+03 -0.57086666272E+03  0.75256396301E+03  0.93162166364E+02 0.  0.
          2    1    3    3  502    0 -0.31586562596E+03  0.14712553879E+03 -0.25337564672E+03  0.43083202780E+03  0.00000000000E+00 0. -1.
         -1    1    3    3    0  502 -0.95877718101E+02  0.48722706161E+01 -0.96957964787E+02  0.13644457770E+03  0.00000000000E+00 0.  1.
         11    1    5    5    0    0 -0.37643872218E+02  0.85726625001E+01  0.26307907850E+03  0.26589688453E+03  0.00000000000E+00 0.  1.
        -11    1    5    5    0    0 -0.97300880087E+01 -0.15670908503E+02  0.23487664421E+01  0.18594856541E+02  0.00000000000E+00 0. -1.
          3    1    6    6  503    0  0.97813075723E+01 -0.28496614692E+01 -0.46282451823E+02  0.47390504271E+02  0.00000000000E+00 0. -1.
         -3    1    6    6    0  503  0.44933599672E+03 -0.14204990193E+03 -0.52458421090E+03  0.70517345874E+03  0.00000000000E+00 0.  1.
<mgrwt>
<rscale>  0 0.14641874E+04</rscale>
<asrwt>0</asrwt>
<pdfrwt beam="1">  1        2 0.17385421E+00 0.14641874E+04</pdfrwt>
<pdfrwt beam="2">  1       -1 0.72966145E-01 0.14641874E+04</pdfrwt>
<totfact> 0.43684410E+01</totfact>
</mgrwt>
</event>
<event>
12    6  0.1450532E-007  0.1574556E+04  0.7818608E-02  0.8836334E-01
          2   -1    0    0  501    0  0.00000000000E+00  0.00000000000E+00  0.60275077649E+03  0.60275077649E+03  0.00000000000E+00 0. -1.
         -1   -1    0    0    0  501 -0.00000000000E+00 -0.00000000000E+00 -0.10282965762E+04  0.10282965762E+04  0.00000000000E+00 0.  1.
         24    2    1    2    0    0  0.28385267294E+03  0.41547388756E+03  0.64725626915E+02  0.51338093355E+03  0.78610972345E+02 0.  0.
        254    2    1    2    0    0 -0.28385267294E+03 -0.41547388756E+03 -0.49027142666E+03  0.11176664192E+04  0.86926478220E+03 0.  0.
         23    2    4    4    0    0  0.11641902429E+03 -0.46728110459E+03 -0.50431633545E+03  0.70333325319E+03  0.91856839266E+02 0.  0.
         23    2    4    4    0    0 -0.40027169723E+03  0.51807217028E+02  0.14044908793E+02  0.41433316598E+03  0.92592081891E+02 0.  0.
          2    1    3    3  502    0  0.78375276553E+02  0.16291162685E+03  0.49486568396E+02  0.18743479557E+03  0.00000000000E+00 0. -1.
         -1    1    3    3    0  502  0.20547739639E+03  0.25256226071E+03  0.15239058519E+02  0.32594613798E+03  0.00000000000E+00 0.  1.
         11    1    5    5    0    0  0.38269658016E+02 -0.38190886963E+02 -0.58205433765E+02  0.79441696178E+02  0.00000000000E+00 0. -1.
        -11    1    5    5    0    0  0.78149366276E+02 -0.42909021763E+03 -0.44611090168E+03  0.62389155702E+03  0.00000000000E+00 0.  1.
          2    1    6    6  503    0 -0.22357267316E+03 -0.14421200807E+02 -0.90644262007E+01  0.22422059460E+03  0.00000000000E+00 0.  1.
         -2    1    6    6    0  503 -0.17669902407E+03  0.66228417835E+02  0.23109334994E+02  0.19011257139E+03  0.00000000000E+00 0. -1.
<mgrwt>
<rscale>  0 0.15745559E+04</rscale>
<asrwt>0</asrwt>
<pdfrwt beam="1">  1        2 0.92730889E-01 0.15745559E+04</pdfrwt>
<pdfrwt beam="2">  1       -1 0.15819947E+00 0.15745559E+04</pdfrwt>
<totfact> 0.16330070E+01</totfact>
</mgrwt>
</event>
<event>
12    6  0.2438945E-007  0.2336501E+04  0.7818608E-02  0.8463667E-01
         -1   -1    0    0    0  501 -0.00000000000E+00  0.00000000000E+00  0.70426070687E+03  0.70426070687E+03  0.00000000000E+00 0.  1.
          2   -1    0    0  501    0  0.00000000000E+00 -0.00000000000E+00 -0.19379324708E+04  0.19379324708E+04  0.00000000000E+00 0. -1.
         24    2    1    2    0    0  0.12459719039E+03 -0.72122779089E+03 -0.12806487547E+04  0.14772275926E+04  0.80287864956E+02 0.  0.
        254    2    1    2    0    0 -0.12459719039E+03  0.72122779089E+03  0.46976990785E+02  0.11649655850E+04  0.90512098113E+03 0.  0.
         23    2    4    4    0    0  0.28776674560E+02  0.65573462927E+03 -0.33196164168E+03  0.74106626790E+03  0.90358623549E+02 0.  0.
         23    2    4    4    0    0 -0.15337386495E+03  0.65493161619E+02  0.37893863247E+03  0.42389931715E+03  0.91012346603E+02 0.  0.
          4    1    3    3  502    0  0.10527204004E+03 -0.68677224910E+03 -0.12334723270E+04  0.14156949905E+04  0.00000000000E+00 0. -1.
         -3    1    3    3    0  502  0.19325150355E+02 -0.34455541787E+02 -0.47176427650E+02  0.61532602106E+02  0.00000000000E+00 0.  1.
         11    1    5    5    0    0  0.15834421532E+02  0.63406695720E+03 -0.30385798420E+03  0.70329318900E+03  0.00000000000E+00 0. -1.
        -11    1    5    5    0    0  0.12942253027E+02  0.21667672062E+02 -0.28103657480E+02  0.37773078902E+02  0.00000000000E+00 0.  1.
          3    1    6    6  503    0 -0.15810125703E+03  0.40993669040E+02  0.34566271629E+03  0.38230773182E+03  0.00000000000E+00 0. -1.
         -3    1    6    6    0  503  0.47273920853E+01  0.24499492579E+02  0.33275916174E+02  0.41591585324E+02  0.00000000000E+00 0.  1.
<mgrwt>
<rscale>  0 0.23365014E+04</rscale>
<asrwt>0</asrwt>
<pdfrwt beam="1">  1        2 0.29814346E+00 0.23365014E+04</pdfrwt>
<pdfrwt beam="2">  1       -1 0.10834780E+00 0.23365014E+04</pdfrwt>
<totfact> 0.58861701E+00</totfact>
</mgrwt>
</event>
<event>
12    6  0.1450532E-007  0.2295035E+04  0.7818608E-02  0.8479881E-01
          2   -1    0    0  501    0  0.00000000000E+00  0.00000000000E+00  0.61894040611E+03  0.61894040611E+03  0.00000000000E+00 0. -1.
         -1   -1    0    0    0  501 -0.00000000000E+00 -0.00000000000E+00 -0.21275004234E+04  0.21275004234E+04  0.00000000000E+00 0.  1.
         24    2    1    2    0    0 -0.27423105086E+03 -0.81131050172E+03 -0.94077754182E+02  0.86531591382E+03  0.80582922689E+02 0.  0.
        254    2    1    2    0    0  0.27423105086E+03  0.81131050172E+03 -0.14144822631E+04  0.18811249156E+04  0.89690773008E+03 0.  0.
         23    2    4    4    0    0  0.10134792661E+03  0.97069351041E+03 -0.12064637134E+04  0.15544808043E+04  0.91315858073E+02 0.  0.
         23    2    4    4    0    0  0.17288312424E+03 -0.15938300870E+03 -0.20801854968E+03  0.32664411131E+03  0.90183925030E+02 0.  0.
          2    1    3    3  502    0 -0.86734851202E+01 -0.28358225510E+01 -0.22934044455E+01  0.94090880335E+01  0.00000000000E+00 0. -1.
         -1    1    3    3    0  502 -0.26555756574E+03 -0.80847467917E+03 -0.91784349737E+02  0.85590682579E+03  0.00000000000E+00 0.  1.
         11    1    5    5    0    0  0.11215464116E+03  0.84752207361E+03 -0.10827460828E+04  0.13795692837E+04  0.00000000000E+00 0. -1.
        -11    1    5    5    0    0 -0.10806714545E+02  0.12317143680E+03 -0.12371763063E+03  0.17491152064E+03  0.00000000000E+00 0.  1.
          1    1    6    6  503    0  0.13739027678E+03 -0.83032531488E+02 -0.17137493549E+03  0.23481877683E+03  0.00000000000E+00 0. -1.
         -1    1    6    6    0  503  0.35492847460E+02 -0.76350477209E+02 -0.36643614189E+02  0.91825334476E+02  0.00000000000E+00 0.  1.
<mgrwt>
<rscale>  0 0.22950346E+04</rscale>
<asrwt>0</asrwt>
<pdfrwt beam="1">  1        2 0.95221603E-01 0.22950346E+04</pdfrwt>
<pdfrwt beam="2">  1       -1 0.32730775E+00 0.22950346E+04</pdfrwt>
<totfact> 0.10843842E+00</totfact>
</mgrwt>
</event>
<event>
12    6  0.1450532E-007  0.2106421E+04  0.7818608E-02  0.8558420E-01
         -1   -1    0    0    0  501 -0.00000000000E+00  0.00000000000E+00  0.10479291253E+04  0.10479291253E+04  0.00000000000E+00 0.  1.
          2   -1    0    0  501    0  0.00000000000E+00 -0.00000000000E+00 -0.10585185363E+04  0.10585185363E+04  0.00000000000E+00 0. -1.
         24    2    1    2    0    0  0.85895836250E+03  0.61487581779E+01  0.34221075151E+02  0.86381731863E+03  0.84628613728E+02 0.  0.
        254    2    1    2    0    0 -0.85895836250E+03 -0.61487581779E+01 -0.44810486085E+02  0.12426303430E+04  0.89681375650E+03 0.  0.
         23    2    4    4    0    0 -0.83738854983E+03 -0.22911550041E+03  0.20280216748E+03  0.89631092526E+03  0.92363735755E+02 0.  0.
         23    2    4    4    0    0 -0.21569812665E+02  0.22296674223E+03 -0.24761265357E+03  0.34631941770E+03  0.91900423887E+02 0.  0.
          2    1    3    3  502    0  0.74901568012E+03  0.13675198127E+02  0.25072291471E+01  0.74914470319E+03  0.00000000000E+00 0. -1.
         -1    1    3    3    0  502  0.10994268237E+03 -0.75264399490E+01  0.31713846004E+02  0.11467261545E+03  0.00000000000E+00 0.  1.
         11    1    5    5    0    0 -0.73971929938E+03 -0.18993403143E+03  0.20606123369E+03  0.79102516407E+03  0.00000000000E+00 0.  1.
        -11    1    5    5    0    0 -0.97669250454E+02 -0.39181468980E+02 -0.32590662058E+01  0.10528576118E+03  0.00000000000E+00 0. -1.
          4    1    6    6  503    0  0.26823133926E+01  0.42140292421E+02 -0.46484234190E+01  0.42480664905E+02  0.00000000000E+00 0. -1.
         -4    1    6    6    0  503 -0.24252126057E+02  0.18082644981E+03 -0.24296423015E+03  0.30383875280E+03  0.00000000000E+00 0.  1.
<mgrwt>
<rscale>  0 0.21064210E+04</rscale>
<asrwt>0</asrwt>
<pdfrwt beam="1">  1        2 0.16284900E+00 0.21064210E+04</pdfrwt>
<pdfrwt beam="2">  1       -1 0.16121987E+00 0.21064210E+04</pdfrwt>
<totfact> 0.69486322E+00</totfact>
</mgrwt>
</event>
<event>
12    6  0.1463629E-007  0.1396420E+04  0.7818608E-02  0.8956414E-01
         -1   -1    0    0    0  501 -0.00000000000E+00  0.00000000000E+00  0.67702344172E+03  0.67702344172E+03  0.00000000000E+00 0.  1.
          2   -1    0    0  501    0  0.00000000000E+00 -0.00000000000E+00 -0.72005979770E+03  0.72005979770E+03  0.00000000000E+00 0. -1.
         24    2    1    2    0    0  0.31498451875E+03  0.14783021992E+03 -0.21611061195E+03  0.41710180718E+03  0.78747063309E+02 0.  0.
        254    2    1    2    0    0 -0.31498451875E+03 -0.14783021992E+03  0.17307425597E+03  0.97998143224E+03  0.89963319663E+03 0.  0.
         23    2    4    4    0    0  0.29115989289E+03 -0.90459803205E+01 -0.57940339850E+02  0.31040165909E+03  0.90200853624E+02 0.  0.
         23    2    4    4    0    0 -0.60614441164E+03 -0.13878423959E+03  0.23101459582E+03  0.66957977315E+03  0.91089056417E+02 0.  0.
          2    1    3    3  502    0  0.29000291568E+03  0.13588216330E+03 -0.16814360686E+03  0.36171525532E+03  0.00000000000E+00 0. -1.
         -1    1    3    3    0  502  0.24981603072E+02  0.11948056616E+02 -0.47967005091E+02  0.55386551855E+02  0.00000000000E+00 0.  1.
         11    1    5    5    0    0  0.15537232981E+03 -0.41798163330E+02 -0.48456002936E+01  0.16096933612E+03  0.00000000000E+00 0.  1.
        -11    1    5    5    0    0  0.13578756308E+03  0.32752183010E+02 -0.53094739557E+02  0.14943232297E+03  0.00000000000E+00 0. -1.
          3    1    6    6  503    0 -0.54487647448E+03 -0.14736635277E+03  0.22416322346E+03  0.60733546341E+03  0.00000000000E+00 0. -1.
         -3    1    6    6    0  503 -0.61267937167E+02  0.85821131744E+01  0.68513723645E+01  0.62244309736E+02  0.00000000000E+00 0.  1.
<mgrwt>
<rscale>  0 0.13964202E+04</rscale>
<asrwt>0</asrwt>
<pdfrwt beam="1">  1        2 0.11077843E+00 0.13964202E+04</pdfrwt>
<pdfrwt beam="2">  1       -1 0.10415745E+00 0.13964202E+04</pdfrwt>
<totfact> 0.38140060E+01</totfact>
</mgrwt>
</event>
<event>
12    6  0.1450532E-007  0.1380152E+04  0.7818608E-02  0.8968312E-01
         -1   -1    0    0    0  501 -0.00000000000E+00  0.00000000000E+00  0.92286826717E+03  0.92286826717E+03  0.00000000000E+00 0.  1.
          2   -1    0    0  501    0  0.00000000000E+00 -0.00000000000E+00 -0.51600530718E+03  0.51600530718E+03  0.00000000000E+00 0. -1.
         24    2    1    2    0    0  0.12208618689E+03  0.13183975860E+03 -0.23823937205E+03  0.30902855922E+03  0.80336125360E+02 0.  0.
        254    2    1    2    0    0 -0.12208618689E+03 -0.13183975860E+03  0.64510233205E+03  0.11298450151E+04  0.91000328595E+03 0.  0.
         23    2    4    4    0    0 -0.15397855252E+03  0.30643417795E+03  0.13877745993E+02  0.35507181975E+03  0.90951114834E+02 0.  0.
         23    2    4    4    0    0  0.31892365628E+02 -0.43827393655E+03  0.63122458605E+03  0.77477319539E+03  0.93423015412E+02 0.  0.
          4    1    3    3  502    0  0.10693022060E+03  0.14258435624E+03 -0.21709783936E+03  0.28088403760E+03  0.00000000000E+00 0. -1.
         -3    1    3    3    0  502  0.15155966297E+02 -0.10744597637E+02 -0.21141532691E+02  0.28144521622E+02  0.00000000000E+00 0.  1.
         11    1    5    5    0    0 -0.12773423509E+03  0.15899444672E+03 -0.57725351016E+01  0.20403085812E+03  0.00000000000E+00 0.  1.
        -11    1    5    5    0    0 -0.26244317432E+02  0.14743973123E+03  0.19650281094E+02  0.15104096163E+03  0.00000000000E+00 0. -1.
          3    1    6    6  503    0  0.46416413439E+02 -0.40029441511E+03  0.53086493226E+03  0.66648906856E+03  0.00000000000E+00 0. -1.
         -3    1    6    6    0  503 -0.14524047811E+02 -0.37979521443E+02  0.10035965380E+03  0.10828412683E+03  0.00000000000E+00 0.  1.
<mgrwt>
<rscale>  0 0.13801521E+04</rscale>
<asrwt>0</asrwt>
<pdfrwt beam="1">  1        2 0.79385432E-01 0.13801521E+04</pdfrwt>
<pdfrwt beam="2">  1       -1 0.14197973E+00 0.13801521E+04</pdfrwt>
<totfact> 0.26724884E+01</totfact>
</mgrwt>
</event>
<event>
12    6  0.1450532E-007  0.2014446E+04  0.7818608E-02  0.8599896E-01
          2   -1    0    0  501    0  0.00000000000E+00  0.00000000000E+00  0.13707282761E+04  0.13707282761E+04  0.00000000000E+00 0. -1.
         -1   -1    0    0    0  501 -0.00000000000E+00 -0.00000000000E+00 -0.74011590983E+03  0.74011590983E+03  0.00000000000E+00 0.  1.
         24    2    1    2    0    0 -0.57730524142E+03  0.25031286686E+03 -0.27404549481E+03  0.69033104208E+03  0.74284193092E+02 0.  0.
        254    2    1    2    0    0  0.57730524142E+03 -0.25031286686E+03  0.90465786113E+03  0.14205131439E+04  0.89638935357E+03 0.  0.
         23    2    4    4    0    0  0.16551272948E+03 -0.47807100429E+03  0.16606203084E+03  0.54008204997E+03  0.90364118155E+02 0.  0.
         23    2    4    4    0    0  0.41179251194E+03  0.22775813743E+03  0.73859583029E+03  0.88043109392E+03  0.90489052212E+02 0.  0.
          4    1    3    3  502    0 -0.54467423688E+03  0.25126803550E+03 -0.25031237933E+03  0.64997072029E+03  0.00000000000E+00 0. -1.
         -3    1    3    3    0  502 -0.32631004533E+02 -0.95516864386E+00 -0.23733115483E+02  0.40360321784E+02  0.00000000000E+00 0.  1.
         11    1    5    5    0    0  0.65192397123E+02 -0.81896768012E+02  0.44161132591E+02  0.11361045236E+03  0.00000000000E+00 0. -1.
        -11    1    5    5    0    0  0.10032033236E+03 -0.39617423628E+03  0.12190089825E+03  0.42647159761E+03  0.00000000000E+00 0.  1.
          1    1    6    6  503    0  0.17437266563E+03  0.12509692388E+03  0.40452950647E+03  0.45792923961E+03  0.00000000000E+00 0. -1.
         -1    1    6    6    0  503  0.23741984631E+03  0.10266121355E+03  0.33406632382E+03  0.42250185432E+03  0.00000000000E+00 0.  1.
<mgrwt>
<rscale>  0 0.20144456E+04</rscale>
<asrwt>0</asrwt>
<pdfrwt beam="1">  1        2 0.21088127E+00 0.20144456E+04</pdfrwt>
<pdfrwt beam="2">  1       -1 0.11386399E+00 0.20144456E+04</pdfrwt>
<totfact> 0.11183348E+01</totfact>
</mgrwt>
</event>
<event>
12    6  0.1450532E-007  0.1613598E+04  0.7818608E-02  0.8812238E-01
         -1   -1    0    0    0  501 -0.00000000000E+00  0.00000000000E+00  0.53321083208E+03  0.53321083208E+03  0.00000000000E+00 0.  1.
          2   -1    0    0  501    0  0.00000000000E+00 -0.00000000000E+00 -0.12207639608E+04  0.12207639608E+04  0.00000000000E+00 0. -1.
         24    2    1    2    0    0 -0.80646001720E+02  0.25741315606E+03 -0.76132701017E+03  0.81144750884E+03  0.77864836007E+02 0.  0.
        254    2    1    2    0    0  0.80646001720E+02 -0.25741315606E+03  0.73773881489E+02  0.94252728400E+03  0.90008321003E+03 0.  0.
         23    2    4    4    0    0  0.32322514115E+03 -0.29284454153E+03  0.34651103018E+03  0.56482674553E+03  0.93418098118E+02 0.  0.
         23    2    4    4    0    0 -0.24257913943E+03  0.35431385465E+02 -0.27273714869E+03  0.37770053847E+03  0.90399792693E+02 0.  0.
          2    1    3    3  502    0 -0.88123150944E+02  0.24971007174E+03 -0.68556474495E+03  0.73492845174E+03  0.00000000000E+00 0. -1.
         -1    1    3    3    0  502  0.74771492241E+01  0.77030843246E+01 -0.75762265219E+02  0.76519057102E+02  0.00000000000E+00 0.  1.
         11    1    5    5    0    0  0.28122710754E+03 -0.28411487878E+03  0.33166711991E+03  0.51943529798E+03  0.00000000000E+00 0. -1.
        -11    1    5    5    0    0  0.41998033609E+02 -0.87296627506E+01  0.14843910276E+02  0.45391447554E+02  0.00000000000E+00 0.  1.
          1    1    6    6  503    0 -0.83767582660E+02  0.45432841830E+02 -0.14564196255E+03  0.17404807461E+03  0.00000000000E+00 0. -1.
         -1    1    6    6    0  503 -0.15881155677E+03 -0.10001456365E+02 -0.12709518615E+03  0.20365246386E+03  0.00000000000E+00 0.  1.
<mgrwt>
<rscale>  0 0.16135979E+04</rscale>
<asrwt>0</asrwt>
<pdfrwt beam="1">  1        2 0.18780984E+00 0.16135979E+04</pdfrwt>
<pdfrwt beam="2">  1       -1 0.82032436E-01 0.16135979E+04</pdfrwt>
<totfact> 0.29726650E+01</totfact>
</mgrwt>
</event>
<event>
12    6  0.1450532E-007  0.2325963E+04  0.7818608E-02  0.8467754E-01
         -1   -1    0    0    0  501 -0.00000000000E+00  0.00000000000E+00  0.11477865393E+04  0.11477865393E+04  0.00000000000E+00 0.  1.
          2   -1    0    0  501    0  0.00000000000E+00 -0.00000000000E+00 -0.11783781154E+04  0.11783781154E+04  0.00000000000E+00 0. -1.
         24    2    1    2    0    0  0.14030120844E+03 -0.73041941226E+03  0.63190137726E+03  0.97905010139E+03  0.77735471719E+02 0.  0.
        254    2    1    2    0    0 -0.14030120844E+03  0.73041941226E+03 -0.66249295338E+03  0.13471145533E+04  0.90698608568E+03 0.  0.
         23    2    4    4    0    0  0.16717664939E+02  0.89380739793E+03 -0.38592758150E+03  0.97834183420E+03  0.95086810086E+02 0.  0.
         23    2    4    4    0    0 -0.15701887338E+03 -0.16338798568E+03 -0.27656537188E+03  0.36877271913E+03  0.90301456205E+02 0.  0.
          4    1    3    3  502    0 -0.15933740347E+01 -0.15928008363E+03  0.13081725353E+03  0.20612092980E+03  0.00000000000E+00 0. -1.
         -3    1    3    3    0  502  0.14189458247E+03 -0.57113932863E+03  0.50108412373E+03  0.77292917159E+03  0.00000000000E+00 0.  1.
         11    1    5    5    0    0 -0.15449962941E+02  0.78842265063E+03 -0.33100075858E+03  0.85522539693E+03  0.00000000000E+00 0. -1.
        -11    1    5    5    0    0  0.32167627880E+02  0.10538474730E+03 -0.54926822922E+02  0.12311643726E+03  0.00000000000E+00 0.  1.
          1    1    6    6  503    0 -0.14320394306E+03 -0.16947549430E+03 -0.27536062586E+03  0.35362803445E+03  0.00000000000E+00 0. -1.
         -1    1    6    6    0  503 -0.13814930318E+02  0.60875086271E+01 -0.12047460168E+01  0.15144684677E+02  0.00000000000E+00 0.  1.
<mgrwt>
<rscale>  0 0.23259635E+04</rscale>
<asrwt>0</asrwt>
<pdfrwt beam="1">  1        2 0.18128894E+00 0.23259635E+04</pdfrwt>
<pdfrwt beam="2">  1       -1 0.17658255E+00 0.23259635E+04</pdfrwt>
<totfact> 0.44334128E+00</totfact>
</mgrwt>
</event>
<event>
12    6  0.1450532E-007  0.1703226E+04  0.7818608E-02  0.8759527E-01
          2   -1    0    0  501    0  0.00000000000E+00  0.00000000000E+00  0.16905105483E+04  0.16905105483E+04  0.00000000000E+00 0. -1.
         -1   -1    0    0    0  501 -0.00000000000E+00 -0.00000000000E+00 -0.42900929568E+03  0.42900929568E+03  0.00000000000E+00 0.  1.
         24    2    1    2    0    0 -0.16184697331E+03 -0.58659327441E+03  0.38467018359E+03  0.72448018837E+03  0.81328229063E+02 0.  0.
        254    2    1    2    0    0  0.16184697331E+03  0.58659327441E+03  0.87683106908E+03  0.13950396557E+04  0.89834114056E+03 0.  0.
         23    2    4    4    0    0 -0.12630045961E+03  0.24572773964E+02 -0.12828294136E+03  0.20445177364E+03  0.93746399312E+02 0.  0.
         23    2    4    4    0    0  0.28814743292E+03  0.56202050045E+03  0.10051140104E+04  0.11905878820E+04  0.91374749301E+02 0.  0.
          4    1    3    3  502    0 -0.60339859778E+01  0.16102221845E+00  0.80313835699E+01  0.10046792373E+02  0.00000000000E+00 0. -1.
         -3    1    3    3    0  502 -0.15581298734E+03 -0.58675429663E+03  0.37663880002E+03  0.71443339600E+03  0.00000000000E+00 0.  1.
         11    1    5    5    0    0  0.11521970303E+02  0.10000427168E+02  0.49735760762E+00  0.15264721020E+02  0.00000000000E+00 0. -1.
        -11    1    5    5    0    0 -0.13782242991E+03  0.14572346795E+02 -0.12878029897E+03  0.18918705262E+03  0.00000000000E+00 0.  1.
          1    1    6    6  503    0  0.22631405575E+02  0.70414745918E+02  0.17464980956E+03  0.18966542368E+03  0.00000000000E+00 0. -1.
         -1    1    6    6    0  503  0.26551602735E+03  0.49160575453E+03  0.83046420088E+03  0.10009224583E+04  0.00000000000E+00 0.  1.
<mgrwt>
<rscale>  0 0.17032260E+04</rscale>
<asrwt>0</asrwt>
<pdfrwt beam="1">  1        2 0.26007854E+00 0.17032260E+04</pdfrwt>
<pdfrwt beam="2">  1       -1 0.66001431E-01 0.17032260E+04</pdfrwt>
<totfact> 0.25028193E+01</totfact>
</mgrwt>
</event>
<event>
12    6  0.1450532E-007  0.2215899E+04  0.7818608E-02  0.8511840E-01
          2   -1    0    0  501    0  0.00000000000E+00  0.00000000000E+00  0.18810711611E+04  0.18810711611E+04  0.00000000000E+00 0. -1.
         -1   -1    0    0    0  501 -0.00000000000E+00 -0.00000000000E+00 -0.65258126066E+03  0.65258126066E+03  0.00000000000E+00 0.  1.
         24    2    1    2    0    0  0.32213422395E+03 -0.40600779127E+03  0.13717738225E+04  0.14685695107E+04  0.79499702373E+02 0.  0.
        254    2    1    2    0    0 -0.32213422395E+03  0.40600779127E+03 -0.14328392214E+03  0.10650829110E+04  0.91937943214E+03 0.  0.
         23    2    4    4    0    0 -0.21274523241E+03  0.10385682714E+03  0.37142838791E+03  0.45147631880E+03  0.99121363161E+02 0.  0.
         23    2    4    4    0    0 -0.10938899153E+03  0.30215096413E+03 -0.51471231005E+03  0.61360659224E+03  0.91231197151E+02 0.  0.
          2    1    3    3  502    0  0.29044911544E+03 -0.37029614466E+03  0.11673423746E+04  0.12586374152E+04  0.00000000000E+00 0. -1.
         -1    1    3    3    0  502  0.31685108505E+02 -0.35711646612E+02  0.20443144791E+03  0.20993209545E+03  0.00000000000E+00 0.  1.
         11    1    5    5    0    0 -0.52052164069E+02 -0.75477544091E+00  0.14887804266E+03  0.15771705379E+03  0.00000000000E+00 0.  1.
        -11    1    5    5    0    0 -0.16069306834E+03  0.10461160258E+03  0.22255034525E+03  0.29375926501E+03  0.00000000000E+00 0. -1.
          4    1    6    6  503    0 -0.34208494246E+02  0.43151258507E+02 -0.15164690028E+03  0.16133516217E+03  0.00000000000E+00 0. -1.
         -4    1    6    6    0  503 -0.75180497287E+02  0.25899970562E+03 -0.36306540977E+03  0.45227143007E+03  0.00000000000E+00 0.  1.
<mgrwt>
<rscale>  0 0.22158987E+04</rscale>
<asrwt>0</asrwt>
<pdfrwt beam="1">  1        2 0.28939556E+00 0.22158987E+04</pdfrwt>
<pdfrwt beam="2">  1       -1 0.10039712E+00 0.22158987E+04</pdfrwt>
<totfact> 0.76351152E+00</totfact>
</mgrwt>
</event>
<event>
12    6  0.1450532E-007  0.1704609E+04  0.7818608E-02  0.8758740E-01
          2   -1    0    0  501    0  0.00000000000E+00  0.00000000000E+00  0.16758558263E+04  0.16758558263E+04  0.00000000000E+00 0. -1.
         -1   -1    0    0    0  501 -0.00000000000E+00 -0.00000000000E+00 -0.43346379523E+03  0.43346379523E+03  0.00000000000E+00 0.  1.
         24    2    1    2    0    0 -0.13944257379E+03 -0.26792691984E+02  0.12034606102E+04  0.12146249141E+04  0.82668989255E+02 0.  0.
        254    2    1    2    0    0  0.13944257379E+03  0.26792691984E+02  0.38931420872E+02  0.89469470749E+03  0.88249695997E+03 0.  0.
         23    2    4    4    0    0  0.28785555011E+03 -0.56192752284E+02  0.38792941724E+03  0.49587205277E+03  0.96857714300E+02 0.  0.
         23    2    4    4    0    0 -0.14841297633E+03  0.82985444268E+02 -0.34899799636E+03  0.39882265472E+03  0.91361441283E+02 0.  0.
          4    1    3    3  502    0 -0.14780571240E+03 -0.30391379025E+02  0.10376560561E+04  0.10485705772E+04  0.00000000000E+00 0. -1.
         -3    1    3    3    0  502  0.83631386087E+01  0.35986870412E+01  0.16580455409E+03  0.16605433687E+03  0.00000000000E+00 0.  1.
         11    1    5    5    0    0  0.74976756417E+02  0.13463494174E+02  0.52431439450E+02  0.92476134873E+02  0.00000000000E+00 0. -1.
        -11    1    5    5    0    0  0.21287879370E+03 -0.69656246458E+02  0.33549797779E+03  0.40339591790E+03  0.00000000000E+00 0.  1.
          2    1    6    6  503    0 -0.82134461958E+02 -0.53706013650E+01 -0.15945557526E+03  0.17944635322E+03  0.00000000000E+00 0. -1.
         -2    1    6    6    0  503 -0.66278514367E+02  0.88356045633E+02 -0.18954242110E+03  0.21937630151E+03  0.00000000000E+00 0.  1.
<mgrwt>
<rscale>  0 0.17046088E+04</rscale>
<asrwt>0</asrwt>
<pdfrwt beam="1">  1        2 0.25782397E+00 0.17046088E+04</pdfrwt>
<pdfrwt beam="2">  1       -1 0.66686739E-01 0.17046088E+04</pdfrwt>
<totfact> 0.24971661E+01</totfact>
</mgrwt>
</event>
<event>
12    6  0.1450532E-007  0.1684162E+04  0.7818608E-02  0.8770449E-01
         -1   -1    0    0    0  501 -0.00000000000E+00  0.00000000000E+00  0.41839351296E+03  0.41839351296E+03  0.00000000000E+00 0.  1.
          2   -1    0    0  501    0  0.00000000000E+00 -0.00000000000E+00 -0.16948163184E+04  0.16948163184E+04  0.00000000000E+00 0. -1.
         24    2    1    2    0    0 -0.45390248001E+03 -0.29215385642E+02 -0.71718176115E+03  0.85302345700E+03  0.80114540253E+02 0.  0.
        254    2    1    2    0    0  0.45390248001E+03  0.29215385642E+02 -0.55924104433E+03  0.12601863744E+04  0.10336528201E+04 0.  0.
         23    2    4    4    0    0  0.54542305344E+03 -0.10897189629E+03  0.10236344102E+03  0.57263185467E+03  0.89820852337E+02 0.  0.
         23    2    4    4    0    0 -0.91520573435E+02  0.13818728193E+03 -0.66160448536E+03  0.68755451973E+03  0.86827313166E+02 0.  0.
          2    1    3    3  502    0 -0.43400884778E+03 -0.10308284804E+02 -0.68104579964E+03  0.80764678040E+03  0.00000000000E+00 0. -1.
         -1    1    3    3    0  502 -0.19893632229E+02 -0.18907100838E+02 -0.36135961512E+02  0.45376676606E+02  0.00000000000E+00 0.  1.
         11    1    5    5    0    0  0.47225234479E+03 -0.89001389601E+02  0.56199914303E+02  0.48384083631E+03  0.00000000000E+00 0.  1.
        -11    1    5    5    0    0  0.73170708650E+02 -0.19970506690E+02  0.46163526722E+02  0.88791018359E+02  0.00000000000E+00 0. -1.
          1    1    6    6  503    0  0.10917500316E+01  0.93604667796E+00  0.26283866385E+01  0.29960837499E+01  0.00000000000E+00 0. -1.
         -1    1    6    6    0  503 -0.92612323466E+02  0.13725123525E+03 -0.66423287200E+03  0.68455843599E+03  0.00000000000E+00 0.  1.
<mgrwt>
<rscale>  0 0.16841617E+04</rscale>
<asrwt>0</asrwt>
<pdfrwt beam="1">  1        2 0.26074097E+00 0.16841617E+04</pdfrwt>
<pdfrwt beam="2">  1       -1 0.64368233E-01 0.16841617E+04</pdfrwt>
<totfact> 0.26222592E+01</totfact>
</mgrwt>
</event>
<event>
12    6  0.1450532E-007  0.1489284E+04  0.7818608E-02  0.8891610E-01
          2   -1    0    0  501    0  0.00000000000E+00  0.00000000000E+00  0.84857243311E+03  0.84857243311E+03  0.00000000000E+00 0. -1.
         -1   -1    0    0    0  501 -0.00000000000E+00 -0.00000000000E+00 -0.65344059387E+03  0.65344059387E+03  0.00000000000E+00 0.  1.
         24    2    1    2    0    0 -0.12850277581E+03 -0.37273782943E+03 -0.15642477862E+03  0.43376468178E+03  0.90755908427E+02 0.  0.
        254    2    1    2    0    0  0.12850277581E+03  0.37273782943E+03  0.35155661786E+03  0.10682483452E+04  0.92850202940E+03 0.  0.
         23    2    4    4    0    0 -0.16588823195E+03  0.20770080539E+03  0.58365622504E+03  0.64875955725E+03  0.97856241647E+02 0.  0.
         23    2    4    4    0    0  0.29439100776E+03  0.16503702404E+03 -0.23209960718E+03  0.41948878796E+03  0.90539112067E+02 0.  0.
          2    1    3    3  502    0 -0.50261909964E+01 -0.10692495934E+03 -0.14178315087E+02  0.10797793360E+03  0.00000000000E+00 0. -1.
         -1    1    3    3    0  502 -0.12347658481E+03 -0.26581287009E+03 -0.14224646353E+03  0.32578674818E+03  0.00000000000E+00 0.  1.
         11    1    5    5    0    0 -0.10489766132E+03  0.19388775544E+03  0.44245984115E+03  0.49433459528E+03  0.00000000000E+00 0. -1.
        -11    1    5    5    0    0 -0.60990570627E+02  0.13813049953E+02  0.14119638389E+03  0.15442496197E+03  0.00000000000E+00 0.  1.
          1    1    6    6  503    0  0.63792509567E+02  0.71549859489E+01 -0.75629853302E+02  0.99199560539E+02  0.00000000000E+00 0. -1.
         -1    1    6    6    0  503  0.23059849819E+03  0.15788203809E+03 -0.15646975388E+03  0.32028922742E+03  0.00000000000E+00 0.  1.
<mgrwt>
<rscale>  0 0.14892840E+04</rscale>
<asrwt>0</asrwt>
<pdfrwt beam="1">  1        2 0.13054960E+00 0.14892840E+04</pdfrwt>
<pdfrwt beam="2">  1       -1 0.10052932E+00 0.14892840E+04</pdfrwt>
<totfact> 0.33075750E+01</totfact>
</mgrwt>
</event>
<event>
12    6  0.1450532E-007  0.1277429E+04  0.7818608E-02  0.9047658E-01
         -1   -1    0    0    0  501 -0.00000000000E+00  0.00000000000E+00  0.28325800641E+03  0.28325800641E+03  0.00000000000E+00 0.  1.
          2   -1    0    0  501    0  0.00000000000E+00 -0.00000000000E+00 -0.14402288718E+04  0.14402288718E+04  0.00000000000E+00 0. -1.
         24    2    1    2    0    0  0.21283523843E+03 -0.18200240848E+03 -0.96279424770E+02  0.30647013955E+03  0.78933537835E+02 0.  0.
        254    2    1    2    0    0 -0.21283523843E+03  0.18200240848E+03 -0.10606914406E+04  0.14170167386E+04  0.89690935439E+03 0.  0.
         23    2    4    4    0    0  0.31840346722E+03  0.12968304944E+03 -0.63585626685E+03  0.72869672374E+03  0.92126336338E+02 0.  0.
         23    2    4    4    0    0 -0.53123870565E+03  0.52319359047E+02 -0.42483517373E+03  0.68832001488E+03  0.91365421985E+02 0.  0.
          4    1    3    3  502    0  0.10422491620E+03 -0.41253055868E+02 -0.24464444525E+02  0.11473080154E+03  0.00000000000E+00 0. -1.
         -3    1    3    3    0  502  0.10861032222E+03 -0.14074935261E+03 -0.71814980245E+02  0.19173933802E+03  0.00000000000E+00 0.  1.
         11    1    5    5    0    0  0.20435217039E+02  0.37029631920E+02 -0.55588502273E+02  0.69848932136E+02  0.00000000000E+00 0.  1.
        -11    1    5    5    0    0  0.29796825018E+03  0.92653417516E+02 -0.58026776457E+03  0.65884779160E+03  0.00000000000E+00 0. -1.
          2    1    6    6  503    0 -0.47572313691E+03  0.74096515434E+02 -0.38679043182E+03  0.61758370666E+03  0.00000000000E+00 0. -1.
         -2    1    6    6    0  503 -0.55515568742E+02 -0.21777156388E+02 -0.38044741911E+02  0.70736308217E+02  0.00000000000E+00 0.  1.
<mgrwt>
<rscale>  0 0.12774292E+04</rscale>
<asrwt>0</asrwt>
<pdfrwt beam="1">  1        2 0.22157367E+00 0.12774292E+04</pdfrwt>
<pdfrwt beam="2">  1       -1 0.43578155E-01 0.12774292E+04</pdfrwt>
<totfact> 0.79805448E+01</totfact>
</mgrwt>
</event>
<event>
12    6  0.1450532E-007  0.1875291E+04  0.7818608E-02  0.8667254E-01
         -1   -1    0    0    0  501 -0.00000000000E+00  0.00000000000E+00  0.37364860734E+03  0.37364860734E+03  0.00000000000E+00 0.  1.
          2   -1    0    0  501    0  0.00000000000E+00 -0.00000000000E+00 -0.23529571150E+04  0.23529571150E+04  0.00000000000E+00 0. -1.
         24    2    1    2    0    0 -0.40433532197E+03  0.35219595695E+03 -0.65058199075E+02  0.54592460774E+03  0.79196359669E+02 0.  0.
        254    2    1    2    0    0  0.40433532197E+03 -0.35219595695E+03 -0.19142503086E+04  0.21806811146E+04  0.89637427172E+03 0.  0.
         23    2    4    4    0    0  0.49627200145E+02  0.28518235736E+03 -0.68286724046E+03  0.74659499829E+03  0.85466879092E+02 0.  0.
         23    2    4    4    0    0  0.35470812183E+03 -0.63737831431E+03 -0.12313830682E+04  0.14340861164E+04  0.90718032015E+02 0.  0.
          2    1    3    3  502    0 -0.89591756809E+02  0.52726144974E+02  0.12169402860E+02  0.10466529328E+03  0.00000000000E+00 0. -1.
         -1    1    3    3    0  502 -0.31474356516E+03  0.29946981198E+03 -0.77227601935E+02  0.44125931446E+03  0.00000000000E+00 0.  1.
         11    1    5    5    0    0  0.54463570424E+02  0.25373621034E+03 -0.65410390946E+03  0.70370467479E+03  0.00000000000E+00 0. -1.
        -11    1    5    5    0    0 -0.48363702787E+01  0.31446147013E+02 -0.28763331005E+02  0.42890323500E+02  0.00000000000E+00 0.  1.
          3    1    6    6  503    0  0.27765207876E+03 -0.50653455734E+03 -0.89787397961E+03  0.10676355267E+04  0.00000000000E+00 0. -1.
         -3    1    6    6    0  503  0.77056043063E+02 -0.13084375697E+03 -0.33350908855E+03  0.36645058965E+03  0.00000000000E+00 0.  1.
<mgrwt>
<rscale>  0 0.18752911E+04</rscale>
<asrwt>0</asrwt>
<pdfrwt beam="1">  1        2 0.36199340E+00 0.18752911E+04</pdfrwt>
<pdfrwt beam="2">  1       -1 0.57484401E-01 0.18752911E+04</pdfrwt>
<totfact> 0.13857283E+01</totfact>
</mgrwt>
</event>
<event>
12    6  0.1450532E-007  0.2700200E+04  0.7818608E-02  0.8334940E-01
          2   -1    0    0  501    0  0.00000000000E+00  0.00000000000E+00  0.31709130863E+04  0.31709130863E+04  0.00000000000E+00 0. -1.
         -1   -1    0    0    0  501 -0.00000000000E+00 -0.00000000000E+00 -0.57484062061E+03  0.57484062061E+03  0.00000000000E+00 0.  1.
         24    2    1    2    0    0 -0.68409857835E+03  0.27271894159E+03  0.24735121685E+04  0.25820637595E+04  0.80151886445E+02 0.  0.
        254    2    1    2    0    0  0.68409857835E+03 -0.27271894159E+03  0.12256029727E+03  0.11636899474E+04  0.89262913978E+03 0.  0.
         23    2    4    4    0    0 -0.26362932156E+02 -0.32421589273E+03 -0.18177551008E+03  0.38379243672E+03  0.91887698471E+02 0.  0.
         23    2    4    4    0    0  0.71046151050E+03  0.51496951145E+02  0.30433580735E+03  0.77989751066E+03  0.90622015105E+02 0.  0.
          2    1    3    3  502    0 -0.64421226222E+03  0.26565733069E+03  0.22695768588E+04  0.23741445563E+04  0.00000000000E+00 0. -1.
         -1    1    3    3    0  502 -0.39886316131E+02  0.70616108942E+01  0.20393530965E+03  0.20791920326E+03  0.00000000000E+00 0.  1.
         11    1    5    5    0    0 -0.24063850023E+02 -0.13998800942E+03 -0.12966016869E+03  0.19232127028E+03  0.00000000000E+00 0. -1.
        -11    1    5    5    0    0 -0.22990821324E+01 -0.18422788332E+03 -0.52115341382E+02  0.19147116644E+03  0.00000000000E+00 0.  1.
          2    1    6    6  503    0  0.31424012439E+03 -0.20452670463E+02  0.14743581378E+03  0.34771034884E+03  0.00000000000E+00 0. -1.
         -2    1    6    6    0  503  0.39622138612E+03  0.71949621609E+02  0.15689999356E+03  0.43218716183E+03  0.00000000000E+00 0.  1.
<mgrwt>
<rscale>  0 0.27001997E+04</rscale>
<asrwt>0</asrwt>
<pdfrwt beam="1">  1        2 0.48783277E+00 0.27001997E+04</pdfrwt>
<pdfrwt beam="2">  1       -1 0.88437020E-01 0.27001997E+04</pdfrwt>
<totfact> 0.16956607E+00</totfact>
</mgrwt>
</event>
<event>
12    6  0.1450532E-007  0.3069425E+04  0.7818608E-02  0.8224179E-01
          4   -1    0    0  501    0  0.00000000000E+00  0.00000000000E+00  0.24303884519E+04  0.24303884519E+04  0.00000000000E+00 0. -1.
         -3   -1    0    0    0  501 -0.00000000000E+00 -0.00000000000E+00 -0.96912166297E+03  0.96912166297E+03  0.00000000000E+00 0.  1.
         24    2    1    2    0    0  0.59798123898E+03  0.11253800733E+04  0.11250508627E+04  0.17018163156E+04  0.79858980389E+02 0.  0.
        254    2    1    2    0    0 -0.59798123898E+03 -0.11253800733E+04  0.33621592624E+03  0.16976937993E+04  0.10700753316E+04 0.  0.
         23    2    4    4    0    0  0.12581385944E+03 -0.39286520209E+03 -0.26746617189E+03  0.50047381522E+03  0.93614594898E+02 0.  0.
         23    2    4    4    0    0 -0.72379509842E+03 -0.73251487125E+03  0.60368209813E+03  0.11972199840E+04  0.91903392143E+02 0.  0.
          4    1    3    3  502    0  0.56589605592E+03  0.10659140681E+04  0.10394060445E+04  0.15927259877E+04  0.00000000000E+00 0. -1.
         -3    1    3    3    0  502  0.32085183060E+02  0.59466005270E+02  0.85644818145E+02  0.10909032785E+03  0.00000000000E+00 0.  1.
         11    1    5    5    0    0  0.21952212236E+01 -0.41636915911E+02 -0.63375775286E+02  0.75861325165E+02  0.00000000000E+00 0.  1.
        -11    1    5    5    0    0  0.12361863822E+03 -0.35122828618E+03 -0.20409039661E+03  0.42461249006E+03  0.00000000000E+00 0. -1.
          4    1    6    6  503    0 -0.23766757665E+03 -0.18686252020E+03  0.19767576093E+03  0.36121902622E+03  0.00000000000E+00 0. -1.
         -4    1    6    6    0  503 -0.48612752177E+03 -0.54565235105E+03  0.40600633720E+03  0.83600095782E+03  0.00000000000E+00 0.  1.
<mgrwt>
<rscale>  0 0.30694248E+04</rscale>
<asrwt>0</asrwt>
<pdfrwt beam="1">  1        4 0.37390591E+00 0.30694248E+04</pdfrwt>
<pdfrwt beam="2">  1       -3 0.14909564E+00 0.30694248E+04</pdfrwt>
<totfact> 0.64796496E-03</totfact>
</mgrwt>
</event>
<event>
12    6  0.1450532E-007  0.3426514E+04  0.7818608E-02  0.8131429E-01
          2   -1    0    0  501    0  0.00000000000E+00  0.00000000000E+00  0.23775220361E+04  0.23775220361E+04  0.00000000000E+00 0. -1.
         -1   -1    0    0    0  501 -0.00000000000E+00 -0.00000000000E+00 -0.12345837300E+04  0.12345837300E+04  0.00000000000E+00 0.  1.
         24    2    1    2    0    0  0.19548177583E+03 -0.75607884774E+03 -0.93300065630E+03  0.12192140274E+04  0.78257724088E+02 0.  0.
        254    2    1    2    0    0 -0.19548177583E+03  0.75607884774E+03  0.20759389624E+04  0.23928917386E+04  0.89807569184E+03 0.  0.
         23    2    4    4    0    0 -0.36987466357E+02  0.63116909984E+03  0.52691110996E+03  0.82830834851E+03  0.93364324834E+02 0.  0.
         23    2    4    4    0    0 -0.15849430948E+03  0.12490974790E+03  0.15490278525E+04  0.15645833901E+04  0.87812331669E+02 0.  0.
          2    1    3    3  502    0  0.27266988250E+02 -0.21594365251E+03 -0.22657043521E+03  0.31418038102E+03  0.00000000000E+00 0. -1.
         -1    1    3    3    0  502  0.16821478758E+03 -0.54013519523E+03 -0.70643022110E+03  0.90503364642E+03  0.00000000000E+00 0.  1.
         11    1    5    5    0    0 -0.42064349562E+02  0.29408113580E+03  0.29819828276E+03  0.42092201152E+03  0.00000000000E+00 0. -1.
        -11    1    5    5    0    0  0.50768832055E+01  0.33708796404E+03  0.22871282720E+03  0.40738633699E+03  0.00000000000E+00 0.  1.
          3    1    6    6  503    0 -0.20674311472E+02  0.38013973559E+02  0.15050855588E+03  0.15660560250E+03  0.00000000000E+00 0. -1.
         -3    1    6    6    0  503 -0.13781999801E+03  0.86895774344E+02  0.13985192966E+04  0.14079777876E+04  0.00000000000E+00 0.  1.
<mgrwt>
<rscale>  0 0.34265143E+04</rscale>
<asrwt>0</asrwt>
<pdfrwt beam="1">  1        2 0.36577262E+00 0.34265143E+04</pdfrwt>
<pdfrwt beam="2">  1       -1 0.18993596E+00 0.34265143E+04</pdfrwt>
<totfact> 0.68055905E-01</totfact>
</mgrwt>
</event>
<event>
12    6  0.1450532E-007  0.1917843E+04  0.7818608E-02  0.8646025E-01
         -1   -1    0    0    0  501 -0.00000000000E+00  0.00000000000E+00  0.54988680247E+03  0.54988680247E+03  0.00000000000E+00 0.  1.
          2   -1    0    0  501    0  0.00000000000E+00 -0.00000000000E+00 -0.16722185313E+04  0.16722185313E+04  0.00000000000E+00 0. -1.
         24    2    1    2    0    0  0.35774226121E+03  0.53943497229E+03 -0.99887197186E+01  0.65218515213E+03  0.79221735385E+02 0.  0.
        254    2    1    2    0    0 -0.35774226121E+03 -0.53943497229E+03 -0.11123430091E+04  0.15699201816E+04  0.89909554109E+03 0.  0.
         23    2    4    4    0    0  0.29241246041E+02 -0.66444140001E+03 -0.53695451491E+03  0.85906432205E+03  0.85638389810E+02 0.  0.
         23    2    4    4    0    0 -0.38698350725E+03  0.12500642773E+03 -0.57538849417E+03  0.71085585956E+03  0.94134435806E+02 0.  0.
          4    1    3    3  502    0  0.12866322279E+03  0.12975912681E+03 -0.33823546440E+01  0.18276513949E+03  0.00000000000E+00 0. -1.
         -3    1    3    3    0  502  0.22907903842E+03  0.40967584548E+03 -0.66063650746E+01  0.46942001264E+03  0.00000000000E+00 0.  1.
         11    1    5    5    0    0  0.49568993178E+02 -0.59037716814E+03 -0.49172837176E+03  0.76993446301E+03  0.00000000000E+00 0. -1.
        -11    1    5    5    0    0 -0.20327747137E+02 -0.74064231875E+02 -0.45226143153E+02  0.89129859034E+02  0.00000000000E+00 0.  1.
          3    1    6    6  503    0 -0.36315982710E+03  0.89863837356E+02 -0.52962051540E+03  0.64842768264E+03  0.00000000000E+00 0. -1.
         -3    1    6    6    0  503 -0.23823680151E+02  0.35142590370E+02 -0.45767978768E+02  0.62428176926E+02  0.00000000000E+00 0.  1.
<mgrwt>
<rscale>  0 0.19178435E+04</rscale>
<asrwt>0</asrwt>
<pdfrwt beam="1">  1        2 0.25726439E+00 0.19178435E+04</pdfrwt>
<pdfrwt beam="2">  1       -1 0.84597971E-01 0.19178435E+04</pdfrwt>
<totfact> 0.14974716E+01</totfact>
</mgrwt>
</event>
<event>
12    6  0.1450532E-007  0.1789081E+04  0.7818608E-02  0.8712128E-01
          2   -1    0    0  501    0  0.00000000000E+00  0.00000000000E+00  0.86458393641E+03  0.86458393641E+03  0.00000000000E+00 0. -1.
         -1   -1    0    0    0  501 -0.00000000000E+00 -0.00000000000E+00 -0.92553503497E+03  0.92553503497E+03  0.00000000000E+00 0.  1.
         24    2    1    2    0    0 -0.65880926458E+03 -0.79210401245E+02  0.12231420140E+03  0.67948615607E+03  0.80229281849E+02 0.  0.
        254    2    1    2    0    0  0.65880926458E+03  0.79210401245E+02 -0.18326529996E+03  0.11106328153E+04  0.87155903156E+03 0.  0.
         23    2    4    4    0    0  0.50665419298E+03  0.44489734417E+03 -0.17828725742E+03  0.70341896499E+03  0.91541116673E+02 0.  0.
         23    2    4    4    0    0  0.15215507160E+03 -0.36568694293E+03 -0.49780425414E+01  0.40721385031E+03  0.94446984783E+02 0.  0.
          4    1    3    3  502    0 -0.35627861934E+03 -0.16399014401E+02  0.96201679865E+02  0.36940241672E+03  0.00000000000E+00 0. -1.
         -3    1    3    3    0  502 -0.30253064524E+03 -0.62811386844E+02  0.26112521531E+02  0.31008373935E+03  0.00000000000E+00 0.  1.
         11    1    5    5    0    0  0.28001929624E+03  0.27277996017E+03 -0.61170241019E+02  0.39567854544E+03  0.00000000000E+00 0.  1.
        -11    1    5    5    0    0  0.22663489674E+03  0.17211738400E+03 -0.11711701640E+03  0.30774041955E+03  0.00000000000E+00 0. -1.
          1    1    6    6  503    0  0.57708842837E+02 -0.92207095734E+02  0.36909227267E+02  0.11486840341E+03  0.00000000000E+00 0. -1.
         -1    1    6    6    0  503  0.94446228767E+02 -0.27347984720E+03 -0.41887269809E+02  0.29234544690E+03  0.00000000000E+00 0.  1.
<mgrwt>
<rscale>  0 0.17890810E+04</rscale>
<asrwt>0</asrwt>
<pdfrwt beam="1">  1        2 0.13301291E+00 0.17890810E+04</pdfrwt>
<pdfrwt beam="2">  1       -1 0.14239001E+00 0.17890810E+04</pdfrwt>
<totfact> 0.13406553E+01</totfact>
</mgrwt>
</event>
<event>
12    6  0.1450532E-007  0.1940110E+04  0.7818608E-02  0.8635145E-01
         -1   -1    0    0    0  501 -0.00000000000E+00  0.00000000000E+00  0.41061394444E+03  0.41061394444E+03  0.00000000000E+00 0.  1.
          2   -1    0    0  501    0  0.00000000000E+00 -0.00000000000E+00 -0.22917059875E+04  0.22917059875E+04  0.00000000000E+00 0. -1.
         24    2    1    2    0    0  0.29790878082E+03 -0.56671841205E+03 -0.13288932305E+04  0.14771412264E+04  0.77907537051E+02 0.  0.
        254    2    1    2    0    0 -0.29790878082E+03  0.56671841205E+03 -0.55219881257E+03  0.12251787056E+04  0.88669043739E+03 0.  0.
         23    2    4    4    0    0  0.32786872437E+02 -0.37815047997E+02 -0.51913805029E+03  0.52968286249E+03  0.92491419609E+02 0.  0.
         23    2    4    4    0    0 -0.33069565325E+03  0.60453346005E+03 -0.33060762286E+02  0.69549584309E+03  0.88324030470E+02 0.  0.
          4    1    3    3  502    0  0.60625972417E+02 -0.13234555482E+03 -0.37974100995E+03  0.40668672102E+03  0.00000000000E+00 0. -1.
         -3    1    3    3    0  502  0.23728280840E+03 -0.43437285723E+03 -0.94915222053E+03  0.10704545053E+04  0.00000000000E+00 0.  1.
         11    1    5    5    0    0  0.50410675968E+02 -0.66381070430E+01 -0.43864613657E+03  0.44158321282E+03  0.00000000000E+00 0. -1.
        -11    1    5    5    0    0 -0.17623803532E+02 -0.31176940954E+02 -0.80491913711E+02  0.88099649665E+02  0.00000000000E+00 0.  1.
          4    1    6    6  503    0 -0.31981951848E+03  0.52726822190E+03 -0.28981139454E+02  0.61736229936E+03  0.00000000000E+00 0. -1.
         -4    1    6    6    0  503 -0.10876134770E+02  0.77265238151E+02 -0.40796228324E+01  0.78133543734E+02  0.00000000000E+00 0.  1.
<mgrwt>
<rscale>  0 0.19401097E+04</rscale>
<asrwt>0</asrwt>
<pdfrwt beam="1">  1        2 0.35257014E+00 0.19401097E+04</pdfrwt>
<pdfrwt beam="2">  1       -1 0.63171377E-01 0.19401097E+04</pdfrwt>
<totfact> 0.12383060E+01</totfact>
</mgrwt>
</event>
<event>
12    6  0.1450532E-007  0.2599021E+04  0.7818608E-02  0.8368534E-01
          2   -1    0    0  501    0  0.00000000000E+00  0.00000000000E+00  0.34088803360E+04  0.34088803360E+04  0.00000000000E+00 0. -1.
         -1   -1    0    0    0  501 -0.00000000000E+00 -0.00000000000E+00 -0.49539084540E+03  0.49539084540E+03  0.00000000000E+00 0.  1.
         24    2    1    2    0    0 -0.68815206437E+03 -0.90504234857E+03  0.13480902965E+04  0.17653260918E+04  0.79836372519E+02 0.  0.
        254    2    1    2    0    0  0.68815206437E+03  0.90504234857E+03  0.15653991940E+04  0.21389450896E+04  0.91211651837E+03 0.  0.
         23    2    4    4    0    0  0.22727161856E+03  0.87295987041E+01  0.88678243013E+03  0.91989218927E+03  0.89944243873E+02 0.  0.
         23    2    4    4    0    0  0.46088044580E+03  0.89631274987E+03  0.67861676391E+03  0.12190529003E+04  0.98903642745E+02 0.  0.
          2    1    3    3  502    0 -0.51685808647E+01 -0.19647100671E+02  0.14466165575E+02  0.24939782264E+02  0.00000000000E+00 0. -1.
         -1    1    3    3    0  502 -0.68298348350E+03 -0.88539524790E+03  0.13336241310E+04  0.17403863095E+04  0.00000000000E+00 0.  1.
         11    1    5    5    0    0  0.58804913804E+02  0.35431336749E+02  0.34968500803E+03  0.35636077555E+03  0.00000000000E+00 0.  1.
        -11    1    5    5    0    0  0.16846670476E+03 -0.26701738045E+02  0.53709742210E+03  0.56353141373E+03  0.00000000000E+00 0. -1.
          3    1    6    6  503    0  0.31859148848E+03  0.64476581806E+03  0.43072355526E+03  0.83829963481E+03  0.00000000000E+00 0. -1.
         -3    1    6    6    0  503  0.14228895733E+03  0.25154693181E+03  0.24789320865E+03  0.38075326548E+03  0.00000000000E+00 0.  1.
<mgrwt>
<rscale>  0 0.25990214E+04</rscale>
<asrwt>0</asrwt>
<pdfrwt beam="1">  1        2 0.52444311E+00 0.25990214E+04</pdfrwt>
<pdfrwt beam="2">  1       -1 0.76213978E-01 0.25990214E+04</pdfrwt>
<totfact> 0.16354820E+00</totfact>
</mgrwt>
</event>
<event>
12    6  0.1450532E-007  0.1949733E+04  0.7818608E-02  0.8630490E-01
          2   -1    0    0  501    0  0.00000000000E+00  0.00000000000E+00  0.64662826862E+03  0.64662826862E+03  0.00000000000E+00 0. -1.
         -1   -1    0    0    0  501 -0.00000000000E+00 -0.00000000000E+00 -0.14697232049E+04  0.14697232049E+04  0.00000000000E+00 0.  1.
         24    2    1    2    0    0 -0.33209798811E+03  0.39010347071E+03 -0.93574875466E+03  0.10696772953E+04  0.78192023851E+02 0.  0.
        254    2    1    2    0    0  0.33209798811E+03 -0.39010347071E+03  0.11265381837E+03  0.10466741783E+04  0.90574066988E+03 0.  0.
         23    2    4    4    0    0  0.49092716731E+03 -0.10309079878E+01 -0.17657941169E+03  0.52852473032E+03  0.84543217079E+02 0.  0.
         23    2    4    4    0    0 -0.15882917920E+03 -0.38907256272E+03  0.28923323006E+03  0.51814944794E+03  0.90657717781E+02 0.  0.
          4    1    3    3  502    0 -0.17195335762E+03  0.14565988362E+03 -0.38071836680E+03  0.44241522771E+03  0.00000000000E+00 0. -1.
         -3    1    3    3    0  502 -0.16014463049E+03  0.24444358709E+03 -0.55503038787E+03  0.62726206756E+03  0.00000000000E+00 0.  1.
         11    1    5    5    0    0  0.38309546836E+03  0.10000953321E+02 -0.17194154046E+03  0.42003101109E+03  0.00000000000E+00 0. -1.
        -11    1    5    5    0    0  0.10783169895E+03 -0.11031861308E+02 -0.46378712344E+01  0.10849371923E+03  0.00000000000E+00 0.  1.
          1    1    6    6  503    0 -0.15550834745E+03 -0.32078006179E+03  0.21100780455E+03  0.41425473775E+03  0.00000000000E+00 0. -1.
         -1    1    6    6    0  503 -0.33208317464E+01 -0.68292500937E+02  0.78225425513E+02  0.10389471019E+03  0.00000000000E+00 0.  1.
<mgrwt>
<rscale>  0 0.19497329E+04</rscale>
<asrwt>0</asrwt>
<pdfrwt beam="1">  1        2 0.99481273E-01 0.19497329E+04</pdfrwt>
<pdfrwt beam="2">  1       -1 0.22611126E+00 0.19497329E+04</pdfrwt>
<totfact> 0.48281322E+00</totfact>
</mgrwt>
</event>
<event>
12    6  0.1450532E-007  0.1605086E+04  0.7818608E-02  0.8817429E-01
          4   -1    0    0  501    0  0.00000000000E+00  0.00000000000E+00  0.88852131793E+03  0.88852131793E+03  0.00000000000E+00 0. -1.
         -3   -1    0    0    0  501 -0.00000000000E+00 -0.00000000000E+00 -0.72488468880E+03  0.72488468880E+03  0.00000000000E+00 0.  1.
         24    2    1    2    0    0 -0.36970177664E+03  0.35537887596E+03 -0.68657238358E+02  0.52325845610E+03  0.78179577677E+02 0.  0.
        254    2    1    2    0    0  0.36970177664E+03 -0.35537887596E+03  0.23229386748E+03  0.10901475506E+04  0.93353505138E+03 0.  0.
         23    2    4    4    0    0 -0.21150275951E+03 -0.38641016416E+03  0.22065088127E+03  0.50111950167E+03  0.91584449023E+02 0.  0.
         23    2    4    4    0    0  0.58120453615E+03  0.31031288200E+02  0.11642986207E+02  0.58902804896E+03  0.89759844272E+02 0.  0.
          4    1    3    3  502    0 -0.15715570373E+03  0.15923196758E+03  0.86191421656E+01  0.22389065261E+03  0.00000000000E+00 0. -1.
         -3    1    3    3    0  502 -0.21254607291E+03  0.19614690838E+03 -0.77276380523E+02  0.29936780349E+03  0.00000000000E+00 0.  1.
         11    1    5    5    0    0 -0.15546162997E+03 -0.33639354169E+03  0.15623657854E+03  0.40216762893E+03  0.00000000000E+00 0. -1.
        -11    1    5    5    0    0 -0.56041129541E+02 -0.50016622475E+02  0.64414302729E+02  0.98951872746E+02  0.00000000000E+00 0.  1.
          3    1    6    6  503    0  0.45442491680E+03  0.51472469472E+02 -0.16239400783E+02  0.45761898809E+03  0.00000000000E+00 0. -1.
         -3    1    6    6    0  503  0.12677961935E+03 -0.20441181272E+02  0.27882386990E+02  0.13140906087E+03  0.00000000000E+00 0.  1.
<mgrwt>
<rscale>  0 0.16050863E+04</rscale>
<asrwt>0</asrwt>
<pdfrwt beam="1">  1        4 0.13669559E+00 0.16050863E+04</pdfrwt>
<pdfrwt beam="2">  1       -3 0.11152072E+00 0.16050863E+04</pdfrwt>
<totfact> 0.56259642E-01</totfact>
</mgrwt>
</event>
<event>
12    6  0.1450532E-007  0.2501296E+04  0.7818608E-02  0.8402524E-01
          2   -1    0    0  501    0  0.00000000000E+00  0.00000000000E+00  0.41286628414E+04  0.41286628414E+04  0.00000000000E+00 0. -1.
         -1   -1    0    0    0  501 -0.00000000000E+00 -0.00000000000E+00 -0.37884430799E+03  0.37884430799E+03  0.00000000000E+00 0.  1.
         24    2    1    2    0    0 -0.58097937059E+03  0.10388792869E+03  0.32731216137E+04  0.33268583114E+04  0.79570067312E+02 0.  0.
        254    2    1    2    0    0  0.58097937059E+03 -0.10388792869E+03  0.47669691975E+03  0.11806488380E+04  0.90463362449E+03 0.  0.
         23    2    4    4    0    0  0.55510585553E+03  0.16025249715E+03 -0.46544916200E+02  0.58698984639E+03  0.92559585454E+02 0.  0.
         23    2    4    4    0    0  0.25873515062E+02 -0.26414042584E+03  0.52324183595E+03  0.59365899159E+03  0.90605607251E+02 0.  0.
          4    1    3    3  502    0 -0.52545670162E+03  0.71333493523E+02  0.29717750979E+04  0.30187150321E+04  0.00000000000E+00 0. -1.
         -3    1    3    3    0  502 -0.55522668971E+02  0.32554435164E+02  0.30134651576E+03  0.30814327930E+03  0.00000000000E+00 0.  1.
         11    1    5    5    0    0  0.89259775145E+01  0.39684756437E+01 -0.15146441401E+02  0.18023222815E+02  0.00000000000E+00 0. -1.
        -11    1    5    5    0    0  0.54617987801E+03  0.15628402151E+03 -0.31398474799E+02  0.56896662358E+03  0.00000000000E+00 0.  1.
          4    1    6    6  503    0  0.47276874436E+02 -0.82510125962E+02  0.14316465474E+03  0.17186954969E+03  0.00000000000E+00 0. -1.
         -4    1    6    6    0  503 -0.21403359374E+02 -0.18163029987E+03  0.38007718121E+03  0.42178944190E+03  0.00000000000E+00 0.  1.
<mgrwt>
<rscale>  0 0.25012960E+04</rscale>
<asrwt>0</asrwt>
<pdfrwt beam="1">  1        2 0.63517887E+00 0.25012960E+04</pdfrwt>
<pdfrwt beam="2">  1       -1 0.58283743E-01 0.25012960E+04</pdfrwt>
<totfact> 0.81312835E-01</totfact>
</mgrwt>
</event>
<event>
12    6  0.1450532E-007  0.1488266E+04  0.7818608E-02  0.8892294E-01
          2   -1    0    0  501    0  0.00000000000E+00  0.00000000000E+00  0.12929917063E+04  0.12929917063E+04  0.00000000000E+00 0. -1.
         -3   -1    0    0    0  501 -0.00000000000E+00 -0.00000000000E+00 -0.42825763153E+03  0.42825763153E+03  0.00000000000E+00 0.  1.
         24    2    1    2    0    0 -0.99686521695E+02  0.44468065462E+03  0.42969387774E+03  0.63109600779E+03  0.77246716982E+02 0.  0.
        254    2    1    2    0    0  0.99686521695E+02 -0.44468065462E+03  0.43504019698E+03  0.10901533300E+04  0.88966062221E+03 0.  0.
         23    2    4    4    0    0 -0.30357664568E+03 -0.46036023946E+03  0.12649420914E+03  0.57392358002E+03  0.96421786329E+02 0.  0.
         23    2    4    4    0    0  0.40326316737E+03  0.15679584839E+02  0.30854598784E+03  0.51622974998E+03  0.91790503938E+02 0.  0.
          2    1    3    3  502    0 -0.10824499119E+03  0.37706010300E+03  0.34527450248E+03  0.52259523673E+03  0.00000000000E+00 0. -1.
         -1    1    3    3    0  502  0.85584694959E+01  0.67620551619E+02  0.84419375264E+02  0.10850077106E+03  0.00000000000E+00 0.  1.
         11    1    5    5    0    0 -0.19656627979E+03 -0.35553712979E+03  0.12152638496E+03  0.42404435529E+03  0.00000000000E+00 0. -1.
        -11    1    5    5    0    0 -0.10701036589E+03 -0.10482310966E+03  0.49678241801E+01  0.14987922473E+03  0.00000000000E+00 0.  1.
          3    1    6    6  503    0  0.14334594153E+03 -0.38348275894E+02  0.11274364095E+03  0.18635927074E+03  0.00000000000E+00 0. -1.
         -3    1    6    6    0  503  0.25991722584E+03  0.54027860733E+02  0.19580234689E+03  0.32987047924E+03  0.00000000000E+00 0.  1.
<mgrwt>
<rscale>  0 0.14882655E+04</rscale>
<asrwt>0</asrwt>
<pdfrwt beam="1">  1        2 0.19892180E+00 0.14882655E+04</pdfrwt>
<pdfrwt beam="2">  1       -3 0.65885790E-01 0.14882655E+04</pdfrwt>
<totfact> 0.22891867E+01</totfact>
</mgrwt>
</event>
<event>
12    6  0.1450532E-007  0.1627466E+04  0.7818608E-02  0.8803850E-01
         -1   -1    0    0    0  501 -0.00000000000E+00  0.00000000000E+00  0.11609826569E+04  0.11609826569E+04  0.00000000000E+00 0.  1.
          2   -1    0    0  501    0  0.00000000000E+00 -0.00000000000E+00 -0.57034549571E+03  0.57034549571E+03  0.00000000000E+00 0. -1.
         24    2    1    2    0    0 -0.41211433540E+03  0.83999124523E+02  0.60191647184E+03  0.73740758640E+03  0.67619753421E+02 0.  0.
        254    2    1    2    0    0  0.41211433540E+03 -0.83999124523E+02 -0.11279310610E+02  0.99392056624E+03  0.90047586907E+03 0.  0.
         23    2    4    4    0    0 -0.19020671448E+03  0.22597893273E+03  0.27889825637E+02  0.30928755380E+03  0.87383501252E+02 0.  0.
         23    2    4    4    0    0  0.60232104988E+03 -0.30997805725E+03 -0.39169136247E+02  0.68463301244E+03  0.91165220296E+02 0.  0.
          4    1    3    3  502    0 -0.16022768548E+03  0.40166114068E+01  0.19845080067E+03  0.25509167891E+03  0.00000000000E+00 0. -1.
         -3    1    3    3    0  502 -0.25188664992E+03  0.79982513116E+02  0.40346567116E+03  0.48231590749E+03  0.00000000000E+00 0.  1.
         11    1    5    5    0    0 -0.89142424159E+02  0.67854638178E+02 -0.24024337463E+02  0.11457657918E+03  0.00000000000E+00 0. -1.
        -11    1    5    5    0    0 -0.10106429032E+03  0.15812429455E+03  0.51914163099E+02  0.19471097461E+03  0.00000000000E+00 0.  1.
          3    1    6    6  503    0  0.38052408459E+02 -0.42699577713E+02  0.11031718956E+02  0.58248936038E+02  0.00000000000E+00 0. -1.
         -3    1    6    6    0  503  0.56426864142E+03 -0.26727847954E+03 -0.50200855202E+02  0.62638407641E+03  0.00000000000E+00 0.  1.
<mgrwt>
<rscale>  0 0.16274658E+04</rscale>
<asrwt>0</asrwt>
<pdfrwt beam="1">  1        2 0.87745461E-01 0.16274658E+04</pdfrwt>
<pdfrwt beam="2">  1       -1 0.17861272E+00 0.16274658E+04</pdfrwt>
<totfact> 0.12274175E+01</totfact>
</mgrwt>
</event>
<event>
12    6  0.1450532E-007  0.4223170E+04  0.7818608E-02  0.7960979E-01
          2   -1    0    0  501    0  0.00000000000E+00  0.00000000000E+00  0.36784636061E+04  0.36784636061E+04  0.00000000000E+00 0. -1.
         -1   -1    0    0    0  501 -0.00000000000E+00 -0.00000000000E+00 -0.12121342065E+04  0.12121342065E+04  0.00000000000E+00 0.  1.
         24    2    1    2    0    0  0.87089565677E+03 -0.16844384356E+04  0.39324073075E+03  0.19384907964E+04  0.85534830202E+02 0.  0.
        254    2    1    2    0    0 -0.87089565677E+03  0.16844384356E+04  0.20730886688E+04  0.29521070161E+04  0.90633719857E+03 0.  0.
         23    2    4    4    0    0 -0.40883064616E+03  0.78513920623E+03  0.16026026054E+04  0.18331693886E+04  0.92675919854E+02 0.  0.
         23    2    4    4    0    0 -0.46206501061E+03  0.89929922940E+03  0.47048606345E+03  0.11189376275E+04  0.91766553876E+02 0.  0.
          4    1    3    3  502    0  0.62822821812E+02 -0.16676662611E+03  0.22968768836E+02  0.17968132587E+03  0.00000000000E+00 0. -1.
         -3    1    3    3    0  502  0.80807283496E+03 -0.15176718095E+04  0.37027196191E+03  0.17588094706E+04  0.00000000000E+00 0.  1.
         11    1    5    5    0    0 -0.14997037144E+03  0.27203418959E+03  0.65468108386E+03  0.72463855416E+03  0.00000000000E+00 0.  1.
        -11    1    5    5    0    0 -0.25886027471E+03  0.51310501665E+03  0.94792152151E+03  0.11085308344E+04  0.00000000000E+00 0. -1.
          2    1    6    6  503    0 -0.23273326542E+03  0.40454984283E+03  0.17295713778E+03  0.49773438667E+03  0.00000000000E+00 0. -1.
         -2    1    6    6    0  503 -0.22933174519E+03  0.49474938657E+03  0.29752892567E+03  0.62120324088E+03  0.00000000000E+00 0.  1.
<mgrwt>
<rscale>  0 0.42231702E+04</rscale>
<asrwt>0</asrwt>
<pdfrwt beam="1">  1        2 0.56591747E+00 0.42231702E+04</pdfrwt>
<pdfrwt beam="2">  1       -1 0.18648219E+00 0.42231702E+04</pdfrwt>
<totfact> 0.99335386E-02</totfact>
</mgrwt>
</event>
<event>
12    6  0.1450532E-007  0.2219362E+04  0.7818608E-02  0.8510412E-01
         -1   -1    0    0    0  501 -0.00000000000E+00  0.00000000000E+00  0.48660068608E+03  0.48660068608E+03  0.00000000000E+00 0.  1.
          2   -1    0    0  501    0  0.00000000000E+00 -0.00000000000E+00 -0.25306001885E+04  0.25306001885E+04  0.00000000000E+00 0. -1.
         24    2    1    2    0    0  0.44126964673E+03  0.15014828216E+03 -0.19237412104E+04  0.19811255217E+04  0.82551076942E+02 0.  0.
        254    2    1    2    0    0 -0.44126964673E+03 -0.15014828216E+03 -0.12025829202E+03  0.10360753529E+04  0.91745663240E+03 0.  0.
         23    2    4    4    0    0 -0.35457912438E+03  0.26721620228E+03 -0.32173974359E+03  0.55591318734E+03  0.91608706204E+02 0.  0.
         23    2    4    4    0    0 -0.86690522354E+02 -0.41736448444E+03  0.20148145157E+03  0.48016216556E+03  0.90843658971E+02 0.  0.
          4    1    3    3  502    0  0.39462788935E+03  0.10479231817E+03 -0.16626923708E+04  0.17120918553E+04  0.00000000000E+00 0. -1.
         -3    1    3    3    0  502  0.46641757384E+02  0.45355963986E+02 -0.26104883959E+03  0.26903366639E+03  0.00000000000E+00 0.  1.
         11    1    5    5    0    0 -0.18214690341E+03  0.85143531313E+02 -0.12071313863E+03  0.23451775452E+03  0.00000000000E+00 0. -1.
        -11    1    5    5    0    0 -0.17243222097E+03  0.18207267096E+03 -0.20102660496E+03  0.32139543282E+03  0.00000000000E+00 0.  1.
          1    1    6    6  503    0  0.15160179499E+02 -0.22212516419E+02  0.53993856655E+01  0.27429551467E+02  0.00000000000E+00 0. -1.
         -1    1    6    6    0  503 -0.10185070185E+03 -0.39515196802E+03  0.19608206591E+03  0.45273261410E+03  0.00000000000E+00 0.  1.
<mgrwt>
<rscale>  0 0.22193619E+04</rscale>
<asrwt>0</asrwt>
<pdfrwt beam="1">  1        2 0.38932311E+00 0.22193619E+04</pdfrwt>
<pdfrwt beam="2">  1       -1 0.74861643E-01 0.22193619E+04</pdfrwt>
<totfact> 0.62285690E+00</totfact>
</mgrwt>
</event>
<event>
12    6  0.1450532E-007  0.1969956E+04  0.7818608E-02  0.8620798E-01
         -1   -1    0    0    0  501 -0.00000000000E+00  0.00000000000E+00  0.33452463135E+03  0.33452463135E+03  0.00000000000E+00 0.  1.
          2   -1    0    0  501    0  0.00000000000E+00 -0.00000000000E+00 -0.29001789486E+04  0.29001789486E+04  0.00000000000E+00 0. -1.
         24    2    1    2    0    0 -0.36270426351E+03  0.89651706355E+02 -0.21333032994E+04  0.21672488634E+04  0.79955346081E+02 0.  0.
        254    2    1    2    0    0  0.36270426351E+03 -0.89651706355E+02 -0.43235101786E+03  0.10674547166E+04  0.90163205250E+03 0.  0.
         23    2    4    4    0    0  0.29160872369E+03 -0.35108977807E+03  0.88967085716E+02  0.47305431910E+03  0.86980264898E+02 0.  0.
         23    2    4    4    0    0  0.71095539819E+02  0.26143807172E+03 -0.52131810358E+03  0.59440039749E+03  0.90193271871E+02 0.  0.
          4    1    3    3  502    0 -0.34082850192E+03  0.77015025429E+02 -0.20663966042E+04  0.20957314493E+04  0.00000000000E+00 0. -1.
         -3    1    3    3    0  502 -0.21875761591E+02  0.12636680925E+02 -0.66906695245E+02  0.71517414094E+02  0.00000000000E+00 0.  1.
         11    1    5    5    0    0  0.68647465371E+02 -0.14274603660E+03  0.45646823653E+02  0.16484094752E+03  0.00000000000E+00 0. -1.
        -11    1    5    5    0    0  0.22296125832E+03 -0.20834374147E+03  0.43320262063E+02  0.30821337159E+03  0.00000000000E+00 0.  1.
          4    1    6    6  503    0  0.44197559160E+02  0.43336032581E+02 -0.77750333443E+02  0.99380834702E+02  0.00000000000E+00 0. -1.
         -4    1    6    6    0  503  0.26897980659E+02  0.21810203914E+03 -0.44356777013E+03  0.49501956279E+03  0.00000000000E+00 0.  1.
<mgrwt>
<rscale>  0 0.19699556E+04</rscale>
<asrwt>0</asrwt>
<pdfrwt beam="1">  1        2 0.44618137E+00 0.19699556E+04</pdfrwt>
<pdfrwt beam="2">  1       -1 0.51465329E-01 0.19699556E+04</pdfrwt>
<totfact> 0.81042719E+00</totfact>
</mgrwt>
</event>
<event>
12    6  0.1450532E-007  0.1767584E+04  0.7818608E-02  0.8723731E-01
         -3   -1    0    0    0  501 -0.00000000000E+00  0.00000000000E+00  0.15728171372E+04  0.15728171372E+04  0.00000000000E+00 0.  1.
          2   -1    0    0  501    0  0.00000000000E+00 -0.00000000000E+00 -0.49661716459E+03  0.49661716459E+03  0.00000000000E+00 0. -1.
         24    2    1    2    0    0  0.81658585473E+01  0.39902604767E+03 -0.20678453163E+03  0.45643212540E+03  0.79258908704E+02 0.  0.
        254    2    1    2    0    0 -0.81658585473E+01 -0.39902604767E+03  0.12829845043E+04  0.16130021764E+04  0.89243392751E+03 0.  0.
         23    2    4    4    0    0 -0.33388543815E+03  0.89085791684E+02  0.66963764005E+03  0.75946299401E+03  0.94624025524E+02 0.  0.
         23    2    4    4    0    0  0.32571957960E+03 -0.48811183935E+03  0.61334686421E+03  0.85353918240E+03  0.89377557630E+02 0.  0.
          2    1    3    3  502    0  0.53411436283E+01  0.34801343135E+03 -0.14708915085E+03  0.37785856417E+03  0.00000000000E+00 0. -1.
         -1    1    3    3    0  502  0.28247149190E+01  0.51012616316E+02 -0.59695380781E+02  0.78573561230E+02  0.00000000000E+00 0.  1.
         11    1    5    5    0    0 -0.31756506472E+03  0.10489554995E+03  0.64002167728E+03  0.72213460942E+03  0.00000000000E+00 0. -1.
        -11    1    5    5    0    0 -0.16320373424E+02 -0.15809758266E+02  0.29615962772E+02  0.37328384589E+02  0.00000000000E+00 0.  1.
          1    1    6    6  503    0  0.32271629099E+03 -0.45177878915E+03  0.59048206821E+03  0.81050536807E+03  0.00000000000E+00 0. -1.
         -1    1    6    6    0  503  0.30032886104E+01 -0.36333050203E+02  0.22864795992E+02  0.43033814324E+02  0.00000000000E+00 0.  1.
<mgrwt>
<rscale>  0 0.17675836E+04</rscale>
<asrwt>0</asrwt>
<pdfrwt beam="1">  1        2 0.76402642E-01 0.17675836E+04</pdfrwt>
<pdfrwt beam="2">  1       -3 0.24197186E+00 0.17675836E+04</pdfrwt>
<totfact> 0.29893321E+00</totfact>
</mgrwt>
</event>
<event>
12    6  0.1566283E-007  0.1423079E+04  0.7818608E-02  0.8937280E-01
         -1   -1    0    0    0  501 -0.00000000000E+00  0.00000000000E+00  0.49803883745E+03  0.49803883745E+03  0.00000000000E+00 0.  1.
          2   -1    0    0  501    0  0.00000000000E+00 -0.00000000000E+00 -0.10165637043E+04  0.10165637043E+04  0.00000000000E+00 0. -1.
         24    2    1    2    0    0 -0.16917839337E+03 -0.19160662526E+03  0.20232209723E+03  0.33551224178E+03  0.79371315539E+02 0.  0.
        254    2    1    2    0    0  0.16917839337E+03  0.19160662526E+03 -0.72084696412E+03  0.11790903000E+04  0.89738462337E+03 0.  0.
         23    2    4    4    0    0  0.19331100412E+03  0.53481747668E+03 -0.49145311096E+03  0.75649912756E+03  0.85824775358E+02 0.  0.
         23    2    4    4    0    0 -0.24132610750E+02 -0.34321085142E+03 -0.22939385316E+03  0.42259117244E+03  0.87095853672E+02 0.  0.
          2    1    3    3  502    0 -0.19333454379E+01  0.76174819840E+00 -0.59744042156E+01  0.63254715738E+01  0.00000000000E+00 0. -1.
         -1    1    3    3    0  502 -0.16724504793E+03 -0.19236837346E+03  0.20829650145E+03  0.32918677021E+03  0.00000000000E+00 0.  1.
         11    1    5    5    0    0  0.13025941092E+03  0.24810362656E+03 -0.26580978735E+03  0.38623537732E+03  0.00000000000E+00 0. -1.
        -11    1    5    5    0    0  0.63051593192E+02  0.28671385012E+03 -0.22564332361E+03  0.37026375024E+03  0.00000000000E+00 0.  1.
          4    1    6    6  503    0 -0.47470899927E+02 -0.20432672331E+03 -0.10449757921E+03  0.23435579844E+03  0.00000000000E+00 0. -1.
         -4    1    6    6    0  503  0.23338289177E+02 -0.13888412811E+03 -0.12489627395E+03  0.18823537401E+03  0.00000000000E+00 0.  1.
<mgrwt>
<rscale>  0 0.14230786E+04</rscale>
<asrwt>0</asrwt>
<pdfrwt beam="1">  1        2 0.15639441E+00 0.14230786E+04</pdfrwt>
<pdfrwt beam="2">  1       -1 0.76621360E-01 0.14230786E+04</pdfrwt>
<totfact> 0.46585403E+01</totfact>
</mgrwt>
</event>
<event>
12    6  0.1450532E-007  0.1399914E+04  0.7818608E-02  0.8953881E-01
         -1   -1    0    0    0  501 -0.00000000000E+00  0.00000000000E+00  0.49339987917E+03  0.49339987917E+03  0.00000000000E+00 0.  1.
          2   -1    0    0  501    0  0.00000000000E+00 -0.00000000000E+00 -0.99298676936E+03  0.99298676936E+03  0.00000000000E+00 0. -1.
         24    2    1    2    0    0  0.48278749765E+02  0.38118063931E+03  0.33419777481E+02  0.39091399139E+03  0.63775776583E+02 0.  0.
        254    2    1    2    0    0 -0.48278749765E+02 -0.38118063931E+03 -0.53300666768E+03  0.10954726571E+04  0.87654704225E+03 0.  0.
         23    2    4    4    0    0  0.25251883065E+03 -0.40589694436E+03 -0.15170651111E+02  0.48758313773E+03  0.94810749732E+02 0.  0.
         23    2    4    4    0    0 -0.30079758042E+03  0.24716305057E+02 -0.51783601657E+03  0.60788951941E+03  0.10141719594E+03 0.  0.
          4    1    3    3  502    0  0.27564093233E+01  0.91611854732E+02  0.34090672961E+02  0.97788055011E+02  0.00000000000E+00 0. -1.
         -3    1    3    3    0  502  0.45522340442E+02  0.28956878457E+03 -0.67089548009E+00  0.29312593638E+03  0.00000000000E+00 0.  1.
         11    1    5    5    0    0  0.21822905807E+03 -0.30330421892E+03  0.19017205492E+02  0.37413770875E+03  0.00000000000E+00 0. -1.
        -11    1    5    5    0    0  0.34289772576E+02 -0.10259272544E+03 -0.34187856603E+02  0.11344542898E+03  0.00000000000E+00 0.  1.
          2    1    6    6  503    0 -0.27875272006E+03  0.43201758269E+02 -0.42017843563E+03  0.50608239312E+03  0.00000000000E+00 0. -1.
         -2    1    6    6    0  503 -0.22044860359E+02 -0.18485453212E+02 -0.97657580942E+02  0.10180712629E+03  0.00000000000E+00 0.  1.
<mgrwt>
<rscale>  0 0.13999136E+04</rscale>
<asrwt>0</asrwt>
<pdfrwt beam="1">  1        2 0.15276719E+00 0.13999136E+04</pdfrwt>
<pdfrwt beam="2">  1       -1 0.75907675E-01 0.13999136E+04</pdfrwt>
<totfact> 0.49284258E+01</totfact>
</mgrwt>
</event>
<event>
12    6  0.1450532E-007  0.1245366E+04  0.7818608E-02  0.9074049E-01
         -1   -1    0    0    0  501 -0.00000000000E+00  0.00000000000E+00  0.81831380215E+03  0.81831380215E+03  0.00000000000E+00 0.  1.
          2   -1    0    0  501    0  0.00000000000E+00 -0.00000000000E+00 -0.47382115270E+03  0.47382115270E+03  0.00000000000E+00 0. -1.
         24    2    1    2    0    0  0.12647193813E+02 -0.25493859582E+03  0.22162600613E+03  0.34802424892E+03  0.82759604239E+02 0.  0.
        254    2    1    2    0    0 -0.12647193813E+02  0.25493859582E+03  0.12286664332E+03  0.94411070593E+03  0.90060822441E+03 0.  0.
         23    2    4    4    0    0  0.10649462184E+03  0.10480339851E+03  0.48824063511E+03  0.51881044486E+03  0.91980993168E+02 0.  0.
         23    2    4    4    0    0 -0.11914181565E+03  0.15013519731E+03 -0.36537399179E+03  0.42530026107E+03  0.10318337309E+03 0.  0.
          4    1    3    3  502    0  0.30412533842E+02 -0.87785714877E+02  0.41822718422E+02  0.10188421726E+03  0.00000000000E+00 0. -1.
         -3    1    3    3    0  502 -0.17765340029E+02 -0.16715288094E+03  0.17980328771E+03  0.24614003166E+03  0.00000000000E+00 0.  1.
         11    1    5    5    0    0  0.66132015383E+02  0.37098582595E+01  0.20124490107E+03  0.21186485484E+03  0.00000000000E+00 0.  1.
        -11    1    5    5    0    0  0.40362606453E+02  0.10109354025E+03  0.28699573404E+03  0.30694559002E+03  0.00000000000E+00 0. -1.
          3    1    6    6  503    0  0.16222900778E+02  0.31572709866E+02 -0.39978428403E+02  0.53463008290E+02  0.00000000000E+00 0. -1.
         -3    1    6    6    0  503 -0.13536471643E+03  0.11856248745E+03 -0.32539556339E+03  0.37183725278E+03  0.00000000000E+00 0.  1.
<mgrwt>
<rscale>  0 0.12453664E+04</rscale>
<asrwt>0</asrwt>
<pdfrwt beam="1">  1        2 0.72895562E-01 0.12453664E+04</pdfrwt>
<pdfrwt beam="2">  1       -1 0.12589443E+00 0.12453664E+04</pdfrwt>
<totfact> 0.40559808E+01</totfact>
</mgrwt>
</event>
<event>
12    6  0.1450532E-007  0.1820291E+04  0.7818608E-02  0.8695583E-01
          2   -1    0    0  501    0  0.00000000000E+00  0.00000000000E+00  0.16146901642E+04  0.16146901642E+04  0.00000000000E+00 0. -1.
         -1   -1    0    0    0  501 -0.00000000000E+00 -0.00000000000E+00 -0.51301803303E+03  0.51301803303E+03  0.00000000000E+00 0.  1.
         24    2    1    2    0    0 -0.51954024789E+03 -0.23594053820E+03 -0.24903834648E+02  0.57626422663E+03  0.76617564403E+02 0.  0.
        254    2    1    2    0    0  0.51954024789E+03  0.23594053820E+03  0.11265759658E+04  0.15514439706E+04  0.90122970456E+03 0.  0.
         23    2    4    4    0    0 -0.21622840057E+03 -0.87032932913E+02  0.36812595884E+03  0.44280516629E+03  0.78931876312E+02 0.  0.
         23    2    4    4    0    0  0.73576864845E+03  0.32297347112E+03  0.75845000698E+03  0.11086388043E+04  0.90367130271E+02 0.  0.
          2    1    3    3  502    0 -0.44239677177E+03 -0.20094907271E+03  0.64500734075E+01  0.48593933463E+03  0.00000000000E+00 0. -1.
         -3    1    3    3    0  502 -0.77143476119E+02 -0.34991465492E+02 -0.31353908055E+02  0.90324892003E+02  0.00000000000E+00 0.  1.
         11    1    5    5    0    0 -0.21810472574E+03 -0.73669983262E+02  0.33002067175E+03  0.40238113973E+03  0.00000000000E+00 0. -1.
        -11    1    5    5    0    0  0.18763251743E+01 -0.13362949652E+02  0.38105287085E+02  0.40424026561E+02  0.00000000000E+00 0.  1.
          1    1    6    6  503    0  0.72873436369E+03  0.30636817066E+03  0.74331389274E+03  0.10850948216E+04  0.00000000000E+00 0. -1.
         -1    1    6    6    0  503  0.70342847655E+01  0.16605300457E+02  0.15136114236E+02  0.23543982662E+02  0.00000000000E+00 0.  1.
<mgrwt>
<rscale>  0 0.18202914E+04</rscale>
<asrwt>0</asrwt>
<pdfrwt beam="1">  1        2 0.24841387E+00 0.18202914E+04</pdfrwt>
<pdfrwt beam="2">  1       -1 0.78925851E-01 0.18202914E+04</pdfrwt>
<totfact> 0.18863339E+01</totfact>
</mgrwt>
</event>
<event>
12    6  0.1450532E-007  0.1772880E+04  0.7818608E-02  0.8720856E-01
         -1   -1    0    0    0  501 -0.00000000000E+00  0.00000000000E+00  0.23723001364E+04  0.23723001364E+04  0.00000000000E+00 0.  1.
          2   -1    0    0  501    0  0.00000000000E+00 -0.00000000000E+00 -0.33122946946E+03  0.33122946946E+03  0.00000000000E+00 0. -1.
         24    2    1    2    0    0 -0.55522126807E+02  0.53519899479E+03  0.13372765779E+04  0.14434075424E+04  0.74806530841E+02 0.  0.
        254    2    1    2    0    0  0.55522126807E+02 -0.53519899479E+03  0.70379408907E+03  0.12601220635E+04  0.89613661041E+03 0.  0.
         23    2    4    4    0    0  0.36337808865E+03 -0.41330357159E+03  0.72615912412E+03  0.91577048639E+03  0.92005611758E+02 0.  0.
         23    2    4    4    0    0 -0.30785596184E+03 -0.12189542320E+03 -0.22365035045E+02  0.34435157711E+03  0.91891383877E+02 0.  0.
          2    1    3    3  502    0 -0.37516354738E+02  0.25416041564E+03  0.73330453975E+03  0.77700742710E+03  0.00000000000E+00 0. -1.
         -1    1    3    3    0  502 -0.18005772069E+02  0.28103857916E+03  0.60397203815E+03  0.66640011530E+03  0.00000000000E+00 0.  1.
         11    1    5    5    0    0  0.31799268944E+03 -0.32903599349E+03  0.55158297890E+03  0.71667832265E+03  0.00000000000E+00 0. -1.
        -11    1    5    5    0    0  0.45385399209E+02 -0.84267578102E+02  0.17457614522E+03  0.19909216373E+03  0.00000000000E+00 0.  1.
          2    1    6    6  503    0 -0.18329257843E+03 -0.53743018902E+02 -0.54781359875E+02  0.19870953368E+03  0.00000000000E+00 0. -1.
         -2    1    6    6    0  503 -0.12456338341E+03 -0.68152404300E+02  0.32416324830E+02  0.14564204343E+03  0.00000000000E+00 0.  1.
<mgrwt>
<rscale>  0 0.17728798E+04</rscale>
<asrwt>0</asrwt>
<pdfrwt beam="1">  1        2 0.50958382E-01 0.17728798E+04</pdfrwt>
<pdfrwt beam="2">  1       -1 0.36496924E+00 0.17728798E+04</pdfrwt>
<totfact> 0.13177297E+00</totfact>
</mgrwt>
</event>
<event>
12    6  0.1450532E-007  0.1447367E+04  0.7818608E-02  0.8920228E-01
          2   -1    0    0  501    0  0.00000000000E+00  0.00000000000E+00  0.11766410581E+04  0.11766410581E+04  0.00000000000E+00 0. -1.
         -1   -1    0    0    0  501 -0.00000000000E+00 -0.00000000000E+00 -0.44509556939E+03  0.44509556939E+03  0.00000000000E+00 0.  1.
         24    2    1    2    0    0  0.16122584125E+03 -0.29929368377E+03  0.58220465696E+03  0.67865205535E+03  0.77690852844E+02 0.  0.
        254    2    1    2    0    0 -0.16122584125E+03  0.29929368377E+03  0.14934083172E+03  0.94308457210E+03  0.86691138248E+03 0.  0.
         23    2    4    4    0    0 -0.20343233121E+03  0.44548079612E+03  0.39947104299E+03  0.63835081445E+03  0.89870991024E+02 0.  0.
         23    2    4    4    0    0  0.42206489955E+02 -0.14618711235E+03 -0.25013021127E+03  0.30473375765E+03  0.84530946121E+02 0.  0.
          4    1    3    3  502    0  0.10418712052E+03 -0.25797015929E+03  0.45900336674E+03  0.53673797131E+03  0.00000000000E+00 0. -1.
         -3    1    3    3    0  502  0.57038720729E+02 -0.41323524482E+02  0.12320129021E+03  0.14191408404E+03  0.00000000000E+00 0.  1.
         11    1    5    5    0    0 -0.14745243900E+03  0.24553821316E+03  0.27029888906E+03  0.39381813737E+03  0.00000000000E+00 0. -1.
        -11    1    5    5    0    0 -0.55979892207E+02  0.19994258295E+03  0.12917215393E+03  0.24453267708E+03  0.00000000000E+00 0.  1.
          3    1    6    6  503    0  0.35450565756E+02 -0.13038789169E+03 -0.25346316371E+03  0.28723043061E+03  0.00000000000E+00 0. -1.
         -3    1    6    6    0  503  0.67559241991E+01 -0.15799220664E+02  0.33329524463E+01  0.17503327038E+02  0.00000000000E+00 0.  1.
<mgrwt>
<rscale>  0 0.14473669E+04</rscale>
<asrwt>0</asrwt>
<pdfrwt beam="1">  1        2 0.18102170E+00 0.14473669E+04</pdfrwt>
<pdfrwt beam="2">  1       -1 0.68476242E-01 0.14473669E+04</pdfrwt>
<totfact> 0.46708327E+01</totfact>
</mgrwt>
</event>
<event>
12    6  0.1450532E-007  0.1266244E+04  0.7818608E-02  0.9056771E-01
          2   -1    0    0  501    0  0.00000000000E+00  0.00000000000E+00  0.77115546926E+03  0.77115546926E+03  0.00000000000E+00 0. -1.
         -1   -1    0    0    0  501 -0.00000000000E+00 -0.00000000000E+00 -0.51979591118E+03  0.51979591118E+03  0.00000000000E+00 0.  1.
         24    2    1    2    0    0  0.21174318622E+03 -0.12376504335E+03 -0.79972163404E+02  0.26956121850E+03  0.78196807711E+02 0.  0.
        254    2    1    2    0    0 -0.21174318622E+03  0.12376504335E+03  0.33133172148E+03  0.10213901619E+04  0.93450745870E+03 0.  0.
         23    2    4    4    0    0  0.24716267078E+03 -0.25298129965E+03  0.14281312366E+03  0.39160462118E+03  0.88711144973E+02 0.  0.
         23    2    4    4    0    0 -0.45890585700E+03  0.37674634300E+03  0.18851859783E+03  0.62978554076E+03  0.92510394352E+02 0.  0.
          4    1    3    3  502    0  0.16155632263E+02 -0.39496349230E+02 -0.18397518777E+01  0.42712419076E+02  0.00000000000E+00 0. -1.
         -3    1    3    3    0  502  0.19558755396E+03 -0.84268694121E+02 -0.78132411527E+02  0.22684879943E+03  0.00000000000E+00 0.  1.
         11    1    5    5    0    0  0.23975642261E+03 -0.22306682286E+03  0.10735527506E+03  0.34462603605E+03  0.00000000000E+00 0.  1.
        -11    1    5    5    0    0  0.74062481749E+01 -0.29914476785E+02  0.35457848598E+02  0.46978585127E+02  0.00000000000E+00 0. -1.
          2    1    6    6  503    0 -0.45970809371E+03  0.36829789910E+03  0.17621435197E+03  0.61483849241E+03  0.00000000000E+00 0. -1.
         -2    1    6    6    0  503  0.80223671046E+00  0.84484438954E+01  0.12304245864E+02  0.14947048347E+02  0.00000000000E+00 0.  1.
<mgrwt>
<rscale>  0 0.12662440E+04</rscale>
<asrwt>0</asrwt>
<pdfrwt beam="1">  1        2 0.11863930E+00 0.12662440E+04</pdfrwt>
<pdfrwt beam="2">  1       -1 0.79968602E-01 0.12662440E+04</pdfrwt>
<totfact> 0.63356928E+01</totfact>
</mgrwt>
</event>
<event>
12    6  0.1450532E-007  0.1554505E+04  0.7818608E-02  0.8848995E-01
          2   -1    0    0  501    0  0.00000000000E+00  0.00000000000E+00  0.29490038236E+04  0.29490038236E+04  0.00000000000E+00 0. -1.
         -1   -1    0    0    0  501 -0.00000000000E+00 -0.00000000000E+00 -0.20485622500E+03  0.20485622500E+03  0.00000000000E+00 0.  1.
         24    2    1    2    0    0 -0.25772368713E+03  0.39427022893E+03  0.50084377365E+03  0.69242877321E+03  0.82113385210E+02 0.  0.
        254    2    1    2    0    0  0.25772368713E+03 -0.39427022893E+03  0.22433038249E+04  0.24614312754E+04  0.89686195151E+03 0.  0.
         23    2    4    4    0    0  0.24368423268E+02  0.24964102495E+03  0.10457339496E+04  0.10792445322E+04  0.91075822588E+02 0.  0.
         23    2    4    4    0    0  0.23335526386E+03 -0.64391125388E+03  0.11975698753E+04  0.13821867431E+04  0.84795074966E+02 0.  0.
          4    1    3    3  502    0 -0.24064819992E+03  0.36999627118E+03  0.49304745817E+03  0.66174360051E+03  0.00000000000E+00 0. -1.
         -3    1    3    3    0  502 -0.17075487205E+02  0.24273957749E+02  0.77963154839E+01  0.30685172693E+02  0.00000000000E+00 0.  1.
         11    1    5    5    0    0 -0.47511996735E+01  0.14722067119E+03  0.76379855460E+03  0.77787192515E+03  0.00000000000E+00 0.  1.
        -11    1    5    5    0    0  0.29119622942E+02  0.10242035376E+03  0.28193539504E+03  0.30137260705E+03  0.00000000000E+00 0. -1.
          3    1    6    6  503    0  0.17498703411E+02 -0.14921166079E+03  0.27255891010E+03  0.31122127789E+03  0.00000000000E+00 0. -1.
         -3    1    6    6    0  503  0.21585656045E+03 -0.49469959309E+03  0.92501096516E+03  0.10709654653E+04  0.00000000000E+00 0.  1.
<mgrwt>
<rscale>  0 0.15545054E+04</rscale>
<asrwt>0</asrwt>
<pdfrwt beam="1">  1        2 0.45369287E+00 0.15545054E+04</pdfrwt>
<pdfrwt beam="2">  1       -1 0.31516344E-01 0.15545054E+04</pdfrwt>
<totfact> 0.19319494E+01</totfact>
</mgrwt>
</event>
<event>
12    6  0.1450532E-007  0.1367366E+04  0.7818608E-02  0.8977786E-01
          2   -1    0    0  501    0  0.00000000000E+00  0.00000000000E+00  0.15322486818E+04  0.15322486818E+04  0.00000000000E+00 0. -1.
         -1   -1    0    0    0  501 -0.00000000000E+00 -0.00000000000E+00 -0.30505633508E+03  0.30505633508E+03  0.00000000000E+00 0.  1.
         24    2    1    2    0    0 -0.17988431499E+03 -0.19984128898E+03 -0.84878910839E+01  0.28044393306E+03  0.79258108320E+02 0.  0.
        254    2    1    2    0    0  0.17988431499E+03  0.19984128898E+03  0.12356802378E+04  0.15568610838E+04  0.90808362866E+03 0.  0.
         23    2    4    4    0    0  0.40805613352E+03 -0.90713005307E+02  0.23957398446E+03  0.49050774979E+03  0.91997288741E+02 0.  0.
         23    2    4    4    0    0 -0.22817181853E+03  0.29055429429E+03  0.99610625335E+03  0.10663533340E+04  0.91638356238E+02 0.  0.
          4    1    3    3  502    0 -0.96011259732E+02 -0.49580341816E+02 -0.80815575125E+01  0.10835905067E+03  0.00000000000E+00 0. -1.
         -3    1    3    3    0  502 -0.83873055260E+02 -0.15026094716E+03 -0.40633357141E+00  0.17208488239E+03  0.00000000000E+00 0.  1.
         11    1    5    5    0    0  0.35095364769E+03 -0.59157048103E+02  0.16768811627E+03  0.39343020156E+03  0.00000000000E+00 0.  1.
        -11    1    5    5    0    0  0.57102485839E+02 -0.31555957204E+02  0.71885868196E+02  0.97077548229E+02  0.00000000000E+00 0. -1.
          4    1    6    6  503    0 -0.12778176814E+02  0.47603909047E+02  0.21256372361E+03  0.21820346137E+03  0.00000000000E+00 0. -1.
         -4    1    6    6    0  503 -0.21539364172E+03  0.24295038524E+03  0.78354252973E+03  0.84814987265E+03  0.00000000000E+00 0.  1.
<mgrwt>
<rscale>  0 0.13673656E+04</rscale>
<asrwt>0</asrwt>
<pdfrwt beam="1">  1        2 0.23573056E+00 0.13673656E+04</pdfrwt>
<pdfrwt beam="2">  1       -1 0.46931745E-01 0.13673656E+04</pdfrwt>
<totfact> 0.61231264E+01</totfact>
</mgrwt>
</event>
<event>
12    6  0.1450532E-007  0.1654131E+04  0.7818608E-02  0.8787967E-01
         -1   -1    0    0    0  501 -0.00000000000E+00  0.00000000000E+00  0.26749292742E+03  0.26749292742E+03  0.00000000000E+00 0.  1.
          2   -1    0    0  501    0  0.00000000000E+00 -0.00000000000E+00 -0.25572154956E+04  0.25572154956E+04  0.00000000000E+00 0. -1.
         24    2    1    2    0    0  0.72753120076E+02 -0.52476761385E+03 -0.11393691656E+04  0.12590460473E+04  0.79754551717E+02 0.  0.
        254    2    1    2    0    0 -0.72753120076E+02  0.52476761385E+03 -0.11503534025E+04  0.15656623757E+04  0.92049533353E+03 0.  0.
         23    2    4    4    0    0 -0.26381616153E+02  0.95141410720E+02 -0.11147410403E+04  0.11232780185E+04  0.96736974334E+02 0.  0.
         23    2    4    4    0    0 -0.46371503923E+02  0.42962620313E+03 -0.35612362196E+02  0.44238435720E+03  0.87787746126E+02 0.  0.
          2    1    3    3  502    0  0.67803768775E+02 -0.28161164789E+03 -0.55375113129E+03  0.62493422589E+03  0.00000000000E+00 0. -1.
         -1    1    3    3    0  502  0.49493513015E+01 -0.24315596596E+03 -0.58561803433E+03  0.63411182137E+03  0.00000000000E+00 0.  1.
         11    1    5    5    0    0 -0.32660816052E+02  0.74831234684E+02 -0.10759516400E+04  0.10790451215E+04  0.00000000000E+00 0. -1.
        -11    1    5    5    0    0  0.62791998991E+01  0.20310176036E+02 -0.38789400292E+02  0.44232897000E+02  0.00000000000E+00 0.  1.
          1    1    6    6  503    0 -0.16262311431E+02  0.26996839383E+03  0.18625326866E+02  0.27109832024E+03  0.00000000000E+00 0. -1.
         -1    1    6    6    0  503 -0.30109192492E+02  0.15965780930E+03 -0.54237689062E+02  0.17128603696E+03  0.00000000000E+00 0.  1.
<mgrwt>
<rscale>  0 0.16541307E+04</rscale>
<asrwt>0</asrwt>
<pdfrwt beam="1">  1        2 0.39341778E+00 0.16541307E+04</pdfrwt>
<pdfrwt beam="2">  1       -1 0.41152756E-01 0.16541307E+04</pdfrwt>
<totfact> 0.20312266E+01</totfact>
</mgrwt>
</event>
<event>
12    6  0.1509862E-007  0.1932469E+04  0.7818608E-02  0.8638861E-01
          2   -1    0    0  501    0  0.00000000000E+00  0.00000000000E+00  0.16621724446E+04  0.16621724446E+04  0.00000000000E+00 0. -1.
         -1   -1    0    0    0  501 -0.00000000000E+00 -0.00000000000E+00 -0.56167994185E+03  0.56167994185E+03  0.00000000000E+00 0.  1.
         24    2    1    2    0    0 -0.40606247675E+03 -0.73558110138E+02 -0.29179005519E+03  0.51414218127E+03  0.94356852778E+02 0.  0.
        254    2    1    2    0    0  0.40606247675E+03  0.73558110138E+02  0.13922825580E+04  0.17097102052E+04  0.90241937808E+03 0.  0.
         23    2    4    4    0    0  0.12180501852E+03  0.12508217328E+03 -0.76650539852E+02  0.20933680669E+03  0.86397805326E+02 0.  0.
         23    2    4    4    0    0  0.28425745823E+03 -0.51524063142E+02  0.14689330978E+04  0.15003733985E+04  0.99493002000E+02 0.  0.
          4    1    3    3  502    0 -0.17664424688E+03 -0.79394939415E+02 -0.14063920151E+03  0.23934521379E+03  0.00000000000E+00 0. -1.
         -1    1    3    3    0  502 -0.22941822987E+03  0.58368292774E+01 -0.15115085368E+03  0.27479696749E+03  0.00000000000E+00 0.  1.
         11    1    5    5    0    0  0.11782173534E+03  0.13634384864E+03 -0.79655454808E+02  0.19701928296E+03  0.00000000000E+00 0.  1.
        -11    1    5    5    0    0  0.39832831791E+01 -0.11261675357E+02  0.30049149560E+01  0.12317523721E+02  0.00000000000E+00 0. -1.
          3    1    6    6  503    0  0.29922965935E+02  0.25367624677E+02  0.15935502785E+03  0.16411253814E+03  0.00000000000E+00 0. -1.
         -3    1    6    6    0  503  0.25433449229E+03 -0.76891687819E+02  0.13095780700E+04  0.13362608604E+04  0.00000000000E+00 0.  1.
<mgrwt>
<rscale>  0 0.19324688E+04</rscale>
<asrwt>0</asrwt>
<pdfrwt beam="1">  1        2 0.25571884E+00 0.19324688E+04</pdfrwt>
<pdfrwt beam="2">  1       -1 0.86412299E-01 0.19324688E+04</pdfrwt>
<totfact> 0.14467876E+01</totfact>
</mgrwt>
</event>
<event>
12    6  0.1450532E-007  0.2184557E+04  0.7818608E-02  0.8524884E-01
          2   -1    0    0  501    0  0.00000000000E+00  0.00000000000E+00  0.12385628585E+04  0.12385628585E+04  0.00000000000E+00 0. -1.
         -1   -1    0    0    0  501 -0.00000000000E+00 -0.00000000000E+00 -0.96327114814E+03  0.96327114814E+03  0.00000000000E+00 0.  1.
         24    2    1    2    0    0 -0.44652471622E+03 -0.59329391680E+02 -0.67894549198E+03  0.81902012872E+03  0.83202711869E+02 0.  0.
        254    2    1    2    0    0  0.44652471622E+03  0.59329391680E+02  0.95423720229E+03  0.13828138779E+04  0.89370089162E+03 0.  0.
         23    2    4    4    0    0  0.68362783032E+03 -0.20413063472E+01  0.47574907125E+03  0.83786491999E+03  0.91264823628E+02 0.  0.
         23    2    4    4    0    0 -0.23710311410E+03  0.61370698027E+02  0.47848813104E+03  0.54494895788E+03  0.89633843255E+02 0.  0.
          4    1    3    3  502    0 -0.82711220994E+02 -0.38836328229E+02 -0.10522469908E+03  0.13936155770E+03  0.00000000000E+00 0. -1.
         -3    1    3    3    0  502 -0.36381349523E+03 -0.20493063451E+02 -0.57372079289E+03  0.67965857102E+03  0.00000000000E+00 0.  1.
         11    1    5    5    0    0  0.53597020203E+03  0.24482939243E+02  0.40367346797E+03  0.67142813504E+03  0.00000000000E+00 0. -1.
        -11    1    5    5    0    0  0.14765762829E+03 -0.26524245590E+02  0.72075603282E+02  0.16643678495E+03  0.00000000000E+00 0.  1.
          3    1    6    6  503    0 -0.78331330440E+02 -0.37907478215E+01  0.84940506889E+02  0.11560733890E+03  0.00000000000E+00 0. -1.
         -3    1    6    6    0  503 -0.15877178366E+03  0.65161445849E+02  0.39354762415E+03  0.42934161898E+03  0.00000000000E+00 0.  1.
<mgrwt>
<rscale>  0 0.21845566E+04</rscale>
<asrwt>0</asrwt>
<pdfrwt beam="1">  1        2 0.19054813E+00 0.21845566E+04</pdfrwt>
<pdfrwt beam="2">  1       -1 0.14819556E+00 0.21845566E+04</pdfrwt>
<totfact> 0.67562044E+00</totfact>
</mgrwt>
</event>
<event>
12    6  0.1450532E-007  0.1489644E+04  0.7818608E-02  0.8891369E-01
          2   -1    0    0  501    0  0.00000000000E+00  0.00000000000E+00  0.91079271016E+03  0.91079271016E+03  0.00000000000E+00 0. -1.
         -1   -1    0    0    0  501 -0.00000000000E+00 -0.00000000000E+00 -0.60909581877E+03  0.60909581877E+03  0.00000000000E+00 0.  1.
         24    2    1    2    0    0 -0.23931793907E+02  0.20419634468E+03  0.51358708558E+03  0.55899994083E+03  0.80251862517E+02 0.  0.
        254    2    1    2    0    0  0.23931793907E+02 -0.20419634468E+03 -0.21189019419E+03  0.96088858810E+03  0.91440721039E+03 0.  0.
         23    2    4    4    0    0  0.26889953944E+03 -0.46868401558E+03 -0.36919321628E+02  0.54971202824E+03  0.94067044778E+02 0.  0.
         23    2    4    4    0    0 -0.24496774553E+03  0.26448767090E+03 -0.17497087256E+03  0.41117655986E+03  0.92132690866E+02 0.  0.
          4    1    3    3  502    0 -0.27612578745E+02  0.70214683648E+02  0.27692414028E+03  0.28701835442E+03  0.00000000000E+00 0. -1.
         -3    1    3    3    0  502  0.36807848377E+01  0.13398166103E+03  0.23666294530E+03  0.27198158641E+03  0.00000000000E+00 0.  1.
         11    1    5    5    0    0  0.77406224060E+02 -0.11610353274E+03  0.30566020016E+02  0.14284969519E+03  0.00000000000E+00 0.  1.
        -11    1    5    5    0    0  0.19149331538E+03 -0.35258048284E+03 -0.67485341643E+02  0.40686233304E+03  0.00000000000E+00 0. -1.
          3    1    6    6  503    0 -0.21747900882E+03  0.21598244710E+03 -0.17957112019E+03  0.35523418183E+03  0.00000000000E+00 0. -1.
         -3    1    6    6    0  503 -0.27488736708E+02  0.48505223799E+02  0.46002476282E+01  0.55942378032E+02  0.00000000000E+00 0.  1.
<mgrwt>
<rscale>  0 0.14896443E+04</rscale>
<asrwt>0</asrwt>
<pdfrwt beam="1">  1        2 0.14012195E+00 0.14896443E+04</pdfrwt>
<pdfrwt beam="2">  1       -1 0.93707049E-01 0.14896443E+04</pdfrwt>
<totfact> 0.35144759E+01</totfact>
</mgrwt>
</event>
<event>
12    6  0.1450532E-007  0.3274239E+04  0.7818608E-02  0.8169481E-01
         -1   -1    0    0    0  501 -0.00000000000E+00  0.00000000000E+00  0.15505073939E+04  0.15505073939E+04  0.00000000000E+00 0.  1.
          2   -1    0    0  501    0  0.00000000000E+00 -0.00000000000E+00 -0.17285695280E+04  0.17285695280E+04  0.00000000000E+00 0. -1.
         24    2    1    2    0    0  0.37520418065E+03 -0.13435039635E+04 -0.65770409588E+03  0.15442923841E+04  0.80518398921E+02 0.  0.
        254    2    1    2    0    0 -0.37520418065E+03  0.13435039635E+04  0.47964196174E+03  0.17347845378E+04  0.91303882944E+03 0.  0.
         23    2    4    4    0    0 -0.63039653142E+03  0.59703287165E+03  0.26321784864E+03  0.91179151468E+03  0.90730886346E+02 0.  0.
         23    2    4    4    0    0  0.25519235078E+03  0.74647109189E+03  0.21642411309E+03  0.82299302316E+03  0.90199182535E+02 0.  0.
          4    1    3    3  502    0  0.35432755257E+03 -0.13148980079E+04 -0.64228219481E+03  0.15056663652E+04  0.00000000000E+00 0. -1.
         -3    1    3    3    0  502  0.20876628074E+02 -0.28605955667E+02 -0.15421901062E+02  0.38626018844E+02  0.00000000000E+00 0.  1.
         11    1    5    5    0    0 -0.43277729038E+03  0.46413169649E+03  0.20053738313E+03  0.66552960624E+03  0.00000000000E+00 0. -1.
        -11    1    5    5    0    0 -0.19761924105E+03  0.13290117516E+03  0.62680465518E+02  0.24626190844E+03  0.00000000000E+00 0.  1.
          1    1    6    6  503    0  0.16429410254E+03  0.36509401284E+03  0.13552263122E+03  0.42267312892E+03  0.00000000000E+00 0. -1.
         -1    1    6    6    0  503  0.90898248240E+02  0.38137707905E+03  0.80901481867E+02  0.40031989424E+03  0.00000000000E+00 0.  1.
<mgrwt>
<rscale>  0 0.32742387E+04</rscale>
<asrwt>0</asrwt>
<pdfrwt beam="1">  1        2 0.26593377E+00 0.32742387E+04</pdfrwt>
<pdfrwt beam="2">  1       -1 0.23853960E+00 0.32742387E+04</pdfrwt>
<totfact> 0.74644481E-01</totfact>
</mgrwt>
</event>
<event>
12    6  0.1450532E-007  0.1983210E+04  0.7818608E-02  0.8614511E-01
          2   -1    0    0  501    0  0.00000000000E+00  0.00000000000E+00  0.28832560367E+04  0.28832560367E+04  0.00000000000E+00 0. -1.
         -1   -1    0    0    0  501 -0.00000000000E+00 -0.00000000000E+00 -0.34103140175E+03  0.34103140175E+03  0.00000000000E+00 0.  1.
         24    2    1    2    0    0  0.75022937025E+03 -0.21307031281E+03  0.83057123557E+03  0.11420968763E+04  0.79332409607E+02 0.  0.
        254    2    1    2    0    0 -0.75022937025E+03  0.21307031281E+03  0.17116533994E+04  0.20821905622E+04  0.89303813555E+03 0.  0.
         23    2    4    4    0    0 -0.37884775312E+03  0.50831428576E+03  0.63503958884E+03  0.90208716202E+03  0.92611745123E+02 0.  0.
         23    2    4    4    0    0 -0.37138161713E+03 -0.29524397295E+03  0.10766138106E+04  0.11801034002E+04  0.91942530781E+02 0.  0.
          4    1    3    3  502    0  0.61271193725E+03 -0.17404642185E+03  0.72051358764E+03  0.96169012940E+03  0.00000000000E+00 0. -1.
         -3    1    3    3    0  502  0.13751743300E+03 -0.39023890962E+02  0.11005764793E+03  0.18040674686E+03  0.00000000000E+00 0.  1.
         11    1    5    5    0    0 -0.28232384735E+02  0.26800901875E+02  0.75051684794E+02  0.84546503651E+02  0.00000000000E+00 0. -1.
        -11    1    5    5    0    0 -0.35061536839E+03  0.48151338389E+03  0.55998790404E+03  0.81754065837E+03  0.00000000000E+00 0.  1.
          4    1    6    6  503    0 -0.11968172840E+03 -0.13828813257E+03  0.34126369047E+03  0.38717984214E+03  0.00000000000E+00 0. -1.
         -4    1    6    6    0  503 -0.25169988872E+03 -0.15695584038E+03  0.73535012010E+03  0.79292355807E+03  0.00000000000E+00 0.  1.
<mgrwt>
<rscale>  0 0.19832104E+04</rscale>
<asrwt>0</asrwt>
<pdfrwt beam="1">  1        2 0.44357784E+00 0.19832104E+04</pdfrwt>
<pdfrwt beam="2">  1       -1 0.52466371E-01 0.19832104E+04</pdfrwt>
<totfact> 0.79893712E+00</totfact>
</mgrwt>
</event>
<event>
12    6  0.1450532E-007  0.1800103E+04  0.7818608E-02  0.8706245E-01
         -1   -1    0    0    0  501 -0.00000000000E+00  0.00000000000E+00  0.29472641596E+03  0.29472641596E+03  0.00000000000E+00 0.  1.
          2   -1    0    0  501    0  0.00000000000E+00 -0.00000000000E+00 -0.27486247509E+04  0.27486247509E+04  0.00000000000E+00 0. -1.
         24    2    1    2    0    0 -0.18930418866E+02  0.36361629913E+03  0.32720924999E+02  0.37417144727E+03  0.79739822349E+02 0.  0.
        254    2    1    2    0    0  0.18930418866E+02 -0.36361629913E+03 -0.24866192600E+04  0.26691797196E+04  0.89926072851E+03 0.  0.
         23    2    4    4    0    0  0.15150497720E+03 -0.24013822728E+03 -0.24440166321E+04  0.24622242097E+04  0.93330780614E+02 0.  0.
         23    2    4    4    0    0 -0.13257455833E+03 -0.12347807185E+03 -0.42602627896E+02  0.20695550993E+03  0.90513819072E+02 0.  0.
          2    1    3    3  502    0  0.15448702156E+02  0.16192176309E+03  0.46298418778E+02  0.16911789776E+03  0.00000000000E+00 0. -1.
         -1    1    3    3    0  502 -0.34379121022E+02  0.20169453604E+03 -0.13577493780E+02  0.20505354951E+03  0.00000000000E+00 0.  1.
         11    1    5    5    0    0  0.97588607966E+02 -0.69273566480E+02 -0.95982363629E+03  0.96725579667E+03  0.00000000000E+00 0. -1.
        -11    1    5    5    0    0  0.53916369233E+02 -0.17086466080E+03 -0.14841929958E+04  0.14949684130E+04  0.00000000000E+00 0.  1.
          3    1    6    6  503    0 -0.38005215721E+02  0.70553408198E+01 -0.21937747641E+02  0.44445911259E+02  0.00000000000E+00 0. -1.
         -3    1    6    6    0  503 -0.94569342612E+02 -0.13053341267E+03 -0.20664880256E+02  0.16250959867E+03  0.00000000000E+00 0.  1.
<mgrwt>
<rscale>  0 0.18001026E+04</rscale>
<asrwt>0</asrwt>
<pdfrwt beam="1">  1        2 0.42286536E+00 0.18001026E+04</pdfrwt>
<pdfrwt beam="2">  1       -1 0.45342524E-01 0.18001026E+04</pdfrwt>
<totfact> 0.12918355E+01</totfact>
</mgrwt>
</event>
<event>
12    6  0.1450532E-007  0.1455412E+04  0.7818608E-02  0.8914657E-01
          2   -1    0    0  501    0  0.00000000000E+00  0.00000000000E+00  0.16964310019E+04  0.16964310019E+04  0.00000000000E+00 0. -1.
         -1   -1    0    0    0  501 -0.00000000000E+00 -0.00000000000E+00 -0.31215881842E+03  0.31215881842E+03  0.00000000000E+00 0.  1.
         24    2    1    2    0    0 -0.72217012844E+02  0.12641638939E+03 -0.15824304867E+03  0.22744183842E+03  0.74111584513E+02 0.  0.
        254    2    1    2    0    0  0.72217012844E+02 -0.12641638939E+03  0.15425152321E+04  0.17811479819E+04  0.87860030250E+03 0.  0.
         23    2    4    4    0    0 -0.14009824845E+03 -0.46981899408E+02  0.15272436160E+04  0.15370907522E+04  0.91324147326E+02 0.  0.
         23    2    4    4    0    0  0.21231526129E+03 -0.79434489985E+02  0.15271616180E+02  0.24405722970E+03  0.89124074916E+02 0.  0.
          2    1    3    3  502    0 -0.10968631862E+01  0.88625742394E+00  0.75392527179E+01  0.76699995186E+01  0.00000000000E+00 0. -1.
         -1    1    3    3    0  502 -0.71120149658E+02  0.12553013197E+03 -0.16578230139E+03  0.21977183890E+03  0.00000000000E+00 0.  1.
         11    1    5    5    0    0 -0.27721761261E+02 -0.45452491862E+02  0.29784276471E+03  0.30256360910E+03  0.00000000000E+00 0. -1.
        -11    1    5    5    0    0 -0.11237648719E+03 -0.15294075462E+01  0.12294008513E+04  0.12345271431E+04  0.00000000000E+00 0.  1.
          3    1    6    6  503    0  0.25850827290E+02  0.10304862825E+02  0.24271617017E+02  0.36926506226E+02  0.00000000000E+00 0. -1.
         -3    1    6    6    0  503  0.18646443400E+03 -0.89739352810E+02 -0.90000008373E+01  0.20713072347E+03  0.00000000000E+00 0.  1.
<mgrwt>
<rscale>  0 0.14554118E+04</rscale>
<asrwt>0</asrwt>
<pdfrwt beam="1">  1        2 0.26098938E+00 0.14554118E+04</pdfrwt>
<pdfrwt beam="2">  1       -1 0.48024434E-01 0.14554118E+04</pdfrwt>
<totfact> 0.47146104E+01</totfact>
</mgrwt>
</event>
<event>
12    6  0.1450532E-007  0.2534008E+04  0.7818608E-02  0.8390969E-01
         -1   -1    0    0    0  501 -0.00000000000E+00  0.00000000000E+00  0.12595443170E+04  0.12595443170E+04  0.00000000000E+00 0.  1.
          2   -1    0    0  501    0  0.00000000000E+00 -0.00000000000E+00 -0.12745082942E+04  0.12745082942E+04  0.00000000000E+00 0. -1.
         24    2    1    2    0    0  0.60072191739E+03 -0.43282985992E+03 -0.80535994776E+03  0.10968321313E+04  0.78914949194E+02 0.  0.
        254    2    1    2    0    0 -0.60072191739E+03  0.43282985992E+03  0.79039597062E+03  0.14372204799E+04  0.94481130797E+03 0.  0.
         23    2    4    4    0    0  0.45055600219E+02  0.19572875658E+03 -0.15136467469E+03  0.26735243825E+03  0.90698997961E+02 0.  0.
         23    2    4    4    0    0 -0.64577751761E+03  0.23710110334E+03  0.94176064531E+03  0.11698680416E+04  0.91829114402E+02 0.  0.
          2    1    3    3  502    0  0.35237222569E+03 -0.25518128276E+03 -0.41522498856E+03  0.60141122673E+03  0.00000000000E+00 0. -1.
         -1    1    3    3    0  502  0.24834969170E+03 -0.17764857716E+03 -0.39013495920E+03  0.49542090462E+03  0.00000000000E+00 0.  1.
         11    1    5    5    0    0  0.22468234674E+02  0.35283422489E+02  0.50637922624E+01  0.42135299500E+02  0.00000000000E+00 0.  1.
        -11    1    5    5    0    0  0.22587365546E+02  0.16044533409E+03 -0.15642846695E+03  0.22521713875E+03  0.00000000000E+00 0. -1.
          3    1    6    6  503    0 -0.41773632424E+03  0.19907630621E+03  0.61891762398E+03  0.77278330569E+03  0.00000000000E+00 0. -1.
         -3    1    6    6    0  503 -0.22804119337E+03  0.38024797126E+02  0.32284302133E+03  0.39708473591E+03  0.00000000000E+00 0.  1.
<mgrwt>
<rscale>  0 0.25340084E+04</rscale>
<asrwt>0</asrwt>
<pdfrwt beam="1">  1        2 0.19607820E+00 0.25340084E+04</pdfrwt>
<pdfrwt beam="2">  1       -1 0.19377605E+00 0.25340084E+04</pdfrwt>
<totfact> 0.28828731E+00</totfact>
</mgrwt>
</event>
<event>
12    6  0.1450532E-007  0.2605028E+04  0.7818608E-02  0.8366495E-01
         -1   -1    0    0    0  501 -0.00000000000E+00  0.00000000000E+00  0.14306380195E+04  0.14306380195E+04  0.00000000000E+00 0.  1.
          2   -1    0    0  501    0  0.00000000000E+00 -0.00000000000E+00 -0.11858641005E+04  0.11858641005E+04  0.00000000000E+00 0. -1.
         24    2    1    2    0    0  0.13741527451E+03  0.27051958590E+03  0.12190414849E+04  0.12588805355E+04  0.81573627476E+02 0.  0.
        254    2    1    2    0    0 -0.13741527451E+03 -0.27051958590E+03 -0.97426756591E+03  0.13576215845E+04  0.89547488669E+03 0.  0.
         23    2    4    4    0    0 -0.41735308096E+03 -0.37783207754E+03 -0.37800255297E+03  0.68404618853E+03  0.89958796038E+02 0.  0.
         23    2    4    4    0    0  0.27993780644E+03  0.10731249164E+03 -0.59626501294E+03  0.67357539597E+03  0.91053292456E+02 0.  0.
          2    1    3    3  502    0  0.55610380537E+02  0.14282561590E+03  0.46076970877E+03  0.48559282892E+03  0.00000000000E+00 0. -1.
         -1    1    3    3    0  502  0.81804893977E+02  0.12769397001E+03  0.75827177609E+03  0.77328770653E+03  0.00000000000E+00 0.  1.
         11    1    5    5    0    0 -0.37711837136E+03 -0.36836301748E+03 -0.33616019127E+03  0.62523055976E+03  0.00000000000E+00 0. -1.
        -11    1    5    5    0    0 -0.40234709595E+02 -0.94690600623E+01 -0.41842361697E+02  0.58815628765E+02  0.00000000000E+00 0.  1.
          4    1    6    6  503    0  0.21432856292E+03  0.56968348255E+02 -0.49796138397E+03  0.54511252555E+03  0.00000000000E+00 0. -1.
         -4    1    6    6    0  503  0.65609243521E+02  0.50344143383E+02 -0.98303628963E+02  0.12846287042E+03  0.00000000000E+00 0.  1.
<mgrwt>
<rscale>  0 0.26050277E+04</rscale>
<asrwt>0</asrwt>
<pdfrwt beam="1">  1        2 0.18244063E+00 0.26050277E+04</pdfrwt>
<pdfrwt beam="2">  1       -1 0.22009816E+00 0.26050277E+04</pdfrwt>
<totfact> 0.21385075E+00</totfact>
</mgrwt>
</event>
<event>
12    6  0.1450532E-007  0.1142398E+04  0.7818608E-02  0.9164826E-01
          2   -1    0    0  501    0  0.00000000000E+00  0.00000000000E+00  0.20634589066E+04  0.20634589066E+04  0.00000000000E+00 0. -1.
         -1   -1    0    0    0  501 -0.00000000000E+00 -0.00000000000E+00 -0.15811708034E+03  0.15811708034E+03  0.00000000000E+00 0.  1.
         24    2    1    2    0    0 -0.12553999043E+03  0.91144325945E+02  0.13235162427E+03  0.21998230412E+03  0.82508692457E+02 0.  0.
        254    2    1    2    0    0  0.12553999043E+03 -0.91144325945E+02  0.17729902019E+04  0.20015936828E+04  0.91586867913E+03 0.  0.
         23    2    4    4    0    0  0.34742755280E+03 -0.17130398325E+03  0.27859754296E+03  0.48595149834E+03  0.92094020835E+02 0.  0.
         23    2    4    4    0    0 -0.22188756238E+03  0.80159657304E+02  0.14943926590E+04  0.15156421844E+04  0.91116140307E+02 0.  0.
          2    1    3    3  502    0 -0.77424439566E+02  0.31174317306E+02  0.11338251467E+03  0.14079054136E+03  0.00000000000E+00 0. -1.
         -1    1    3    3    0  502 -0.48115550862E+02  0.59970008639E+02  0.18969109594E+02  0.79191762764E+02  0.00000000000E+00 0.  1.
         11    1    5    5    0    0  0.99599750273E+02 -0.84030406710E+02  0.56990135601E+02  0.14222902328E+03  0.00000000000E+00 0. -1.
        -11    1    5    5    0    0  0.24782780253E+03 -0.87273576539E+02  0.22160740736E+03  0.34372247507E+03  0.00000000000E+00 0.  1.
          4    1    6    6  503    0 -0.32892902705E+02  0.34286237039E+02  0.51091721083E+03  0.51312170624E+03  0.00000000000E+00 0. -1.
         -4    1    6    6    0  503 -0.18899465967E+03  0.45873420265E+02  0.98347544815E+03  0.10025204782E+04  0.00000000000E+00 0.  1.
<mgrwt>
<rscale>  0 0.11423977E+04</rscale>
<asrwt>0</asrwt>
<pdfrwt beam="1">  1        2 0.31745520E+00 0.11423977E+04</pdfrwt>
<pdfrwt beam="2">  1       -1 0.24325706E-01 0.11423977E+04</pdfrwt>
<totfact> 0.10223012E+02</totfact>
</mgrwt>
</event>
<event>
12    6  0.1450532E-007  0.1836585E+04  0.7818608E-02  0.8687082E-01
          2   -1    0    0  501    0  0.00000000000E+00  0.00000000000E+00  0.57310024121E+03  0.57310024121E+03  0.00000000000E+00 0. -1.
         -1   -1    0    0    0  501 -0.00000000000E+00 -0.00000000000E+00 -0.14714029410E+04  0.14714029410E+04  0.00000000000E+00 0.  1.
         24    2    1    2    0    0  0.18303703286E+03 -0.42027473445E+03 -0.89275988094E+03  0.10069899822E+04  0.82916895082E+02 0.  0.
        254    2    1    2    0    0 -0.18303703286E+03  0.42027473445E+03 -0.55428188461E+01  0.10375132000E+04  0.93073600417E+03 0.  0.
         23    2    4    4    0    0 -0.12289904912E+03  0.69770795439E+03  0.10119905982E+03  0.72131865268E+03  0.90325982413E+02 0.  0.
         23    2    4    4    0    0 -0.60137983742E+02 -0.27743321994E+03 -0.10674187867E+03  0.31619454729E+03  0.89439333962E+02 0.  0.
          4    1    3    3  502    0 -0.18660163721E+01 -0.66793554828E+02 -0.13557677088E+03  0.15114867444E+03  0.00000000000E+00 0. -1.
         -3    1    3    3    0  502  0.18490304924E+03 -0.35348117962E+03 -0.75718311006E+03  0.85584130779E+03  0.00000000000E+00 0.  1.
         11    1    5    5    0    0 -0.31825369125E+01  0.22208419745E+03  0.91417318059E+01  0.22229505293E+03  0.00000000000E+00 0. -1.
        -11    1    5    5    0    0 -0.11971651221E+03  0.47562375694E+03  0.92057328014E+02  0.49902359975E+03  0.00000000000E+00 0.  1.
          3    1    6    6  503    0 -0.26633574330E+02 -0.16656743903E+02  0.24357566072E+01  0.31507575427E+02  0.00000000000E+00 0. -1.
         -3    1    6    6    0  503 -0.33504409413E+02 -0.26077647604E+03 -0.10917763527E+03  0.28468697186E+03  0.00000000000E+00 0.  1.
<mgrwt>
<rscale>  0 0.18365853E+04</rscale>
<asrwt>0</asrwt>
<pdfrwt beam="1">  1        2 0.88169270E-01 0.18365853E+04</pdfrwt>
<pdfrwt beam="2">  1       -1 0.22636968E+00 0.18365853E+04</pdfrwt>
<totfact> 0.56231811E+00</totfact>
</mgrwt>
</event>
<event>
12    6  0.1450532E-007  0.1553386E+04  0.7818608E-02  0.8849708E-01
         -1   -1    0    0    0  501 -0.00000000000E+00  0.00000000000E+00  0.43667532813E+03  0.43667532813E+03  0.00000000000E+00 0.  1.
          2   -1    0    0  501    0  0.00000000000E+00 -0.00000000000E+00 -0.13814660617E+04  0.13814660617E+04  0.00000000000E+00 0. -1.
         24    2    1    2    0    0  0.37315673227E+03  0.22576029975E+03 -0.63386833664E+03  0.77343831552E+03  0.78766109062E+02 0.  0.
        254    2    1    2    0    0 -0.37315673227E+03 -0.22576029975E+03 -0.31092239692E+03  0.10447030743E+04  0.89694933901E+03 0.  0.
         23    2    4    4    0    0 -0.46198804072E+03 -0.92280440997E+02 -0.55748356305E+03  0.73629370895E+03  0.96911677421E+02 0.  0.
         23    2    4    4    0    0  0.88831308450E+02 -0.13347985875E+03  0.24656116612E+03  0.30840936534E+03  0.92822701613E+02 0.  0.
          4    1    3    3  502    0  0.20552173896E+03  0.94588185514E+02 -0.27401934304E+03  0.35534871660E+03  0.00000000000E+00 0. -1.
         -3    1    3    3    0  502  0.16763499331E+03  0.13117211424E+03 -0.35984899360E+03  0.41808959893E+03  0.00000000000E+00 0.  1.
         11    1    5    5    0    0 -0.19947893483E+03  0.24428726320E+01 -0.26914191255E+03  0.33501519690E+03  0.00000000000E+00 0.  1.
        -11    1    5    5    0    0 -0.26250910589E+03 -0.94723313629E+02 -0.28834165050E+03  0.40127851205E+03  0.00000000000E+00 0. -1.
          1    1    6    6  503    0  0.38581186320E+01  0.12743209601E+02  0.66552279052E+01  0.14885110976E+02  0.00000000000E+00 0. -1.
         -1    1    6    6    0  503  0.84973189818E+02 -0.14622306835E+03  0.23990593822E+03  0.29352425436E+03  0.00000000000E+00 0.  1.
<mgrwt>
<rscale>  0 0.15533862E+04</rscale>
<asrwt>0</asrwt>
<pdfrwt beam="1">  1        2 0.21253324E+00 0.15533862E+04</pdfrwt>
<pdfrwt beam="2">  1       -1 0.67180820E-01 0.15533862E+04</pdfrwt>
<totfact> 0.36504945E+01</totfact>
</mgrwt>
</event>
<event>
12    6  0.1450532E-007  0.3222235E+04  0.7818608E-02  0.8182970E-01
          2   -1    0    0  501    0  0.00000000000E+00  0.00000000000E+00  0.26104917298E+04  0.26104917298E+04  0.00000000000E+00 0. -1.
         -1   -1    0    0    0  501 -0.00000000000E+00 -0.00000000000E+00 -0.99433361440E+03  0.99433361440E+03  0.00000000000E+00 0.  1.
         24    2    1    2    0    0  0.11192681596E+04 -0.78946354779E+03  0.11097218075E+03  0.13767989143E+04  0.85126489606E+02 0.  0.
        254    2    1    2    0    0 -0.11192681596E+04  0.78946354779E+03  0.15051859347E+04  0.22280264299E+04  0.90691960405E+03 0.  0.
         23    2    4    4    0    0 -0.10736655574E+03  0.53040455127E+03  0.77735115074E+03  0.95163703785E+03  0.92096009392E+02 0.  0.
         23    2    4    4    0    0 -0.10119016038E+04  0.25905899652E+03  0.72783478393E+03  0.12763893921E+04  0.91487638605E+02 0.  0.
          4    1    3    3  502    0  0.42392811270E+03 -0.28302504359E+03  0.80488597487E+02  0.51603937288E+03  0.00000000000E+00 0. -1.
         -3    1    3    3    0  502  0.69534004686E+03 -0.50643850420E+03  0.30483583263E+02  0.86075954142E+03  0.00000000000E+00 0.  1.
         11    1    5    5    0    0 -0.12308327080E+03  0.43561969992E+03  0.65057798444E+03  0.79256906850E+03  0.00000000000E+00 0.  1.
        -11    1    5    5    0    0  0.15716715058E+02  0.94784851355E+02  0.12677316631E+03  0.15906796935E+03  0.00000000000E+00 0. -1.
          2    1    6    6  503    0 -0.93233132896E+03  0.26340916705E+03  0.67046578817E+03  0.11781979754E+04  0.00000000000E+00 0. -1.
         -2    1    6    6    0  503 -0.79570274855E+02 -0.43501705297E+01  0.57368995766E+02  0.98191416628E+02  0.00000000000E+00 0.  1.
<mgrwt>
<rscale>  0 0.32222350E+04</rscale>
<asrwt>0</asrwt>
<pdfrwt beam="1">  1        2 0.40161411E+00 0.32222350E+04</pdfrwt>
<pdfrwt beam="2">  1       -1 0.15297440E+00 0.32222350E+04</pdfrwt>
<totfact> 0.94764985E-01</totfact>
</mgrwt>
</event>
<event>
12    6  0.1450532E-007  0.1506017E+04  0.7818608E-02  0.8880462E-01
          2   -1    0    0  501    0  0.00000000000E+00  0.00000000000E+00  0.47782703953E+03  0.47782703953E+03  0.00000000000E+00 0. -1.
         -1   -1    0    0    0  501 -0.00000000000E+00 -0.00000000000E+00 -0.11866672875E+04  0.11866672875E+04  0.00000000000E+00 0.  1.
         24    2    1    2    0    0 -0.25126167887E+03 -0.49884891417E+02 -0.67282999637E+03  0.72444223458E+03  0.80594128598E+02 0.  0.
        254    2    1    2    0    0  0.25126167887E+03  0.49884891417E+02 -0.36010251628E+02  0.94005209247E+03  0.90375896382E+03 0.  0.
         23    2    4    4    0    0  0.22391449167E+03 -0.22096533132E+02  0.41067318791E+03  0.47776543572E+03  0.94770184905E+02 0.  0.
         23    2    4    4    0    0  0.27347187203E+02  0.71981424550E+02 -0.44668343954E+03  0.46228665675E+03  0.90849676507E+02 0.  0.
          4    1    3    3  502    0 -0.40719257400E+02 -0.40029180524E+02 -0.16538761548E+03  0.17496701566E+03  0.00000000000E+00 0. -1.
         -3    1    3    3    0  502 -0.21054242147E+03 -0.98557108929E+01 -0.50744238090E+03  0.54947521892E+03  0.00000000000E+00 0.  1.
         11    1    5    5    0    0  0.11834716896E+03 -0.57342068432E+02  0.24718024294E+03  0.27998613842E+03  0.00000000000E+00 0. -1.
        -11    1    5    5    0    0  0.10556732271E+03  0.35245535300E+02  0.16349294498E+03  0.19777929730E+03  0.00000000000E+00 0.  1.
          4    1    6    6  503    0 -0.31381181203E+02  0.31956150079E+02 -0.12321674742E+03  0.13110431307E+03  0.00000000000E+00 0. -1.
         -4    1    6    6    0  503  0.58728368406E+02  0.40025274470E+02 -0.32346669212E+03  0.33118234368E+03  0.00000000000E+00 0.  1.
<mgrwt>
<rscale>  0 0.15060169E+04</rscale>
<asrwt>0</asrwt>
<pdfrwt beam="1">  1        2 0.73511853E-01 0.15060169E+04</pdfrwt>
<pdfrwt beam="2">  1       -1 0.18256420E+00 0.15060169E+04</pdfrwt>
<totfact> 0.14296290E+01</totfact>
</mgrwt>
</event>
<event>
12    6  0.1450532E-007  0.1546083E+04  0.7818608E-02  0.8854373E-01
          2   -1    0    0  501    0  0.00000000000E+00  0.00000000000E+00  0.59310939571E+03  0.59310939571E+03  0.00000000000E+00 0. -1.
         -1   -1    0    0    0  501 -0.00000000000E+00 -0.00000000000E+00 -0.10075600934E+04  0.10075600934E+04  0.00000000000E+00 0.  1.
         24    2    1    2    0    0 -0.48342291701E+03 -0.94632465787E+02 -0.25407058840E+03  0.55989370058E+03  0.79221662351E+02 0.  0.
        254    2    1    2    0    0  0.48342291701E+03  0.94632465787E+02 -0.16038010927E+03  0.10407757885E+04  0.90268457516E+03 0.  0.
         23    2    4    4    0    0 -0.12214936455E+03 -0.17940901002E+03 -0.27340156004E+03  0.36040224192E+03  0.89628694165E+02 0.  0.
         23    2    4    4    0    0  0.60557228157E+03  0.27404147580E+03  0.11302145077E+03  0.68037354659E+03  0.91201951181E+02 0.  0.
          4    1    3    3  502    0 -0.81303962492E+02 -0.52192609441E+01 -0.12719797562E+02  0.82458281886E+02  0.00000000000E+00 0. -1.
         -3    1    3    3    0  502 -0.40211895452E+03 -0.89413204843E+02 -0.24135079084E+03  0.47743541870E+03  0.00000000000E+00 0.  1.
         11    1    5    5    0    0 -0.36492081550E+02 -0.39494698431E+02 -0.13657472416E+03  0.14677928498E+03  0.00000000000E+00 0. -1.
        -11    1    5    5    0    0 -0.85657283001E+02 -0.13991431158E+03 -0.13682683588E+03  0.21362295695E+03  0.00000000000E+00 0.  1.
          2    1    6    6  503    0  0.18131970652E+03  0.72199178889E+02 -0.76117122024E+01  0.19531383865E+03  0.00000000000E+00 0. -1.
         -2    1    6    6    0  503  0.42425257505E+03  0.20184229691E+03  0.12063316297E+03  0.48505970794E+03  0.00000000000E+00 0.  1.
<mgrwt>
<rscale>  0 0.15460833E+04</rscale>
<asrwt>0</asrwt>
<pdfrwt beam="1">  1        2 0.91247600E-01 0.15460833E+04</pdfrwt>
<pdfrwt beam="2">  1       -1 0.15500924E+00 0.15460833E+04</pdfrwt>
<totfact> 0.17656390E+01</totfact>
</mgrwt>
</event>
<event>
12    6  0.1450532E-007  0.2802949E+04  0.7818608E-02  0.8302353E-01
         -1   -1    0    0    0  501 -0.00000000000E+00  0.00000000000E+00  0.15606797583E+04  0.15606797583E+04  0.00000000000E+00 0.  1.
          2   -1    0    0  501    0  0.00000000000E+00 -0.00000000000E+00 -0.12585096806E+04  0.12585096806E+04  0.00000000000E+00 0. -1.
         24    2    1    2    0    0 -0.48985697228E+03  0.23376034338E+03 -0.10018472472E+04  0.11421838055E+04  0.79260251901E+02 0.  0.
        254    2    1    2    0    0  0.48985697228E+03 -0.23376034338E+03  0.13040173248E+04  0.16770056333E+04  0.90403703424E+03 0.  0.
         23    2    4    4    0    0  0.61173813515E+03 -0.29226363249E+03  0.47638292779E+03  0.83354639754E+03  0.90649468245E+02 0.  0.
         23    2    4    4    0    0 -0.12188116287E+03  0.58503289116E+02  0.82763439705E+03  0.84345923578E+03  0.90372199979E+02 0.  0.
          2    1    3    3  502    0 -0.19415842477E+03  0.13612564464E+03 -0.43587083060E+03  0.49619660015E+03  0.00000000000E+00 0. -1.
         -1    1    3    3    0  502 -0.29569854752E+03  0.97634698736E+02 -0.56597641658E+03  0.64598720539E+03  0.00000000000E+00 0.  1.
         11    1    5    5    0    0  0.12364310746E+03 -0.22616190542E+02  0.10235497721E+03  0.16209766024E+03  0.00000000000E+00 0. -1.
        -11    1    5    5    0    0  0.48809502770E+03 -0.26964744195E+03  0.37402795058E+03  0.67144873731E+03  0.00000000000E+00 0.  1.
          2    1    6    6  503    0 -0.99172459915E+02  0.78917562448E+02  0.73702394011E+03  0.74784185946E+03  0.00000000000E+00 0.  1.
         -2    1    6    6    0  503 -0.22708702955E+02 -0.20414273332E+02  0.90610456941E+02  0.95617376311E+02  0.00000000000E+00 0. -1.
<mgrwt>
<rscale>  0 0.28029489E+04</rscale>
<asrwt>0</asrwt>
<pdfrwt beam="1">  1        2 0.19361688E+00 0.28029489E+04</pdfrwt>
<pdfrwt beam="2">  1       -1 0.24010458E+00 0.28029489E+04</pdfrwt>
<totfact> 0.14026890E+00</totfact>
</mgrwt>
</event>
<event>
12    6  0.1450532E-007  0.2205606E+04  0.7818608E-02  0.8516099E-01
         -1   -1    0    0    0  501 -0.00000000000E+00  0.00000000000E+00  0.92513946684E+03  0.92513946684E+03  0.00000000000E+00 0.  1.
          2   -1    0    0  501    0  0.00000000000E+00 -0.00000000000E+00 -0.13145844213E+04  0.13145844213E+04  0.00000000000E+00 0. -1.
         24    2    1    2    0    0 -0.16303785420E+03 -0.45005529633E+03 -0.95895582058E+03  0.10747341631E+04  0.79537059750E+02 0.  0.
        254    2    1    2    0    0  0.16303785420E+03  0.45005529633E+03  0.56951086614E+03  0.11649897250E+04  0.89650840549E+03 0.  0.
         23    2    4    4    0    0 -0.93794190948E+02 -0.22179430627E+03  0.28859963523E+03  0.38679041586E+03  0.91252461892E+02 0.  0.
         23    2    4    4    0    0  0.25683204515E+03  0.67184960259E+03  0.28091123091E+03  0.77819930916E+03  0.96635693246E+02 0.  0.
          2    1    3    3  502    0 -0.17162725793E+03 -0.41789139243E+03 -0.90035449674E+03  0.10073367616E+04  0.00000000000E+00 0. -1.
         -1    1    3    3    0  502  0.85894037264E+01 -0.32163903898E+02 -0.58601323838E+02  0.67397401477E+02  0.00000000000E+00 0.  1.
         11    1    5    5    0    0 -0.31651865402E+02 -0.17392334660E+02  0.81971872159E+02  0.89575229353E+02  0.00000000000E+00 0. -1.
        -11    1    5    5    0    0 -0.62142325546E+02 -0.20440197161E+03  0.20662776307E+03  0.29721518651E+03  0.00000000000E+00 0.  1.
          3    1    6    6  503    0  0.66174514098E+02  0.18834349759E+03  0.32915973475E+02  0.20232597636E+03  0.00000000000E+00 0. -1.
         -3    1    6    6    0  503  0.19065753105E+03  0.48350610500E+03  0.24799525743E+03  0.57587333280E+03  0.00000000000E+00 0.  1.
<mgrwt>
<rscale>  0 0.22056055E+04</rscale>
<asrwt>0</asrwt>
<pdfrwt beam="1">  1        2 0.20224376E+00 0.22056055E+04</pdfrwt>
<pdfrwt beam="2">  1       -1 0.14232915E+00 0.22056055E+04</pdfrwt>
<totfact> 0.67753080E+00</totfact>
</mgrwt>
</event>
<event>
12    6  0.1450532E-007  0.1751284E+04  0.7818608E-02  0.8732644E-01
          2   -1    0    0  501    0  0.00000000000E+00  0.00000000000E+00  0.45262532955E+04  0.45262532955E+04  0.00000000000E+00 0. -1.
         -1   -1    0    0    0  501 -0.00000000000E+00 -0.00000000000E+00 -0.16940037249E+03  0.16940037249E+03  0.00000000000E+00 0.  1.
         24    2    1    2    0    0 -0.43154374075E+03  0.24358920049E+02  0.33534577140E+03  0.55359076754E+03  0.84750187872E+02 0.  0.
        254    2    1    2    0    0  0.43154374075E+03 -0.24358920049E+02  0.40215071516E+04  0.41420629005E+04  0.89294005601E+03 0.  0.
         23    2    4    4    0    0 -0.91990756827E+02  0.31831334497E+03  0.10820625756E+04  0.11353915961E+04  0.92027029045E+02 0.  0.
         23    2    4    4    0    0  0.52353449757E+03 -0.34267226502E+03  0.29394445760E+04  0.30066713044E+04  0.90693249546E+02 0.  0.
          4    1    3    3  502    0 -0.19711528928E+02  0.20277924243E+02  0.27022857534E+02  0.39114874582E+02  0.00000000000E+00 0. -1.
         -3    1    3    3    0  502 -0.41183221182E+03  0.40809958062E+01  0.30832291387E+03  0.51447589296E+03  0.00000000000E+00 0.  1.
         11    1    5    5    0    0 -0.10508171249E+03  0.27105163023E+03  0.97910223929E+03  0.10213482988E+04  0.00000000000E+00 0. -1.
        -11    1    5    5    0    0  0.13090955660E+02  0.47261714739E+02  0.10296033630E+03  0.11404329726E+03  0.00000000000E+00 0.  1.
          1    1    6    6  503    0  0.27822980794E+03 -0.23407132389E+03  0.16393986501E+04  0.16792346901E+04  0.00000000000E+00 0. -1.
         -1    1    6    6    0  503  0.24530468963E+03 -0.10860094112E+03  0.13000459260E+04  0.13274366142E+04  0.00000000000E+00 0.  1.
<mgrwt>
<rscale>  0 0.17512841E+04</rscale>
<asrwt>0</asrwt>
<pdfrwt beam="1">  1        2 0.69634657E+00 0.17512841E+04</pdfrwt>
<pdfrwt beam="2">  1       -1 0.26061599E-01 0.17512841E+04</pdfrwt>
<totfact> 0.16726618E+00</totfact>
</mgrwt>
</event>
<event>
12    6  0.1450532E-007  0.1435130E+04  0.7818608E-02  0.8928775E-01
         -1   -1    0    0    0  501 -0.00000000000E+00  0.00000000000E+00  0.23255850909E+03  0.23255850909E+03  0.00000000000E+00 0.  1.
          2   -1    0    0  501    0  0.00000000000E+00 -0.00000000000E+00 -0.22140650730E+04  0.22140650730E+04  0.00000000000E+00 0. -1.
         24    2    1    2    0    0  0.67261485067E+01 -0.39071909450E+03 -0.30197513177E+03  0.50011721807E+03  0.78877117897E+02 0.  0.
        254    2    1    2    0    0 -0.67261485067E+01  0.39071909450E+03 -0.16795314321E+04  0.19465063640E+04  0.90296984539E+03 0.  0.
         23    2    4    4    0    0  0.21420609742E+03 -0.85024732491E+02 -0.79615844955E+02  0.26027158907E+03  0.91044824134E+02 0.  0.
         23    2    4    4    0    0 -0.22093224593E+03  0.47574382699E+03 -0.15999155871E+04  0.16862347749E+04  0.92274502844E+02 0.  0.
          2    1    3    3  502    0  0.66285033241E+01 -0.40935590317E+02 -0.59724787953E+01  0.41896659937E+02  0.00000000000E+00 0. -1.
         -3    1    3    3    0  502  0.97645182590E-01 -0.34978350418E+03 -0.29600265297E+03  0.45822055813E+03  0.00000000000E+00 0.  1.
         11    1    5    5    0    0  0.85774049340E+02 -0.32438630896E+02 -0.79690484785E+02  0.12149084607E+03  0.00000000000E+00 0. -1.
        -11    1    5    5    0    0  0.12843204808E+03 -0.52586101595E+02  0.74639829859E-01  0.13878074300E+03  0.00000000000E+00 0.  1.
          1    1    6    6  503    0 -0.14005616111E+03  0.24217246003E+03 -0.72598191060E+03  0.77801861364E+03  0.00000000000E+00 0. -1.
         -1    1    6    6    0  503 -0.80876084824E+02  0.23357136696E+03 -0.87393367655E+03  0.90821616126E+03  0.00000000000E+00 0.  1.
<mgrwt>
<rscale>  0 0.14351302E+04</rscale>
<asrwt>0</asrwt>
<pdfrwt beam="1">  1        2 0.34062538E+00 0.14351302E+04</pdfrwt>
<pdfrwt beam="2">  1       -1 0.35778234E-01 0.14351302E+04</pdfrwt>
<totfact> 0.41881288E+01</totfact>
</mgrwt>
</event>
<event>
12    6  0.1450532E-007  0.1313938E+04  0.7818608E-02  0.9018584E-01
          2   -1    0    0  501    0  0.00000000000E+00  0.00000000000E+00  0.71415108984E+03  0.71415108984E+03  0.00000000000E+00 0. -1.
         -1   -1    0    0    0  501 -0.00000000000E+00 -0.00000000000E+00 -0.60436587981E+03  0.60436587981E+03  0.00000000000E+00 0.  1.
         24    2    1    2    0    0  0.31491771324E+03 -0.38324929417E+02 -0.96155115973E+02  0.34035578941E+03  0.77164050768E+02 0.  0.
        254    2    1    2    0    0 -0.31491771324E+03  0.38324929417E+02  0.20594032600E+03  0.97816118024E+03  0.90207866084E+03 0.  0.
         23    2    4    4    0    0 -0.18629161404E+03  0.25740420864E+03  0.48688234636E+03  0.58862627639E+03  0.92005336651E+02 0.  0.
         23    2    4    4    0    0 -0.12862609920E+03 -0.21907927922E+03 -0.28094202036E+03  0.38953490385E+03  0.90931944540E+02 0.  0.
          4    1    3    3  502    0  0.23952705457E+03 -0.34753677648E+02 -0.37836772650E+02  0.24497479328E+03  0.00000000000E+00 0. -1.
         -3    1    3    3    0  502  0.75390658670E+02 -0.35712517694E+01 -0.58318343324E+02  0.95380996126E+02  0.00000000000E+00 0.  1.
         11    1    5    5    0    0 -0.18404268526E+03  0.24793401824E+03  0.42136657627E+03  0.52239140403E+03  0.00000000000E+00 0.  1.
        -11    1    5    5    0    0 -0.22489287785E+01  0.94701903951E+01  0.65515770091E+02  0.66234872366E+02  0.00000000000E+00 0. -1.
          2    1    6    6  503    0 -0.12993383670E+02  0.73869963400E+01 -0.22181329018E+02  0.26747095004E+02  0.00000000000E+00 0. -1.
         -2    1    6    6    0  503 -0.11563271553E+03 -0.22646627556E+03 -0.25876069134E+03  0.36278780885E+03  0.00000000000E+00 0.  1.
<mgrwt>
<rscale>  0 0.13139384E+04</rscale>
<asrwt>0</asrwt>
<pdfrwt beam="1">  1        2 0.10986940E+00 0.13139384E+04</pdfrwt>
<pdfrwt beam="2">  1       -1 0.92979366E-01 0.13139384E+04</pdfrwt>
<totfact> 0.50219845E+01</totfact>
</mgrwt>
</event>
<event>
12    6  0.1450532E-007  0.1539831E+04  0.7818608E-02  0.8858389E-01
          2   -1    0    0  501    0  0.00000000000E+00  0.00000000000E+00  0.69266772543E+03  0.69266772543E+03  0.00000000000E+00 0. -1.
         -1   -1    0    0    0  501 -0.00000000000E+00 -0.00000000000E+00 -0.85577795299E+03  0.85577795299E+03  0.00000000000E+00 0.  1.
         24    2    1    2    0    0 -0.14029047511E+03 -0.48631823933E+03 -0.40626920302E+02  0.51447624165E+03  0.82755116198E+02 0.  0.
        254    2    1    2    0    0  0.14029047511E+03  0.48631823933E+03 -0.12248330725E+03  0.10339694368E+04  0.89325460442E+03 0.  0.
         23    2    4    4    0    0  0.11415336327E+01  0.39664234987E+03 -0.48050292890E+03  0.63001781377E+03  0.93343045696E+02 0.  0.
         23    2    4    4    0    0  0.13914894148E+03  0.89675889460E+02  0.35801962165E+03  0.40395162300E+03  0.87147410598E+02 0.  0.
          2    1    3    3  502    0 -0.14579373061E+03 -0.47186774062E+03 -0.28276227610E+02  0.49468628601E+03  0.00000000000E+00 0. -1.
         -1    1    3    3    0  502  0.55032554989E+01 -0.14450498709E+02 -0.12350692692E+02  0.19789955634E+02  0.00000000000E+00 0.  1.
         11    1    5    5    0    0 -0.25815203434E+02  0.14451850146E+03 -0.12185496343E+03  0.19078955450E+03  0.00000000000E+00 0. -1.
        -11    1    5    5    0    0  0.26956737067E+02  0.25212384841E+03 -0.35864796547E+03  0.43922825927E+03  0.00000000000E+00 0.  1.
          4    1    6    6  503    0  0.70032404035E+02  0.38013345157E+01  0.19438103497E+03  0.20664698042E+03  0.00000000000E+00 0. -1.
         -4    1    6    6    0  503  0.69116537446E+02  0.85874554944E+02  0.16363858668E+03  0.19730464258E+03  0.00000000000E+00 0.  1.
<mgrwt>
<rscale>  0 0.15398309E+04</rscale>
<asrwt>0</asrwt>
<pdfrwt beam="1">  1        2 0.10656427E+00 0.15398309E+04</pdfrwt>
<pdfrwt beam="2">  1       -1 0.13165815E+00 0.15398309E+04</pdfrwt>
<totfact> 0.22441525E+01</totfact>
</mgrwt>
</event>
<event>
12    6  0.1450532E-007  0.2198867E+04  0.7818608E-02  0.8518900E-01
         -1   -1    0    0    0  501 -0.00000000000E+00  0.00000000000E+00  0.93768342889E+03  0.93768342889E+03  0.00000000000E+00 0.  1.
          2   -1    0    0  501    0  0.00000000000E+00 -0.00000000000E+00 -0.12890848699E+04  0.12890848699E+04  0.00000000000E+00 0. -1.
         24    2    1    2    0    0 -0.17176179564E+03  0.29679407000E+03 -0.95969305660E+03  0.10222979661E+04  0.80582468793E+02 0.  0.
        254    2    1    2    0    0  0.17176179564E+03 -0.29679407000E+03  0.60829161564E+03  0.12044703326E+04  0.98139760445E+03 0.  0.
         23    2    4    4    0    0 -0.70060713147E+01  0.29228154471E+03 -0.34674055969E+02  0.30878448071E+03  0.93101981483E+02 0.  0.
         23    2    4    4    0    0  0.17876786696E+03 -0.58907561471E+03  0.64296567161E+03  0.89568585189E+03  0.99399498483E+02 0.  0.
          2    1    3    3  502    0 -0.87073071449E+02  0.18846103078E+03 -0.47303475059E+03  0.51658605785E+03  0.00000000000E+00 0. -1.
         -1    1    3    3    0  502 -0.84688724195E+02  0.10833303922E+03 -0.48665830601E+03  0.50571190830E+03  0.00000000000E+00 0.  1.
         11    1    5    5    0    0 -0.35655221895E+02  0.23092331162E+03 -0.21685275869E+01  0.23366979525E+03  0.00000000000E+00 0. -1.
        -11    1    5    5    0    0  0.28649150580E+02  0.61358233088E+02 -0.32505528383E+02  0.75114685462E+02  0.00000000000E+00 0.  1.
          2    1    6    6  503    0  0.15053786981E+03 -0.33094195868E+03  0.36059370441E+03  0.51206645069E+03  0.00000000000E+00 0. -1.
         -2    1    6    6    0  503  0.28229997148E+02 -0.25813365603E+03  0.28237196720E+03  0.38361940119E+03  0.00000000000E+00 0.  1.
<mgrwt>
<rscale>  0 0.21988665E+04</rscale>
<asrwt>0</asrwt>
<pdfrwt beam="1">  1        2 0.19832075E+00 0.21988665E+04</pdfrwt>
<pdfrwt beam="2">  1       -1 0.14425899E+00 0.21988665E+04</pdfrwt>
<totfact> 0.67702530E+00</totfact>
</mgrwt>
</event>
<event>
12    6  0.1450532E-007  0.1963854E+04  0.7818608E-02  0.8623709E-01
         -1   -1    0    0    0  501 -0.00000000000E+00  0.00000000000E+00  0.39198041777E+03  0.39198041777E+03  0.00000000000E+00 0.  1.
          2   -1    0    0  501    0  0.00000000000E+00 -0.00000000000E+00 -0.24597669038E+04  0.24597669038E+04  0.00000000000E+00 0. -1.
         24    2    1    2    0    0  0.11537688894E+03 -0.49236061251E+03  0.42626764394E+02  0.51390356217E+03  0.80926083074E+02 0.  0.
        254    2    1    2    0    0 -0.11537688894E+03  0.49236061251E+03 -0.21104132505E+04  0.23378437594E+04  0.86944727072E+03 0.  0.
         23    2    4    4    0    0  0.87303391058E+02 -0.77990936422E+02 -0.13645291015E+04  0.13727445888E+04  0.93720696616E+02 0.  0.
         23    2    4    4    0    0 -0.20268027999E+03  0.57035154893E+03 -0.74588414895E+03  0.96509917063E+03  0.93236582033E+02 0.  0.
          4    1    3    3  502    0  0.74740997277E+02 -0.15649105751E+03  0.23953283768E+02  0.17506977911E+03  0.00000000000E+00 0. -1.
         -3    1    3    3    0  502  0.40635891658E+02 -0.33586955500E+03  0.18673480627E+02  0.33883378306E+03  0.00000000000E+00 0.  1.
         11    1    5    5    0    0 -0.11868381600E+02  0.11266486037E+02 -0.17083131975E+03  0.17161332115E+03  0.00000000000E+00 0.  1.
        -11    1    5    5    0    0  0.99171772658E+02 -0.89257422459E+02 -0.11936977818E+04  0.12011312676E+04  0.00000000000E+00 0. -1.
          3    1    6    6  503    0 -0.12546219269E+03  0.46590170260E+03 -0.59213190471E+03  0.76382285306E+03  0.00000000000E+00 0. -1.
         -3    1    6    6    0  503 -0.77218087308E+02  0.10444984633E+03 -0.15375224424E+03  0.20127631757E+03  0.00000000000E+00 0.  1.
<mgrwt>
<rscale>  0 0.19638538E+04</rscale>
<asrwt>0</asrwt>
<pdfrwt beam="1">  1        2 0.37842568E+00 0.19638538E+04</pdfrwt>
<pdfrwt beam="2">  1       -1 0.60304678E-01 0.19638538E+04</pdfrwt>
<totfact> 0.10869082E+01</totfact>
</mgrwt>
</event>
<event>
12    6  0.1450532E-007  0.4319064E+04  0.7818608E-02  0.7943102E-01
         -1   -1    0    0    0  501 -0.00000000000E+00  0.00000000000E+00  0.17022694213E+04  0.17022694213E+04  0.00000000000E+00 0.  1.
          2   -1    0    0  501    0  0.00000000000E+00 -0.00000000000E+00 -0.27396243631E+04  0.27396243631E+04  0.00000000000E+00 0. -1.
         24    2    1    2    0    0  0.12961158873E+04  0.11501003505E+04  0.65088569901E+03  0.18527221676E+04  0.79246624128E+02 0.  0.
        254    2    1    2    0    0 -0.12961158873E+04 -0.11501003505E+04 -0.16882406408E+04  0.25891716169E+04  0.92249985951E+03 0.  0.
         23    2    4    4    0    0 -0.44500158706E+03 -0.36275184134E+03 -0.11892986577E+04  0.13236848680E+04  0.89972338832E+02 0.  0.
         23    2    4    4    0    0 -0.85111430025E+03 -0.78734850918E+03 -0.49894198306E+03  0.12654867488E+04  0.90555960542E+02 0.  0.
          4    1    3    3  502    0  0.10718403890E+04  0.94989038868E+03  0.50545345316E+03  0.15187550044E+04  0.00000000000E+00 0. -1.
         -3    1    3    3    0  502  0.22427549830E+03  0.20020996183E+03  0.14543224585E+03  0.33396716319E+03  0.00000000000E+00 0.  1.
         11    1    5    5    0    0 -0.42062476844E+03 -0.30856825502E+03 -0.10725574305E+04  0.11926940117E+04  0.00000000000E+00 0.  1.
        -11    1    5    5    0    0 -0.24376818620E+02 -0.54183586316E+02 -0.11674122724E+03  0.13099085635E+03  0.00000000000E+00 0. -1.
          4    1    6    6  503    0 -0.55059025286E+02 -0.85331203709E+02 -0.40568806529E+02  0.10935601792E+03  0.00000000000E+00 0. -1.
         -4    1    6    6    0  503 -0.79605527497E+03 -0.70201730547E+03 -0.45837317653E+03  0.11561307309E+04  0.00000000000E+00 0.  1.
<mgrwt>
<rscale>  0 0.43190641E+04</rscale>
<asrwt>0</asrwt>
<pdfrwt beam="1">  1        2 0.42148067E+00 0.43190641E+04</pdfrwt>
<pdfrwt beam="2">  1       -1 0.26188761E+00 0.43190641E+04</pdfrwt>
<totfact> 0.12812880E-01</totfact>
</mgrwt>
</event>
<event>
12    6  0.1450532E-007  0.1657596E+04  0.7818608E-02  0.8785925E-01
         -1   -1    0    0    0  501 -0.00000000000E+00  0.00000000000E+00  0.20452376992E+03  0.20452376992E+03  0.00000000000E+00 0.  1.
          2   -1    0    0  501    0  0.00000000000E+00 -0.00000000000E+00 -0.33585634863E+04  0.33585634863E+04  0.00000000000E+00 0. -1.
         24    2    1    2    0    0 -0.52675668163E+03  0.54170479971E+02 -0.60661274510E+03  0.80929739631E+03  0.81093838251E+02 0.  0.
        254    2    1    2    0    0  0.52675668163E+03 -0.54170479971E+02 -0.25474269713E+04  0.27537898599E+04  0.90197969826E+03 0.  0.
         23    2    4    4    0    0  0.34284873672E+03 -0.37934274593E+03 -0.72767613185E+03  0.89392509719E+03  0.90240519517E+02 0.  0.
         23    2    4    4    0    0  0.18390794491E+03  0.32517226596E+03 -0.18197508394E+04  0.18598647627E+04  0.89692158533E+02 0.  0.
          4    1    3    3  502    0 -0.38316674382E+02  0.19703854880E+02 -0.28375937743E+02  0.51590728582E+02  0.00000000000E+00 0. -1.
         -3    1    3    3    0  502 -0.48844000725E+03  0.34466625091E+02 -0.57823680736E+03  0.75770666772E+03  0.00000000000E+00 0.  1.
         11    1    5    5    0    0  0.34694650435E+03 -0.38022112757E+03 -0.71858221200E+03  0.88391197420E+03  0.00000000000E+00 0. -1.
        -11    1    5    5    0    0 -0.40977676266E+01  0.87838164015E+00 -0.90939198417E+01  0.10013122985E+02  0.00000000000E+00 0.  1.
          3    1    6    6  503    0  0.14868338918E+03  0.27926823072E+03 -0.16618058950E+04  0.16916549080E+04  0.00000000000E+00 0. -1.
         -3    1    6    6    0  503  0.35224555725E+02  0.45904035237E+02 -0.15794494438E+03  0.16820985474E+03  0.00000000000E+00 0.  1.
<mgrwt>
<rscale>  0 0.16575959E+04</rscale>
<asrwt>0</asrwt>
<pdfrwt beam="1">  1        2 0.51670205E+00 0.16575959E+04</pdfrwt>
<pdfrwt beam="2">  1       -1 0.31465197E-01 0.16575959E+04</pdfrwt>
<totfact> 0.10467413E+01</totfact>
</mgrwt>
</event>
<event>
12    6  0.1450532E-007  0.3299542E+04  0.7818608E-02  0.8163012E-01
         -1   -1    0    0    0  501 -0.00000000000E+00  0.00000000000E+00  0.10223203252E+04  0.10223203252E+04  0.00000000000E+00 0.  1.
          2   -1    0    0  501    0  0.00000000000E+00 -0.00000000000E+00 -0.26623202306E+04  0.26623202306E+04  0.00000000000E+00 0. -1.
         24    2    1    2    0    0 -0.10277054404E+04 -0.11270277905E+04 -0.83066322087E+03  0.17386088211E+04  0.79932055285E+02 0.  0.
        254    2    1    2    0    0  0.10277054404E+04  0.11270277905E+04 -0.80933668462E+03  0.19460317347E+04  0.89757647617E+03 0.  0.
         23    2    4    4    0    0  0.66014496371E+03  0.29086665318E+03 -0.71966908319E+03  0.10238750424E+04  0.10000865011E+03 0.  0.
         23    2    4    4    0    0  0.36756047665E+03  0.83616113736E+03 -0.89667601425E+02  0.92215669230E+03  0.89813889687E+02 0.  0.
          2    1    3    3  502    0 -0.85840584015E+03 -0.93669672039E+03 -0.72497089293E+03  0.14628206069E+04  0.00000000000E+00 0. -1.
         -1    1    3    3    0  502 -0.16929960021E+03 -0.19033107016E+03 -0.10569232794E+03  0.27578821418E+03  0.00000000000E+00 0.  1.
         11    1    5    5    0    0  0.41977114782E+03  0.20603786057E+03 -0.40258740947E+03  0.61703811777E+03  0.00000000000E+00 0.  1.
        -11    1    5    5    0    0  0.24037381589E+03  0.84828792617E+02 -0.31708167372E+03  0.40683692462E+03  0.00000000000E+00 0. -1.
          4    1    6    6  503    0  0.16435621560E+03  0.43808616415E+03 -0.89609661407E+01  0.46798798248E+03  0.00000000000E+00 0. -1.
         -4    1    6    6    0  503  0.20320426105E+03  0.39807497321E+03 -0.80706635284E+02  0.45416870983E+03  0.00000000000E+00 0.  1.
<mgrwt>
<rscale>  0 0.32995418E+04</rscale>
<asrwt>0</asrwt>
<pdfrwt beam="1">  1        2 0.40958773E+00 0.32995418E+04</pdfrwt>
<pdfrwt beam="2">  1       -1 0.15728005E+00 0.32995418E+04</pdfrwt>
<totfact> 0.81305742E-01</totfact>
</mgrwt>
</event>
<event>
12    6  0.1450532E-007  0.1697626E+04  0.7818608E-02  0.8762720E-01
         -1   -1    0    0    0  501 -0.00000000000E+00  0.00000000000E+00  0.32162397447E+03  0.32162397447E+03  0.00000000000E+00 0.  1.
          2   -1    0    0  501    0  0.00000000000E+00 -0.00000000000E+00 -0.22401413020E+04  0.22401413020E+04  0.00000000000E+00 0. -1.
         24    2    1    2    0    0 -0.10776184194E+03  0.31781260477E+03  0.64626343357E+02  0.35050097647E+03  0.77826113386E+02 0.  0.
        254    2    1    2    0    0  0.10776184194E+03 -0.31781260477E+03 -0.19831436709E+04  0.22112643000E+04  0.91881092658E+03 0.  0.
         23    2    4    4    0    0  0.11446144030E+03 -0.60542612100E+02 -0.19257479828E+04  0.19323466238E+04  0.93227420550E+02 0.  0.
         23    2    4    4    0    0 -0.66995983609E+01 -0.25726999267E+03 -0.57395688115E+02  0.27891767627E+03  0.90928935856E+02 0.  0.
          2    1    3    3  502    0 -0.10218489467E+02 -0.11244232409E+00 -0.39423363944E+01  0.10953181570E+02  0.00000000000E+00 0. -1.
         -1    1    3    3    0  502 -0.97543352469E+02  0.31792504709E+03  0.68568679752E+02  0.33954779490E+03  0.00000000000E+00 0.  1.
         11    1    5    5    0    0 -0.43194220973E+00  0.67916202940E+01 -0.57701394486E+03  0.57705407480E+03  0.00000000000E+00 0.  1.
        -11    1    5    5    0    0  0.11489338251E+03 -0.67334232394E+02 -0.13487340379E+04  0.13552925490E+04  0.00000000000E+00 0. -1.
          3    1    6    6  503    0 -0.40419160546E+02 -0.16402462016E+03 -0.61238023622E+02  0.17968828592E+03  0.00000000000E+00 0. -1.
         -3    1    6    6    0  503  0.33719562185E+02 -0.93245372505E+02  0.38423355062E+01  0.99229390352E+02  0.00000000000E+00 0.  1.
<mgrwt>
<rscale>  0 0.16976256E+04</rscale>
<asrwt>0</asrwt>
<pdfrwt beam="1">  1        2 0.34463712E+00 0.16976256E+04</pdfrwt>
<pdfrwt beam="2">  1       -1 0.49480612E-01 0.16976256E+04</pdfrwt>
<totfact> 0.21766244E+01</totfact>
</mgrwt>
</event>
<event>
12    6  0.1450532E-007  0.1744308E+04  0.7818608E-02  0.8736489E-01
          2   -1    0    0  501    0  0.00000000000E+00  0.00000000000E+00  0.10459305740E+04  0.10459305740E+04  0.00000000000E+00 0. -1.
         -1   -1    0    0    0  501 -0.00000000000E+00 -0.00000000000E+00 -0.72724988814E+03  0.72724988814E+03  0.00000000000E+00 0.  1.
         24    2    1    2    0    0  0.51389036097E+03 -0.36975426958E+03  0.15637580990E+03  0.65682406529E+03  0.78504368364E+02 0.  0.
        254    2    1    2    0    0 -0.51389036097E+03  0.36975426958E+03  0.16230487592E+03  0.11163563968E+04  0.90504541819E+03 0.  0.
         23    2    4    4    0    0 -0.32235494238E+03  0.52666529377E+03 -0.21079492609E+03  0.65877780963E+03  0.90910181268E+02 0.  0.
         23    2    4    4    0    0 -0.19153541859E+03 -0.15691102419E+03  0.37309980201E+03  0.45757858719E+03  0.94169077227E+02 0.  0.
          4    1    3    3  502    0  0.43038472854E+03 -0.32540960681E+03  0.15814979544E+03  0.56225775634E+03  0.00000000000E+00 0. -1.
         -3    1    3    3    0  502  0.83505632433E+02 -0.44344662768E+02 -0.17739855461E+01  0.94566308952E+02  0.00000000000E+00 0.  1.
         11    1    5    5    0    0 -0.27816526087E+03  0.50081538392E+03 -0.19083847143E+03  0.60383050875E+03  0.00000000000E+00 0.  1.
        -11    1    5    5    0    0 -0.44189681505E+02  0.25849909853E+02 -0.19956454660E+02  0.54947300876E+02  0.00000000000E+00 0. -1.
          1    1    6    6  503    0  0.78994832353E+01 -0.21426007399E+02  0.22338745513E+02  0.31945190241E+02  0.00000000000E+00 0. -1.
         -1    1    6    6    0  503 -0.19943490183E+03 -0.13548501679E+03  0.35076105650E+03  0.42563339695E+03  0.00000000000E+00 0.  1.
<mgrwt>
<rscale>  0 0.17443083E+04</rscale>
<asrwt>0</asrwt>
<pdfrwt beam="1">  1        2 0.16091240E+00 0.17443083E+04</pdfrwt>
<pdfrwt beam="2">  1       -1 0.11188460E+00 0.17443083E+04</pdfrwt>
<totfact> 0.18673364E+01</totfact>
</mgrwt>
</event>
<event>
12    6  0.1450532E-007  0.1145028E+04  0.7818608E-02  0.9162382E-01
          2   -1    0    0  501    0  0.00000000000E+00  0.00000000000E+00  0.11894445561E+04  0.11894445561E+04  0.00000000000E+00 0. -1.
         -1   -1    0    0    0  501 -0.00000000000E+00 -0.00000000000E+00 -0.27556764869E+03  0.27556764869E+03  0.00000000000E+00 0.  1.
         24    2    1    2    0    0 -0.81412189333E+02  0.16468018517E+03  0.27790592074E+03  0.34160975156E+03  0.75617548374E+02 0.  0.
        254    2    1    2    0    0  0.81412189333E+02 -0.16468018517E+03  0.63597098669E+03  0.11234024532E+04  0.90764886828E+03 0.  0.
         23    2    4    4    0    0  0.46273606032E+03 -0.51641054440E+02  0.50870334165E+03  0.69568176188E+03  0.91665500467E+02 0.  0.
         23    2    4    4    0    0 -0.38132387099E+03 -0.11303913073E+03  0.12726764504E+03  0.42772069137E+03  0.92532138705E+02 0.  0.
          4    1    3    3  502    0 -0.36396847476E+02  0.85554633038E+02  0.20458322302E+03  0.22471898203E+03  0.00000000000E+00 0. -1.
         -3    1    3    3    0  502 -0.45015341857E+02  0.79125552130E+02  0.73322697714E+02  0.11689076954E+03  0.00000000000E+00 0.  1.
         11    1    5    5    0    0  0.46229487642E+03 -0.42459610519E+02  0.50443667608E+03  0.68554776016E+03  0.00000000000E+00 0.  1.
        -11    1    5    5    0    0  0.44118390349E+00 -0.91814439210E+01  0.42666655767E+01  0.10134001720E+02  0.00000000000E+00 0. -1.
          1    1    6    6  503    0 -0.13067834464E+02 -0.27380888266E+01 -0.12879056526E+02  0.18550890140E+02  0.00000000000E+00 0. -1.
         -1    1    6    6    0  503 -0.36825603652E+03 -0.11030104190E+03  0.14014670156E+03  0.40916980123E+03  0.00000000000E+00 0.  1.
<mgrwt>
<rscale>  0 0.11450283E+04</rscale>
<asrwt>0</asrwt>
<pdfrwt beam="1">  1        2 0.18299147E+00 0.11450283E+04</pdfrwt>
<pdfrwt beam="2">  1       -1 0.42395024E-01 0.11450283E+04</pdfrwt>
<totfact> 0.11863368E+02</totfact>
</mgrwt>
</event>
<event>
12    6  0.1450532E-007  0.1993971E+04  0.7818608E-02  0.8609445E-01
         -1   -1    0    0    0  501 -0.00000000000E+00  0.00000000000E+00  0.95979138077E+03  0.95979138077E+03  0.00000000000E+00 0.  1.
          2   -1    0    0  501    0  0.00000000000E+00 -0.00000000000E+00 -0.10356207400E+04  0.10356207400E+04  0.00000000000E+00 0. -1.
         24    2    1    2    0    0  0.16332602620E+01 -0.69401572470E+01  0.76504933443E+03  0.76902514373E+03  0.77771165941E+02 0.  0.
        254    2    1    2    0    0 -0.16332602620E+01  0.69401572470E+01 -0.84087869370E+03  0.12263869771E+04  0.89269099171E+03 0.  0.
         23    2    4    4    0    0 -0.41862217733E+03  0.96674565575E+01 -0.59052411168E+03  0.72964328005E+03  0.91228299197E+02 0.  0.
         23    2    4    4    0    0  0.41698891707E+03 -0.27272993105E+01 -0.25035458202E+03  0.49674369702E+03  0.10094398779E+03 0.  0.
          4    1    3    3  502    0 -0.36720690312E+02 -0.18161468120E+01  0.27434955129E+03  0.27680206607E+03  0.00000000000E+00 0. -1.
         -3    1    3    3    0  502  0.38353950574E+02 -0.51240104350E+01  0.49069978314E+03  0.49222307766E+03  0.00000000000E+00 0.  1.
         11    1    5    5    0    0 -0.22514252293E+03  0.20611217934E+01 -0.23921890873E+03  0.32851041102E+03  0.00000000000E+00 0. -1.
        -11    1    5    5    0    0 -0.19347965440E+03  0.76063347641E+01 -0.35130520295E+03  0.40113286903E+03  0.00000000000E+00 0.  1.
          4    1    6    6  503    0  0.32978349130E+03  0.30188750029E+02 -0.22425262144E+03  0.39994718399E+03  0.00000000000E+00 0. -1.
         -4    1    6    6    0  503  0.87205425773E+02 -0.32916049340E+02 -0.26101960579E+02  0.96796513028E+02  0.00000000000E+00 0.  1.
<mgrwt>
<rscale>  0 0.19939708E+04</rscale>
<asrwt>0</asrwt>
<pdfrwt beam="1">  1        2 0.15932627E+00 0.19939708E+04</pdfrwt>
<pdfrwt beam="2">  1       -1 0.14766021E+00 0.19939708E+04</pdfrwt>
<totfact> 0.92246207E+00</totfact>
</mgrwt>
</event>
<event>
12    6  0.1450532E-007  0.1396998E+04  0.7818608E-02  0.8955994E-01
          2   -1    0    0  501    0  0.00000000000E+00  0.00000000000E+00  0.11810901594E+04  0.11810901594E+04  0.00000000000E+00 0. -1.
         -1   -1    0    0    0  501 -0.00000000000E+00 -0.00000000000E+00 -0.41309388446E+03  0.41309388446E+03  0.00000000000E+00 0.  1.
         24    2    1    2    0    0 -0.19046459382E+03 -0.27321726539E+03 -0.30826885770E+02  0.34478912046E+03  0.83694713679E+02 0.  0.
        254    2    1    2    0    0  0.19046459382E+03  0.27321726539E+03  0.79882316073E+03  0.12493949234E+04  0.90107979499E+03 0.  0.
         23    2    4    4    0    0 -0.75560365999E+02  0.86929286042E+02  0.88842909924E+03  0.90038053238E+03  0.90070911199E+02 0.  0.
         23    2    4    4    0    0  0.26602495982E+03  0.18628797934E+03 -0.89605938505E+02  0.34901439104E+03  0.91155528850E+02 0.  0.
          4    1    3    3  502    0 -0.20003228156E+02 -0.89312879478E+01  0.15595783873E+02  0.26890993208E+02  0.00000000000E+00 0. -1.
         -3    1    3    3    0  502 -0.17046136567E+03 -0.26428597744E+03 -0.46422669643E+02  0.31789812726E+03  0.00000000000E+00 0.  1.
         11    1    5    5    0    0 -0.76851209667E+02  0.28420778898E+02  0.63599151263E+03  0.64124804346E+03  0.00000000000E+00 0. -1.
        -11    1    5    5    0    0  0.12908436677E+01  0.58508507144E+02  0.25243758660E+03  0.25913248892E+03  0.00000000000E+00 0.  1.
          3    1    6    6  503    0  0.15890093416E+03  0.14176136451E+03 -0.20375689237E+02  0.21391811531E+03  0.00000000000E+00 0. -1.
         -3    1    6    6    0  503  0.10712402566E+03  0.44526614834E+02 -0.69230249268E+02  0.13509627573E+03  0.00000000000E+00 0.  1.
<mgrwt>
<rscale>  0 0.13969984E+04</rscale>
<asrwt>0</asrwt>
<pdfrwt beam="1">  1        2 0.18170618E+00 0.13969984E+04</pdfrwt>
<pdfrwt beam="2">  1       -1 0.63552906E-01 0.13969984E+04</pdfrwt>
<totfact> 0.54194999E+01</totfact>
</mgrwt>
</event>
<event>
12    6  0.1450532E-007  0.1815680E+04  0.7818608E-02  0.8698005E-01
          2   -1    0    0  501    0  0.00000000000E+00  0.00000000000E+00  0.56151204267E+03  0.56151204267E+03  0.00000000000E+00 0. -1.
         -1   -1    0    0    0  501 -0.00000000000E+00 -0.00000000000E+00 -0.14677757687E+04  0.14677757687E+04  0.00000000000E+00 0.  1.
         24    2    1    2    0    0 -0.17253878926E+03 -0.21425178106E+03  0.36618639143E+03  0.46457039107E+03  0.77844174538E+02 0.  0.
        254    2    1    2    0    0  0.17253878926E+03  0.21425178106E+03 -0.12724501174E+04  0.15647174203E+04  0.86806557615E+03 0.  0.
         23    2    4    4    0    0  0.41204149018E+03  0.27795754466E+03 -0.37414592768E+03  0.62855189727E+03  0.89742554624E+02 0.  0.
         23    2    4    4    0    0 -0.23950270092E+03 -0.63705763600E+02 -0.89830418976E+03  0.93616552301E+03  0.89640956427E+02 0.  0.
          2    1    3    3  502    0 -0.93925173972E+02 -0.10059739051E+03  0.12164443664E+03  0.18368217728E+03  0.00000000000E+00 0. -1.
         -1    1    3    3    0  502 -0.78613615284E+02 -0.11365439055E+03  0.24454195478E+03  0.28088821379E+03  0.00000000000E+00 0.  1.
         11    1    5    5    0    0  0.28240627431E+03  0.23715443939E+03 -0.28415978037E+03  0.46555591788E+03  0.00000000000E+00 0.  1.
        -11    1    5    5    0    0  0.12963521586E+03  0.40803105271E+02 -0.89986147304E+02  0.16299597939E+03  0.00000000000E+00 0. -1.
          3    1    6    6  503    0 -0.10706769825E+03 -0.30724678275E+02 -0.56723448308E+03  0.57806786509E+03  0.00000000000E+00 0. -1.
         -3    1    6    6    0  503 -0.13243500267E+03 -0.32981085325E+02 -0.33106970668E+03  0.35809765791E+03  0.00000000000E+00 0.  1.
<mgrwt>
<rscale>  0 0.18156803E+04</rscale>
<asrwt>0</asrwt>
<pdfrwt beam="1">  1        2 0.86386470E-01 0.18156803E+04</pdfrwt>
<pdfrwt beam="2">  1       -1 0.22581165E+00 0.18156803E+04</pdfrwt>
<totfact> 0.58219004E+00</totfact>
</mgrwt>
</event>
<event>
12    6  0.1450532E-007  0.1471435E+04  0.7818608E-02  0.8903673E-01
         -1   -1    0    0    0  501 -0.00000000000E+00  0.00000000000E+00  0.38015922780E+03  0.38015922780E+03  0.00000000000E+00 0.  1.
          2   -1    0    0  501    0  0.00000000000E+00 -0.00000000000E+00 -0.14238255761E+04  0.14238255761E+04  0.00000000000E+00 0. -1.
         24    2    1    2    0    0 -0.33872891770E+03 -0.73402296999E+02  0.35962756925E+02  0.35691113179E+03  0.77246742488E+02 0.  0.
        254    2    1    2    0    0  0.33872891770E+03  0.73402296999E+02 -0.10796291052E+04  0.14470736721E+04  0.89905396429E+03 0.  0.
         23    2    4    4    0    0  0.42987919807E+03 -0.65219181081E+01 -0.93675886647E+02  0.44954254378E+03  0.92057952303E+02 0.  0.
         23    2    4    4    0    0 -0.91150280372E+02  0.79924215107E+02 -0.98595321853E+03  0.99753112827E+03  0.90930462237E+02 0.  0.
          4    1    3    3  502    0 -0.17157350611E+03 -0.47992417171E+02 -0.18895257709E+02  0.17915850767E+03  0.00000000000E+00 0. -1.
         -3    1    3    3    0  502 -0.16715541158E+03 -0.25409879828E+02  0.54858014634E+02  0.17775262413E+03  0.00000000000E+00 0.  1.
         11    1    5    5    0    0  0.28621859193E+03 -0.12808699843E+02 -0.18056408331E+02  0.28707347324E+03  0.00000000000E+00 0. -1.
        -11    1    5    5    0    0  0.14366060614E+03  0.62867817350E+01 -0.75619478316E+02  0.16246907054E+03  0.00000000000E+00 0.  1.
          3    1    6    6  503    0 -0.24990454528E+02  0.70069146497E+02 -0.69590079772E+03  0.69986579311E+03  0.00000000000E+00 0. -1.
         -3    1    6    6    0  503 -0.66159825844E+02  0.98550686104E+01 -0.29005242082E+03  0.29766533516E+03  0.00000000000E+00 0.  1.
<mgrwt>
<rscale>  0 0.14714353E+04</rscale>
<asrwt>0</asrwt>
<pdfrwt beam="1">  1        2 0.21905009E+00 0.14714353E+04</pdfrwt>
<pdfrwt beam="2">  1       -1 0.58486035E-01 0.14714353E+04</pdfrwt>
<totfact> 0.45840304E+01</totfact>
</mgrwt>
</event>
<event>
12    6  0.1450532E-007  0.2963365E+04  0.7818608E-02  0.8254270E-01
          2   -1    0    0  501    0  0.00000000000E+00  0.00000000000E+00  0.16859780983E+04  0.16859780983E+04  0.00000000000E+00 0. -1.
         -1   -1    0    0    0  501 -0.00000000000E+00 -0.00000000000E+00 -0.13021424032E+04  0.13021424032E+04  0.00000000000E+00 0.  1.
         24    2    1    2    0    0  0.73488309148E+03 -0.78962870248E+03  0.99141417550E+03  0.14671927363E+04  0.78649934733E+02 0.  0.
        254    2    1    2    0    0 -0.73488309148E+03  0.78962870248E+03 -0.60757848040E+03  0.15209277652E+04  0.88346081479E+03 0.  0.
         23    2    4    4    0    0 -0.75835178013E+03  0.27185019361E+03 -0.15266863832E+03  0.82482944420E+03  0.89643453172E+02 0.  0.
         23    2    4    4    0    0  0.23468688647E+02  0.51777850887E+03 -0.45490984208E+03  0.69609832103E+03  0.94681278648E+02 0.  0.
          4    1    3    3  502    0  0.30800125108E+03 -0.36221688188E+03  0.48125800165E+03  0.67651689139E+03  0.00000000000E+00 0. -1.
         -3    1    3    3    0  502  0.42688184040E+03 -0.42741182060E+03  0.51015617385E+03  0.79067584494E+03  0.00000000000E+00 0.  1.
         11    1    5    5    0    0 -0.10953280946E+03  0.42748779393E+02  0.92910338657E+01  0.11794582569E+03  0.00000000000E+00 0.  1.
        -11    1    5    5    0    0 -0.64881897067E+03  0.22910141422E+03 -0.16195967219E+03  0.70688361851E+03  0.00000000000E+00 0. -1.
          4    1    6    6  503    0  0.55551231053E+02  0.20498857862E+03 -0.18911809907E+03  0.28437987276E+03  0.00000000000E+00 0.  1.
         -4    1    6    6    0  503 -0.32082542406E+02  0.31278993024E+03 -0.26579174301E+03  0.41171844827E+03  0.00000000000E+00 0. -1.
<mgrwt>
<rscale>  0 0.29633654E+04</rscale>
<asrwt>0</asrwt>
<pdfrwt beam="1">  1        2 0.25938125E+00 0.29633654E+04</pdfrwt>
<pdfrwt beam="2">  1       -1 0.20032960E+00 0.29633654E+04</pdfrwt>
<totfact> 0.14610228E+00</totfact>
</mgrwt>
</event>
<event>
12    6  0.1450532E-007  0.1259232E+04  0.7818608E-02  0.9062534E-01
         -1   -1    0    0    0  501 -0.00000000000E+00  0.00000000000E+00  0.40424305628E+03  0.40424305628E+03  0.00000000000E+00 0.  1.
          2   -1    0    0  501    0  0.00000000000E+00 -0.00000000000E+00 -0.98063850838E+03  0.98063850838E+03  0.00000000000E+00 0. -1.
         24    2    1    2    0    0  0.67061093670E+02  0.35432124788E+01  0.19217024027E+03  0.21871011398E+03  0.79968544272E+02 0.  0.
        254    2    1    2    0    0 -0.67061093670E+02 -0.35432124788E+01 -0.76856569237E+03  0.11661714507E+04  0.87450150616E+03 0.  0.
         23    2    4    4    0    0 -0.19036693422E+03 -0.37669822563E+03 -0.21779420773E+03  0.48322431499E+03  0.89052225357E+02 0.  0.
         23    2    4    4    0    0  0.12330584055E+03  0.37315501315E+03 -0.55077148464E+03  0.68294713570E+03  0.92836241396E+02 0.  0.
          4    1    3    3  502    0  0.14103619403E+02 -0.33426914536E+02  0.43679411540E+02  0.56781702054E+02  0.00000000000E+00 0. -1.
         -1    1    3    3    0  502  0.52957474268E+02  0.36970127014E+02  0.14849082873E+03  0.16192841193E+03  0.00000000000E+00 0.  1.
         11    1    5    5    0    0 -0.45761247163E+02 -0.59847019942E+02 -0.76492112792E+02  0.10736293987E+03  0.00000000000E+00 0. -1.
        -11    1    5    5    0    0 -0.14460568706E+03 -0.31685120568E+03 -0.14130209493E+03  0.37586137512E+03  0.00000000000E+00 0.  1.
          1    1    6    6  503    0  0.33645400677E+02  0.22700536164E+02 -0.74925950638E+02  0.85212824198E+02  0.00000000000E+00 0. -1.
         -1    1    6    6    0  503  0.89660439873E+02  0.35045447698E+03 -0.47584553401E+03  0.59773431150E+03  0.00000000000E+00 0.  1.
<mgrwt>
<rscale>  0 0.12592320E+04</rscale>
<asrwt>0</asrwt>
<pdfrwt beam="1">  1        2 0.15086746E+00 0.12592320E+04</pdfrwt>
<pdfrwt beam="2">  1       -1 0.62191240E-01 0.12592320E+04</pdfrwt>
<totfact> 0.76239969E+01</totfact>
</mgrwt>
</event>
<event>
12    6  0.1450532E-007  0.1142606E+04  0.7818608E-02  0.9164632E-01
         -1   -1    0    0    0  501 -0.00000000000E+00  0.00000000000E+00  0.14900751360E+03  0.14900751360E+03  0.00000000000E+00 0.  1.
          2   -1    0    0  501    0  0.00000000000E+00 -0.00000000000E+00 -0.21904066338E+04  0.21904066338E+04  0.00000000000E+00 0. -1.
         24    2    1    2    0    0 -0.18180515997E+03 -0.10694642188E+03 -0.40585892870E+03  0.46458286912E+03  0.81394833533E+02 0.  0.
        254    2    1    2    0    0  0.18180515997E+03  0.10694642188E+03 -0.16355401915E+04  0.18748312783E+04  0.89191364532E+03 0.  0.
         23    2    4    4    0    0  0.19739383126E+03 -0.29534417389E+03 -0.12748454479E+04  0.13265486248E+04  0.91147310333E+02 0.  0.
         23    2    4    4    0    0 -0.15588671293E+02  0.40229059577E+03 -0.36069474362E+03  0.54828265354E+03  0.91828317952E+02 0.  0.
          2    1    3    3  502    0  0.38416833045E+01  0.42207932969E+01 -0.32946686821E+02  0.33437371295E+02  0.00000000000E+00 0. -1.
         -1    1    3    3    0  502 -0.18564684327E+03 -0.11116721517E+03 -0.37291224188E+03  0.43114549782E+03  0.00000000000E+00 0.  1.
         11    1    5    5    0    0  0.36628707901E+02 -0.26987926979E+02 -0.28018714825E+03  0.28385709167E+03  0.00000000000E+00 0. -1.
        -11    1    5    5    0    0  0.16076512336E+03 -0.26835624691E+03 -0.99465829966E+03  0.10426915331E+04  0.00000000000E+00 0.  1.
          2    1    6    6  503    0 -0.22085944282E+02  0.11051500809E+03 -0.54173241738E+02  0.12504437639E+03  0.00000000000E+00 0. -1.
         -2    1    6    6    0  503  0.64972729891E+01  0.29177558768E+03 -0.30652150188E+03  0.42323827715E+03  0.00000000000E+00 0.  1.
<mgrwt>
<rscale>  0 0.11426059E+04</rscale>
<asrwt>0</asrwt>
<pdfrwt beam="1">  1        2 0.33698563E+00 0.11426059E+04</pdfrwt>
<pdfrwt beam="2">  1       -1 0.22924234E-01 0.11426059E+04</pdfrwt>
<totfact> 0.96158369E+01</totfact>
</mgrwt>
</event>
<event>
12    6  0.1450532E-007  0.2165443E+04  0.7818608E-02  0.8532951E-01
          2   -1    0    0  501    0  0.00000000000E+00  0.00000000000E+00  0.13198574929E+04  0.13198574929E+04  0.00000000000E+00 0. -1.
         -1   -1    0    0    0  501 -0.00000000000E+00 -0.00000000000E+00 -0.88819149034E+03  0.88819149034E+03  0.00000000000E+00 0.  1.
         24    2    1    2    0    0  0.67508565261E+03  0.24403297995E+03  0.72311629114E+03  0.10221561175E+04  0.81321734114E+02 0.  0.
        254    2    1    2    0    0 -0.67508565261E+03 -0.24403297995E+03 -0.29145028860E+03  0.11858928657E+04  0.89783399607E+03 0.  0.
         23    2    4    4    0    0 -0.60378719652E+03 -0.33615715500E+03  0.15688250560E+03  0.71442573788E+03  0.90727078860E+02 0.  0.
         23    2    4    4    0    0 -0.71298456090E+02  0.92124175053E+02 -0.44833279419E+03  0.47146712781E+03  0.87798774407E+02 0.  0.
          2    1    3    3  502    0  0.52767196747E+03  0.16491582890E+03  0.58824918243E+03  0.80726206186E+03  0.00000000000E+00 0. -1.
         -1    1    3    3    0  502  0.14741368513E+03  0.79117151044E+02  0.13486710871E+03  0.21489405568E+03  0.00000000000E+00 0.  1.
         11    1    5    5    0    0 -0.34950284438E+03 -0.24282814821E+03  0.82156829394E+02  0.43343683785E+03  0.00000000000E+00 0.  1.
        -11    1    5    5    0    0 -0.25428435214E+03 -0.93329006792E+02  0.74725676203E+02  0.28098890003E+03  0.00000000000E+00 0. -1.
          4    1    6    6  503    0 -0.22534715576E+02  0.92593967067E+02 -0.32987378468E+03  0.34336302941E+03  0.00000000000E+00 0.  1.
         -4    1    6    6    0  503 -0.48763740514E+02 -0.46979201429E+00 -0.11845900951E+03  0.12810409840E+03  0.00000000000E+00 0. -1.
<mgrwt>
<rscale>  0 0.21654433E+04</rscale>
<asrwt>0</asrwt>
<pdfrwt beam="1">  1        2 0.20305500E+00 0.21654433E+04</pdfrwt>
<pdfrwt beam="2">  1       -1 0.13664484E+00 0.21654433E+04</pdfrwt>
<totfact> 0.75090265E+00</totfact>
</mgrwt>
</event>
<event>
12    6  0.1450532E-007  0.1912793E+04  0.7818608E-02  0.8648515E-01
         -1   -1    0    0    0  501 -0.00000000000E+00  0.00000000000E+00  0.54314239498E+03  0.54314239498E+03  0.00000000000E+00 0.  1.
          2   -1    0    0  501    0  0.00000000000E+00 -0.00000000000E+00 -0.16840783683E+04  0.16840783683E+04  0.00000000000E+00 0. -1.
         24    2    1    2    0    0  0.66925208883E+03 -0.60717329687E+02 -0.93046844759E+03  0.11509048510E+04  0.85002891190E+02 0.  0.
        254    2    1    2    0    0 -0.66925208883E+03  0.60717329687E+02 -0.21046752572E+03  0.10763159123E+04  0.81398673894E+03 0.  0.
         23    2    4    4    0    0 -0.60323051458E+02  0.28096096651E+03  0.14221596544E+03  0.33336017355E+03  0.91245214909E+02 0.  0.
         23    2    4    4    0    0 -0.60892903737E+03 -0.22024363682E+03 -0.35268349116E+03  0.74295573876E+03  0.91081022688E+02 0.  0.
          4    1    3    3  502    0  0.46120505045E+03 -0.28277678731E+02 -0.69976672906E+03  0.83856019508E+03  0.00000000000E+00 0. -1.
         -3    1    3    3    0  502  0.20804703838E+03 -0.32439650955E+02 -0.23070171853E+03  0.31234465589E+03  0.00000000000E+00 0.  1.
         11    1    5    5    0    0 -0.33665298372E+02  0.16119825915E+03  0.30603847645E+02  0.16749575086E+03  0.00000000000E+00 0.  1.
        -11    1    5    5    0    0 -0.26657753086E+02  0.11976270736E+03  0.11161211779E+03  0.16586442268E+03  0.00000000000E+00 0. -1.
          3    1    6    6  503    0 -0.55023070032E+03 -0.18738254255E+03 -0.34319907177E+03  0.67501973578E+03  0.00000000000E+00 0. -1.
         -3    1    6    6    0  503 -0.58698337049E+02 -0.32861094269E+02 -0.94844193975E+01  0.67936002974E+02  0.00000000000E+00 0.  1.
<mgrwt>
<rscale>  0 0.19127931E+04</rscale>
<asrwt>0</asrwt>
<pdfrwt beam="1">  1        2 0.25908898E+00 0.19127931E+04</pdfrwt>
<pdfrwt beam="2">  1       -1 0.83560368E-01 0.19127931E+04</pdfrwt>
<totfact> 0.15153733E+01</totfact>
</mgrwt>
</event>
<event>
12    6  0.1450532E-007  0.1433250E+04  0.7818608E-02  0.8930096E-01
         -1   -1    0    0    0  501 -0.00000000000E+00  0.00000000000E+00  0.71291450065E+03  0.71291450065E+03  0.00000000000E+00 0.  1.
          2   -1    0    0  501    0  0.00000000000E+00 -0.00000000000E+00 -0.72035498009E+03  0.72035498009E+03  0.00000000000E+00 0. -1.
         24    2    1    2    0    0 -0.10498458645E+03 -0.12745600473E+02  0.41131027438E+03  0.43205356148E+03  0.79435032901E+02 0.  0.
        254    2    1    2    0    0  0.10498458645E+03  0.12745600473E+02 -0.41875075382E+03  0.10012159193E+04  0.90327011986E+03 0.  0.
         23    2    4    4    0    0  0.40364229021E+03 -0.26361304599E+03 -0.19727400844E+03  0.52902345782E+03  0.92357176556E+02 0.  0.
         23    2    4    4    0    0 -0.29865770375E+03  0.27635864646E+03 -0.22147674539E+03  0.47219246144E+03  0.91341372943E+02 0.  0.
          2    1    3    3  502    0 -0.10808661500E+02  0.25844325776E+02  0.58576968944E+02  0.64930868074E+02  0.00000000000E+00 0. -1.
         -1    1    3    3    0  502 -0.94175924955E+02 -0.38589926249E+02  0.35273330543E+03  0.36712269340E+03  0.00000000000E+00 0.  1.
         11    1    5    5    0    0  0.21925755361E+03 -0.97036981244E+02 -0.12412361156E+03  0.26999392862E+03  0.00000000000E+00 0.  1.
        -11    1    5    5    0    0  0.18438473660E+03 -0.16657606474E+03 -0.73150396873E+02  0.25902952920E+03  0.00000000000E+00 0. -1.
          4    1    6    6  503    0 -0.32566884233E+02  0.59645121976E+02 -0.68416828593E+02  0.96431348424E+02  0.00000000000E+00 0. -1.
         -4    1    6    6    0  503 -0.26609081952E+03  0.21671352448E+03 -0.15305991679E+03  0.37576111302E+03  0.00000000000E+00 0.  1.
<mgrwt>
<rscale>  0 0.14332502E+04</rscale>
<asrwt>0</asrwt>
<pdfrwt beam="1">  1        2 0.11082384E+00 0.14332502E+04</pdfrwt>
<pdfrwt beam="2">  1       -1 0.10967915E+00 0.14332502E+04</pdfrwt>
<totfact> 0.33677425E+01</totfact>
</mgrwt>
</event>
<event>
12    6  0.1450532E-007  0.1864653E+04  0.7818608E-02  0.8672654E-01
          2   -1    0    0  501    0  0.00000000000E+00  0.00000000000E+00  0.12586244743E+04  0.12586244743E+04  0.00000000000E+00 0. -1.
         -1   -1    0    0    0  501 -0.00000000000E+00 -0.00000000000E+00 -0.69062131997E+03  0.69062131997E+03  0.00000000000E+00 0.  1.
         24    2    1    2    0    0 -0.35762472410E+03 -0.87905791701E+02  0.85610303564E+03  0.93535480662E+03  0.79707811024E+02 0.  0.
        254    2    1    2    0    0  0.35762472410E+03  0.87905791701E+02 -0.28809988132E+03  0.10138909876E+04  0.89963910636E+03 0.  0.
         23    2    4    4    0    0  0.50481346322E+03  0.81467365420E+02  0.15185099286E+03  0.54189123519E+03  0.95466342060E+02 0.  0.
         23    2    4    4    0    0 -0.14718873912E+03  0.64384262805E+01 -0.43995087418E+03  0.47199975245E+03  0.86723793559E+02 0.  0.
          2    1    3    3  502    0 -0.35793055425E+03 -0.83815995979E+02  0.81528932449E+03  0.89433555530E+03  0.00000000000E+00 0. -1.
         -1    1    3    3    0  502  0.30583015214E+00 -0.40897957218E+01  0.40813711149E+02  0.41019251320E+02  0.00000000000E+00 0.  1.
         11    1    5    5    0    0  0.62826027642E+02  0.21259729249E+02 -0.10588706185E+02  0.67165515971E+02  0.00000000000E+00 0. -1.
        -11    1    5    5    0    0  0.44198743558E+03  0.60207636171E+02  0.16243969904E+03  0.47472571922E+03  0.00000000000E+00 0.  1.
          3    1    6    6  503    0 -0.44944782537E+02 -0.88006865870E+01 -0.46780264863E+02  0.65466623117E+02  0.00000000000E+00 0. -1.
         -3    1    6    6    0  503 -0.10224395658E+03  0.15239112867E+02 -0.39317060931E+03  0.40653312933E+03  0.00000000000E+00 0.  1.
<mgrwt>
<rscale>  0 0.18646532E+04</rscale>
<asrwt>0</asrwt>
<pdfrwt beam="1">  1        2 0.19363453E+00 0.18646532E+04</pdfrwt>
<pdfrwt beam="2">  1       -1 0.10624943E+00 0.18646532E+04</pdfrwt>
<totfact> 0.15503059E+01</totfact>
</mgrwt>
</event>
<event>
12    6  0.1450532E-007  0.1382899E+04  0.7818608E-02  0.8966291E-01
          2   -1    0    0  501    0  0.00000000000E+00  0.00000000000E+00  0.19516894904E+04  0.19516894904E+04  0.00000000000E+00 0. -1.
         -1   -1    0    0    0  501 -0.00000000000E+00 -0.00000000000E+00 -0.24496842682E+03  0.24496842682E+03  0.00000000000E+00 0.  1.
         24    2    1    2    0    0 -0.20493707990E+02 -0.19624199257E+03 -0.47468740658E+02  0.21703512619E+03  0.76941880311E+02 0.  0.
        254    2    1    2    0    0  0.20493707990E+02  0.19624199257E+03  0.17541898042E+04  0.19796227910E+04  0.89598750757E+03 0.  0.
         23    2    4    4    0    0 -0.18873848884E+03  0.38964932786E+03  0.15659843891E+04  0.16273279821E+04  0.91871859124E+02 0.  0.
         23    2    4    4    0    0  0.20923219683E+03 -0.19340733529E+03  0.18820541511E+03  0.35229480891E+03  0.86636277472E+02 0.  0.
          4    1    3    3  502    0 -0.26032262923E+02 -0.28969696880E+02 -0.29197756673E+02  0.48676801918E+02  0.00000000000E+00 0. -1.
         -3    1    3    3    0  502  0.55385549330E+01 -0.16727229569E+03 -0.18270983985E+02  0.16835832427E+03  0.00000000000E+00 0.  1.
         11    1    5    5    0    0 -0.85119325169E+02  0.23034764011E+03  0.10225421420E+04  0.10516167396E+04  0.00000000000E+00 0. -1.
        -11    1    5    5    0    0 -0.10361916367E+03  0.15930168775E+03  0.54344224707E+03  0.57571124246E+03  0.00000000000E+00 0.  1.
          2    1    6    6  503    0  0.22146373896E+02 -0.25803074935E+02 -0.63325686170E+01  0.34588465970E+02  0.00000000000E+00 0. -1.
         -2    1    6    6    0  503  0.18708582294E+03 -0.16760426036E+03  0.19453798373E+03  0.31770634294E+03  0.00000000000E+00 0.  1.
<mgrwt>
<rscale>  0 0.13828988E+04</rscale>
<asrwt>0</asrwt>
<pdfrwt beam="1">  1        2 0.30025991E+00 0.13828988E+04</pdfrwt>
<pdfrwt beam="2">  1       -1 0.37687452E-01 0.13828988E+04</pdfrwt>
<totfact> 0.53598199E+01</totfact>
</mgrwt>
</event>
<event>
12    6  0.1450532E-007  0.2236185E+04  0.7818608E-02  0.8503516E-01
          2   -1    0    0  501    0  0.00000000000E+00  0.00000000000E+00  0.23973016474E+04  0.23973016474E+04  0.00000000000E+00 0. -1.
         -1   -1    0    0    0  501 -0.00000000000E+00 -0.00000000000E+00 -0.52147406368E+03  0.52147406368E+03  0.00000000000E+00 0.  1.
         24    2    1    2    0    0 -0.76224442174E+03  0.55111154032E+03  0.81593105995E+03  0.12477791734E+04  0.80429364546E+02 0.  0.
        254    2    1    2    0    0  0.76224442174E+03 -0.55111154032E+03  0.10598965238E+04  0.16709965377E+04  0.88549889861E+03 0.  0.
         23    2    4    4    0    0  0.20024355093E+03 -0.37508905662E+03  0.97713879279E+03  0.10694393114E+04  0.90060759517E+02 0.  0.
         23    2    4    4    0    0  0.56200087081E+03 -0.17602248370E+03  0.82757730999E+02  0.60155722623E+03  0.90517185290E+02 0.  0.
          2    1    3    3  502    0 -0.69374338821E+03  0.47146299076E+03  0.71685855607E+03  0.11033781898E+04  0.00000000000E+00 0. -1.
         -1    1    3    3    0  502 -0.68501033526E+02  0.79648549561E+02  0.99072503882E+02  0.14440098361E+03  0.00000000000E+00 0.  1.
         11    1    5    5    0    0  0.98049939070E+02 -0.27343138286E+03  0.65443584020E+03  0.71600613169E+03  0.00000000000E+00 0.  1.
        -11    1    5    5    0    0  0.10219361186E+03 -0.10165767376E+03  0.32270295259E+03  0.35343317975E+03  0.00000000000E+00 0. -1.
          1    1    6    6  503    0  0.28165876300E+02 -0.28546877189E+02 -0.63532721323E+01  0.40603015304E+02  0.00000000000E+00 0. -1.
         -1    1    6    6    0  503  0.53383499451E+03 -0.14747560651E+03  0.89111003131E+02  0.56095421093E+03  0.00000000000E+00 0.  1.
<mgrwt>
<rscale>  0 0.22361848E+04</rscale>
<asrwt>0</asrwt>
<pdfrwt beam="1">  1        2 0.36881563E+00 0.22361848E+04</pdfrwt>
<pdfrwt beam="2">  1       -1 0.80226780E-01 0.22361848E+04</pdfrwt>
<totfact> 0.64148627E+00</totfact>
</mgrwt>
</event>
<event>
12    6  0.1450532E-007  0.2325797E+04  0.7818608E-02  0.8467819E-01
         -3   -1    0    0    0  501 -0.00000000000E+00  0.00000000000E+00  0.11467878421E+04  0.11467878421E+04  0.00000000000E+00 0.  1.
          2   -1    0    0  501    0  0.00000000000E+00 -0.00000000000E+00 -0.11792358117E+04  0.11792358117E+04  0.00000000000E+00 0. -1.
         24    2    1    2    0    0  0.52855794007E+03 -0.62621413522E+03  0.52908479222E+03  0.97879546795E+03  0.81192435347E+02 0.  0.
        254    2    1    2    0    0 -0.52855794007E+03  0.62621413522E+03 -0.56153276188E+03  0.13472281859E+04  0.91004785750E+03 0.  0.
         23    2    4    4    0    0  0.14049971462E+03  0.13667976784E+03 -0.45875456717E+03  0.50677027915E+03  0.89100135698E+02 0.  0.
         23    2    4    4    0    0 -0.66905765469E+03  0.48953436738E+03 -0.10277819471E+03  0.84045790671E+03  0.92326017425E+02 0.  0.
          2    1    3    3  502    0  0.32885701181E+03 -0.40368317331E+03  0.29022686900E+03  0.59610290565E+03  0.00000000000E+00 0. -1.
         -1    1    3    3    0  502  0.19970092826E+03 -0.22253096191E+03  0.23885792322E+03  0.38269256230E+03  0.00000000000E+00 0.  1.
         11    1    5    5    0    0  0.10923797594E+03  0.87452534700E+02 -0.40092507273E+03  0.42464313860E+03  0.00000000000E+00 0.  1.
        -11    1    5    5    0    0  0.31261738677E+02  0.49227233138E+02 -0.57829494439E+02  0.82127140548E+02  0.00000000000E+00 0. -1.
          4    1    6    6  503    0 -0.90556571290E+02  0.10755605247E+03 -0.26021995745E+02  0.14298930481E+03  0.00000000000E+00 0.  1.
         -4    1    6    6    0  503 -0.57850108340E+03  0.38197831491E+03 -0.76756198965E+02  0.69746860190E+03  0.00000000000E+00 0. -1.
<mgrwt>
<rscale>  0 0.23257973E+04</rscale>
<asrwt>0</asrwt>
<pdfrwt beam="1">  1        2 0.18142089E+00 0.23257973E+04</pdfrwt>
<pdfrwt beam="2">  1       -3 0.17642890E+00 0.23257973E+04</pdfrwt>
<totfact> 0.23260192E+00</totfact>
</mgrwt>
</event>
<event>
12    6  0.1450532E-007  0.1657938E+04  0.7818608E-02  0.8785725E-01
         -1   -1    0    0    0  501 -0.00000000000E+00  0.00000000000E+00  0.41968439943E+03  0.41968439943E+03  0.00000000000E+00 0.  1.
          2   -1    0    0  501    0  0.00000000000E+00 -0.00000000000E+00 -0.16373951664E+04  0.16373951664E+04  0.00000000000E+00 0. -1.
         24    2    1    2    0    0  0.52146978727E+02 -0.30305806892E+03 -0.10448311781E+04  0.10920787747E+04  0.80002242209E+02 0.  0.
        254    2    1    2    0    0 -0.52146978727E+02  0.30305806892E+03 -0.17287958886E+03  0.96500079118E+03  0.89820692171E+03 0.  0.
         23    2    4    4    0    0 -0.43671221602E+03  0.31980890676E+03 -0.14708663205E+03  0.56826537387E+03  0.91081070200E+02 0.  0.
         23    2    4    4    0    0  0.38456523729E+03 -0.16750837840E+02 -0.25792956812E+02  0.39673541731E+03  0.92534871391E+02 0.  0.
          2    1    3    3  502    0  0.25935082532E+02 -0.27254577205E+03 -0.95855872012E+03  0.99688948549E+03  0.00000000000E+00 0. -1.
         -1    1    3    3    0  502  0.26211896195E+02 -0.30512296871E+02 -0.86272458010E+02  0.95189289174E+02  0.00000000000E+00 0.  1.
         11    1    5    5    0    0 -0.34449755172E+02  0.18379737240E+02 -0.36771645160E+02  0.53635382540E+02  0.00000000000E+00 0.  1.
        -11    1    5    5    0    0 -0.40226246085E+03  0.30142916952E+03 -0.11031498689E+03  0.51462999133E+03  0.00000000000E+00 0. -1.
          3    1    6    6  503    0  0.20463713870E+03 -0.48426604931E+02  0.10168239757E+02  0.21053476601E+03  0.00000000000E+00 0. -1.
         -3    1    6    6    0  503  0.17992809859E+03  0.31675767091E+02 -0.35961196569E+02  0.18620065129E+03  0.00000000000E+00 0.  1.
<mgrwt>
<rscale>  0 0.16579375E+04</rscale>
<asrwt>0</asrwt>
<pdfrwt beam="1">  1        2 0.25190695E+00 0.16579375E+04</pdfrwt>
<pdfrwt beam="2">  1       -1 0.64566831E-01 0.16579375E+04</pdfrwt>
<totfact> 0.28113561E+01</totfact>
</mgrwt>
</event>
<event>
12    6  0.1450532E-007  0.2200349E+04  0.7818608E-02  0.8518283E-01
          2   -1    0    0  501    0  0.00000000000E+00  0.00000000000E+00  0.19973497907E+04  0.19973497907E+04  0.00000000000E+00 0. -1.
         -1   -1    0    0    0  501 -0.00000000000E+00 -0.00000000000E+00 -0.60599513059E+03  0.60599513059E+03  0.00000000000E+00 0.  1.
         24    2    1    2    0    0  0.45729479116E+03 -0.73120231984E+03  0.93067982560E+03  0.12713353080E+04  0.79706769624E+02 0.  0.
        254    2    1    2    0    0 -0.45729479116E+03  0.73120231984E+03  0.46067483456E+03  0.13320096133E+04  0.90457335144E+03 0.  0.
         23    2    4    4    0    0 -0.38893073273E+03  0.60933363913E+03  0.71897851696E+03  0.10245092737E+04  0.10067047906E+03 0.  0.
         23    2    4    4    0    0 -0.68364058435E+02  0.12186868071E+03 -0.25830368240E+03  0.30750033962E+03  0.91159457558E+02 0.  0.
          4    1    3    3  502    0  0.16509484244E+03 -0.29366849121E+03  0.41622483404E+03  0.53548165440E+03  0.00000000000E+00 0. -1.
         -3    1    3    3    0  502  0.29219994873E+03 -0.43753382863E+03  0.51445499156E+03  0.73585365364E+03  0.00000000000E+00 0.  1.
         11    1    5    5    0    0 -0.37445188274E+03  0.54838471683E+03  0.62735868173E+03  0.91352007404E+03  0.00000000000E+00 0.  1.
        -11    1    5    5    0    0 -0.14478849988E+02  0.60948922303E+02  0.91619835226E+02  0.11098919963E+03  0.00000000000E+00 0. -1.
          3    1    6    6  503    0 -0.12666945140E+02  0.82229424607E+02 -0.20360549401E+03  0.21994846433E+03  0.00000000000E+00 0. -1.
         -3    1    6    6    0  503 -0.55697113295E+02  0.39639256107E+02 -0.54698188390E+02  0.87551875292E+02  0.00000000000E+00 0.  1.
<mgrwt>
<rscale>  0 0.22003493E+04</rscale>
<asrwt>0</asrwt>
<pdfrwt beam="1">  1        2 0.30728458E+00 0.22003493E+04</pdfrwt>
<pdfrwt beam="2">  1       -1 0.93230021E-01 0.22003493E+04</pdfrwt>
<totfact> 0.77892890E+00</totfact>
</mgrwt>
</event>
<event>
12    6  0.1450532E-007  0.1147918E+04  0.7818608E-02  0.9159706E-01
          2   -1    0    0  501    0  0.00000000000E+00  0.00000000000E+00  0.12998555904E+04  0.12998555904E+04  0.00000000000E+00 0. -1.
         -1   -1    0    0    0  501 -0.00000000000E+00 -0.00000000000E+00 -0.25343515933E+03  0.25343515933E+03  0.00000000000E+00 0.  1.
         24    2    1    2    0    0 -0.19489460934E+03 -0.23352798327E+02  0.64027671179E+02  0.22167839923E+03  0.80700111934E+02 0.  0.
        254    2    1    2    0    0  0.19489460934E+03  0.23352798327E+02  0.98239275990E+03  0.13316123505E+04  0.87724948300E+03 0.  0.
         23    2    4    4    0    0  0.10460677744E+03 -0.32310637333E+03  0.84128899387E+02  0.36033045649E+03  0.86139768907E+02 0.  0.
         23    2    4    4    0    0  0.90287831904E+02  0.34645917166E+03  0.89826386052E+03  0.97128189404E+03  0.91239817826E+02 0.  0.
          2    1    3    3  502    0 -0.79385205917E+01 -0.18729648402E+00  0.28995244075E+02  0.30062923479E+02  0.00000000000E+00 0. -1.
         -1    1    3    3    0  502 -0.18695608875E+03 -0.23165501843E+02  0.35032427104E+02  0.19161547575E+03  0.00000000000E+00 0.  1.
         11    1    5    5    0    0  0.93187289456E+02 -0.30986933736E+03  0.97913022859E+02  0.33806779971E+03  0.00000000000E+00 0. -1.
        -11    1    5    5    0    0  0.11419487983E+02 -0.13237035969E+02 -0.13784123472E+02  0.22262656781E+02  0.00000000000E+00 0.  1.
          3    1    6    6  503    0  0.58683650278E+02  0.23659456137E+03  0.48956451209E+03  0.54689502537E+03  0.00000000000E+00 0. -1.
         -3    1    6    6    0  503  0.31604181627E+02  0.10986461029E+03  0.40869934842E+03  0.42438686866E+03  0.00000000000E+00 0.  1.
<mgrwt>
<rscale>  0 0.11479183E+04</rscale>
<asrwt>0</asrwt>
<pdfrwt beam="1">  1        2 0.19997778E+00 0.11479183E+04</pdfrwt>
<pdfrwt beam="2">  1       -1 0.38990025E-01 0.11479183E+04</pdfrwt>
<totfact> 0.11899003E+02</totfact>
</mgrwt>
</event>
<event>
12    6  0.1450532E-007  0.1224614E+04  0.7818608E-02  0.9091580E-01
         -1   -1    0    0    0  501 -0.00000000000E+00  0.00000000000E+00  0.11744226740E+03  0.11744226740E+03  0.00000000000E+00 0.  1.
          2   -1    0    0  501    0  0.00000000000E+00 -0.00000000000E+00 -0.31923773353E+04  0.31923773353E+04  0.00000000000E+00 0. -1.
         24    2    1    2    0    0 -0.44187393491E+02  0.23563999906E+03 -0.36655889147E+03  0.44514858316E+03  0.79455051876E+02 0.  0.
        254    2    1    2    0    0  0.44187393491E+02 -0.23563999906E+03 -0.27083761764E+04  0.28646710195E+04  0.90197549977E+03 0.  0.
         23    2    4    4    0    0 -0.17443356103E+03 -0.33046192094E+03 -0.44981262437E+03  0.59173848515E+03  0.90503532303E+02 0.  0.
         23    2    4    4    0    0  0.21862095452E+03  0.94821921880E+02 -0.22585635520E+04  0.22729325343E+04  0.91250580982E+02 0.  0.
          4    1    3    3  502    0 -0.16814135540E+02  0.78774094390E+01 -0.56359380698E+02  0.59339266309E+02  0.00000000000E+00 0. -1.
         -3    1    3    3    0  502 -0.27373257951E+02  0.22776258963E+03 -0.31019951077E+03  0.38580931685E+03  0.00000000000E+00 0.  1.
         11    1    5    5    0    0 -0.50570504384E+02 -0.19267625215E+03 -0.23284586552E+03  0.30642896590E+03  0.00000000000E+00 0. -1.
        -11    1    5    5    0    0 -0.12386305665E+03 -0.13778566880E+03 -0.21696675885E+03  0.28530951925E+03  0.00000000000E+00 0.  1.
          3    1    6    6  503    0 -0.77004744506E+01  0.47283875461E+01 -0.16457389856E+03  0.16482179178E+03  0.00000000000E+00 0. -1.
         -3    1    6    6    0  503  0.22632142897E+03  0.90093534334E+02 -0.20939896535E+04  0.21081107426E+04  0.00000000000E+00 0.  1.
<mgrwt>
<rscale>  0 0.12246143E+04</rscale>
<asrwt>0</asrwt>
<pdfrwt beam="1">  1        2 0.49113496E+00 0.12246143E+04</pdfrwt>
<pdfrwt beam="2">  1       -1 0.18068042E-01 0.12246143E+04</pdfrwt>
<totfact> 0.36290169E+01</totfact>
</mgrwt>
</event>
<event>
12    6  0.1450532E-007  0.1886122E+04  0.7818608E-02  0.8661795E-01
         -1   -1    0    0    0  501 -0.00000000000E+00  0.00000000000E+00  0.10968441186E+04  0.10968441186E+04  0.00000000000E+00 0.  1.
          2   -1    0    0  501    0  0.00000000000E+00 -0.00000000000E+00 -0.81083904895E+03  0.81083904895E+03  0.00000000000E+00 0. -1.
         24    2    1    2    0    0  0.18492437005E+03 -0.66007546582E+03 -0.13847854952E+03  0.70415522585E+03  0.82229132291E+02 0.  0.
        254    2    1    2    0    0 -0.18492437005E+03  0.66007546582E+03  0.42448361920E+03  0.12035279417E+04  0.89353036900E+03 0.  0.
         23    2    4    4    0    0  0.17725928816E+03  0.18269798431E+03 -0.19757523452E+03  0.33493534389E+03  0.91358100779E+02 0.  0.
         23    2    4    4    0    0 -0.36218365821E+03  0.47737748150E+03  0.62205885372E+03  0.86859259784E+03  0.91812969683E+02 0.  0.
          4    1    3    3  502    0  0.41942572009E+02 -0.22750014332E+03 -0.80238916278E+02  0.24485460634E+03  0.00000000000E+00 0. -1.
         -3    1    3    3    0  502  0.14298179804E+03 -0.43257532249E+03 -0.58239633245E+02  0.45930061951E+03  0.00000000000E+00 0.  1.
         11    1    5    5    0    0  0.11544650496E+03  0.74093052313E+02 -0.61950554612E+02  0.15051759739E+03  0.00000000000E+00 0.  1.
        -11    1    5    5    0    0  0.61812783202E+02  0.10860493200E+03 -0.13562467991E+03  0.18441774649E+03  0.00000000000E+00 0. -1.
          3    1    6    6  503    0 -0.11991141784E+03  0.13297236323E+03  0.24433790573E+03  0.30292145795E+03  0.00000000000E+00 0. -1.
         -3    1    6    6    0  503 -0.24227224037E+03  0.34440511827E+03  0.37772094799E+03  0.56567113988E+03  0.00000000000E+00 0.  1.
<mgrwt>
<rscale>  0 0.18861220E+04</rscale>
<asrwt>0</asrwt>
<pdfrwt beam="1">  1        2 0.12474447E+00 0.18861220E+04</pdfrwt>
<pdfrwt beam="2">  1       -1 0.16874525E+00 0.18861220E+04</pdfrwt>
<totfact> 0.91003850E+00</totfact>
</mgrwt>
</event>
<event>
12    6  0.1450532E-007  0.2015587E+04  0.7818608E-02  0.8599368E-01
          2   -1    0    0  501    0  0.00000000000E+00  0.00000000000E+00  0.11305532262E+04  0.11305532262E+04  0.00000000000E+00 0. -1.
         -1   -1    0    0    0  501 -0.00000000000E+00 -0.00000000000E+00 -0.89836322391E+03  0.89836322391E+03  0.00000000000E+00 0.  1.
         24    2    1    2    0    0  0.78504471314E+03  0.15143714925E+03 -0.17805137318E+01  0.80351151623E+03  0.79994841585E+02 0.  0.
        254    2    1    2    0    0 -0.78504471314E+03 -0.15143714925E+03  0.23397051603E+03  0.12254049339E+04  0.89869162555E+03 0.  0.
         23    2    4    4    0    0  0.10530197199E+03 -0.26578780759E+03  0.44068710202E+02  0.30306663365E+03  0.90419407448E+02 0.  0.
         23    2    4    4    0    0 -0.89034668512E+03  0.11435065834E+03  0.18990180583E+03  0.92233830024E+03  0.94084809898E+02 0.  0.
          2    1    3    3  502    0  0.72352785452E+02  0.38389069330E+02 -0.57920156255E+00  0.81908373694E+02  0.00000000000E+00 0. -1.
         -1    1    3    3    0  502  0.71269192769E+03  0.11304807992E+03 -0.12013121692E+01  0.72160314253E+03  0.00000000000E+00 0.  1.
         11    1    5    5    0    0  0.53394747749E+02 -0.41480897392E+02  0.24832143692E+02  0.72029850034E+02  0.00000000000E+00 0.  1.
        -11    1    5    5    0    0  0.51907224237E+02 -0.22430691020E+03  0.19236566510E+02  0.23103678362E+03  0.00000000000E+00 0. -1.
          4    1    6    6  503    0 -0.60896616088E+03  0.52050758617E+02  0.16501384674E+03  0.63307079871E+03  0.00000000000E+00 0. -1.
         -4    1    6    6    0  503 -0.28138052425E+03  0.62299899724E+02  0.24887959088E+02  0.28926750153E+03  0.00000000000E+00 0.  1.
<mgrwt>
<rscale>  0 0.20155867E+04</rscale>
<asrwt>0</asrwt>
<pdfrwt beam="1">  1        2 0.17393127E+00 0.20155867E+04</pdfrwt>
<pdfrwt beam="2">  1       -1 0.13820973E+00 0.20155867E+04</pdfrwt>
<totfact> 0.95707064E+00</totfact>
</mgrwt>
</event>
<event>
12    6  0.1450532E-007  0.1764925E+04  0.7818608E-02  0.8725178E-01
          2   -1    0    0  501    0  0.00000000000E+00  0.00000000000E+00  0.77737189097E+03  0.77737189097E+03  0.00000000000E+00 0. -1.
         -1   -1    0    0    0  501 -0.00000000000E+00 -0.00000000000E+00 -0.10017595491E+04  0.10017595491E+04  0.00000000000E+00 0.  1.
         24    2    1    2    0    0  0.51622363225E+03  0.36766626257E+03 -0.22684186913E+03  0.67795463916E+03  0.80622205623E+02 0.  0.
        254    2    1    2    0    0 -0.51622363225E+03 -0.36766626257E+03  0.24542109727E+01  0.11011768009E+04  0.90051041340E+03 0.  0.
         23    2    4    4    0    0 -0.55903508982E+03 -0.22446599922E+03 -0.35431873362E+03  0.70421450287E+03  0.86435436045E+02 0.  0.
         23    2    4    4    0    0  0.42811457566E+02 -0.14320026335E+03  0.35677294460E+03  0.39696229807E+03  0.89179570354E+02 0.  0.
          2    1    3    3  502    0  0.18931597027E+03  0.11902713119E+03 -0.11898946945E+03  0.25331105069E+03  0.00000000000E+00 0. -1.
         -1    1    3    3    0  502  0.32690766198E+03  0.24863913138E+03 -0.10785239967E+03  0.42464358847E+03  0.00000000000E+00 0.  1.
         11    1    5    5    0    0 -0.10078415319E+03 -0.73155193575E+01 -0.49091256011E+02  0.11234284033E+03  0.00000000000E+00 0.  1.
        -11    1    5    5    0    0 -0.45825093663E+03 -0.21715047987E+03 -0.30522747761E+03  0.59187166254E+03  0.00000000000E+00 0. -1.
          1    1    6    6  503    0  0.43959852148E+01 -0.11291228319E+03  0.30716972373E+03  0.32729458834E+03  0.00000000000E+00 0. -1.
         -1    1    6    6    0  503  0.38415472351E+02 -0.30287980163E+02  0.49603220867E+02  0.69667709727E+02  0.00000000000E+00 0.  1.
<mgrwt>
<rscale>  0 0.17649246E+04</rscale>
<asrwt>0</asrwt>
<pdfrwt beam="1">  1        2 0.11959568E+00 0.17649246E+04</pdfrwt>
<pdfrwt beam="2">  1       -1 0.15411685E+00 0.17649246E+04</pdfrwt>
<totfact> 0.12536156E+01</totfact>
</mgrwt>
</event>
<event>
12    6  0.1450532E-007  0.1368599E+04  0.7818608E-02  0.8976867E-01
         -1   -1    0    0    0  501 -0.00000000000E+00  0.00000000000E+00  0.26224661709E+03  0.26224661709E+03  0.00000000000E+00 0.  1.
          2   -1    0    0  501    0  0.00000000000E+00 -0.00000000000E+00 -0.17855933216E+04  0.17855933216E+04  0.00000000000E+00 0. -1.
         24    2    1    2    0    0 -0.74912099133E+02  0.17570711922E+03 -0.94870283488E+03  0.97114628661E+03  0.81260240796E+02 0.  0.
        254    2    1    2    0    0  0.74912099133E+02 -0.17570711922E+03 -0.57464386964E+03  0.10766936521E+04  0.89026334823E+03 0.  0.
         23    2    4    4    0    0  0.21035137373E+01 -0.34148818995E+03  0.10368819390E+03  0.36841952659E+03  0.91449971956E+02 0.  0.
         23    2    4    4    0    0  0.72808585396E+02  0.16578107073E+03 -0.67833206355E+03  0.70827412550E+03  0.93452634535E+02 0.  0.
          2    1    3    3  502    0 -0.89633806660E+02  0.13771531265E+03 -0.81387767854E+03  0.83029910409E+03  0.00000000000E+00 0. -1.
         -1    1    3    3    0  502  0.14721707526E+02  0.37991806563E+02 -0.13482515634E+03  0.14084718251E+03  0.00000000000E+00 0.  1.
         11    1    5    5    0    0 -0.39056655275E+02 -0.92069293903E+02  0.18856424919E+02  0.10177299230E+03  0.00000000000E+00 0.  1.
        -11    1    5    5    0    0  0.41160169012E+02 -0.24941889605E+03  0.84831768985E+02  0.26664653429E+03  0.00000000000E+00 0. -1.
          4    1    6    6  503    0  0.56373316702E+02  0.36292959216E+02 -0.15441459245E+03  0.16834190235E+03  0.00000000000E+00 0.  1.
         -4    1    6    6    0  503  0.16435268694E+02  0.12948811152E+03 -0.52391747110E+03  0.53993222316E+03  0.00000000000E+00 0. -1.
<mgrwt>
<rscale>  0 0.13685990E+04</rscale>
<asrwt>0</asrwt>
<pdfrwt beam="1">  1        2 0.27470667E+00 0.13685990E+04</pdfrwt>
<pdfrwt beam="2">  1       -1 0.40345633E-01 0.13685990E+04</pdfrwt>
<totfact> 0.58565238E+01</totfact>
</mgrwt>
</event>
<event>
12    6  0.1450532E-007  0.1673303E+04  0.7818608E-02  0.8776739E-01
          2   -1    0    0  501    0  0.00000000000E+00  0.00000000000E+00  0.74265450287E+03  0.74265450287E+03  0.00000000000E+00 0. -1.
         -1   -1    0    0    0  501 -0.00000000000E+00 -0.00000000000E+00 -0.94254536094E+03  0.94254536094E+03  0.00000000000E+00 0.  1.
         24    2    1    2    0    0 -0.48896884536E+03  0.32785460600E+03  0.12097960241E+02  0.59404386475E+03  0.78502090455E+02 0.  0.
        254    2    1    2    0    0  0.48896884536E+03 -0.32785460600E+03 -0.21198881831E+03  0.10911559991E+04  0.89392560138E+03 0.  0.
         23    2    4    4    0    0  0.73972758855E+03 -0.24432275994E+03 -0.96768682701E+02  0.78978857010E+03  0.86667705747E+02 0.  0.
         23    2    4    4    0    0 -0.25075874320E+03 -0.83531846056E+02 -0.11522013561E+03  0.30136742896E+03  0.87687690087E+02 0.  0.
          2    1    3    3  502    0 -0.79536330458E+02  0.52778052722E+02  0.31181250570E+02  0.10041823091E+03  0.00000000000E+00 0. -1.
         -1    1    3    3    0  502 -0.40943251490E+03  0.27507655328E+03 -0.19083290328E+02  0.49362563384E+03  0.00000000000E+00 0.  1.
         11    1    5    5    0    0  0.19350758737E+03 -0.33052226191E+02 -0.48087984275E+02  0.20211405260E+03  0.00000000000E+00 0.  1.
        -11    1    5    5    0    0  0.54622000119E+03 -0.21127053375E+03 -0.48680698426E+02  0.58767451751E+03  0.00000000000E+00 0. -1.
          3    1    6    6  503    0 -0.53436930627E+02  0.17812977179E+02 -0.17616407324E+02  0.59018179553E+02  0.00000000000E+00 0. -1.
         -3    1    6    6    0  503 -0.19732181257E+03 -0.10134482324E+03 -0.97603728283E+02  0.24234924941E+03  0.00000000000E+00 0.  1.
<mgrwt>
<rscale>  0 0.16733028E+04</rscale>
<asrwt>0</asrwt>
<pdfrwt beam="1">  1        2 0.11425454E+00 0.16733028E+04</pdfrwt>
<pdfrwt beam="2">  1       -1 0.14500698E+00 0.16733028E+04</pdfrwt>
<totfact> 0.15800038E+01</totfact>
</mgrwt>
</event>
<event>
12    6  0.1450532E-007  0.1359347E+04  0.7818608E-02  0.8983783E-01
          2   -1    0    0  501    0  0.00000000000E+00  0.00000000000E+00  0.15960846452E+04  0.15960846452E+04  0.00000000000E+00 0. -1.
         -1   -1    0    0    0  501 -0.00000000000E+00 -0.00000000000E+00 -0.28943078087E+03  0.28943078087E+03  0.00000000000E+00 0.  1.
         24    2    1    2    0    0  0.10317704338E+03 -0.62417726255E+02 -0.13213894291E+03  0.19683346160E+03  0.82105033584E+02 0.  0.
        254    2    1    2    0    0 -0.10317704338E+03  0.62417726255E+02  0.14387928073E+04  0.16886819645E+04  0.87577426325E+03 0.  0.
         23    2    4    4    0    0 -0.27021346810E+03  0.27580230286E+03  0.13270280408E+04  0.13851132157E+04  0.91940038772E+02 0.  0.
         23    2    4    4    0    0  0.16703642472E+03 -0.21338457661E+03  0.11176476648E+03  0.30356874878E+03  0.78920703826E+02 0.  0.
          2    1    3    3  502    0 -0.13820914355E+01 -0.33380199117E+02 -0.13451235959E+02  0.36015047115E+02  0.00000000000E+00 0. -1.
         -1    1    3    3    0  502  0.10455913482E+03 -0.29037527137E+02 -0.11868770695E+03  0.16081841448E+03  0.00000000000E+00 0.  1.
         11    1    5    5    0    0 -0.11222207769E+03  0.17676273538E+03  0.65115955469E+03  0.68399387790E+03  0.00000000000E+00 0.  1.
        -11    1    5    5    0    0 -0.15799139041E+03  0.99039567482E+02  0.67586848611E+03  0.70111933784E+03  0.00000000000E+00 0. -1.
          2    1    6    6  503    0  0.59204009153E+01 -0.13623057545E+02  0.31244461876E+02  0.34595595699E+02  0.00000000000E+00 0. -1.
         -2    1    6    6    0  503  0.16111602381E+03 -0.19976151906E+03  0.80520304606E+02  0.26897315308E+03  0.00000000000E+00 0.  1.
<mgrwt>
<rscale>  0 0.13593469E+04</rscale>
<asrwt>0</asrwt>
<pdfrwt beam="1">  1        2 0.24555148E+00 0.13593469E+04</pdfrwt>
<pdfrwt beam="2">  1       -1 0.44527813E-01 0.13593469E+04</pdfrwt>
<totfact> 0.62254748E+01</totfact>
</mgrwt>
</event>
<event>
12    6  0.1450532E-007  0.2244386E+04  0.7818608E-02  0.8500178E-01
         -1   -1    0    0    0  501 -0.00000000000E+00  0.00000000000E+00  0.57487909752E+03  0.57487909752E+03  0.00000000000E+00 0.  1.
          2   -1    0    0  501    0  0.00000000000E+00 -0.00000000000E+00 -0.21905772564E+04  0.21905772564E+04  0.00000000000E+00 0. -1.
         24    2    1    2    0    0 -0.53199923668E+03  0.74088021620E+03 -0.94671092590E+03  0.13175190304E+04  0.87567892413E+02 0.  0.
        254    2    1    2    0    0  0.53199923668E+03 -0.74088021620E+03 -0.66898723296E+03  0.14479373235E+04  0.90390922786E+03 0.  0.
         23    2    4    4    0    0  0.81056585433E+02 -0.66061663508E+03 -0.71193501361E+03  0.97886136240E+03  0.91288523929E+02 0.  0.
         23    2    4    4    0    0  0.45094265125E+03 -0.80263581122E+02  0.42947780650E+02  0.46907596106E+03  0.91630934800E+02 0.  0.
          4    1    3    3  502    0 -0.32402409554E+03  0.39710252209E+03 -0.57337009233E+03  0.76904830168E+03  0.00000000000E+00 0. -1.
         -3    1    3    3    0  502 -0.20797514114E+03  0.34377769411E+03 -0.37334083357E+03  0.54847072876E+03  0.00000000000E+00 0.  1.
         11    1    5    5    0    0  0.13413438000E+02 -0.45114156845E+03 -0.49293762388E+03  0.66835330189E+03  0.00000000000E+00 0. -1.
        -11    1    5    5    0    0  0.67643147433E+02 -0.20947506663E+03 -0.21899738972E+03  0.31050806051E+03  0.00000000000E+00 0.  1.
          1    1    6    6  503    0  0.17015072543E+03 -0.74561812122E+02  0.66432820315E+01  0.18588939289E+03  0.00000000000E+00 0. -1.
         -1    1    6    6    0  503  0.28079192582E+03 -0.57017689998E+01  0.36304498618E+02  0.28318656818E+03  0.00000000000E+00 0.  1.
<mgrwt>
<rscale>  0 0.22443860E+04</rscale>
<asrwt>0</asrwt>
<pdfrwt beam="1">  1        2 0.33701189E+00 0.22443860E+04</pdfrwt>
<pdfrwt beam="2">  1       -1 0.88442938E-01 0.22443860E+04</pdfrwt>
<totfact> 0.68001204E+00</totfact>
</mgrwt>
</event>
<event>
12    6  0.1450532E-007  0.1495495E+04  0.7818608E-02  0.8887454E-01
          2   -1    0    0  501    0  0.00000000000E+00  0.00000000000E+00  0.39448591587E+03  0.39448591587E+03  0.00000000000E+00 0. -1.
         -1   -1    0    0    0  501 -0.00000000000E+00 -0.00000000000E+00 -0.14173550805E+04  0.14173550805E+04  0.00000000000E+00 0.  1.
         24    2    1    2    0    0 -0.41216556366E+03 -0.85591392068E+02 -0.57097383841E+03  0.71356706957E+03  0.77204276850E+02 0.  0.
        254    2    1    2    0    0  0.41216556366E+03  0.85591392068E+02 -0.45189532626E+03  0.10982739268E+04  0.90817943944E+03 0.  0.
         23    2    4    4    0    0  0.10803640963E+03  0.25894763409E+03 -0.62949400123E+03  0.69531798270E+03  0.92079620306E+02 0.  0.
         23    2    4    4    0    0  0.30412915402E+03 -0.17335624202E+03  0.17759867497E+03  0.40295594414E+03  0.91023483723E+02 0.  0.
          2    1    3    3  502    0 -0.52124955961E+02  0.14608681489E+02 -0.78052332044E+02  0.94987320976E+02  0.00000000000E+00 0. -1.
         -3    1    3    3    0  502 -0.36004060770E+03 -0.10020007356E+03 -0.49292150637E+03  0.61857974859E+03  0.00000000000E+00 0.  1.
         11    1    5    5    0    0  0.76393664975E+02  0.14918587140E+03 -0.47111476876E+03  0.50004153989E+03  0.00000000000E+00 0.  1.
        -11    1    5    5    0    0  0.31642744659E+02  0.10976176269E+03 -0.15837923248E+03  0.19527644282E+03  0.00000000000E+00 0. -1.
          3    1    6    6  503    0  0.14201600037E+03 -0.77694317054E+02  0.32068021231E+02  0.16502517762E+03  0.00000000000E+00 0. -1.
         -3    1    6    6    0  503  0.16211315365E+03 -0.95661924968E+02  0.14553065374E+03  0.23793076651E+03  0.00000000000E+00 0.  1.
<mgrwt>
<rscale>  0 0.14954954E+04</rscale>
<asrwt>0</asrwt>
<pdfrwt beam="1">  1        2 0.60690141E-01 0.14954954E+04</pdfrwt>
<pdfrwt beam="2">  1       -1 0.21805463E+00 0.14954954E+04</pdfrwt>
<totfact> 0.10129966E+01</totfact>
</mgrwt>
</event>
<event>
12    6  0.1450532E-007  0.1218772E+04  0.7818608E-02  0.9096582E-01
          2   -1    0    0  501    0  0.00000000000E+00  0.00000000000E+00  0.16787833031E+04  0.16787833031E+04  0.00000000000E+00 0. -1.
         -1   -1    0    0    0  501 -0.00000000000E+00 -0.00000000000E+00 -0.22120279638E+03  0.22120279638E+03  0.00000000000E+00 0.  1.
         24    2    1    2    0    0  0.23251125717E+03 -0.99708834273E+02  0.16431128765E+03  0.31135913337E+03  0.77090689079E+02 0.  0.
        254    2    1    2    0    0 -0.23251125717E+03  0.99708834273E+02  0.12932692190E+04  0.15886269661E+04  0.88723561024E+03 0.  0.
         23    2    4    4    0    0 -0.46376156112E+03  0.25807858694E+02  0.29544892668E+03  0.55772915876E+03  0.89615373214E+02 0.  0.
         23    2    4    4    0    0  0.23125030395E+03  0.73900975579E+02  0.99782029235E+03  0.10308978073E+04  0.90370880316E+02 0.  0.
          2    1    3    3  502    0  0.98515888773E+02 -0.22662368126E+02  0.10513832463E+03  0.14585277020E+03  0.00000000000E+00 0. -1.
         -1    1    3    3    0  502  0.13399536839E+03 -0.77046466147E+02  0.59172963021E+02  0.16550636317E+03  0.00000000000E+00 0.  1.
         11    1    5    5    0    0 -0.12420843492E+03 -0.29709465876E+02  0.98512365348E+02  0.16129189004E+03  0.00000000000E+00 0. -1.
        -11    1    5    5    0    0 -0.33955312620E+03  0.55517324570E+02  0.19693656133E+03  0.39643726872E+03  0.00000000000E+00 0.  1.
          1    1    6    6  503    0  0.58944475011E+02  0.62804301837E+02  0.31104415148E+03  0.32274958657E+03  0.00000000000E+00 0. -1.
         -1    1    6    6    0  503  0.17230582894E+03  0.11096673742E+02  0.68677614088E+03  0.70814822074E+03  0.00000000000E+00 0.  1.
<mgrwt>
<rscale>  0 0.12187724E+04</rscale>
<asrwt>0</asrwt>
<pdfrwt beam="1">  1        2 0.25827435E+00 0.12187724E+04</pdfrwt>
<pdfrwt beam="2">  1       -1 0.34031201E-01 0.12187724E+04</pdfrwt>
<totfact> 0.92315446E+01</totfact>
</mgrwt>
</event>
<event>
12    6  0.1450532E-007  0.1679276E+04  0.7818608E-02  0.8773273E-01
          2   -1    0    0  501    0  0.00000000000E+00  0.00000000000E+00  0.17029400042E+04  0.17029400042E+04  0.00000000000E+00 0. -1.
         -1   -1    0    0    0  501 -0.00000000000E+00 -0.00000000000E+00 -0.41398528431E+03  0.41398528431E+03  0.00000000000E+00 0.  1.
         24    2    1    2    0    0  0.16292558398E+03  0.50480849848E+02  0.11773919857E+04  0.11923745352E+04  0.80075476646E+02 0.  0.
        254    2    1    2    0    0 -0.16292558398E+03 -0.50480849848E+02  0.11156273418E+03  0.92455075335E+03  0.90180640369E+03 0.  0.
         23    2    4    4    0    0  0.36704818381E+03 -0.62196777800E+01  0.48261202290E+02  0.38114408485E+03  0.90435701676E+02 0.  0.
         23    2    4    4    0    0 -0.52997376779E+03 -0.44261172068E+02  0.63301531892E+02  0.54340666850E+03  0.91937356539E+02 0.  0.
          2    1    3    3  502    0  0.14715815469E+03  0.69001577479E+02  0.10691332253E+04  0.10814169380E+04  0.00000000000E+00 0. -1.
         -1    1    3    3    0  502  0.15767429283E+02 -0.18520727630E+02  0.10825876039E+03  0.11095759721E+03  0.00000000000E+00 0.  1.
         11    1    5    5    0    0  0.15227598462E+03 -0.34984314849E+02 -0.10599535377E+02  0.15660213258E+03  0.00000000000E+00 0.  1.
        -11    1    5    5    0    0  0.21477219919E+03  0.28764637069E+02  0.58860737667E+02  0.22454195228E+03  0.00000000000E+00 0. -1.
          1    1    6    6  503    0 -0.96024132455E+02  0.18758871965E+02 -0.11702060712E+02  0.98536630326E+02  0.00000000000E+00 0. -1.
         -1    1    6    6    0  503 -0.43394963534E+03 -0.63020044034E+02  0.75003592604E+02  0.44487003817E+03  0.00000000000E+00 0.  1.
<mgrwt>
<rscale>  0 0.16792762E+04</rscale>
<asrwt>0</asrwt>
<pdfrwt beam="1">  1        2 0.26199077E+00 0.16792762E+04</pdfrwt>
<pdfrwt beam="2">  1       -1 0.63690045E-01 0.16792762E+04</pdfrwt>
<totfact> 0.26520026E+01</totfact>
</mgrwt>
</event>
<event>
12    6  0.1450532E-007  0.1565764E+04  0.7818608E-02  0.8841861E-01
         -1   -1    0    0    0  501 -0.00000000000E+00  0.00000000000E+00  0.20549704961E+03  0.20549704961E+03  0.00000000000E+00 0.  1.
          2   -1    0    0  501    0  0.00000000000E+00 -0.00000000000E+00 -0.29825449370E+04  0.29825449370E+04  0.00000000000E+00 0. -1.
         24    2    1    2    0    0  0.55090206376E+02 -0.12372160511E+03 -0.19394451431E+04  0.19458039616E+04  0.79772346647E+02 0.  0.
        254    2    1    2    0    0 -0.55090206376E+02  0.12372160511E+03 -0.83760274430E+03  0.12422380251E+04  0.90732297847E+03 0.  0.
         23    2    4    4    0    0 -0.14349654340E+03  0.45919724335E+03 -0.23886645887E+03  0.54433359116E+03  0.88252518477E+02 0.  0.
         23    2    4    4    0    0  0.88406337022E+02 -0.33547563825E+03 -0.59873628543E+03  0.69790443391E+03  0.90696610219E+02 0.  0.
          4    1    3    3  502    0  0.58210561209E+02 -0.72126640357E+02 -0.15733618962E+04  0.15760895844E+04  0.00000000000E+00 0. -1.
         -3    1    3    3    0  502 -0.31203548331E+01 -0.51594964752E+02 -0.36608324696E+03  0.36971437720E+03  0.00000000000E+00 0.  1.
         11    1    5    5    0    0 -0.10758484649E+03  0.27253391604E+03 -0.10257833799E+03  0.31043767492E+03  0.00000000000E+00 0.  1.
        -11    1    5    5    0    0 -0.35911696908E+02  0.18666332732E+03 -0.13628812088E+03  0.23389591624E+03  0.00000000000E+00 0. -1.
          1    1    6    6  503    0  0.98602750639E+02 -0.30088077902E+03 -0.49049453440E+03  0.58381215634E+03  0.00000000000E+00 0. -1.
         -1    1    6    6    0  503 -0.10196413617E+02 -0.34594859224E+02 -0.10824175103E+03  0.11409227757E+03  0.00000000000E+00 0.  1.
<mgrwt>
<rscale>  0 0.15657639E+04</rscale>
<asrwt>0</asrwt>
<pdfrwt beam="1">  1        2 0.45885302E+00 0.15657639E+04</pdfrwt>
<pdfrwt beam="2">  1       -1 0.31614934E-01 0.15657639E+04</pdfrwt>
<totfact> 0.18297774E+01</totfact>
</mgrwt>
</event>
<event>
12    6  0.1450532E-007  0.1271569E+04  0.7818608E-02  0.9052420E-01
         -1   -1    0    0    0  501 -0.00000000000E+00  0.00000000000E+00  0.29650510734E+03  0.29650510734E+03  0.00000000000E+00 0.  1.
          2   -1    0    0  501    0  0.00000000000E+00 -0.00000000000E+00 -0.13632881199E+04  0.13632881199E+04  0.00000000000E+00 0. -1.
         24    2    1    2    0    0  0.72941266622E+01 -0.78484021196E+02 -0.65541896923E+03  0.66498452429E+03  0.80108966082E+02 0.  0.
        254    2    1    2    0    0 -0.72941266622E+01  0.78484021196E+02 -0.41136404330E+03  0.99480870292E+03  0.90233643028E+03 0.  0.
         23    2    4    4    0    0  0.33751089286E+03 -0.58833110439E+02  0.88474905085E+02  0.36544836718E+03  0.91377035210E+02 0.  0.
         23    2    4    4    0    0 -0.34480501952E+03  0.13731713163E+03 -0.49983894838E+03  0.62936033573E+03  0.92244033677E+02 0.  0.
          2    1    3    3  502    0 -0.30709993940E+02 -0.64354352968E+02 -0.44808741525E+03  0.45372559789E+03  0.00000000000E+00 0. -1.
         -1    1    3    3    0  502  0.38004120602E+02 -0.14129668228E+02 -0.20733155398E+03  0.21125892640E+03  0.00000000000E+00 0.  1.
         11    1    5    5    0    0 -0.18674821722E+01  0.44261203637E+01 -0.58507182442E+01  0.75702665151E+01  0.00000000000E+00 0.  1.
        -11    1    5    5    0    0  0.33937837503E+03 -0.63259230802E+02  0.94325623329E+02  0.35787810067E+03  0.00000000000E+00 0. -1.
          2    1    6    6  503    0 -0.32600413880E+03  0.10174079326E+03 -0.43486276112E+03  0.55293354803E+03  0.00000000000E+00 0. -1.
         -2    1    6    6    0  503 -0.18800880723E+02  0.35576338370E+02 -0.64976187264E+02  0.76426787707E+02  0.00000000000E+00 0.  1.
<mgrwt>
<rscale>  0 0.12715689E+04</rscale>
<asrwt>0</asrwt>
<pdfrwt beam="1">  1        2 0.20973663E+00 0.12715689E+04</pdfrwt>
<pdfrwt beam="2">  1       -1 0.45616171E-01 0.12715689E+04</pdfrwt>
<totfact> 0.81147814E+01</totfact>
</mgrwt>
</event>
<event>
12    6  0.1450532E-007  0.2540298E+04  0.7818608E-02  0.8388768E-01
         -1   -1    0    0    0  501 -0.00000000000E+00  0.00000000000E+00  0.10481506883E+04  0.10481506883E+04  0.00000000000E+00 0.  1.
          2   -1    0    0  501    0  0.00000000000E+00 -0.00000000000E+00 -0.15391669214E+04  0.15391669214E+04  0.00000000000E+00 0. -1.
         24    2    1    2    0    0 -0.69706143824E+03 -0.44257008851E+03  0.53947461074E+03  0.98960607281E+03  0.80773707225E+02 0.  0.
        254    2    1    2    0    0  0.69706143824E+03  0.44257008851E+03 -0.10304908438E+04  0.15977115369E+04  0.89944863342E+03 0.  0.
         23    2    4    4    0    0  0.71296048358E+03  0.64243137191E+03 -0.66683349764E+03  0.11725500672E+04  0.95791584641E+02 0.  0.
         23    2    4    4    0    0 -0.15899045342E+02 -0.19986128340E+03 -0.36365734615E+03  0.42516146975E+03  0.91204702225E+02 0.  0.
          2    1    3    3  502    0 -0.22751341294E+03 -0.18999141745E+03  0.19794306817E+03  0.35642748211E+03  0.00000000000E+00 0. -1.
         -1    1    3    3    0  502 -0.46954802530E+03 -0.25257867106E+03  0.34153154258E+03  0.63317859069E+03  0.00000000000E+00 0.  1.
         11    1    5    5    0    0  0.52709915177E+03  0.48793648500E+03 -0.44815814138E+03  0.84661753400E+03  0.00000000000E+00 0. -1.
        -11    1    5    5    0    0  0.18586133181E+03  0.15449488691E+03 -0.21867535627E+03  0.32593253317E+03  0.00000000000E+00 0.  1.
          4    1    6    6  503    0  0.11445293365E+02 -0.13498148018E+03 -0.15982211466E+03  0.20950919566E+03  0.00000000000E+00 0.  1.
         -4    1    6    6    0  503 -0.27344338707E+02 -0.64879803222E+02 -0.20383523149E+03  0.21565227409E+03  0.00000000000E+00 0. -1.
<mgrwt>
<rscale>  0 0.25402983E+04</rscale>
<asrwt>0</asrwt>
<pdfrwt beam="1">  1        2 0.23679491E+00 0.25402983E+04</pdfrwt>
<pdfrwt beam="2">  1       -1 0.16125395E+00 0.25402983E+04</pdfrwt>
<totfact> 0.34922543E+00</totfact>
</mgrwt>
</event>
<event>
12    6  0.1450532E-007  0.1258529E+04  0.7818608E-02  0.9063115E-01
         -1   -1    0    0    0  501 -0.00000000000E+00  0.00000000000E+00  0.58303279393E+03  0.58303279393E+03  0.00000000000E+00 0.  1.
          2   -1    0    0  501    0  0.00000000000E+00 -0.00000000000E+00 -0.67916169125E+03  0.67916169125E+03  0.00000000000E+00 0. -1.
         24    2    1    2    0    0  0.11716254585E+03  0.12381123853E+03  0.19822113064E+03  0.27348982896E+03  0.80304327263E+02 0.  0.
        254    2    1    2    0    0 -0.11716254585E+03 -0.12381123853E+03 -0.29435002796E+03  0.98870465621E+03  0.92835266646E+03 0.  0.
         23    2    4    4    0    0  0.21114145895E+03 -0.47397038575E+02  0.24962183951E+03  0.34231617225E+03  0.89677779152E+02 0.  0.
         23    2    4    4    0    0 -0.32830400480E+03 -0.76414199959E+02 -0.54397186746E+03  0.64638848396E+03  0.91049602294E+02 0.  0.
          4    1    3    3  502    0  0.59765713138E+02  0.98584625707E+01  0.57160313428E+02  0.83285239883E+02  0.00000000000E+00 0. -1.
         -3    1    3    3    0  502  0.57396832713E+02  0.11395277596E+03  0.14106081721E+03  0.19020458908E+03  0.00000000000E+00 0.  1.
         11    1    5    5    0    0  0.69197812138E+02  0.23719530290E+01  0.28478436190E+02  0.74866445714E+02  0.00000000000E+00 0. -1.
        -11    1    5    5    0    0  0.14194364681E+03 -0.49768991604E+02  0.22114340332E+03  0.26744972654E+03  0.00000000000E+00 0.  1.
          3    1    6    6  503    0 -0.88072861578E+02  0.96570539134E+01 -0.94574470684E+02  0.12959327970E+03  0.00000000000E+00 0. -1.
         -3    1    6    6    0  503 -0.24023114322E+03 -0.86071253873E+02 -0.44939739678E+03  0.51679520426E+03  0.00000000000E+00 0.  1.
<mgrwt>
<rscale>  0 0.12585286E+04</rscale>
<asrwt>0</asrwt>
<pdfrwt beam="1">  1        2 0.10448641E+00 0.12585286E+04</pdfrwt>
<pdfrwt beam="2">  1       -1 0.89697354E-01 0.12585286E+04</pdfrwt>
<totfact> 0.58195791E+01</totfact>
</mgrwt>
</event>
<event>
12    6  0.1450532E-007  0.1112158E+04  0.7818608E-02  0.9193422E-01
          2   -1    0    0  501    0  0.00000000000E+00  0.00000000000E+00  0.12486265189E+04  0.12486265189E+04  0.00000000000E+00 0. -1.
         -1   -1    0    0    0  501 -0.00000000000E+00 -0.00000000000E+00 -0.24765127464E+03  0.24765127464E+03  0.00000000000E+00 0.  1.
         24    2    1    2    0    0  0.17195720820E+03 -0.47769489034E+02  0.18046445271E+03  0.26642584177E+03  0.81019164007E+02 0.  0.
        254    2    1    2    0    0 -0.17195720820E+03  0.47769489034E+02  0.82051079156E+03  0.12298519518E+04  0.89858035740E+03 0.  0.
         23    2    4    4    0    0 -0.89236182616E+02 -0.29699802408E+03 -0.75331203699E+01  0.32435712463E+03  0.94762196028E+02 0.  0.
         23    2    4    4    0    0 -0.82721025585E+02  0.34476751312E+03  0.82804391193E+03  0.90549482715E+03  0.92502733718E+02 0.  0.
          2    1    3    3  502    0  0.16445316905E+03 -0.33819470911E+02  0.12658834378E+03  0.21026937534E+03  0.00000000000E+00 0. -1.
         -1    1    3    3    0  502  0.75040391535E+01 -0.13950018124E+02  0.53876108928E+02  0.56156466436E+02  0.00000000000E+00 0.  1.
         11    1    5    5    0    0 -0.95252724938E+02 -0.15923652359E+03  0.71193139241E+01  0.18568800899E+03  0.00000000000E+00 0. -1.
        -11    1    5    5    0    0  0.60165423221E+01 -0.13776150050E+03 -0.14652434294E+02  0.13866911563E+03  0.00000000000E+00 0.  1.
          2    1    6    6  503    0 -0.75738479976E+02  0.12683667642E+03  0.30827924327E+03  0.34184784871E+03  0.00000000000E+00 0. -1.
         -2    1    6    6    0  503 -0.69825456094E+01  0.21793083670E+03  0.51976466865E+03  0.56364697844E+03  0.00000000000E+00 0.  1.
<mgrwt>
<rscale>  0 0.11121582E+04</rscale>
<asrwt>0</asrwt>
<pdfrwt beam="1">  1        2 0.19209638E+00 0.11121582E+04</pdfrwt>
<pdfrwt beam="2">  1       -1 0.38100197E-01 0.11121582E+04</pdfrwt>
<totfact> 0.13328279E+02</totfact>
</mgrwt>
</event>
<event>
12    6  0.1450532E-007  0.2638218E+04  0.7818608E-02  0.8355334E-01
         -1   -1    0    0    0  501 -0.00000000000E+00  0.00000000000E+00  0.59055868795E+03  0.59055868795E+03  0.00000000000E+00 0.  1.
          2   -1    0    0  501    0  0.00000000000E+00 -0.00000000000E+00 -0.29464444607E+04  0.29464444607E+04  0.00000000000E+00 0. -1.
         24    2    1    2    0    0 -0.14525598313E+03 -0.11570627869E+04 -0.10175695636E+04  0.15488690903E+04  0.60448729154E+02 0.  0.
        254    2    1    2    0    0  0.14525598313E+03  0.11570627869E+04 -0.13383162092E+04  0.19881340583E+04  0.89537319864E+03 0.  0.
         23    2    4    4    0    0  0.42856270582E+03  0.23111278889E+03 -0.49618184351E+03  0.70113313476E+03  0.91170920875E+02 0.  0.
         23    2    4    4    0    0 -0.28330672269E+03  0.92594999797E+03 -0.84213436567E+03  0.12870009236E+04  0.97647271450E+02 0.  0.
          4    1    3    3  502    0 -0.93786936635E+01 -0.12407741744E+03 -0.13293294444E+03  0.18208331371E+03  0.00000000000E+00 0. -1.
         -3    1    3    3    0  502 -0.13587728947E+03 -0.10329853694E+04 -0.88463661917E+03  0.13667857766E+04  0.00000000000E+00 0.  1.
         11    1    5    5    0    0  0.32854382185E+03  0.17346463190E+03 -0.42920092558E+03  0.56766579597E+03  0.00000000000E+00 0.  1.
        -11    1    5    5    0    0  0.10001888398E+03  0.57648156990E+02 -0.66980917927E+02  0.13346733879E+03  0.00000000000E+00 0. -1.
          2    1    6    6  503    0 -0.14947455443E+03  0.48709315838E+03 -0.50736690844E+03  0.71904350852E+03  0.00000000000E+00 0. -1.
         -2    1    6    6    0  503 -0.13383216826E+03  0.43885683959E+03 -0.33476745722E+03  0.56795741507E+03  0.00000000000E+00 0.  1.
<mgrwt>
<rscale>  0 0.26382179E+04</rscale>
<asrwt>0</asrwt>
<pdfrwt beam="1">  1        2 0.45329914E+00 0.26382179E+04</pdfrwt>
<pdfrwt beam="2">  1       -1 0.90855184E-01 0.26382179E+04</pdfrwt>
<totfact> 0.22295722E+00</totfact>
</mgrwt>
</event>
<event>
12    6  0.1450532E-007  0.1670016E+04  0.7818608E-02  0.8778653E-01
          2   -1    0    0  501    0  0.00000000000E+00  0.00000000000E+00  0.16272918136E+04  0.16272918136E+04  0.00000000000E+00 0. -1.
         -1   -1    0    0    0  501 -0.00000000000E+00 -0.00000000000E+00 -0.42846535821E+03  0.42846535821E+03  0.00000000000E+00 0.  1.
         24    2    1    2    0    0  0.31631014889E+03 -0.27568141111E+03  0.93668597365E+03  0.10295607217E+04  0.81008121262E+02 0.  0.
        254    2    1    2    0    0 -0.31631014889E+03  0.27568141111E+03  0.26214048176E+03  0.10261964501E+04  0.89906016004E+03 0.  0.
         23    2    4    4    0    0 -0.45310949441E+03  0.48533261196E+03  0.26493242895E+02  0.67054823423E+03  0.89872600671E+02 0.  0.
         23    2    4    4    0    0  0.13679934552E+03 -0.20965120085E+03  0.23564723886E+03  0.35564821591E+03  0.91040350087E+02 0.  0.
          4    1    3    3  502    0  0.26511230242E+03 -0.22018322516E+03  0.68519554377E+03  0.76697986854E+03  0.00000000000E+00 0. -1.
         -3    1    3    3    0  502  0.51197846471E+02 -0.55498185951E+02  0.25149042988E+03  0.26258085316E+03  0.00000000000E+00 0.  1.
         11    1    5    5    0    0 -0.37085944396E+03  0.34049247887E+03  0.20165744266E+02  0.50386358529E+03  0.00000000000E+00 0.  1.
        -11    1    5    5    0    0 -0.82250050453E+02  0.14484013309E+03  0.63274986286E+01  0.16668464894E+03  0.00000000000E+00 0. -1.
          3    1    6    6  503    0  0.19513295938E+00 -0.62667685222E+02  0.80423423469E+02  0.10195687270E+03  0.00000000000E+00 0. -1.
         -3    1    6    6    0  503  0.13660421256E+03 -0.14698351563E+03  0.15522381539E+03  0.25369134321E+03  0.00000000000E+00 0.  1.
<mgrwt>
<rscale>  0 0.16700158E+04</rscale>
<asrwt>0</asrwt>
<pdfrwt beam="1">  1        2 0.25035258E+00 0.16700158E+04</pdfrwt>
<pdfrwt beam="2">  1       -1 0.65917748E-01 0.16700158E+04</pdfrwt>
<totfact> 0.27288322E+01</totfact>
</mgrwt>
</event>
<event>
12    6  0.1450532E-007  0.2005519E+04  0.7818608E-02  0.8604045E-01
          2   -1    0    0  501    0  0.00000000000E+00  0.00000000000E+00  0.33209566161E+04  0.33209566161E+04  0.00000000000E+00 0. -1.
         -1   -1    0    0    0  501 -0.00000000000E+00 -0.00000000000E+00 -0.30278225265E+03  0.30278225265E+03  0.00000000000E+00 0.  1.
         24    2    1    2    0    0 -0.70988278424E+03 -0.34268788768E+03  0.15093215051E+04  0.17046671162E+04  0.80436407056E+02 0.  0.
        254    2    1    2    0    0  0.70988278424E+03  0.34268788768E+03  0.15088528584E+04  0.19190717526E+04  0.88590681654E+03 0.  0.
         23    2    4    4    0    0  0.55771259462E+02  0.91513604646E+02  0.10874870214E+04  0.10965438477E+04  0.91078071228E+02 0.  0.
         23    2    4    4    0    0  0.65411152478E+03  0.25117428303E+03  0.42136583700E+03  0.82252790487E+03  0.89736159924E+02 0.  0.
          4    1    3    3  502    0 -0.40544195255E+03 -0.18144331149E+03  0.76790714723E+03  0.88712244867E+03  0.00000000000E+00 0. -1.
         -3    1    3    3    0  502 -0.30444083169E+03 -0.16124457619E+03  0.74141435784E+03  0.81754466750E+03  0.00000000000E+00 0.  1.
         11    1    5    5    0    0  0.42933976499E+01  0.52865025907E+02  0.80802830865E+03  0.80976718371E+03  0.00000000000E+00 0.  1.
        -11    1    5    5    0    0  0.51477861812E+02  0.38648578739E+02  0.27945871274E+03  0.28677666401E+03  0.00000000000E+00 0. -1.
          1    1    6    6  503    0  0.16038202327E+03  0.22529363348E+02  0.85995049770E+02  0.18337151956E+03  0.00000000000E+00 0. -1.
         -1    1    6    6    0  503  0.49372950151E+03  0.22864491968E+03  0.33537078723E+03  0.63915638531E+03  0.00000000000E+00 0.  1.
<mgrwt>
<rscale>  0 0.20055191E+04</rscale>
<asrwt>0</asrwt>
<pdfrwt beam="1">  1        2 0.51091638E+00 0.20055191E+04</pdfrwt>
<pdfrwt beam="2">  1       -1 0.46581887E-01 0.20055191E+04</pdfrwt>
<totfact> 0.52544698E+00</totfact>
</mgrwt>
</event>
<event>
12    6  0.1450532E-007  0.2258174E+04  0.7818608E-02  0.8494598E-01
          2   -1    0    0  501    0  0.00000000000E+00  0.00000000000E+00  0.10209061831E+04  0.10209061831E+04  0.00000000000E+00 0. -1.
         -1   -1    0    0    0  501 -0.00000000000E+00 -0.00000000000E+00 -0.12487311712E+04  0.12487311712E+04  0.00000000000E+00 0.  1.
         24    2    1    2    0    0 -0.17155370902E+03  0.53054137745E+03  0.67404524240E+03  0.87838191562E+03  0.79454217140E+02 0.  0.
        254    2    1    2    0    0  0.17155370902E+03 -0.53054137745E+03 -0.90187023047E+03  0.13912554387E+04  0.90073134438E+03 0.  0.
         23    2    4    4    0    0  0.37458781264E+03 -0.61170160972E+03 -0.90361846270E+03  0.11569887336E+04  0.87187813952E+02 0.  0.
         23    2    4    4    0    0 -0.20303410362E+03  0.81160232267E+02  0.17482322335E+01  0.23426670503E+03  0.84071411529E+02 0.  0.
          2    1    3    3  502    0 -0.32259013484E+02  0.84000604880E+02  0.15847801403E+03  0.18224167059E+03  0.00000000000E+00 0. -1.
         -1    1    3    3    0  502 -0.13929469554E+03  0.44654077257E+03  0.51556722837E+03  0.69614024503E+03  0.00000000000E+00 0.  1.
         11    1    5    5    0    0  0.11518825576E+03 -0.14652874316E+03 -0.28678499882E+03  0.34203017759E+03  0.00000000000E+00 0. -1.
        -11    1    5    5    0    0  0.25939955689E+03 -0.46517286656E+03 -0.61683346389E+03  0.81495855604E+03  0.00000000000E+00 0.  1.
          2    1    6    6  503    0 -0.19757166201E+02  0.23973015214E+02 -0.25706226113E+02  0.40321968401E+02  0.00000000000E+00 0. -1.
         -2    1    6    6    0  503 -0.18327693742E+03  0.57187217053E+02  0.27454458347E+02  0.19394473663E+03  0.00000000000E+00 0.  1.
<mgrwt>
<rscale>  0 0.22581739E+04</rscale>
<asrwt>0</asrwt>
<pdfrwt beam="1">  1        2 0.15706249E+00 0.22581739E+04</pdfrwt>
<pdfrwt beam="2">  1       -1 0.19211249E+00 0.22581739E+04</pdfrwt>
<totfact> 0.43267202E+00</totfact>
</mgrwt>
</event>
<event>
12    6  0.1450532E-007  0.1954182E+04  0.7818608E-02  0.8628347E-01
         -1   -1    0    0    0  501 -0.00000000000E+00  0.00000000000E+00  0.73758101833E+03  0.73758101833E+03  0.00000000000E+00 0.  1.
          2   -1    0    0  501    0  0.00000000000E+00 -0.00000000000E+00 -0.12943751242E+04  0.12943751242E+04  0.00000000000E+00 0. -1.
         24    2    1    2    0    0 -0.63861184217E+03  0.43474772148E+03 -0.20366721932E+03  0.80283547732E+03  0.78954424384E+02 0.  0.
        254    2    1    2    0    0  0.63861184217E+03 -0.43474772148E+03 -0.35312688657E+03  0.12291206652E+04  0.88837398960E+03 0.  0.
         23    2    4    4    0    0 -0.62160402549E+02 -0.43107490469E+03 -0.26095401896E+03  0.51637982233E+03  0.94136240645E+02 0.  0.
         23    2    4    4    0    0  0.70077224472E+03 -0.36728167871E+01 -0.92172867614E+02  0.71274084290E+03  0.91697563017E+02 0.  0.
          2    1    3    3  502    0 -0.56458711475E+03  0.38823087090E+03 -0.20565766915E+03  0.71538583725E+03  0.00000000000E+00 0. -1.
         -1    1    3    3    0  502 -0.74024727422E+02  0.46516850573E+02  0.19904498350E+01  0.87449640066E+02  0.00000000000E+00 0.  1.
         11    1    5    5    0    0  0.30746721221E+01  0.22905744723E+01  0.29228760133E+01  0.48211559050E+01  0.00000000000E+00 0.  1.
        -11    1    5    5    0    0 -0.65235074671E+02 -0.43336547916E+03 -0.26387689497E+03  0.51155866643E+03  0.00000000000E+00 0. -1.
          4    1    6    6  503    0  0.67778368717E+03 -0.18580411891E+02 -0.96930575142E+02  0.68493174455E+03  0.00000000000E+00 0. -1.
         -4    1    6    6    0  503  0.22988557549E+02  0.14907595104E+02  0.47577075282E+01  0.27809098348E+02  0.00000000000E+00 0.  1.
<mgrwt>
<rscale>  0 0.19541817E+04</rscale>
<asrwt>0</asrwt>
<pdfrwt beam="1">  1        2 0.19913463E+00 0.19541817E+04</pdfrwt>
<pdfrwt beam="2">  1       -1 0.11347400E+00 0.19541817E+04</pdfrwt>
<totfact> 0.12549985E+01</totfact>
</mgrwt>
</event>
<event>
12    6  0.1450532E-007  0.1670598E+04  0.7818608E-02  0.8778314E-01
         -1   -1    0    0    0  501 -0.00000000000E+00  0.00000000000E+00  0.28119034955E+03  0.28119034955E+03  0.00000000000E+00 0.  1.
          2   -1    0    0  501    0  0.00000000000E+00 -0.00000000000E+00 -0.24813229233E+04  0.24813229233E+04  0.00000000000E+00 0. -1.
         24    2    1    2    0    0 -0.28858462654E+03 -0.42413796211E+03 -0.29947804381E+03  0.59925198077E+03  0.79004684347E+02 0.  0.
        254    2    1    2    0    0  0.28858462654E+03  0.42413796211E+03 -0.19006545300E+04  0.21632612921E+04  0.89668148085E+03 0.  0.
         23    2    4    4    0    0  0.93630103691E+01 -0.24111698383E+03 -0.82644156047E+03  0.86595137844E+03  0.92957361737E+02 0.  0.
         23    2    4    4    0    0  0.27922161617E+03  0.66525494594E+03 -0.10742129695E+04  0.12973099137E+04  0.92469747681E+02 0.  0.
          4    1    3    3  502    0 -0.15563114713E+03 -0.19196718786E+03 -0.18271250462E+03  0.30733746032E+03  0.00000000000E+00 0. -1.
         -3    1    3    3    0  502 -0.13295347941E+03 -0.23217077426E+03 -0.11676553919E+03  0.29191452044E+03  0.00000000000E+00 0.  1.
         11    1    5    5    0    0  0.41309336560E+02 -0.17197932561E+03 -0.48850396155E+03  0.51953774663E+03  0.00000000000E+00 0.  1.
        -11    1    5    5    0    0 -0.31946326191E+02 -0.69137658217E+02 -0.33793759892E+03  0.34641363181E+03  0.00000000000E+00 0. -1.
          4    1    6    6  503    0  0.23498764660E+03  0.46126546566E+03 -0.73452505966E+03  0.89861676322E+03  0.00000000000E+00 0. -1.
         -4    1    6    6    0  503  0.44233969568E+02  0.20398948029E+03 -0.33968790983E+03  0.39869315045E+03  0.00000000000E+00 0.  1.
<mgrwt>
<rscale>  0 0.16705976E+04</rscale>
<asrwt>0</asrwt>
<pdfrwt beam="1">  1        2 0.38174197E+00 0.16705976E+04</pdfrwt>
<pdfrwt beam="2">  1       -1 0.43260056E-01 0.16705976E+04</pdfrwt>
<totfact> 0.20465150E+01</totfact>
</mgrwt>
</event>
<event>
12    6  0.1450532E-007  0.1843308E+04  0.7818608E-02  0.8683602E-01
         -1   -1    0    0    0  501 -0.00000000000E+00  0.00000000000E+00  0.71843622054E+03  0.71843622054E+03  0.00000000000E+00 0.  1.
          2   -1    0    0  501    0  0.00000000000E+00 -0.00000000000E+00 -0.11823547103E+04  0.11823547103E+04  0.00000000000E+00 0. -1.
         24    2    1    2    0    0 -0.31894447976E+03  0.60616844002E+03 -0.54320752300E+02  0.69224321871E+03  0.84167516746E+02 0.  0.
        254    2    1    2    0    0  0.31894447976E+03 -0.60616844002E+03 -0.40959773750E+03  0.12085477122E+04  0.90755248177E+03 0.  0.
         23    2    4    4    0    0  0.52113604850E+03 -0.14729070763E+03  0.88463268482E+01  0.54924699526E+03  0.91195782271E+02 0.  0.
         23    2    4    4    0    0 -0.20219156874E+03 -0.45887773239E+03 -0.41844406435E+03  0.65930071690E+03  0.90176474570E+02 0.  0.
          2    1    3    3  502    0 -0.11718097836E+03  0.22828057450E+03  0.20352216291E+02  0.25740554596E+03  0.00000000000E+00 0. -1.
         -1    1    3    3    0  502 -0.20176350140E+03  0.37788786552E+03 -0.74672968592E+02  0.43483767275E+03  0.00000000000E+00 0.  1.
         11    1    5    5    0    0  0.82129024176E+02 -0.59188134865E+02 -0.38374353036E+01  0.10130714600E+03  0.00000000000E+00 0.  1.
        -11    1    5    5    0    0  0.43900702432E+03 -0.88102572763E+02  0.12683762152E+02  0.44793984926E+03  0.00000000000E+00 0. -1.
          3    1    6    6  503    0 -0.17516298772E+03 -0.31262874986E+03 -0.32409151745E+03  0.48317090061E+03  0.00000000000E+00 0. -1.
         -3    1    6    6    0  503 -0.27028581013E+02 -0.14624898253E+03 -0.94352546900E+02  0.17612981630E+03  0.00000000000E+00 0.  1.
<mgrwt>
<rscale>  0 0.18433084E+04</rscale>
<asrwt>0</asrwt>
<pdfrwt beam="1">  1        2 0.18190072E+00 0.18433084E+04</pdfrwt>
<pdfrwt beam="2">  1       -1 0.11052865E+00 0.18433084E+04</pdfrwt>
<totfact> 0.15712390E+01</totfact>
</mgrwt>
</event>
<event>
12    6  0.1450532E-007  0.2633145E+04  0.7818608E-02  0.8357029E-01
         -1   -1    0    0    0  501 -0.00000000000E+00  0.00000000000E+00  0.70995714526E+03  0.70995714526E+03  0.00000000000E+00 0.  1.
          2   -1    0    0  501    0  0.00000000000E+00 -0.00000000000E+00 -0.24415042543E+04  0.24415042543E+04  0.00000000000E+00 0. -1.
         24    2    1    2    0    0  0.92493906997E+03 -0.57308433647E+03 -0.12474880176E+04  0.16572597396E+04  0.79658965796E+02 0.  0.
        254    2    1    2    0    0 -0.92493906997E+03  0.57308433647E+03 -0.48405909144E+03  0.14942016599E+04  0.90243418404E+03 0.  0.
         23    2    4    4    0    0  0.72307111163E+02  0.31764312139E+03  0.31737440222E+02  0.33916906790E+03  0.88898372390E+02 0.  0.
         23    2    4    4    0    0 -0.99724618113E+03  0.25544121508E+03 -0.51579653166E+03  0.11550325920E+04  0.91126649935E+02 0.  0.
          4    1    3    3  502    0  0.22245380517E+03 -0.17408303041E+03 -0.34836118651E+03  0.44849315845E+03  0.00000000000E+00 0. -1.
         -3    1    3    3    0  502  0.70248526480E+03 -0.39900130606E+03 -0.89912683106E+03  0.12087665812E+04  0.00000000000E+00 0.  1.
         11    1    5    5    0    0  0.89822395001E+02  0.25004885405E+03  0.40620163179E+02  0.26877963039E+03  0.00000000000E+00 0. -1.
        -11    1    5    5    0    0 -0.17515283838E+02  0.67594267349E+02 -0.88827229577E+01  0.70389437514E+02  0.00000000000E+00 0.  1.
          3    1    6    6  503    0 -0.88154295152E+03  0.20247983861E+03 -0.47349257548E+03  0.10209364718E+04  0.00000000000E+00 0. -1.
         -3    1    6    6    0  503 -0.11570322962E+03  0.52961376464E+02 -0.42303956187E+02  0.13409612019E+03  0.00000000000E+00 0.  1.
<mgrwt>
<rscale>  0 0.26331452E+04</rscale>
<asrwt>0</asrwt>
<pdfrwt beam="1">  1        2 0.37561604E+00 0.26331452E+04</pdfrwt>
<pdfrwt beam="2">  1       -1 0.10922418E+00 0.26331452E+04</pdfrwt>
<totfact> 0.29288485E+00</totfact>
</mgrwt>
</event>
<event>
12    6  0.1450532E-007  0.1434623E+04  0.7818608E-02  0.8929131E-01
          2   -1    0    0  501    0  0.00000000000E+00  0.00000000000E+00  0.17413976029E+04  0.17413976029E+04  0.00000000000E+00 0. -1.
         -1   -1    0    0    0  501 -0.00000000000E+00 -0.00000000000E+00 -0.29547298243E+03  0.29547298243E+03  0.00000000000E+00 0.  1.
         24    2    1    2    0    0 -0.10438157962E+03 -0.42076838105E+03  0.41326935229E+03  0.60416705245E+03  0.79276257908E+02 0.  0.
        254    2    1    2    0    0  0.10438157962E+03  0.42076838105E+03  0.10326552682E+04  0.14327035329E+04  0.89348808921E+03 0.  0.
         23    2    4    4    0    0 -0.13039870998E+03 -0.22835044700E+03  0.17580145002E+03  0.32878282611E+03  0.89689724646E+02 0.  0.
         23    2    4    4    0    0  0.23478028961E+03  0.64911882805E+03  0.85685381814E+03  0.11039207068E+04  0.89249223106E+02 0.  0.
          4    1    3    3  502    0 -0.35236507287E+02 -0.40780079557E+02  0.40773791422E+02  0.67580532710E+02  0.00000000000E+00 0. -1.
         -3    1    3    3    0  502 -0.69145072335E+02 -0.37998830150E+03  0.37249556087E+03  0.53658651974E+03  0.00000000000E+00 0.  1.
         11    1    5    5    0    0 -0.66789723970E+02 -0.16773546002E+03  0.15625185987E+03  0.23876912591E+03  0.00000000000E+00 0. -1.
        -11    1    5    5    0    0 -0.63608986014E+02 -0.60614986979E+02  0.19549590143E+02  0.90013700196E+02  0.00000000000E+00 0.  1.
          4    1    6    6  503    0  0.14725160100E+03  0.42790220503E+03  0.49309149219E+03  0.66927016275E+03  0.00000000000E+00 0. -1.
         -4    1    6    6    0  503  0.87528688601E+02  0.22121662302E+03  0.36376232595E+03  0.43465054401E+03  0.00000000000E+00 0.  1.
<mgrwt>
<rscale>  0 0.14346232E+04</rscale>
<asrwt>0</asrwt>
<pdfrwt beam="1">  1        2 0.26790732E+00 0.14346232E+04</pdfrwt>
<pdfrwt beam="2">  1       -1 0.45457383E-01 0.14346232E+04</pdfrwt>
<totfact> 0.49433507E+01</totfact>
</mgrwt>
</event>
<event>
12    6  0.1450532E-007  0.1225024E+04  0.7818608E-02  0.9091231E-01
          2   -1    0    0  501    0  0.00000000000E+00  0.00000000000E+00  0.96261432992E+03  0.96261432992E+03  0.00000000000E+00 0. -1.
         -1   -1    0    0    0  501 -0.00000000000E+00 -0.00000000000E+00 -0.38974177417E+03  0.38974177417E+03  0.00000000000E+00 0.  1.
         24    2    1    2    0    0  0.38261652616E+02 -0.30010288131E+01 -0.14538851087E+03  0.16967091062E+03  0.78596683025E+02 0.  0.
        254    2    1    2    0    0 -0.38261652616E+02  0.30010288131E+01  0.71826106663E+03  0.11826851935E+04  0.93881433031E+03 0.  0.
         23    2    4    4    0    0  0.21750437154E+03 -0.31533710047E+03  0.64667858189E+03  0.75790540055E+03  0.97374377184E+02 0.  0.
         23    2    4    4    0    0 -0.25576602416E+03  0.31833812928E+03  0.71582484733E+02  0.42477979292E+03  0.92511602978E+02 0.  0.
          2    1    3    3  502    0  0.15573425786E+02 -0.82244011806E+01  0.43437149983E+01  0.18139465964E+02  0.00000000000E+00 0. -1.
         -1    1    3    3    0  502  0.22688226830E+02  0.52233723675E+01 -0.14973222587E+03  0.15153144466E+03  0.00000000000E+00 0.  1.
         11    1    5    5    0    0  0.66033819223E+02 -0.18083895517E+03  0.32629319446E+03  0.37885411670E+03  0.00000000000E+00 0. -1.
        -11    1    5    5    0    0  0.15147055232E+03 -0.13449814529E+03  0.32038538743E+03  0.37905128385E+03  0.00000000000E+00 0.  1.
          1    1    6    6  503    0 -0.23639761774E+03  0.32068919251E+03  0.73670976101E+02  0.40515775272E+03  0.00000000000E+00 0. -1.
         -1    1    6    6    0  503 -0.19368406416E+02 -0.23510632337E+01 -0.20884913686E+01  0.19622040201E+02  0.00000000000E+00 0.  1.
<mgrwt>
<rscale>  0 0.12250241E+04</rscale>
<asrwt>0</asrwt>
<pdfrwt beam="1">  1        2 0.14809451E+00 0.12250241E+04</pdfrwt>
<pdfrwt beam="2">  1       -1 0.59960273E-01 0.12250241E+04</pdfrwt>
<totfact> 0.84431703E+01</totfact>
</mgrwt>
</event>
<event>
12    6  0.1450532E-007  0.1672944E+04  0.7818608E-02  0.8776948E-01
          2   -1    0    0  501    0  0.00000000000E+00  0.00000000000E+00  0.30022663087E+04  0.30022663087E+04  0.00000000000E+00 0. -1.
         -1   -1    0    0    0  501 -0.00000000000E+00 -0.00000000000E+00 -0.23305233950E+03  0.23305233950E+03  0.00000000000E+00 0.  1.
         24    2    1    2    0    0  0.36152874863E+03 -0.32241119368E+03  0.33604227643E+03  0.59492004320E+03  0.79708420869E+02 0.  0.
        254    2    1    2    0    0 -0.36152874863E+03  0.32241119368E+03  0.24331716928E+04  0.26403986050E+04  0.90373021024E+03 0.  0.
         23    2    4    4    0    0  0.11425468152E+01 -0.23521278717E+03  0.12898324586E+04  0.13144310703E+04  0.93460723717E+02 0.  0.
         23    2    4    4    0    0 -0.36267129545E+03  0.55762398084E+03  0.11433392342E+04  0.13259675346E+04  0.92142964575E+02 0.  0.
          2    1    3    3  502    0  0.11122580021E+02 -0.31122644400E+02  0.38355024595E+02  0.50630412723E+02  0.00000000000E+00 0. -1.
         -1    1    3    3    0  502  0.35040616861E+03 -0.29128854928E+03  0.29768725183E+03  0.54428963047E+03  0.00000000000E+00 0.  1.
         11    1    5    5    0    0 -0.21743073268E+02 -0.21005432882E+03  0.11986926943E+04  0.12171523148E+04  0.00000000000E+00 0.  1.
        -11    1    5    5    0    0  0.22885620083E+02 -0.25158458342E+02  0.91139764311E+02  0.97278755499E+02  0.00000000000E+00 0. -1.
          1    1    6    6  503    0 -0.34579731036E+02  0.61847998319E+02  0.18615286956E+03  0.19918288967E+03  0.00000000000E+00 0. -1.
         -1    1    6    6    0  503 -0.32809156441E+03  0.49577598252E+03  0.95718636465E+03  0.11267846450E+04  0.00000000000E+00 0.  1.
<mgrwt>
<rscale>  0 0.16729437E+04</rscale>
<asrwt>0</asrwt>
<pdfrwt beam="1">  1        2 0.46188710E+00 0.16729437E+04</pdfrwt>
<pdfrwt beam="2">  1       -1 0.35854208E-01 0.16729437E+04</pdfrwt>
<totfact> 0.14073310E+01</totfact>
</mgrwt>
</event>
<event>
12    6  0.1450532E-007  0.1630885E+04  0.7818608E-02  0.8801796E-01
         -1   -1    0    0    0  501 -0.00000000000E+00  0.00000000000E+00  0.75109595490E+03  0.75109595490E+03  0.00000000000E+00 0.  1.
          2   -1    0    0  501    0  0.00000000000E+00 -0.00000000000E+00 -0.88530183382E+03  0.88530183382E+03  0.00000000000E+00 0. -1.
         24    2    1    2    0    0  0.61915034572E+02 -0.11938368058E+03 -0.59562849062E+03  0.61565776492E+03  0.78582758805E+02 0.  0.
        254    2    1    2    0    0 -0.61915034572E+02  0.11938368058E+03  0.46142261169E+03  0.10207400238E+04  0.90050732085E+03 0.  0.
         23    2    4    4    0    0 -0.24765800557E+03 -0.30674005928E+03  0.34571131511E+03  0.53262744905E+03  0.93550704908E+02 0.  0.
         23    2    4    4    0    0  0.18574297100E+03  0.42612373986E+03  0.11571129658E+03  0.48811257475E+03  0.93717066358E+02 0.  0.
          4    1    3    3  502    0  0.31664820648E+02 -0.93582197043E+02 -0.26807386655E+03  0.28569894364E+03  0.00000000000E+00 0. -1.
         -3    1    3    3    0  502  0.30250213924E+02 -0.25801483538E+02 -0.32755462407E+03  0.32995882129E+03  0.00000000000E+00 0.  1.
         11    1    5    5    0    0 -0.25501151452E+03 -0.30507987557E+03  0.34003855610E+03  0.52319291151E+03  0.00000000000E+00 0.  1.
        -11    1    5    5    0    0  0.73535089468E+01 -0.16601837106E+01  0.56727590094E+01  0.94345375383E+01  0.00000000000E+00 0. -1.
          2    1    6    6  503    0  0.18301387602E+03  0.41043017075E+03  0.90680276015E+02  0.45844292593E+03  0.00000000000E+00 0.  1.
         -2    1    6    6    0  503  0.27290949785E+01  0.15693569117E+02  0.25031020564E+02  0.29669648827E+02  0.00000000000E+00 0. -1.
<mgrwt>
<rscale>  0 0.16308852E+04</rscale>
<asrwt>0</asrwt>
<pdfrwt beam="1">  1        2 0.13620028E+00 0.16308852E+04</pdfrwt>
<pdfrwt beam="2">  1       -1 0.11555322E+00 0.16308852E+04</pdfrwt>
<totfact> 0.22234617E+01</totfact>
</mgrwt>
</event>
<event>
12    6  0.1450532E-007  0.1306712E+04  0.7818608E-02  0.9024260E-01
         -1   -1    0    0    0  501 -0.00000000000E+00  0.00000000000E+00  0.27780379502E+03  0.27780379502E+03  0.00000000000E+00 0.  1.
          2   -1    0    0  501    0  0.00000000000E+00 -0.00000000000E+00 -0.15366022855E+04  0.15366022855E+04  0.00000000000E+00 0. -1.
         24    2    1    2    0    0  0.18944047652E+03  0.25641092035E+03 -0.18665955946E+03  0.37836797841E+03  0.81769687103E+02 0.  0.
        254    2    1    2    0    0 -0.18944047652E+03 -0.25641092035E+03 -0.10721389310E+04  0.14360381021E+04  0.90060495725E+03 0.  0.
         23    2    4    4    0    0 -0.44012100466E+03 -0.43927431076E+03 -0.75244808571E+03  0.98072566156E+03  0.94743246363E+02 0.  0.
         23    2    4    4    0    0  0.25068052814E+03  0.18286339040E+03 -0.31969084527E+03  0.45531244050E+03  0.93954431431E+02 0.  0.
          4    1    3    3  502    0  0.77806128710E+02  0.14714857380E+03 -0.13346371343E+03  0.21335196095E+03  0.00000000000E+00 0. -1.
         -3    1    3    3    0  502  0.11163434781E+03  0.10926234656E+03 -0.53195846023E+02  0.16501601747E+03  0.00000000000E+00 0.  1.
         11    1    5    5    0    0 -0.12010310597E+02 -0.29878974664E+02 -0.70027090631E+02  0.77076547081E+02  0.00000000000E+00 0.  1.
        -11    1    5    5    0    0 -0.42811069406E+03 -0.40939533609E+03 -0.68242099508E+03  0.90364911448E+03  0.00000000000E+00 0. -1.
          4    1    6    6  503    0  0.18341430128E+03  0.14446325495E+03 -0.17710508048E+03  0.29304717619E+03  0.00000000000E+00 0. -1.
         -4    1    6    6    0  503  0.67266226859E+02  0.38400135456E+02 -0.14258576479E+03  0.16226526431E+03  0.00000000000E+00 0.  1.
<mgrwt>
<rscale>  0 0.13067118E+04</rscale>
<asrwt>0</asrwt>
<pdfrwt beam="1">  1        2 0.23640036E+00 0.13067118E+04</pdfrwt>
<pdfrwt beam="2">  1       -1 0.42739045E-01 0.13067118E+04</pdfrwt>
<totfact> 0.72823361E+01</totfact>
</mgrwt>
</event>
<event>
12    6  0.1450532E-007  0.1604447E+04  0.7818608E-02  0.8817821E-01
         -1   -1    0    0    0  501 -0.00000000000E+00  0.00000000000E+00  0.80392065912E+03  0.80392065912E+03  0.00000000000E+00 0.  1.
          2   -1    0    0  501    0  0.00000000000E+00 -0.00000000000E+00 -0.80052988623E+03  0.80052988623E+03  0.00000000000E+00 0. -1.
         24    2    1    2    0    0  0.37225227167E+03 -0.24178366069E+03 -0.31530265091E+03  0.55028481921E+03  0.79790527294E+02 0.  0.
        254    2    1    2    0    0 -0.37225227167E+03  0.24178366069E+03  0.31869342380E+03  0.10541657261E+04  0.90148144045E+03 0.  0.
         23    2    4    4    0    0  0.13128711523E+03 -0.12716909341E+03  0.36825141927E+03  0.42133018441E+03  0.92204834786E+02 0.  0.
         23    2    4    4    0    0 -0.50353938690E+03  0.36895275410E+03 -0.49557995473E+02  0.63283554173E+03  0.91360708420E+02 0.  0.
          2    1    3    3  502    0  0.30511377736E+03 -0.23144712001E+03 -0.27193256502E+03  0.46969086260E+03  0.00000000000E+00 0. -1.
         -1    1    3    3    0  502  0.67138494313E+02 -0.10336540676E+02 -0.43370085888E+02  0.80593956607E+02  0.00000000000E+00 0.  1.
         11    1    5    5    0    0 -0.43739934682E+01 -0.39765819370E+02  0.46245459668E+02  0.61148137739E+02  0.00000000000E+00 0.  1.
        -11    1    5    5    0    0  0.13566110870E+03 -0.87403274041E+02  0.32200595960E+03  0.36018204667E+03  0.00000000000E+00 0. -1.
          4    1    6    6  503    0 -0.50097988010E+03  0.35651969054E+03 -0.38654336630E+02  0.61610168621E+03  0.00000000000E+00 0. -1.
         -4    1    6    6    0  503 -0.25595068048E+01  0.12433063560E+02 -0.10903658844E+02  0.16733855525E+02  0.00000000000E+00 0.  1.
<mgrwt>
<rscale>  0 0.16044470E+04</rscale>
<asrwt>0</asrwt>
<pdfrwt beam="1">  1        2 0.12315844E+00 0.16044470E+04</pdfrwt>
<pdfrwt beam="2">  1       -1 0.12368010E+00 0.16044470E+04</pdfrwt>
<totfact> 0.21647261E+01</totfact>
</mgrwt>
</event>
<event>
12    6  0.1450532E-007  0.1385629E+04  0.7818608E-02  0.8964287E-01
          2   -1    0    0  501    0  0.00000000000E+00  0.00000000000E+00  0.12278045718E+04  0.12278045718E+04  0.00000000000E+00 0. -1.
         -1   -1    0    0    0  501 -0.00000000000E+00 -0.00000000000E+00 -0.39093508737E+03  0.39093508737E+03  0.00000000000E+00 0.  1.
         24    2    1    2    0    0 -0.23092390108E+02  0.22113104835E+03  0.62036195518E+03  0.66389251215E+03  0.80449445177E+02 0.  0.
        254    2    1    2    0    0  0.23092390108E+02 -0.22113104835E+03  0.21650752927E+03  0.95484714704E+03  0.90300906140E+03 0.  0.
         23    2    4    4    0    0  0.12243228175E+03 -0.68752219890E+02  0.54520815252E+03  0.57023316985E+03  0.90539533156E+02 0.  0.
         23    2    4    4    0    0 -0.99339891647E+02 -0.15237882846E+03 -0.32870062325E+03  0.38461397720E+03  0.82438403058E+02 0.  0.
          2    1    3    3  502    0  0.72634924597E+01  0.16258270568E+03  0.50988947271E+03  0.53523188329E+03  0.00000000000E+00 0. -1.
         -1    1    3    3    0  502 -0.30355882567E+02  0.58548342670E+02  0.11047248247E+03  0.12866062886E+03  0.00000000000E+00 0.  1.
         11    1    5    5    0    0 -0.92511790303E+01 -0.21448167021E+02  0.43449894207E+02  0.49330533026E+02  0.00000000000E+00 0. -1.
        -11    1    5    5    0    0  0.13168346078E+03 -0.47304052869E+02  0.50175825831E+03  0.52090263682E+03  0.00000000000E+00 0.  1.
          3    1    6    6  503    0 -0.29975352452E+02 -0.75956656018E+02 -0.75602893097E+02  0.11128222137E+03  0.00000000000E+00 0. -1.
         -3    1    6    6    0  503 -0.69364539194E+02 -0.76422172440E+02 -0.25309773015E+03  0.27333175583E+03  0.00000000000E+00 0.  1.
<mgrwt>
<rscale>  0 0.13856289E+04</rscale>
<asrwt>0</asrwt>
<pdfrwt beam="1">  1        2 0.18889301E+00 0.13856289E+04</pdfrwt>
<pdfrwt beam="2">  1       -1 0.60143860E-01 0.13856289E+04</pdfrwt>
<totfact> 0.56767873E+01</totfact>
</mgrwt>
</event>
<event>
12    6  0.1450532E-007  0.3073136E+04  0.7818608E-02  0.8223149E-01
         -1   -1    0    0    0  501 -0.00000000000E+00  0.00000000000E+00  0.84938463281E+03  0.84938463281E+03  0.00000000000E+00 0.  1.
          2   -1    0    0  501    0  0.00000000000E+00 -0.00000000000E+00 -0.27797074571E+04  0.27797074571E+04  0.00000000000E+00 0. -1.
         24    2    1    2    0    0 -0.11768034704E+04  0.75670564106E+03 -0.99111172008E+03  0.17163933727E+04  0.78955259532E+02 0.  0.
        254    2    1    2    0    0  0.11768034704E+04 -0.75670564106E+03 -0.93921110425E+03  0.19126987173E+04  0.90489173365E+03 0.  0.
         23    2    4    4    0    0  0.25787313293E+03 -0.52864467038E+02 -0.66298013973E+03  0.71901232990E+03  0.90237798652E+02 0.  0.
         23    2    4    4    0    0  0.91893033744E+03 -0.70384117402E+03 -0.27623096451E+03  0.11936863874E+04  0.93585695122E+02 0.  0.
          4    1    3    3  502    0 -0.11511536987E+04  0.72971653329E+03 -0.97518942596E+03  0.16758984079E+04  0.00000000000E+00 0. -1.
         -3    1    3    3    0  502 -0.25649771673E+02  0.26989107775E+02 -0.15922294120E+02  0.40494964815E+02  0.00000000000E+00 0.  1.
         11    1    5    5    0    0  0.10267873559E+03 -0.10464104267E+02 -0.37712981643E+03  0.39099784995E+03  0.00000000000E+00 0.  1.
        -11    1    5    5    0    0  0.15519439734E+03 -0.42400362771E+02 -0.28585032330E+03  0.32801447996E+03  0.00000000000E+00 0. -1.
          3    1    6    6  503    0  0.19210505430E+03 -0.18758664485E+03 -0.40534408063E+02  0.27154399174E+03  0.00000000000E+00 0. -1.
         -3    1    6    6    0  503  0.72682528313E+03 -0.51625452917E+03 -0.23569655645E+03  0.92214239563E+03  0.00000000000E+00 0.  1.
<mgrwt>
<rscale>  0 0.30731357E+04</rscale>
<asrwt>0</asrwt>
<pdfrwt beam="1">  1        2 0.42764730E+00 0.30731357E+04</pdfrwt>
<pdfrwt beam="2">  1       -1 0.13067456E+00 0.30731357E+04</pdfrwt>
<totfact> 0.11505839E+00</totfact>
</mgrwt>
</event>
<event>
12    6  0.1450532E-007  0.1374420E+04  0.7818608E-02  0.8972546E-01
          2   -1    0    0  501    0  0.00000000000E+00  0.00000000000E+00  0.26999693226E+03  0.26999693226E+03  0.00000000000E+00 0. -1.
         -1   -1    0    0    0  501 -0.00000000000E+00 -0.00000000000E+00 -0.17491221756E+04  0.17491221756E+04  0.00000000000E+00 0.  1.
         24    2    1    2    0    0  0.26314495057E+03  0.27002987718E+03 -0.34207792585E+03  0.51493943036E+03  0.77355736715E+02 0.  0.
        254    2    1    2    0    0 -0.26314495057E+03 -0.27002987718E+03 -0.11370473175E+04  0.15041796775E+04  0.90968043863E+03 0.  0.
         23    2    4    4    0    0  0.14773683509E+03 -0.14768244510E+03 -0.10275963619E+04  0.10527870211E+04  0.93648020879E+02 0.  0.
         23    2    4    4    0    0 -0.41088178565E+03 -0.12234743208E+03 -0.10945095560E+03  0.45139265640E+03  0.89348098181E+02 0.  0.
          4    1    3    3  502    0  0.18838659263E+03  0.19050690715E+03 -0.19309649597E+03  0.33025542646E+03  0.00000000000E+00 0. -1.
         -3    1    3    3    0  502  0.74758357943E+02  0.79522970030E+02 -0.14898142988E+03  0.18468400389E+03  0.00000000000E+00 0.  1.
         11    1    5    5    0    0  0.67498380854E+02 -0.12411897360E+03 -0.73589290999E+03  0.74933298739E+03  0.00000000000E+00 0. -1.
        -11    1    5    5    0    0  0.80238454231E+02 -0.23563471500E+02 -0.29170345188E+03  0.30345403369E+03  0.00000000000E+00 0.  1.
          3    1    6    6  503    0 -0.35488576357E+02  0.45468272012E+01  0.10652853145E+02  0.37330898322E+02  0.00000000000E+00 0. -1.
         -3    1    6    6    0  503 -0.37539320930E+03 -0.12689425928E+03 -0.12010380874E+03  0.41406175807E+03  0.00000000000E+00 0.  1.
<mgrwt>
<rscale>  0 0.13744201E+04</rscale>
<asrwt>0</asrwt>
<pdfrwt beam="1">  1        2 0.41537990E-01 0.13744201E+04</pdfrwt>
<pdfrwt beam="2">  1       -1 0.26909572E+00 0.13744201E+04</pdfrwt>
<totfact> 0.72403938E+00</totfact>
</mgrwt>
</event>
<event>
12    6  0.1450532E-007  0.1306402E+04  0.7818608E-02  0.9024504E-01
          2   -1    0    0  501    0  0.00000000000E+00  0.00000000000E+00  0.41749935463E+03  0.41749935463E+03  0.00000000000E+00 0. -1.
         -1   -1    0    0    0  501 -0.00000000000E+00 -0.00000000000E+00 -0.10219692843E+04  0.10219692843E+04  0.00000000000E+00 0.  1.
         24    2    1    2    0    0 -0.14397990930E+02  0.33293964955E+03 -0.52084503131E+02  0.34661720708E+03  0.79840969375E+02 0.  0.
        254    2    1    2    0    0  0.14397990930E+02 -0.33293964955E+03 -0.55238542654E+03  0.10928514318E+04  0.88212157907E+03 0.  0.
         23    2    4    4    0    0 -0.19400130616E+03 -0.24457614068E+03  0.14371829736E+03  0.35569925667E+03  0.91722498994E+02 0.  0.
         23    2    4    4    0    0  0.20839929709E+03 -0.88363508869E+02 -0.69610372390E+03  0.73715217517E+03  0.87146762463E+02 0.  0.
          4    1    3    3  502    0 -0.33774159140E+02  0.30719992894E+03 -0.37726534576E+02  0.31134511652E+03  0.00000000000E+00 0. -1.
         -3    1    3    3    0  502  0.19376168210E+02  0.25739720604E+02 -0.14357968554E+02  0.35272090557E+02  0.00000000000E+00 0.  1.
         11    1    5    5    0    0 -0.29200272364E+02 -0.65847343128E+02 -0.23705234144E+01  0.72070436965E+02  0.00000000000E+00 0.  1.
        -11    1    5    5    0    0 -0.16480103380E+03 -0.17872879755E+03  0.14608882078E+03  0.28362881971E+03  0.00000000000E+00 0. -1.
          1    1    6    6  503    0  0.12791740454E+03 -0.97693595172E+02 -0.43847365020E+03  0.46708247969E+03  0.00000000000E+00 0. -1.
         -1    1    6    6    0  503  0.80481892553E+02  0.93300863030E+01 -0.25763007370E+03  0.27006969548E+03  0.00000000000E+00 0.  1.
<mgrwt>
<rscale>  0 0.13064020E+04</rscale>
<asrwt>0</asrwt>
<pdfrwt beam="1">  1        2 0.64230670E-01 0.13064020E+04</pdfrwt>
<pdfrwt beam="2">  1       -1 0.15722604E+00 0.13064020E+04</pdfrwt>
<totfact> 0.26056186E+01</totfact>
</mgrwt>
</event>
<event>
12    6  0.1450532E-007  0.1907568E+04  0.7818608E-02  0.8651099E-01
         -1   -1    0    0    0  501 -0.00000000000E+00  0.00000000000E+00  0.74226546064E+03  0.74226546064E+03  0.00000000000E+00 0.  1.
          2   -1    0    0  501    0  0.00000000000E+00 -0.00000000000E+00 -0.12255773699E+04  0.12255773699E+04  0.00000000000E+00 0. -1.
         24    2    1    2    0    0  0.19096964107E+03  0.40947923893E+03  0.41876466047E+03  0.62117194295E+03  0.79674907688E+02 0.  0.
        254    2    1    2    0    0 -0.19096964107E+03 -0.40947923893E+03 -0.90207656975E+03  0.13466708876E+04  0.89198525264E+03 0.  0.
         23    2    4    4    0    0  0.33818708991E+03 -0.24199979573E+03 -0.49299609821E+03  0.65103030132E+03  0.88661668543E+02 0.  0.
         23    2    4    4    0    0 -0.52915673098E+03 -0.16747944320E+03 -0.40908047154E+03  0.69564058629E+03  0.92264745532E+02 0.  0.
          4    1    3    3  502    0  0.12866075059E+03  0.18475589740E+03  0.19195002034E+03  0.29586000182E+03  0.00000000000E+00 0. -1.
         -3    1    3    3    0  502  0.62308890479E+02  0.22472334153E+03  0.22681464013E+03  0.32531194113E+03  0.00000000000E+00 0.  1.
         11    1    5    5    0    0  0.15508194497E+03 -0.70738231461E+02 -0.24432770228E+03  0.29790994134E+03  0.00000000000E+00 0. -1.
        -11    1    5    5    0    0  0.18310514494E+03 -0.17126156427E+03 -0.24866839594E+03  0.35312035998E+03  0.00000000000E+00 0.  1.
          1    1    6    6  503    0 -0.20126269190E+03 -0.87543270573E+02 -0.11391067112E+03  0.24727744816E+03  0.00000000000E+00 0. -1.
         -1    1    6    6    0  503 -0.32789403909E+03 -0.79936172631E+02 -0.29516980042E+03  0.44836313814E+03  0.00000000000E+00 0.  1.
<mgrwt>
<rscale>  0 0.19075678E+04</rscale>
<asrwt>0</asrwt>
<pdfrwt beam="1">  1        2 0.18855036E+00 0.19075678E+04</pdfrwt>
<pdfrwt beam="2">  1       -1 0.11419469E+00 0.19075678E+04</pdfrwt>
<totfact> 0.13624471E+01</totfact>
</mgrwt>
</event>
<event>
12    6  0.1450532E-007  0.2226350E+04  0.7818608E-02  0.8507540E-01
         -1   -1    0    0    0  501 -0.00000000000E+00  0.00000000000E+00  0.12251981691E+04  0.12251981691E+04  0.00000000000E+00 0.  1.
          2   -1    0    0  501    0  0.00000000000E+00 -0.00000000000E+00 -0.10113948051E+04  0.10113948051E+04  0.00000000000E+00 0. -1.
         24    2    1    2    0    0  0.14435910930E+03  0.71863617545E+03 -0.49074650683E+03  0.88572232204E+03  0.79964946584E+02 0.  0.
        254    2    1    2    0    0 -0.14435910930E+03 -0.71863617545E+03  0.70454987083E+03  0.13508706521E+04  0.88948495942E+03 0.  0.
         23    2    4    4    0    0 -0.41095890377E+03 -0.12615665461E+03  0.82963174047E+02  0.44710210553E+03  0.90634885239E+02 0.  0.
         23    2    4    4    0    0  0.26659979447E+03 -0.59247952084E+03  0.62158669678E+03  0.90376854655E+03  0.91214752558E+02 0.  0.
          4    1    3    3  502    0  0.11083356944E+03  0.58184124709E+03 -0.35746133514E+03  0.69181061213E+03  0.00000000000E+00 0. -1.
         -3    1    3    3    0  502  0.33525539860E+02  0.13679492836E+03 -0.13328517169E+03  0.19391170991E+03  0.00000000000E+00 0.  1.
         11    1    5    5    0    0 -0.51848820446E+02 -0.43369207053E+02 -0.63844392216E+01  0.67896607914E+02  0.00000000000E+00 0.  1.
        -11    1    5    5    0    0 -0.35911008333E+03 -0.82787447559E+02  0.89347613268E+02  0.37920549761E+03  0.00000000000E+00 0. -1.
          3    1    6    6  503    0  0.20695126743E+03 -0.51721647230E+03  0.55868635351E+03  0.78896904116E+03  0.00000000000E+00 0. -1.
         -3    1    6    6    0  503  0.59648527039E+02 -0.75263048538E+02  0.62900343274E+02  0.11479950539E+03  0.00000000000E+00 0.  1.
<mgrwt>
<rscale>  0 0.22263504E+04</rscale>
<asrwt>0</asrwt>
<pdfrwt beam="1">  1        2 0.15559920E+00 0.22263504E+04</pdfrwt>
<pdfrwt beam="2">  1       -1 0.18849203E+00 0.22263504E+04</pdfrwt>
<totfact> 0.46645626E+00</totfact>
</mgrwt>
</event>
<event>
12    6  0.1450532E-007  0.1739597E+04  0.7818608E-02  0.8739097E-01
          2   -1    0    0  501    0  0.00000000000E+00  0.00000000000E+00  0.11996811978E+04  0.11996811978E+04  0.00000000000E+00 0. -1.
         -1   -1    0    0    0  501 -0.00000000000E+00 -0.00000000000E+00 -0.63062553476E+03  0.63062553476E+03  0.00000000000E+00 0.  1.
         24    2    1    2    0    0 -0.43716641434E+03  0.37863467545E+03  0.47511433416E+03  0.75283233219E+03  0.80896221049E+02 0.  0.
        254    2    1    2    0    0  0.43716641434E+03 -0.37863467545E+03  0.93941328852E+02  0.10774744003E+04  0.90423858513E+03 0.  0.
         23    2    4    4    0    0 -0.20662061126E+03 -0.25821102565E+03 -0.14725977260E+03  0.37357034675E+03  0.92219046770E+02 0.  0.
         23    2    4    4    0    0  0.64378702560E+03 -0.12042364980E+03  0.24120110145E+03  0.70390405358E+03  0.91320072000E+02 0.  0.
          4    1    3    3  502    0 -0.64195145890E+02  0.28773287502E+02  0.37236480325E+02  0.79595692701E+02  0.00000000000E+00 0. -1.
         -3    1    3    3    0  502 -0.37297126845E+03  0.34986138795E+03  0.43787785383E+03  0.67323663949E+03  0.00000000000E+00 0.  1.
         11    1    5    5    0    0 -0.11022846585E+02 -0.26799809385E+02  0.11881758680E+02  0.31319468693E+02  0.00000000000E+00 0.  1.
        -11    1    5    5    0    0 -0.19559776467E+03 -0.23141121626E+03 -0.15914153128E+03  0.34225087806E+03  0.00000000000E+00 0. -1.
          2    1    6    6  503    0  0.49550575865E+03 -0.13038913542E+03  0.19574642129E+03  0.54849242924E+03  0.00000000000E+00 0. -1.
         -2    1    6    6    0  503  0.14828126695E+03  0.99654856151E+01  0.45454680162E+02  0.15541162434E+03  0.00000000000E+00 0.  1.
<mgrwt>
<rscale>  0 0.17395972E+04</rscale>
<asrwt>0</asrwt>
<pdfrwt beam="1">  1        2 0.18456634E+00 0.17395972E+04</pdfrwt>
<pdfrwt beam="2">  1       -1 0.97019313E-01 0.17395972E+04</pdfrwt>
<totfact> 0.20931686E+01</totfact>
</mgrwt>
</event>
<event>
12    6  0.1450532E-007  0.1626561E+04  0.7818608E-02  0.8804395E-01
          2   -1    0    0  501    0  0.00000000000E+00  0.00000000000E+00  0.19553931600E+04  0.19553931600E+04  0.00000000000E+00 0. -1.
         -1   -1    0    0    0  501 -0.00000000000E+00 -0.00000000000E+00 -0.33825677574E+03  0.33825677574E+03  0.00000000000E+00 0.  1.
         24    2    1    2    0    0 -0.29931785821E+03  0.14858321045E+03  0.11916217672E+04  0.12401657574E+04  0.79878151730E+02 0.  0.
        254    2    1    2    0    0  0.29931785821E+03 -0.14858321045E+03  0.42551461707E+03  0.10534841783E+04  0.90393477309E+03 0.  0.
         23    2    4    4    0    0  0.83290321633E+02 -0.46856595620E+03  0.44276274676E+03  0.65635306162E+03  0.90934914010E+02 0.  0.
         23    2    4    4    0    0  0.21602753658E+03  0.31998274575E+03 -0.17248129686E+02  0.39713111673E+03  0.91426318739E+02 0.  0.
          2    1    3    3  502    0 -0.23233041302E+03  0.14907795923E+03  0.93002343801E+03  0.97012641135E+03  0.00000000000E+00 0. -1.
         -1    1    3    3    0  502 -0.66987445188E+02 -0.49474878140E+00  0.26159832919E+03  0.27003934607E+03  0.00000000000E+00 0.  1.
         11    1    5    5    0    0  0.90668460041E+02 -0.37884663411E+03  0.39362811038E+03  0.55379475540E+03  0.00000000000E+00 0. -1.
        -11    1    5    5    0    0 -0.73781384088E+01 -0.89719322087E+02  0.49134636383E+02  0.10255830622E+03  0.00000000000E+00 0.  1.
          1    1    6    6  503    0  0.40500388065E+01 -0.13932628927E+00 -0.12518947882E+02  0.13158506079E+02  0.00000000000E+00 0. -1.
         -1    1    6    6    0  503  0.21197749777E+03  0.32012207204E+03 -0.47291818037E+01  0.38397261065E+03  0.00000000000E+00 0.  1.
<mgrwt>
<rscale>  0 0.16265608E+04</rscale>
<asrwt>0</asrwt>
<pdfrwt beam="1">  1        2 0.30082971E+00 0.16265608E+04</pdfrwt>
<pdfrwt beam="2">  1       -1 0.52039505E-01 0.16265608E+04</pdfrwt>
<totfact> 0.28674069E+01</totfact>
</mgrwt>
</event>
<event>
12    6  0.1450532E-007  0.2274368E+04  0.7818608E-02  0.8488097E-01
          2   -1    0    0  501    0  0.00000000000E+00  0.00000000000E+00  0.35915028878E+04  0.35915028878E+04  0.00000000000E+00 0. -1.
         -1   -1    0    0    0  501 -0.00000000000E+00 -0.00000000000E+00 -0.36006861605E+03  0.36006861605E+03  0.00000000000E+00 0.  1.
         24    2    1    2    0    0  0.55196309971E+03  0.11109764758E+03  0.19308831055E+02  0.56936029446E+03  0.82415794724E+02 0.  0.
        254    2    1    2    0    0 -0.55196309971E+03 -0.11109764758E+03  0.32121254407E+04  0.33822112094E+04  0.89699323711E+03 0.  0.
         23    2    4    4    0    0  0.86050961957E+02 -0.31888914264E+03  0.15511133920E+04  0.15883841299E+04  0.88973793404E+02 0.  0.
         23    2    4    4    0    0 -0.63801406166E+03  0.20779149506E+03  0.16610120487E+04  0.17938270795E+04  0.92818731477E+02 0.  0.
          2    1    3    3  502    0  0.60877464807E+02 -0.21404256678E+01 -0.19331560690E+02  0.63908969497E+02  0.00000000000E+00 0. -1.
         -1    1    3    3    0  502  0.49108563490E+03  0.11323807324E+03  0.38640391745E+02  0.50545132497E+03  0.00000000000E+00 0.  1.
         11    1    5    5    0    0 -0.98599620198E+01 -0.41208494046E+02  0.31517840088E+03  0.31801380979E+03  0.00000000000E+00 0.  1.
        -11    1    5    5    0    0  0.95910923977E+02 -0.27768064859E+03  0.12359349911E+04  0.12703703201E+04  0.00000000000E+00 0. -1.
          3    1    6    6  503    0 -0.63069030994E+03  0.19100977775E+03  0.16208249888E+04  0.17496652956E+04  0.00000000000E+00 0. -1.
         -3    1    6    6    0  503 -0.73237517292E+01  0.16781717311E+02  0.40187059883E+02  0.44161783901E+02  0.00000000000E+00 0.  1.
<mgrwt>
<rscale>  0 0.22743680E+04</rscale>
<asrwt>0</asrwt>
<pdfrwt beam="1">  1        2 0.55253888E+00 0.22743680E+04</pdfrwt>
<pdfrwt beam="2">  1       -1 0.55395174E-01 0.22743680E+04</pdfrwt>
<totfact> 0.23926171E+00</totfact>
</mgrwt>
</event>
<event>
12    6  0.1450532E-007  0.1335272E+04  0.7818608E-02  0.9002053E-01
          2   -1    0    0  501    0  0.00000000000E+00  0.00000000000E+00  0.13500196326E+04  0.13500196326E+04  0.00000000000E+00 0. -1.
         -1   -1    0    0    0  501 -0.00000000000E+00 -0.00000000000E+00 -0.33017123453E+03  0.33017123453E+03  0.00000000000E+00 0.  1.
         24    2    1    2    0    0  0.26702227659E+02 -0.13760880918E+03 -0.13026330054E+03  0.20731166816E+03  0.79752159626E+02 0.  0.
        254    2    1    2    0    0 -0.26702227659E+02  0.13760880918E+03  0.11501116986E+04  0.14728791989E+04  0.90937727161E+03 0.  0.
         23    2    4    4    0    0  0.39202324300E+03  0.23463536573E+03  0.71696970510E+03  0.85557316735E+03  0.96041182547E+02 0.  0.
         23    2    4    4    0    0 -0.41872547066E+03 -0.97026556550E+02  0.43314199349E+03  0.61730603159E+03  0.93325118074E+02 0.  0.
          4    1    3    3  502    0 -0.26724405683E+02 -0.25261462790E+02 -0.32779360128E+02  0.49262783233E+02  0.00000000000E+00 0. -1.
         -1    1    3    3    0  502  0.53426633341E+02 -0.11234734639E+03 -0.97483940408E+02  0.15804888493E+03  0.00000000000E+00 0.  1.
         11    1    5    5    0    0  0.15218341981E+03  0.71193653879E+02  0.34531070347E+03  0.38401537931E+03  0.00000000000E+00 0. -1.
        -11    1    5    5    0    0  0.23983982320E+03  0.16344171185E+03  0.37165900163E+03  0.47155778803E+03  0.00000000000E+00 0.  1.
          1    1    6    6  503    0 -0.14000971845E+03  0.61880117922E+01  0.10912451846E+03  0.17762086950E+03  0.00000000000E+00 0. -1.
         -1    1    6    6    0  503 -0.27871575221E+03 -0.10321456834E+03  0.32401747502E+03  0.43968516210E+03  0.00000000000E+00 0.  1.
<mgrwt>
<rscale>  0 0.13352717E+04</rscale>
<asrwt>0</asrwt>
<pdfrwt beam="1">  1        2 0.20769533E+00 0.13352717E+04</pdfrwt>
<pdfrwt beam="2">  1       -1 0.50795575E-01 0.13352717E+04</pdfrwt>
<totfact> 0.67095611E+01</totfact>
</mgrwt>
</event>
<event>
12    6  0.1450532E-007  0.1447574E+04  0.7818608E-02  0.8920084E-01
         -1   -1    0    0    0  501 -0.00000000000E+00  0.00000000000E+00  0.47238384316E+03  0.47238384316E+03  0.00000000000E+00 0.  1.
          2   -1    0    0  501    0  0.00000000000E+00 -0.00000000000E+00 -0.11089877456E+04  0.11089877456E+04  0.00000000000E+00 0. -1.
         24    2    1    2    0    0  0.62441551918E+02  0.41545081467E+03 -0.34752508965E+03  0.55102672734E+03  0.79739823761E+02 0.  0.
        254    2    1    2    0    0 -0.62441551918E+02 -0.41545081467E+03 -0.28907881277E+03  0.10303448614E+04  0.89529081679E+03 0.  0.
         23    2    4    4    0    0  0.37570303090E+03 -0.71777548636E+02  0.82126065468E+01  0.39343506832E+03  0.91754684681E+02 0.  0.
         23    2    4    4    0    0 -0.43814458282E+03 -0.34367326603E+03 -0.29729141932E+03  0.63690979309E+03  0.84793321104E+02 0.  0.
          4    1    3    3  502    0  0.50181158898E+02  0.15346231169E+03 -0.16917211488E+03  0.23385472899E+03  0.00000000000E+00 0. -1.
         -3    1    3    3    0  502  0.12260393021E+02  0.26198850298E+03 -0.17835297478E+03  0.31717199836E+03  0.00000000000E+00 0.  1.
         11    1    5    5    0    0  0.18810189334E+03 -0.12567322373E+02  0.43741424836E+02  0.19352925391E+03  0.00000000000E+00 0. -1.
        -11    1    5    5    0    0  0.18760113755E+03 -0.59210226263E+02 -0.35528818289E+02  0.19990581441E+03  0.00000000000E+00 0.  1.
          3    1    6    6  503    0 -0.19832127288E+03 -0.20883208068E+03 -0.15915259676E+03  0.32904667489E+03  0.00000000000E+00 0. -1.
         -3    1    6    6    0  503 -0.23982330993E+03 -0.13484118535E+03 -0.13813882256E+03  0.30786311821E+03  0.00000000000E+00 0.  1.
<mgrwt>
<rscale>  0 0.14475744E+04</rscale>
<asrwt>0</asrwt>
<pdfrwt beam="1">  1        2 0.17061350E+00 0.14475744E+04</pdfrwt>
<pdfrwt beam="2">  1       -1 0.72674438E-01 0.14475744E+04</pdfrwt>
<totfact> 0.45439187E+01</totfact>
</mgrwt>
</event>
<event>
12    6  0.1450532E-007  0.1464631E+04  0.7818608E-02  0.8908320E-01
          2   -1    0    0  501    0  0.00000000000E+00  0.00000000000E+00  0.72035608309E+03  0.72035608309E+03  0.00000000000E+00 0. -1.
         -1   -1    0    0    0  501 -0.00000000000E+00 -0.00000000000E+00 -0.74447305191E+03  0.74447305191E+03  0.00000000000E+00 0.  1.
         24    2    1    2    0    0  0.12477931462E+03  0.53799038769E+02  0.42079198606E+03  0.44967554954E+03  0.81718972008E+02 0.  0.
        254    2    1    2    0    0 -0.12477931462E+03 -0.53799038769E+02 -0.44490895488E+03  0.10151535855E+04  0.90229075692E+03 0.  0.
         23    2    4    4    0    0 -0.27471330885E+03 -0.51715611148E+02  0.19457595189E+03  0.35213955545E+03  0.89445843730E+02 0.  0.
         23    2    4    4    0    0  0.14993399423E+03 -0.20834276206E+01 -0.63948490677E+03  0.66301403002E+03  0.90344422749E+02 0.  0.
          4    1    3    3  502    0  0.13779597817E+02 -0.20486939230E+02  0.56013349967E+02  0.61213457422E+02  0.00000000000E+00 0. -1.
         -3    1    3    3    0  502  0.11099971680E+03  0.74285977999E+02  0.36477863610E+03  0.38846209211E+03  0.00000000000E+00 0.  1.
         11    1    5    5    0    0 -0.21787794811E+03 -0.71689002826E+02  0.12925976283E+03  0.26328349680E+03  0.00000000000E+00 0. -1.
        -11    1    5    5    0    0 -0.56835360739E+02  0.19973391678E+02  0.65316189056E+02  0.88856058647E+02  0.00000000000E+00 0.  1.
          3    1    6    6  503    0  0.28235203322E+02 -0.38590216663E+02 -0.16144659967E+03  0.16837884688E+03  0.00000000000E+00 0.  1.
         -3    1    6    6    0  503  0.12169879091E+03  0.36506789042E+02 -0.47803830709E+03  0.49463518314E+03  0.00000000000E+00 0. -1.
<mgrwt>
<rscale>  0 0.14646306E+04</rscale>
<asrwt>0</asrwt>
<pdfrwt beam="1">  1        2 0.11082401E+00 0.14646306E+04</pdfrwt>
<pdfrwt beam="2">  1       -1 0.11453432E+00 0.14646306E+04</pdfrwt>
<totfact> 0.30303705E+01</totfact>
</mgrwt>
</event>
<event>
12    6  0.1450532E-007  0.2125625E+04  0.7818608E-02  0.8550039E-01
          2   -1    0    0  501    0  0.00000000000E+00  0.00000000000E+00  0.15880901009E+04  0.15880901009E+04  0.00000000000E+00 0. -1.
         -1   -1    0    0    0  501 -0.00000000000E+00 -0.00000000000E+00 -0.71127595560E+03  0.71127595560E+03  0.00000000000E+00 0.  1.
         24    2    1    2    0    0  0.32385329827E+03 -0.47226169808E+03  0.10725294619E+04  0.12185069473E+04  0.80793958080E+02 0.  0.
        254    2    1    2    0    0 -0.32385329827E+03  0.47226169808E+03 -0.19571531652E+03  0.10808591093E+04  0.89556678073E+03 0.  0.
         23    2    4    4    0    0 -0.28208385573E+03 -0.16626650880E+03 -0.26251084096E+03  0.42986569808E+03  0.93041513075E+02 0.  0.
         23    2    4    4    0    0 -0.41769442534E+02  0.63852820689E+03  0.66795524439E+02  0.65099341121E+03  0.99336911746E+02 0.  0.
          2    1    3    3  502    0  0.21818404859E+03 -0.35788827449E+03  0.83816928166E+03  0.93713181613E+03  0.00000000000E+00 0. -1.
         -3    1    3    3    0  502  0.10566924967E+03 -0.11437342360E+03  0.23436018020E+03  0.28137513113E+03  0.00000000000E+00 0.  1.
         11    1    5    5    0    0 -0.66640740192E+02 -0.67118135477E+02 -0.33943528668E+02  0.10048878296E+03  0.00000000000E+00 0. -1.
        -11    1    5    5    0    0 -0.21544311554E+03 -0.99148373326E+02 -0.22856731229E+03  0.32937691512E+03  0.00000000000E+00 0.  1.
          2    1    6    6  503    0 -0.63866477250E+02  0.27947751080E+03  0.10408641103E+02  0.28687095665E+03  0.00000000000E+00 0. -1.
         -2    1    6    6    0  503  0.22097034715E+02  0.35905069609E+03  0.56386883336E+02  0.36412245456E+03  0.00000000000E+00 0.  1.
<mgrwt>
<rscale>  0 0.21256249E+04</rscale>
<asrwt>0</asrwt>
<pdfrwt beam="1">  1        2 0.24432155E+00 0.21256249E+04</pdfrwt>
<pdfrwt beam="2">  1       -1 0.10942707E+00 0.21256249E+04</pdfrwt>
<totfact> 0.91659706E+00</totfact>
</mgrwt>
</event>
<event>
12    6  0.1450532E-007  0.1669047E+04  0.7818608E-02  0.8779217E-01
         -1   -1    0    0    0  501 -0.00000000000E+00  0.00000000000E+00  0.25233047707E+03  0.25233047707E+03  0.00000000000E+00 0.  1.
          2   -1    0    0  501    0  0.00000000000E+00 -0.00000000000E+00 -0.27599910358E+04  0.27599910358E+04  0.00000000000E+00 0. -1.
         24    2    1    2    0    0  0.51378950390E+03 -0.28020608943E+03 -0.75834542907E+03  0.96144566856E+03  0.82431043506E+02 0.  0.
        254    2    1    2    0    0 -0.51378950390E+03  0.28020608943E+03 -0.17493151296E+04  0.20508758443E+04  0.89637782158E+03 0.  0.
         23    2    4    4    0    0  0.83586559070E+02 -0.17243411903E+03 -0.85400417733E+03  0.87973823432E+03  0.88859370727E+02 0.  0.
         23    2    4    4    0    0 -0.59737606297E+03  0.45264020846E+03 -0.89531095231E+03  0.11711376100E+04  0.90775994764E+02 0.  0.
          4    1    3    3  502    0  0.20129380780E+03 -0.88705310989E+02 -0.22833130880E+03  0.31705364819E+03  0.00000000000E+00 0. -1.
         -3    1    3    3    0  502  0.31249569610E+03 -0.19150077844E+03 -0.53001412028E+03  0.64439202037E+03  0.00000000000E+00 0.  1.
         11    1    5    5    0    0  0.41761729972E+02 -0.89485575880E+02 -0.62261559351E+03  0.63039819770E+03  0.00000000000E+00 0. -1.
        -11    1    5    5    0    0  0.41824829098E+02 -0.82948543154E+02 -0.23138858382E+03  0.24934003662E+03  0.00000000000E+00 0.  1.
          4    1    6    6  503    0 -0.56070259017E+03  0.43987680313E+03 -0.82000968299E+03  0.10864137687E+04  0.00000000000E+00 0.  1.
         -4    1    6    6    0  503 -0.36673472799E+02  0.12763405328E+02 -0.75301269319E+02  0.84723841295E+02  0.00000000000E+00 0. -1.
<mgrwt>
<rscale>  0 0.16690475E+04</rscale>
<asrwt>0</asrwt>
<pdfrwt beam="1">  1        2 0.42461397E+00 0.16690475E+04</pdfrwt>
<pdfrwt beam="2">  1       -1 0.38820076E-01 0.16690475E+04</pdfrwt>
<totfact> 0.17139441E+01</totfact>
</mgrwt>
</event>
<event>
12    6  0.1450532E-007  0.1951516E+04  0.7818608E-02  0.8629630E-01
         -1   -1    0    0    0  501 -0.00000000000E+00  0.00000000000E+00  0.66741207577E+03  0.66741207577E+03  0.00000000000E+00 0.  1.
          2   -1    0    0  501    0  0.00000000000E+00 -0.00000000000E+00 -0.14265606601E+04  0.14265606601E+04  0.00000000000E+00 0. -1.
         24    2    1    2    0    0 -0.38726298222E+03 -0.57093466608E+03 -0.65389901827E+03  0.95388538147E+03  0.79839742969E+02 0.  0.
        254    2    1    2    0    0  0.38726298222E+03  0.57093466608E+03 -0.10524956606E+03  0.11400873544E+04  0.90154461575E+03 0.  0.
         23    2    4    4    0    0 -0.94550187713E+02  0.46901391568E+03  0.22876182394E+03  0.53754461849E+03  0.87797799919E+02 0.  0.
         23    2    4    4    0    0  0.48181316993E+03  0.10192075040E+03 -0.33401139001E+03  0.60254273592E+03  0.94669793885E+02 0.  0.
          2    1    3    3  502    0 -0.25147594885E+03 -0.37491828591E+03 -0.47864777900E+03  0.65795711889E+03  0.00000000000E+00 0. -1.
         -1    1    3    3    0  502 -0.13578703337E+03 -0.19601638017E+03 -0.17525123927E+03  0.29592826258E+03  0.00000000000E+00 0.  1.
         11    1    5    5    0    0 -0.10552758868E+03  0.32832810730E+03  0.17279799426E+03  0.38573898537E+03  0.00000000000E+00 0. -1.
        -11    1    5    5    0    0  0.10977400970E+02  0.14068580839E+03  0.55963829680E+02  0.15180563312E+03  0.00000000000E+00 0.  1.
          3    1    6    6  503    0  0.46880702574E+03  0.82256417875E+02 -0.32852039323E+03  0.57833536502E+03  0.00000000000E+00 0. -1.
         -3    1    6    6    0  503  0.13006144194E+02  0.19664332522E+02 -0.54909967746E+01  0.24207370900E+02  0.00000000000E+00 0.  1.
<mgrwt>
<rscale>  0 0.19515161E+04</rscale>
<asrwt>0</asrwt>
<pdfrwt beam="1">  1        2 0.21947087E+00 0.19515161E+04</pdfrwt>
<pdfrwt beam="2">  1       -1 0.10267878E+00 0.19515161E+04</pdfrwt>
<totfact> 0.13319280E+01</totfact>
</mgrwt>
</event>
<event>
12    6  0.1450532E-007  0.2171686E+04  0.7818608E-02  0.8530306E-01
          2   -1    0    0  501    0  0.00000000000E+00  0.00000000000E+00  0.90240149469E+03  0.90240149469E+03  0.00000000000E+00 0. -1.
         -1   -1    0    0    0  501 -0.00000000000E+00 -0.00000000000E+00 -0.13065750627E+04  0.13065750627E+04  0.00000000000E+00 0.  1.
         24    2    1    2    0    0 -0.37381932734E+03 -0.30618220666E+03 -0.93473692025E+03  0.10552178575E+04  0.79140278136E+02 0.  0.
        254    2    1    2    0    0  0.37381932734E+03  0.30618220666E+03  0.53056335224E+03  0.11537586999E+04  0.90342306456E+03 0.  0.
         23    2    4    4    0    0  0.21852293952E+03 -0.21490153260E+03 -0.81366266837E+02  0.33014690086E+03  0.91877978630E+02 0.  0.
         23    2    4    4    0    0  0.15529638782E+03  0.52108373926E+03  0.61192961907E+03  0.82361179899E+03  0.90737563015E+02 0.  0.
          4    1    3    3  502    0 -0.38219939210E+01 -0.50656599369E+01 -0.46988610854E+02  0.47415167384E+02  0.00000000000E+00 0. -1.
         -3    1    3    3    0  502 -0.36999733342E+03 -0.30111654672E+03 -0.88774830939E+03  0.10078026902E+04  0.00000000000E+00 0.  1.
         11    1    5    5    0    0  0.10012620578E+03 -0.15294969109E+03 -0.22707711923E+02  0.18421320601E+03  0.00000000000E+00 0. -1.
        -11    1    5    5    0    0  0.11839673374E+03 -0.61951841512E+02 -0.58658554915E+02  0.14593369485E+03  0.00000000000E+00 0.  1.
          1    1    6    6  503    0  0.15888202776E+03  0.43000299337E+03  0.48520507055E+03  0.66751032467E+03  0.00000000000E+00 0. -1.
         -1    1    6    6    0  503 -0.35856399463E+01  0.91080745891E+02  0.12672454852E+03  0.15610147432E+03  0.00000000000E+00 0.  1.
<mgrwt>
<rscale>  0 0.21716862E+04</rscale>
<asrwt>0</asrwt>
<pdfrwt beam="1">  1        2 0.13883100E+00 0.21716862E+04</pdfrwt>
<pdfrwt beam="2">  1       -1 0.20101155E+00 0.21716862E+04</pdfrwt>
<totfact> 0.45213071E+00</totfact>
</mgrwt>
</event>
<event>
12    6  0.1450532E-007  0.1288954E+04  0.7818608E-02  0.9038371E-01
         -1   -1    0    0    0  501 -0.00000000000E+00  0.00000000000E+00  0.40082041160E+03  0.40082041160E+03  0.00000000000E+00 0.  1.
          2   -1    0    0  501    0  0.00000000000E+00 -0.00000000000E+00 -0.10362507630E+04  0.10362507630E+04  0.00000000000E+00 0. -1.
         24    2    1    2    0    0  0.23273714672E+02  0.21489493601E+03  0.10136734020E+03  0.25172806699E+03  0.79813424523E+02 0.  0.
        254    2    1    2    0    0 -0.23273714672E+02 -0.21489493601E+03 -0.73679769156E+03  0.11853431076E+04  0.90302045660E+03 0.  0.
         23    2    4    4    0    0 -0.11673782497E+03 -0.66899949065E+01  0.18119876865E+03  0.23505549849E+03  0.93518007880E+02 0.  0.
         23    2    4    4    0    0  0.93464110295E+02 -0.20820494110E+03 -0.91799646021E+03  0.95028760907E+03  0.90797585785E+02 0.  0.
          4    1    3    3  502    0  0.12241135251E+01  0.55030295838E+02 -0.96064587653E+01  0.55875897880E+02  0.00000000000E+00 0. -1.
         -3    1    3    3    0  502  0.22049601147E+02  0.15986464017E+03  0.11097379897E+03  0.19585216911E+03  0.00000000000E+00 0.  1.
         11    1    5    5    0    0 -0.12393149755E+03  0.14440925016E+02  0.16750816126E+03  0.20886967345E+03  0.00000000000E+00 0. -1.
        -11    1    5    5    0    0  0.71936725806E+01 -0.21130919923E+02  0.13690607396E+02  0.26185825037E+02  0.00000000000E+00 0.  1.
          1    1    6    6  503    0  0.84583144819E+02 -0.21092446771E+03 -0.91026284771E+03  0.93820141302E+03  0.00000000000E+00 0. -1.
         -1    1    6    6    0  503  0.88809654763E+01  0.27195266073E+01 -0.77336124985E+01  0.12086196053E+02  0.00000000000E+00 0.  1.
<mgrwt>
<rscale>  0 0.12889538E+04</rscale>
<asrwt>0</asrwt>
<pdfrwt beam="1">  1        2 0.15942319E+00 0.12889538E+04</pdfrwt>
<pdfrwt beam="2">  1       -1 0.61664680E-01 0.12889538E+04</pdfrwt>
<totfact> 0.71275025E+01</totfact>
</mgrwt>
</event>
<event>
12    6  0.1450532E-007  0.1468762E+04  0.7818608E-02  0.8905495E-01
          2   -1    0    0  501    0  0.00000000000E+00  0.00000000000E+00  0.83464228847E+03  0.83464228847E+03  0.00000000000E+00 0. -1.
         -3   -1    0    0    0  501 -0.00000000000E+00 -0.00000000000E+00 -0.64616387631E+03  0.64616387631E+03  0.00000000000E+00 0.  1.
         24    2    1    2    0    0 -0.10054264857E+03  0.48575041734E+02 -0.33041910671E+03  0.35881920783E+03  0.84297562070E+02 0.  0.
        254    2    1    2    0    0  0.10054264857E+03 -0.48575041734E+02  0.51889751886E+03  0.11219869570E+04  0.98849974083E+03 0.  0.
         23    2    4    4    0    0 -0.36348418048E+03  0.20094195382E+03  0.84939907114E+02  0.43439985887E+03  0.94815775616E+02 0.  0.
         23    2    4    4    0    0  0.46402682904E+03 -0.24951699555E+03  0.43395761175E+03  0.68758709808E+03  0.82928761667E+02 0.  0.
          2    1    3    3  502    0 -0.79628086148E+02  0.39569451753E+02 -0.13235078352E+03  0.15944624020E+03  0.00000000000E+00 0. -1.
         -1    1    3    3    0  502 -0.20914562422E+02  0.90055899812E+01 -0.19806832319E+03  0.19937296763E+03  0.00000000000E+00 0.  1.
         11    1    5    5    0    0 -0.22393787824E+03  0.17250781822E+03  0.42934088690E+02  0.28592036764E+03  0.00000000000E+00 0. -1.
        -11    1    5    5    0    0 -0.13954630224E+03  0.28434135593E+02  0.42005818424E+02  0.14847949123E+03  0.00000000000E+00 0.  1.
          2    1    6    6  503    0  0.43638144198E+03 -0.25398053358E+03  0.40465574299E+03  0.64705575083E+03  0.00000000000E+00 0. -1.
         -2    1    6    6    0  503  0.27645387064E+02  0.44635380273E+01  0.29301868757E+02  0.40531347255E+02  0.00000000000E+00 0.  1.
<mgrwt>
<rscale>  0 0.14687623E+04</rscale>
<asrwt>0</asrwt>
<pdfrwt beam="1">  1        2 0.12840651E+00 0.14687623E+04</pdfrwt>
<pdfrwt beam="2">  1       -3 0.99409827E-01 0.14687623E+04</pdfrwt>
<totfact> 0.17669504E+01</totfact>
</mgrwt>
</event>
<event>
12    6  0.1450532E-007  0.1636197E+04  0.7818608E-02  0.8798614E-01
         -3   -1    0    0    0  501 -0.00000000000E+00  0.00000000000E+00  0.16816047564E+04  0.16816047564E+04  0.00000000000E+00 0.  1.
          4   -1    0    0  501    0  0.00000000000E+00 -0.00000000000E+00 -0.39800367961E+03  0.39800367961E+03  0.00000000000E+00 0. -1.
         24    2    1    2    0    0  0.12287766037E+03  0.22238500794E+03 -0.19929294258E+03  0.33139203543E+03  0.74491563354E+02 0.  0.
        254    2    1    2    0    0 -0.12287766037E+03 -0.22238500794E+03  0.14828940194E+04  0.17482164006E+04  0.89035492892E+03 0.  0.
         23    2    4    4    0    0 -0.21422392782E+03 -0.34787657826E+03  0.22179740949E+03  0.47432968531E+03  0.94257915095E+02 0.  0.
         23    2    4    4    0    0  0.91346267452E+02  0.12549157032E+03  0.12610966099E+04  0.12738867153E+04  0.91271184437E+02 0.  0.
          4    1    3    3  502    0  0.12694653452E+03  0.17064019034E+03 -0.15521282157E+03  0.26329549401E+03  0.00000000000E+00 0. -1.
         -3    1    3    3    0  502 -0.40688741510E+01  0.51744817606E+02 -0.44080121006E+02  0.68096541423E+02  0.00000000000E+00 0.  1.
         11    1    5    5    0    0 -0.12192026997E+03 -0.12097324632E+03  0.65856608368E+02  0.18394611010E+03  0.00000000000E+00 0. -1.
        -11    1    5    5    0    0 -0.92303657850E+02 -0.22690333194E+03  0.15594080112E+03  0.29038357521E+03  0.00000000000E+00 0.  1.
          3    1    6    6  503    0  0.94394151735E+02  0.54927029042E+02  0.79629216580E+03  0.80374650713E+03  0.00000000000E+00 0. -1.
         -3    1    6    6    0  503 -0.30478842835E+01  0.70564541277E+02  0.46480444412E+03  0.47014020819E+03  0.00000000000E+00 0.  1.
<mgrwt>
<rscale>  0 0.16361967E+04</rscale>
<asrwt>0</asrwt>
<pdfrwt beam="1">  1        4 0.61231336E-01 0.16361967E+04</pdfrwt>
<pdfrwt beam="2">  1       -3 0.25870842E+00 0.16361967E+04</pdfrwt>
<totfact> 0.35860188E-01</totfact>
</mgrwt>
</event>
<event>
12    6  0.1450532E-007  0.1765137E+04  0.7818608E-02  0.8725062E-01
          2   -1    0    0  501    0  0.00000000000E+00  0.00000000000E+00  0.17481944836E+04  0.17481944836E+04  0.00000000000E+00 0. -1.
         -1   -1    0    0    0  501 -0.00000000000E+00 -0.00000000000E+00 -0.44556099793E+03  0.44556099793E+03  0.00000000000E+00 0.  1.
         24    2    1    2    0    0  0.34918287073E+03 -0.39236312114E+03  0.58886056870E+02  0.53450273041E+03  0.79674996518E+02 0.  0.
        254    2    1    2    0    0 -0.34918287073E+03  0.39236312114E+03  0.12437474288E+04  0.16592527511E+04  0.96453850592E+03 0.  0.
         23    2    4    4    0    0 -0.62966187184E+03  0.39493877347E+02  0.76111268529E+03  0.99259839094E+03  0.89023630523E+02 0.  0.
         23    2    4    4    0    0  0.28047900111E+03  0.35286924380E+03  0.48263474352E+03  0.66665436018E+03  0.91140369848E+02 0.  0.
          2    1    3    3  502    0  0.45495590174E+02 -0.58820272044E+02  0.36568570720E+02  0.82866962615E+02  0.00000000000E+00 0. -1.
         -1    1    3    3    0  502  0.30368728056E+03 -0.33354284910E+03  0.22317486149E+02  0.45163576779E+03  0.00000000000E+00 0.  1.
         11    1    5    5    0    0 -0.47446983309E+03  0.52359031085E+01  0.52140315571E+03  0.70498956586E+03  0.00000000000E+00 0.  1.
        -11    1    5    5    0    0 -0.15519203876E+03  0.34257974239E+02  0.23970952958E+03  0.28760882508E+03  0.00000000000E+00 0. -1.
          3    1    6    6  503    0  0.24061015404E+03  0.30230541592E+03  0.45408648047E+03  0.59621836811E+03  0.00000000000E+00 0. -1.
         -3    1    6    6    0  503  0.39868847068E+02  0.50563827875E+02  0.28548263042E+02  0.70435992068E+02  0.00000000000E+00 0.  1.
<mgrwt>
<rscale>  0 0.17651371E+04</rscale>
<asrwt>0</asrwt>
<pdfrwt beam="1">  1        2 0.26895300E+00 0.17651371E+04</pdfrwt>
<pdfrwt beam="2">  1       -1 0.68547846E-01 0.17651371E+04</pdfrwt>
<totfact> 0.21413613E+01</totfact>
</mgrwt>
</event>
<event>
12    6  0.1450532E-007  0.1525667E+04  0.7818608E-02  0.8867562E-01
          2   -1    0    0  501    0  0.00000000000E+00  0.00000000000E+00  0.45637652963E+03  0.45637652963E+03  0.00000000000E+00 0. -1.
         -1   -1    0    0    0  501 -0.00000000000E+00 -0.00000000000E+00 -0.12750764967E+04  0.12750764967E+04  0.00000000000E+00 0.  1.
         24    2    1    2    0    0 -0.18332014003E+03 -0.11718502864E+03  0.23571003488E+03  0.33055788849E+03  0.79816617477E+02 0.  0.
        254    2    1    2    0    0  0.18332014003E+03  0.11718502864E+03 -0.10544100020E+04  0.14008951379E+04  0.89631921231E+03 0.  0.
         23    2    4    4    0    0  0.40403714812E+03 -0.19169987531E+03 -0.28603850648E+03  0.53907009297E+03  0.93721281964E+02 0.  0.
         23    2    4    4    0    0 -0.22071700809E+03  0.30888490395E+03 -0.76837149549E+03  0.86182504489E+03  0.90673984033E+02 0.  0.
          4    1    3    3  502    0 -0.12211141620E+03 -0.49442801398E+02  0.18185105700E+03  0.22455644170E+03  0.00000000000E+00 0. -1.
         -3    1    3    3    0  502 -0.61208723824E+02 -0.67742227242E+02  0.53858977879E+02  0.10600144679E+03  0.00000000000E+00 0.  1.
         11    1    5    5    0    0  0.32220387845E+03 -0.10822857695E+03 -0.21849557654E+03  0.40406568913E+03  0.00000000000E+00 0.  1.
        -11    1    5    5    0    0  0.81833269666E+02 -0.83471298354E+02 -0.67542929940E+02  0.13500440385E+03  0.00000000000E+00 0. -1.
          1    1    6    6  503    0  0.59231481813E+01  0.97085821163E+01 -0.50402920658E+02  0.51670055757E+02  0.00000000000E+00 0. -1.
         -1    1    6    6    0  503 -0.22664015627E+03  0.29917632183E+03 -0.71796857483E+03  0.81015498914E+03  0.00000000000E+00 0.  1.
<mgrwt>
<rscale>  0 0.15256670E+04</rscale>
<asrwt>0</asrwt>
<pdfrwt beam="1">  1        2 0.70211774E-01 0.15256670E+04</pdfrwt>
<pdfrwt beam="2">  1       -1 0.19616561E+00 0.15256670E+04</pdfrwt>
<totfact> 0.12072606E+01</totfact>
</mgrwt>
</event>
<event>
12    6  0.1450532E-007  0.1541909E+04  0.7818608E-02  0.8857053E-01
         -1   -1    0    0    0  501 -0.00000000000E+00  0.00000000000E+00  0.14949630200E+04  0.14949630200E+04  0.00000000000E+00 0.  1.
          2   -1    0    0  501    0  0.00000000000E+00 -0.00000000000E+00 -0.39758213753E+03  0.39758213753E+03  0.00000000000E+00 0. -1.
         24    2    1    2    0    0 -0.27276999493E+03 -0.39574117210E+03  0.24153125907E+03  0.54389716950E+03  0.80450211061E+02 0.  0.
        254    2    1    2    0    0  0.27276999493E+03  0.39574117210E+03  0.85584962336E+03  0.13486479880E+04  0.92485581160E+03 0.  0.
         23    2    4    4    0    0 -0.14144042630E+03  0.45538880253E+03  0.77324579767E+03  0.91281837544E+03  0.89128936121E+02 0.  0.
         23    2    4    4    0    0  0.41421042122E+03 -0.59647630439E+02  0.82603825693E+02  0.43582961255E+03  0.89420055272E+02 0.  0.
          2    1    3    3  502    0 -0.24331615593E+03 -0.35217526316E+03  0.24114930849E+03  0.49130759887E+03  0.00000000000E+00 0. -1.
         -1    1    3    3    0  502 -0.29453839001E+02 -0.43565908932E+02  0.38195057292E+00  0.52589570632E+02  0.00000000000E+00 0.  1.
         11    1    5    5    0    0 -0.14374684245E+03  0.45607199276E+03  0.77440574832E+03  0.91014783432E+03  0.00000000000E+00 0.  1.
        -11    1    5    5    0    0  0.23064161513E+01 -0.68319022381E+00 -0.11599506468E+01  0.26705411152E+01  0.00000000000E+00 0. -1.
          2    1    6    6  503    0  0.24673317253E+03  0.29720711290E+01  0.70472631213E+02  0.25661738714E+03  0.00000000000E+00 0. -1.
         -2    1    6    6    0  503  0.16747724870E+03 -0.62619701568E+02  0.12131194480E+02  0.17921222541E+03  0.00000000000E+00 0.  1.
<mgrwt>
<rscale>  0 0.15419087E+04</rscale>
<asrwt>0</asrwt>
<pdfrwt beam="1">  1        2 0.61166483E-01 0.15419087E+04</pdfrwt>
<pdfrwt beam="2">  1       -1 0.22999431E+00 0.15419087E+04</pdfrwt>
<totfact> 0.83287908E+00</totfact>
</mgrwt>
</event>
<event>
12    6  0.1450532E-007  0.1367360E+04  0.7818608E-02  0.8977790E-01
         -1   -1    0    0    0  501 -0.00000000000E+00  0.00000000000E+00  0.20972385633E+03  0.20972385633E+03  0.00000000000E+00 0.  1.
          2   -1    0    0  501    0  0.00000000000E+00 -0.00000000000E+00 -0.22287329037E+04  0.22287329037E+04  0.00000000000E+00 0. -1.
         24    2    1    2    0    0  0.28758885027E+02  0.38405298907E+03 -0.61228675879E+03  0.72778890832E+03  0.80360737915E+02 0.  0.
        254    2    1    2    0    0 -0.28758885027E+02 -0.38405298907E+03 -0.14067222886E+04  0.17106678517E+04  0.89397602304E+03 0.  0.
         23    2    4    4    0    0 -0.37683032053E+03 -0.14423346865E+03 -0.11141620318E+04  0.11885437570E+04  0.92058922381E+02 0.  0.
         23    2    4    4    0    0  0.34807143551E+03 -0.23981952042E+03 -0.29256025679E+03  0.52212409473E+03  0.91405360133E+02 0.  0.
          4    1    3    3  502    0  0.48097714411E+02  0.34738684142E+03 -0.56405978993E+03  0.66419459071E+03  0.00000000000E+00 0. -1.
         -3    1    3    3    0  502 -0.19338829384E+02  0.36666147657E+02 -0.48226968860E+02  0.63594317603E+02  0.00000000000E+00 0.  1.
         11    1    5    5    0    0 -0.18079617287E+03 -0.21068594668E+02 -0.46713911588E+03  0.50134827754E+03  0.00000000000E+00 0. -1.
        -11    1    5    5    0    0 -0.19603414766E+03 -0.12316487399E+03 -0.64702291591E+03  0.68719547943E+03  0.00000000000E+00 0.  1.
          1    1    6    6  503    0  0.47514943611E+02 -0.61219626081E+02 -0.87184011853E+02  0.11664717916E+03  0.00000000000E+00 0. -1.
         -1    1    6    6    0  503  0.30055649189E+03 -0.17859989434E+03 -0.20537624493E+03  0.40547691557E+03  0.00000000000E+00 0.  1.
<mgrwt>
<rscale>  0 0.13673602E+04</rscale>
<asrwt>0</asrwt>
<pdfrwt beam="1">  1        2 0.34288197E+00 0.13673602E+04</pdfrwt>
<pdfrwt beam="2">  1       -1 0.32265210E-01 0.13673602E+04</pdfrwt>
<totfact> 0.49695093E+01</totfact>
</mgrwt>
</event>
<event>
12    6  0.1450532E-007  0.3182982E+04  0.7818608E-02  0.8193326E-01
          2   -1    0    0  501    0  0.00000000000E+00  0.00000000000E+00  0.12833509897E+04  0.12833509897E+04  0.00000000000E+00 0. -1.
         -1   -1    0    0    0  501 -0.00000000000E+00 -0.00000000000E+00 -0.19736170417E+04  0.19736170417E+04  0.00000000000E+00 0.  1.
         24    2    1    2    0    0 -0.10217241173E+03  0.97739786951E+03 -0.14258002493E+04  0.17334568118E+04  0.78869325771E+02 0.  0.
        254    2    1    2    0    0  0.10217241173E+03 -0.97739786951E+03  0.73553419722E+03  0.15235112196E+04  0.90240239573E+03 0.  0.
         23    2    4    4    0    0  0.56043041587E+00 -0.44275080160E+03  0.84745453715E+03  0.96049171328E+03  0.91304722441E+02 0.  0.
         23    2    4    4    0    0  0.10161198131E+03 -0.53464706791E+03 -0.11192033993E+03  0.56301950628E+03  0.91062176559E+02 0.  0.
          4    1    3    3  502    0 -0.86372835372E+02  0.56624753520E+03 -0.78018956605E+03  0.96788031119E+03  0.00000000000E+00 0. -1.
         -3    1    3    3    0  502 -0.15799576354E+02  0.41115033431E+03 -0.64561068323E+03  0.76557650063E+03  0.00000000000E+00 0.  1.
         11    1    5    5    0    0  0.16614932696E+02 -0.39431159735E+03  0.68905015306E+03  0.79407040320E+03  0.00000000000E+00 0. -1.
        -11    1    5    5    0    0 -0.16054502281E+02 -0.48439204249E+02  0.15840438409E+03  0.16642131008E+03  0.00000000000E+00 0.  1.
          4    1    6    6  503    0 -0.24149281501E+01 -0.18562111330E+03 -0.60275570747E+02  0.19517728866E+03  0.00000000000E+00 0. -1.
         -4    1    6    6    0  503  0.10402690946E+03 -0.34902595461E+03 -0.51644769180E+02  0.36784221762E+03  0.00000000000E+00 0.  1.
<mgrwt>
<rscale>  0 0.31829819E+04</rscale>
<asrwt>0</asrwt>
<pdfrwt beam="1">  1        2 0.19743861E+00 0.31829819E+04</pdfrwt>
<pdfrwt beam="2">  1       -1 0.30363339E+00 0.31829819E+04</pdfrwt>
<totfact> 0.50784016E-01</totfact>
</mgrwt>
</event>
<event>
12    6  0.1450532E-007  0.2473686E+04  0.7818608E-02  0.8412420E-01
         -1   -1    0    0    0  501 -0.00000000000E+00  0.00000000000E+00  0.64735224016E+03  0.64735224016E+03  0.00000000000E+00 0.  1.
          2   -1    0    0  501    0  0.00000000000E+00 -0.00000000000E+00 -0.23631353703E+04  0.23631353703E+04  0.00000000000E+00 0. -1.
         24    2    1    2    0    0 -0.20820377358E+03  0.83626941109E+03  0.29645849453E+02  0.86600990662E+03  0.79993391712E+02 0.  0.
        254    2    1    2    0    0  0.20820377358E+03 -0.83626941109E+03 -0.17454289796E+04  0.21444777038E+04  0.89975939016E+03 0.  0.
         23    2    4    4    0    0  0.30770747809E+03 -0.61883687294E+03 -0.17539110500E+04  0.18873693995E+04  0.91193813541E+02 0.  0.
         23    2    4    4    0    0 -0.99503704508E+02 -0.21743253816E+03  0.84820703764E+01  0.25710830433E+03  0.94100152896E+02 0.  0.
          4    1    3    3  502    0 -0.11787793336E+03  0.34731879273E+03 -0.12609145512E+02  0.36699392571E+03  0.00000000000E+00 0. -1.
         -3    1    3    3    0  502 -0.90325840222E+02  0.48895061837E+03  0.42254994966E+02  0.49901598092E+03  0.00000000000E+00 0.  1.
         11    1    5    5    0    0  0.15461994759E+03 -0.21236102908E+03 -0.64784807045E+03  0.69907914949E+03  0.00000000000E+00 0. -1.
        -11    1    5    5    0    0  0.15308753049E+03 -0.40647584386E+03 -0.11060629795E+04  0.11882902500E+04  0.00000000000E+00 0.  1.
          1    1    6    6  503    0 -0.10734444871E+03 -0.12813520431E+03  0.10559844544E+01  0.16716033129E+03  0.00000000000E+00 0. -1.
         -1    1    6    6    0  503  0.78407442026E+01 -0.89297333846E+02  0.74260859221E+01  0.89947973039E+02  0.00000000000E+00 0.  1.
<mgrwt>
<rscale>  0 0.24736863E+04</rscale>
<asrwt>0</asrwt>
<pdfrwt beam="1">  1        2 0.36355930E+00 0.24736863E+04</pdfrwt>
<pdfrwt beam="2">  1       -1 0.99592650E-01 0.24736863E+04</pdfrwt>
<totfact> 0.40815246E+00</totfact>
</mgrwt>
</event>
<event>
12    6  0.1450532E-007  0.1644758E+04  0.7818608E-02  0.8793514E-01
         -1   -1    0    0    0  501 -0.00000000000E+00  0.00000000000E+00  0.26662974615E+03  0.26662974615E+03  0.00000000000E+00 0.  1.
          2   -1    0    0  501    0  0.00000000000E+00 -0.00000000000E+00 -0.25365034080E+04  0.25365034080E+04  0.00000000000E+00 0. -1.
         24    2    1    2    0    0 -0.44768308651E+03 -0.17758310741E+03 -0.30580284545E+03  0.57518165459E+03  0.73230113412E+02 0.  0.
        254    2    1    2    0    0  0.44768308651E+03  0.17758310741E+03 -0.19640708164E+04  0.22279514996E+04  0.93500684842E+03 0.  0.
         23    2    4    4    0    0  0.72786225552E+03  0.84544138167E+02 -0.14716840402E+04  0.16467196527E+04  0.94342600487E+02 0.  0.
         23    2    4    4    0    0 -0.28017916902E+03  0.93038969241E+02 -0.49238677627E+03  0.58123184687E+03  0.90714419057E+02 0.  0.
          2    1    3    3  502    0 -0.15680778374E+03 -0.53554384074E+02 -0.14617141526E+03  0.22095890056E+03  0.00000000000E+00 0. -1.
         -1    1    3    3    0  502 -0.29087530276E+03 -0.12402872333E+03 -0.15963143019E+03  0.35422275403E+03  0.00000000000E+00 0.  1.
         11    1    5    5    0    0  0.19757081990E+03  0.62948826165E+02 -0.38147847165E+03  0.43419190219E+03  0.00000000000E+00 0.  1.
        -11    1    5    5    0    0  0.53029143562E+03  0.21595312001E+02 -0.10902055685E+04  0.12125277505E+04  0.00000000000E+00 0. -1.
          2    1    6    6  503    0 -0.78425525329E+02  0.53637142941E+02 -0.98060827436E+02  0.13654095358E+03  0.00000000000E+00 0. -1.
         -2    1    6    6    0  503 -0.20175364369E+03  0.39401826300E+02 -0.39432594883E+03  0.44469089330E+03  0.00000000000E+00 0.  1.
<mgrwt>
<rscale>  0 0.16447580E+04</rscale>
<asrwt>0</asrwt>
<pdfrwt beam="1">  1        2 0.39023129E+00 0.16447580E+04</pdfrwt>
<pdfrwt beam="2">  1       -1 0.41019962E-01 0.16447580E+04</pdfrwt>
<totfact> 0.21024415E+01</totfact>
</mgrwt>
</event>
<event>
12    6  0.1450532E-007  0.1397971E+04  0.7818608E-02  0.8955289E-01
         -1   -1    0    0    0  501 -0.00000000000E+00  0.00000000000E+00  0.16486436647E+04  0.16486436647E+04  0.00000000000E+00 0.  1.
          2   -1    0    0  501    0  0.00000000000E+00 -0.00000000000E+00 -0.29635294718E+03  0.29635294718E+03  0.00000000000E+00 0. -1.
         24    2    1    2    0    0  0.13148550705E+03 -0.94527268539E+02 -0.11708080980E+03  0.21537840889E+03  0.80349859562E+02 0.  0.
        254    2    1    2    0    0 -0.13148550705E+03  0.94527268539E+02  0.14693715273E+04  0.17296182030E+04  0.89794353929E+03 0.  0.
         23    2    4    4    0    0 -0.45861195340E+03 -0.11767942587E+03  0.57947991436E+03  0.75386919304E+03  0.91369677608E+02 0.  0.
         23    2    4    4    0    0  0.32712644635E+03  0.21220669441E+03  0.88989161296E+03  0.97574900995E+03  0.90197863331E+02 0.  0.
          4    1    3    3  502    0  0.13767650450E+03 -0.72689730210E+02 -0.89214215038E+02  0.17943743460E+03  0.00000000000E+00 0. -1.
         -3    1    3    3    0  502 -0.61909974500E+01 -0.21837538329E+02 -0.27866594763E+02  0.35940974296E+02  0.00000000000E+00 0.  1.
         11    1    5    5    0    0 -0.40728144201E+03 -0.73333780850E+02  0.48497224831E+03  0.63753752678E+03  0.00000000000E+00 0. -1.
        -11    1    5    5    0    0 -0.51330511393E+02 -0.44345645025E+02  0.94507666048E+02  0.11633166626E+03  0.00000000000E+00 0.  1.
          3    1    6    6  503    0  0.31329948434E+03  0.19370946266E+03  0.87176733364E+03  0.94639220560E+03  0.00000000000E+00 0. -1.
         -3    1    6    6    0  503  0.13826962016E+02  0.18497231754E+02  0.18124279317E+02  0.29356804354E+02  0.00000000000E+00 0.  1.
<mgrwt>
<rscale>  0 0.13979705E+04</rscale>
<asrwt>0</asrwt>
<pdfrwt beam="1">  1        2 0.45592762E-01 0.13979705E+04</pdfrwt>
<pdfrwt beam="2">  1       -1 0.25363748E+00 0.13979705E+04</pdfrwt>
<totfact> 0.82009743E+00</totfact>
</mgrwt>
</event>
<event>
12    6  0.1450532E-007  0.1895846E+04  0.7818608E-02  0.8656927E-01
         -1   -1    0    0    0  501 -0.00000000000E+00  0.00000000000E+00  0.19640959553E+04  0.19640959553E+04  0.00000000000E+00 0.  1.
          2   -1    0    0  501    0  0.00000000000E+00 -0.00000000000E+00 -0.45749202385E+03  0.45749202385E+03  0.00000000000E+00 0. -1.
         24    2    1    2    0    0  0.45348377426E+03  0.55850340819E+03  0.41045995471E+03  0.83234622785E+03  0.82153990294E+02 0.  0.
        254    2    1    2    0    0 -0.45348377426E+03 -0.55850340819E+03  0.10961439767E+04  0.15892417513E+04  0.89810029278E+03 0.  0.
         23    2    4    4    0    0 -0.27985879345E+03 -0.47069443086E+03  0.92640702235E+02  0.56310157951E+03  0.92881093976E+02 0.  0.
         23    2    4    4    0    0 -0.17362498081E+03 -0.87808977325E+02  0.10035032745E+04  0.10261401718E+04  0.89937643858E+02 0.  0.
          4    1    3    3  502    0  0.62989497691E+02  0.62337878536E+02  0.23056130914E+02  0.91571136787E+02  0.00000000000E+00 0. -1.
         -3    1    3    3    0  502  0.39049427657E+03  0.49616552965E+03  0.38740382380E+03  0.74077509106E+03  0.00000000000E+00 0.  1.
         11    1    5    5    0    0 -0.11463472440E+02 -0.73298897816E+02  0.27659602355E+02  0.79178237060E+02  0.00000000000E+00 0. -1.
        -11    1    5    5    0    0 -0.26839532101E+03 -0.39739553305E+03  0.64981099880E+02  0.48392334245E+03  0.00000000000E+00 0.  1.
          2    1    6    6  503    0 -0.86824970348E+02  0.16012802797E+01  0.33180586170E+03  0.34298144182E+03  0.00000000000E+00 0. -1.
         -2    1    6    6    0  503 -0.86800010461E+02 -0.89410257604E+02  0.67169741281E+03  0.68315872998E+03  0.00000000000E+00 0.  1.
<mgrwt>
<rscale>  0 0.18958462E+04</rscale>
<asrwt>0</asrwt>
<pdfrwt beam="1">  1        2 0.70383390E-01 0.18958462E+04</pdfrwt>
<pdfrwt beam="2">  1       -1 0.30216860E+00 0.18958462E+04</pdfrwt>
<totfact> 0.23383181E+00</totfact>
</mgrwt>
</event>
<event>
12    6  0.1450532E-007  0.1306543E+04  0.7818608E-02  0.9024392E-01
          2   -1    0    0  501    0  0.00000000000E+00  0.00000000000E+00  0.94575700112E+03  0.94575700112E+03  0.00000000000E+00 0. -1.
         -1   -1    0    0    0  501 -0.00000000000E+00 -0.00000000000E+00 -0.45124061630E+03  0.45124061630E+03  0.00000000000E+00 0.  1.
         24    2    1    2    0    0  0.84034649405E+02 -0.30017821088E+03 -0.29157277482E+01  0.32247537615E+03  0.82541420922E+02 0.  0.
        254    2    1    2    0    0 -0.84034649405E+02  0.30017821088E+03  0.49743211257E+03  0.10745222413E+04  0.89999475542E+03 0.  0.
         23    2    4    4    0    0  0.29709856028E+03 -0.10221396665E+03  0.39050785963E+01  0.32696176400E+03  0.90407388984E+02 0.  0.
         23    2    4    4    0    0 -0.38113320969E+03  0.40239217752E+03  0.49352703397E+03  0.74756047727E+03  0.89976362740E+02 0.  0.
          2    1    3    3  502    0  0.86135984107E+02 -0.24885568177E+03 -0.28880914442E+02  0.26492011121E+03  0.00000000000E+00 0. -1.
         -1    1    3    3    0  502 -0.21013347027E+01 -0.51322529108E+02  0.25965186694E+02  0.57555264933E+02  0.00000000000E+00 0.  1.
         11    1    5    5    0    0  0.45577957827E+02  0.52608513091E+01 -0.24426850107E+02  0.51977858770E+02  0.00000000000E+00 0.  1.
        -11    1    5    5    0    0  0.25152060246E+03 -0.10747481795E+03  0.28331928704E+02  0.27498390523E+03  0.00000000000E+00 0. -1.
          3    1    6    6  503    0 -0.13658565643E+03  0.14325386638E+03  0.12060278315E+03  0.23178080826E+03  0.00000000000E+00 0. -1.
         -3    1    6    6    0  503 -0.24454755326E+03  0.25913831114E+03  0.37292425083E+03  0.51577966901E+03  0.00000000000E+00 0.  1.
<mgrwt>
<rscale>  0 0.13065435E+04</rscale>
<asrwt>0</asrwt>
<pdfrwt beam="1">  1        2 0.14550108E+00 0.13065435E+04</pdfrwt>
<pdfrwt beam="2">  1       -1 0.69421634E-01 0.13065435E+04</pdfrwt>
<totfact> 0.64124086E+01</totfact>
</mgrwt>
</event>
<event>
12    6  0.1450532E-007  0.1423947E+04  0.7818608E-02  0.8936664E-01
         -1   -1    0    0    0  501 -0.00000000000E+00  0.00000000000E+00  0.86720134218E+03  0.86720134218E+03  0.00000000000E+00 0.  1.
          2   -1    0    0  501    0  0.00000000000E+00 -0.00000000000E+00 -0.58453147249E+03  0.58453147249E+03  0.00000000000E+00 0. -1.
         24    2    1    2    0    0 -0.20128941338E+03 -0.27641974283E+03 -0.17898124858E+03  0.39403559313E+03  0.79400624328E+02 0.  0.
        254    2    1    2    0    0  0.20128941338E+03  0.27641974283E+03  0.46165111828E+03  0.10576972215E+04  0.88807452124E+03 0.  0.
         23    2    4    4    0    0  0.53923954386E+03  0.23030076204E+03  0.22685217695E+03  0.63520261590E+03  0.90568904159E+02 0.  0.
         23    2    4    4    0    0 -0.33795013048E+03  0.46118980797E+02  0.23479894133E+03  0.42249460564E+03  0.83868336449E+02 0.  0.
          2    1    3    3  502    0 -0.12519554720E+03 -0.20073135322E+03 -0.85010063477E+02  0.25138359552E+03  0.00000000000E+00 0. -1.
         -1    1    3    3    0  502 -0.76093866182E+02 -0.75688389611E+02 -0.93971185103E+02  0.14265199761E+03  0.00000000000E+00 0.  1.
         11    1    5    5    0    0  0.75599179768E+02  0.39861401846E+02  0.68584097027E+02  0.10958077251E+03  0.00000000000E+00 0.  1.
        -11    1    5    5    0    0  0.46364036410E+03  0.19043936019E+03  0.15826807992E+03  0.52562184339E+03  0.00000000000E+00 0. -1.
          1    1    6    6  503    0 -0.33024109828E+03  0.57649223482E+02  0.21476840246E+03  0.39813073564E+03  0.00000000000E+00 0. -1.
         -1    1    6    6    0  503 -0.77090321995E+01 -0.11530242686E+02  0.20030538875E+02  0.24363870002E+02  0.00000000000E+00 0.  1.
<mgrwt>
<rscale>  0 0.14239473E+04</rscale>
<asrwt>0</asrwt>
<pdfrwt beam="1">  1        2 0.89927919E-01 0.14239473E+04</pdfrwt>
<pdfrwt beam="2">  1       -1 0.13341559E+00 0.14239473E+04</pdfrwt>
<totfact> 0.26992081E+01</totfact>
</mgrwt>
</event>
<event>
12    6  0.1450532E-007  0.1763265E+04  0.7818608E-02  0.8726082E-01
         -1   -1    0    0    0  501 -0.00000000000E+00  0.00000000000E+00  0.72134311732E+03  0.72134311732E+03  0.00000000000E+00 0.  1.
          2   -1    0    0  501    0  0.00000000000E+00 -0.00000000000E+00 -0.10775397833E+04  0.10775397833E+04  0.00000000000E+00 0. -1.
         24    2    1    2    0    0 -0.33460585387E+03 -0.28168295788E+03 -0.62509234299E+03  0.77010494865E+03  0.10495155300E+03 0.  0.
        254    2    1    2    0    0  0.33460585387E+03  0.28168295788E+03  0.26889567697E+03  0.10287779520E+04  0.89150032151E+03 0.  0.
         23    2    4    4    0    0  0.26631131613E+03 -0.15167964049E+03 -0.20204197462E+03  0.37885632026E+03  0.93716174996E+02 0.  0.
         23    2    4    4    0    0  0.68294537747E+02  0.43336259837E+03  0.47093765159E+03  0.64992163175E+03  0.90269431111E+02 0.  0.
          2    1    3    3  502    0 -0.25877162868E+03 -0.16005670416E+03 -0.38831718419E+03  0.49332660570E+03  0.00000000000E+00 0. -1.
         -1    1    3    3    0  502 -0.75834225188E+02 -0.12162625372E+03 -0.23677515880E+03  0.27677834295E+03  0.00000000000E+00 0.  1.
         11    1    5    5    0    0  0.14532277300E+03 -0.13372958745E+03 -0.11265225660E+03  0.22736059867E+03  0.00000000000E+00 0. -1.
        -11    1    5    5    0    0  0.12098854312E+03 -0.17950053043E+02 -0.89389718019E+02  0.15149572158E+03  0.00000000000E+00 0.  1.
          2    1    6    6  503    0  0.84060719937E+02  0.26157846112E+03  0.27221175039E+03  0.38676702678E+03  0.00000000000E+00 0. -1.
         -2    1    6    6    0  503 -0.15766182190E+02  0.17178413724E+03  0.19872590120E+03  0.26315460497E+03  0.00000000000E+00 0.  1.
<mgrwt>
<rscale>  0 0.17632650E+04</rscale>
<asrwt>0</asrwt>
<pdfrwt beam="1">  1        2 0.16577535E+00 0.17632650E+04</pdfrwt>
<pdfrwt beam="2">  1       -1 0.11097586E+00 0.17632650E+04</pdfrwt>
<totfact> 0.18160605E+01</totfact>
</mgrwt>
</event>
<event>
12    6  0.1450532E-007  0.1857897E+04  0.7818608E-02  0.8676102E-01
          2   -1    0    0  501    0  0.00000000000E+00  0.00000000000E+00  0.98399573682E+03  0.98399573682E+03  0.00000000000E+00 0. -1.
         -1   -1    0    0    0  501 -0.00000000000E+00 -0.00000000000E+00 -0.87698111823E+03  0.87698111823E+03  0.00000000000E+00 0.  1.
         24    2    1    2    0    0 -0.36874125294E+03 -0.39371801742E+03 -0.27871672994E+03  0.61244192972E+03  0.80113125403E+02 0.  0.
        254    2    1    2    0    0  0.36874125294E+03  0.39371801742E+03  0.38573134853E+03  0.12485349253E+04  0.10578595359E+04 0.  0.
         23    2    4    4    0    0  0.28363653003E+02 -0.27655442006E+03 -0.14216005526E+03  0.32550626595E+03  0.91967406157E+02 0.  0.
         23    2    4    4    0    0  0.34037759994E+03  0.67027243748E+03  0.52789140378E+03  0.92302865938E+03  0.90501496409E+02 0.  0.
          4    1    3    3  502    0 -0.16163886039E+03 -0.18944240386E+03 -0.17171123127E+03  0.30249015275E+03  0.00000000000E+00 0. -1.
         -3    1    3    3    0  502 -0.20710239255E+03 -0.20427561356E+03 -0.10700549867E+03  0.30995177696E+03  0.00000000000E+00 0.  1.
         11    1    5    5    0    0  0.25638791620E+02 -0.17937403295E+02 -0.20400363438E+01  0.31356974041E+02  0.00000000000E+00 0. -1.
        -11    1    5    5    0    0  0.27248613824E+01 -0.25861701677E+03 -0.14012001891E+03  0.29414929191E+03  0.00000000000E+00 0.  1.
          2    1    6    6  503    0  0.87346042928E+02  0.99395720023E+02  0.10407572281E+03  0.16834665560E+03  0.00000000000E+00 0. -1.
         -2    1    6    6    0  503  0.25303155701E+03  0.57087671746E+03  0.42381568097E+03  0.75468200377E+03  0.00000000000E+00 0.  1.
<mgrwt>
<rscale>  0 0.18578974E+04</rscale>
<asrwt>0</asrwt>
<pdfrwt beam="1">  1        2 0.15138396E+00 0.18578974E+04</pdfrwt>
<pdfrwt beam="2">  1       -1 0.13492017E+00 0.18578974E+04</pdfrwt>
<totfact> 0.12759659E+01</totfact>
</mgrwt>
</event>
<event>
12    6  0.1450532E-007  0.2025101E+04  0.7818608E-02  0.8594974E-01
         -1   -1    0    0    0  501 -0.00000000000E+00  0.00000000000E+00  0.73468506286E+03  0.73468506286E+03  0.00000000000E+00 0.  1.
          2   -1    0    0  501    0  0.00000000000E+00 -0.00000000000E+00 -0.13955070717E+04  0.13955070717E+04  0.00000000000E+00 0. -1.
         24    2    1    2    0    0  0.51007152937E+03 -0.62485625503E+03 -0.37942984665E+03  0.89490303633E+03  0.79158899547E+02 0.  0.
        254    2    1    2    0    0 -0.51007152937E+03  0.62485625503E+03 -0.28139216219E+03  0.12352890982E+04  0.89226638553E+03 0.  0.
         23    2    4    4    0    0  0.18934551958E+03 -0.56320967041E+02 -0.96764443500E+02  0.23729912955E+03  0.89015404542E+02 0.  0.
         23    2    4    4    0    0 -0.69941704895E+03  0.68117722207E+03 -0.18462771869E+03  0.99798996868E+03  0.93327203156E+02 0.  0.
          2    1    3    3  502    0 -0.12096099577E+01 -0.73871523166E+00 -0.54625505131E+01  0.56434310975E+01  0.00000000000E+00 0. -1.
         -1    1    3    3    0  502  0.51128113932E+03 -0.62411753980E+03 -0.37396729614E+03  0.88925960523E+03  0.00000000000E+00 0.  1.
         11    1    5    5    0    0  0.78434545148E+02  0.17594737121E+02 -0.17636227682E+02  0.82295742136E+02  0.00000000000E+00 0. -1.
        -11    1    5    5    0    0  0.11091097443E+03 -0.73915704162E+02 -0.79128215818E+02  0.15500338742E+03  0.00000000000E+00 0.  1.
          3    1    6    6  503    0 -0.18863509853E+03  0.16171453506E+03 -0.91387931824E+01  0.24863287954E+03  0.00000000000E+00 0. -1.
         -3    1    6    6    0  503 -0.51078195042E+03  0.51946268701E+03 -0.17548892551E+03  0.74935708914E+03  0.00000000000E+00 0.  1.
<mgrwt>
<rscale>  0 0.20251007E+04</rscale>
<asrwt>0</asrwt>
<pdfrwt beam="1">  1        2 0.21469339E+00 0.20251007E+04</pdfrwt>
<pdfrwt beam="2">  1       -1 0.11302847E+00 0.20251007E+04</pdfrwt>
<totfact> 0.11004702E+01</totfact>
</mgrwt>
</event>
<event>
12    6  0.1450532E-007  0.1569742E+04  0.7818608E-02  0.8839356E-01
         -1   -1    0    0    0  501 -0.00000000000E+00  0.00000000000E+00  0.18752643835E+03  0.18752643835E+03  0.00000000000E+00 0.  1.
          2   -1    0    0  501    0  0.00000000000E+00 -0.00000000000E+00 -0.32849885862E+04  0.32849885862E+04  0.00000000000E+00 0. -1.
         24    2    1    2    0    0  0.43630205212E+03 -0.27057689957E+03 -0.96475137227E+03  0.10957863424E+04  0.80194504389E+02 0.  0.
        254    2    1    2    0    0 -0.43630205212E+03  0.27057689957E+03 -0.21327107756E+04  0.23767286822E+04  0.91477463737E+03 0.  0.
         23    2    4    4    0    0 -0.70890163793E+03  0.12680218384E+03 -0.14071740496E+04  0.15833500098E+04  0.90764098627E+02 0.  0.
         23    2    4    4    0    0  0.27259958581E+03  0.14377471573E+03 -0.72553672597E+03  0.79337867237E+03  0.89802416303E+02 0.  0.
          2    1    3    3  502    0  0.31507323687E+03 -0.15371580743E+03 -0.67721701584E+03  0.76257627853E+03  0.00000000000E+00 0. -1.
         -1    1    3    3    0  502  0.12122881525E+03 -0.11686109214E+03 -0.28753435643E+03  0.33321006382E+03  0.00000000000E+00 0.  1.
         11    1    5    5    0    0 -0.56327627312E+03  0.11942732331E+03 -0.10491071403E+04  0.11967325672E+04  0.00000000000E+00 0.  1.
        -11    1    5    5    0    0 -0.14562536481E+03  0.73748605294E+01 -0.35806690926E+03  0.38661744264E+03  0.00000000000E+00 0. -1.
          1    1    6    6  503    0  0.14940199588E+03  0.78120512533E+02 -0.28371498048E+03  0.33002721252E+03  0.00000000000E+00 0. -1.
         -1    1    6    6    0  503  0.12319758993E+03  0.65654203192E+02 -0.44182174549E+03  0.46335145985E+03  0.00000000000E+00 0.  1.
<mgrwt>
<rscale>  0 0.15697416E+04</rscale>
<asrwt>0</asrwt>
<pdfrwt beam="1">  1        2 0.50538284E+00 0.15697416E+04</pdfrwt>
<pdfrwt beam="2">  1       -1 0.28850222E-01 0.15697416E+04</pdfrwt>
<totfact> 0.13762925E+01</totfact>
</mgrwt>
</event>
<event>
12    6  0.1450532E-007  0.1241623E+04  0.7818608E-02  0.9077185E-01
         -1   -1    0    0    0  501 -0.00000000000E+00  0.00000000000E+00  0.12780917480E+03  0.12780917480E+03  0.00000000000E+00 0.  1.
          2   -1    0    0  501    0  0.00000000000E+00 -0.00000000000E+00 -0.30154861240E+04  0.30154861240E+04  0.00000000000E+00 0. -1.
         24    2    1    2    0    0 -0.75635234670E+02 -0.22347001354E+03 -0.26722753643E+03  0.36431735001E+03  0.75213294142E+02 0.  0.
        254    2    1    2    0    0  0.75635234670E+02  0.22347001354E+03 -0.26204494128E+04  0.27789779488E+04  0.89459699268E+03 0.  0.
         23    2    4    4    0    0 -0.55977437083E+02 -0.19741640752E+03 -0.15540001117E+03  0.27304705782E+03  0.91097864367E+02 0.  0.
         23    2    4    4    0    0  0.13161267175E+03  0.42088642106E+03 -0.24650494016E+04  0.25059308910E+04  0.93561761269E+02 0.  0.
          4    1    3    3  502    0  0.14817448964E+02 -0.19488728832E+02 -0.25886902940E+02  0.35630030720E+02  0.00000000000E+00 0. -1.
         -3    1    3    3    0  502 -0.90452683634E+02 -0.20398128470E+03 -0.24134063349E+03  0.32868731929E+03  0.00000000000E+00 0.  1.
         11    1    5    5    0    0 -0.30705278095E+01 -0.48772639488E+01 -0.44043772134E+02  0.44419249301E+02  0.00000000000E+00 0.  1.
        -11    1    5    5    0    0 -0.52906909274E+02 -0.19253914357E+03 -0.11135623904E+03  0.22862780852E+03  0.00000000000E+00 0. -1.
          3    1    6    6  503    0  0.42230543720E+02  0.25338383176E+03 -0.15800898535E+04  0.16008343856E+04  0.00000000000E+00 0. -1.
         -3    1    6    6    0  503  0.89382128033E+02  0.16750258930E+03 -0.88495954816E+03  0.90509650541E+03  0.00000000000E+00 0.  1.
<mgrwt>
<rscale>  0 0.12416228E+04</rscale>
<asrwt>0</asrwt>
<pdfrwt beam="1">  1        2 0.46392093E+00 0.12416228E+04</pdfrwt>
<pdfrwt beam="2">  1       -1 0.19662951E-01 0.12416228E+04</pdfrwt>
<totfact> 0.40700224E+01</totfact>
</mgrwt>
</event>
<event>
12    6  0.1450532E-007  0.1744729E+04  0.7818608E-02  0.8736257E-01
          2   -1    0    0  501    0  0.00000000000E+00  0.00000000000E+00  0.72668049771E+03  0.72668049771E+03  0.00000000000E+00 0. -1.
         -1   -1    0    0    0  501 -0.00000000000E+00 -0.00000000000E+00 -0.10472548196E+04  0.10472548196E+04  0.00000000000E+00 0.  1.
         24    2    1    2    0    0  0.11584222287E+03  0.52603307891E+02 -0.75612145124E+03  0.77076291476E+03  0.78544847934E+02 0.  0.
        254    2    1    2    0    0 -0.11584222287E+03 -0.52603307891E+02  0.43554712932E+03  0.10031724026E+04  0.89468823556E+03 0.  0.
         23    2    4    4    0    0 -0.37378675564E+03  0.25587457593E+03  0.10233975653E+03  0.47300335288E+03  0.89835453861E+02 0.  0.
         23    2    4    4    0    0  0.25794453277E+03 -0.30847788382E+03  0.33320737278E+03  0.53016904970E+03  0.91422542020E+02 0.  0.
          4    1    3    3  502    0  0.33826731052E+02 -0.13679478041E+02 -0.32001401391E+03  0.32208748028E+03  0.00000000000E+00 0. -1.
         -3    1    3    3    0  502  0.82015491817E+02  0.66282785933E+02 -0.43610743733E+03  0.44867543448E+03  0.00000000000E+00 0.  1.
         11    1    5    5    0    0 -0.31277693054E+03  0.16885627452E+03  0.82444613211E+02  0.36488212339E+03  0.00000000000E+00 0.  1.
        -11    1    5    5    0    0 -0.61009825105E+02  0.87018301409E+02  0.19895143320E+02  0.10812122949E+03  0.00000000000E+00 0. -1.
          1    1    6    6  503    0  0.12410211682E+03 -0.14408973104E+03  0.21658550240E+03  0.28822294468E+03  0.00000000000E+00 0. -1.
         -1    1    6    6    0  503  0.13384241596E+03 -0.16438815278E+03  0.11662187038E+03  0.24194610502E+03  0.00000000000E+00 0.  1.
<mgrwt>
<rscale>  0 0.17447288E+04</rscale>
<asrwt>0</asrwt>
<pdfrwt beam="1">  1        2 0.11179700E+00 0.17447288E+04</pdfrwt>
<pdfrwt beam="2">  1       -1 0.16111613E+00 0.17447288E+04</pdfrwt>
<totfact> 0.12121353E+01</totfact>
</mgrwt>
</event>
<event>
12    6  0.1450532E-007  0.2443498E+04  0.7818608E-02  0.8423396E-01
         -1   -1    0    0    0  501 -0.00000000000E+00  0.00000000000E+00  0.34522960622E+03  0.34522960622E+03  0.00000000000E+00 0.  1.
          2   -1    0    0  501    0  0.00000000000E+00 -0.00000000000E+00 -0.43237035401E+04  0.43237035401E+04  0.00000000000E+00 0. -1.
         24    2    1    2    0    0 -0.55243063713E+03 -0.21177384474E+03 -0.33814934237E+04  0.34338042971E+04  0.80538229941E+02 0.  0.
        254    2    1    2    0    0  0.55243063713E+03  0.21177384474E+03 -0.59698051023E+03  0.12351288492E+04  0.90505788457E+03 0.  0.
         23    2    4    4    0    0 -0.53336927769E+02  0.39592589104E+03 -0.38088859224E+03  0.55969075066E+03  0.92603874717E+02 0.  0.
         23    2    4    4    0    0  0.60576756490E+03 -0.18415204630E+03 -0.21609191799E+03  0.67543809856E+03  0.93030044220E+02 0.  0.
          4    1    3    3  502    0 -0.25322725672E+03 -0.10260201867E+03 -0.17926989091E+04  0.18134002858E+04  0.00000000000E+00 0. -1.
         -3    1    3    3    0  502 -0.29920338041E+03 -0.10917182607E+03 -0.15887945145E+04  0.16204040113E+04  0.00000000000E+00 0.  1.
         11    1    5    5    0    0 -0.32683932602E+02  0.32800750688E+03 -0.35419065591E+03  0.48384727420E+03  0.00000000000E+00 0.  1.
        -11    1    5    5    0    0 -0.20652995167E+02  0.67918384163E+02 -0.26697936331E+02  0.75843476456E+02  0.00000000000E+00 0. -1.
          4    1    6    6  503    0  0.32086299778E+03 -0.89116195002E+02 -0.16179277382E+03  0.37023190194E+03  0.00000000000E+00 0. -1.
         -4    1    6    6    0  503  0.28490456712E+03 -0.95035851302E+02 -0.54299144174E+02  0.30520619662E+03  0.00000000000E+00 0.  1.
<mgrwt>
<rscale>  0 0.24434979E+04</rscale>
<asrwt>0</asrwt>
<pdfrwt beam="1">  1        2 0.66518516E+00 0.24434979E+04</pdfrwt>
<pdfrwt beam="2">  1       -1 0.53112247E-01 0.24434979E+04</pdfrwt>
<totfact> 0.66161243E-01</totfact>
</mgrwt>
</event>
<event>
12    6  0.1450532E-007  0.1207423E+04  0.7818608E-02  0.9106384E-01
          2   -1    0    0  501    0  0.00000000000E+00  0.00000000000E+00  0.60710742370E+03  0.60710742370E+03  0.00000000000E+00 0. -1.
         -1   -1    0    0    0  501 -0.00000000000E+00 -0.00000000000E+00 -0.60033447261E+03  0.60033447261E+03  0.00000000000E+00 0.  1.
         24    2    1    2    0    0  0.12932866741E+02  0.22495473332E+03  0.15791002461E+03  0.28784986147E+03  0.84558120790E+02 0.  0.
        254    2    1    2    0    0 -0.12932866741E+02 -0.22495473332E+03 -0.15113707352E+03  0.91959203484E+03  0.87865533883E+03 0.  0.
         23    2    4    4    0    0  0.30414402960E+03  0.14544836466E+03  0.10132606376E+03  0.36314994826E+03  0.89174526595E+02 0.  0.
         23    2    4    4    0    0 -0.31707689634E+03 -0.37040309798E+03 -0.25246313728E+03  0.55644208658E+03  0.90299207314E+02 0.  0.
          4    1    3    3  502    0 -0.96142276335E+01  0.50946676871E+01  0.31306945380E+02  0.33143835638E+02  0.00000000000E+00 0. -1.
         -3    1    3    3    0  502  0.22547094375E+02  0.21986006563E+03  0.12660307923E+03  0.25470602583E+03  0.00000000000E+00 0.  1.
         11    1    5    5    0    0  0.48507563863E+01 -0.10216845766E+02  0.20788187609E+01  0.11499359216E+02  0.00000000000E+00 0. -1.
        -11    1    5    5    0    0  0.29929327322E+03  0.15566521043E+03  0.99247245003E+02  0.35165058904E+03  0.00000000000E+00 0.  1.
          2    1    6    6  503    0 -0.30388770513E+03 -0.37392788941E+03 -0.24173113094E+03  0.53907675101E+03  0.00000000000E+00 0.  1.
         -2    1    6    6    0  503 -0.13189191214E+02  0.35247914302E+01 -0.10732006339E+02  0.17365335573E+02  0.00000000000E+00 0. -1.
<mgrwt>
<rscale>  0 0.12074229E+04</rscale>
<asrwt>0</asrwt>
<pdfrwt beam="1">  1        2 0.93401142E-01 0.12074229E+04</pdfrwt>
<pdfrwt beam="2">  1       -1 0.92359150E-01 0.12074229E+04</pdfrwt>
<totfact> 0.62885470E+01</totfact>
</mgrwt>
</event>
<event>
12    6  0.1450532E-007  0.1328133E+04  0.7818608E-02  0.9007548E-01
         -1   -1    0    0    0  501 -0.00000000000E+00  0.00000000000E+00  0.23051739768E+03  0.23051739768E+03  0.00000000000E+00 0.  1.
          2   -1    0    0  501    0  0.00000000000E+00 -0.00000000000E+00 -0.19130187549E+04  0.19130187549E+04  0.00000000000E+00 0. -1.
         24    2    1    2    0    0 -0.20340731867E+02 -0.33180829132E+03 -0.65710140273E+03  0.74044049666E+03  0.77197072901E+02 0.  0.
        254    2    1    2    0    0  0.20340731867E+02  0.33180829132E+03 -0.10253999545E+04  0.14030956559E+04  0.89817696775E+03 0.  0.
         23    2    4    4    0    0 -0.26003468048E+03  0.53231648733E+03 -0.59730023696E+03  0.84616534606E+03  0.90825888791E+02 0.  0.
         23    2    4    4    0    0  0.28037541235E+03 -0.20050819601E+03 -0.42809971750E+03  0.55693030982E+03  0.89933827680E+02 0.  0.
          4    1    3    3  502    0  0.12887124602E+02 -0.19881935887E+03 -0.44937875350E+03  0.49156533598E+03  0.00000000000E+00 0. -1.
         -1    1    3    3    0  502 -0.33227856469E+02 -0.13298893245E+03 -0.20772264923E+03  0.24887516068E+03  0.00000000000E+00 0.  1.
         11    1    5    5    0    0 -0.83812159801E+02  0.90476257789E+02 -0.13470164751E+03  0.18263341752E+03  0.00000000000E+00 0. -1.
        -11    1    5    5    0    0 -0.17622252068E+03  0.44184022954E+03 -0.46259858945E+03  0.66353192854E+03  0.00000000000E+00 0.  1.
          1    1    6    6  503    0  0.49827263840E+02 -0.13331123781E+02 -0.11150323106E+03  0.12285538498E+03  0.00000000000E+00 0. -1.
         -1    1    6    6    0  503  0.23054814851E+03 -0.18717707223E+03 -0.31659648644E+03  0.43407492484E+03  0.00000000000E+00 0.  1.
<mgrwt>
<rscale>  0 0.13281327E+04</rscale>
<asrwt>0</asrwt>
<pdfrwt beam="1">  1        2 0.29431057E+00 0.13281327E+04</pdfrwt>
<pdfrwt beam="2">  1       -1 0.35464216E-01 0.13281327E+04</pdfrwt>
<totfact> 0.63098783E+01</totfact>
</mgrwt>
</event>
<event>
12    6  0.1450532E-007  0.2054078E+04  0.7818608E-02  0.8581747E-01
         -3   -1    0    0    0  501 -0.00000000000E+00  0.00000000000E+00  0.42269083346E+03  0.42269083346E+03  0.00000000000E+00 0.  1.
          2   -1    0    0  501    0  0.00000000000E+00 -0.00000000000E+00 -0.24954613105E+04  0.24954613105E+04  0.00000000000E+00 0. -1.
         24    2    1    2    0    0  0.22008207257E+03 -0.72395959859E+03 -0.35851808261E+03  0.84133333765E+03  0.82176337378E+02 0.  0.
        254    2    1    2    0    0 -0.22008207257E+03  0.72395959859E+03 -0.17142523944E+04  0.20768188063E+04  0.89552301110E+03 0.  0.
         23    2    4    4    0    0  0.27572103398E+03  0.42739006981E+03 -0.45585169473E+03  0.68888130096E+03  0.89846084329E+02 0.  0.
         23    2    4    4    0    0 -0.49580310656E+03  0.29656952877E+03 -0.12584006997E+04  0.13879375054E+04  0.94994694069E+02 0.  0.
          4    1    3    3  502    0  0.11239641234E+03 -0.30789389926E+03 -0.19572622753E+03  0.38175956157E+03  0.00000000000E+00 0. -1.
         -3    1    3    3    0  502  0.10768566023E+03 -0.41606569933E+03 -0.16279185508E+03  0.45957377608E+03  0.00000000000E+00 0.  1.
         11    1    5    5    0    0  0.23672539524E+03  0.38623659385E+03 -0.36485108886E+03  0.58166479713E+03  0.00000000000E+00 0. -1.
        -11    1    5    5    0    0  0.38995638737E+02  0.41153475967E+02 -0.91000605866E+02  0.10721650383E+03  0.00000000000E+00 0.  1.
          3    1    6    6  503    0 -0.43728831935E+03  0.22256235238E+03 -0.10753662268E+04  0.11820184418E+04  0.00000000000E+00 0. -1.
         -3    1    6    6    0  503 -0.58514787203E+02  0.74007176393E+02 -0.18303447293E+03  0.20591906361E+03  0.00000000000E+00 0.  1.
<mgrwt>
<rscale>  0 0.20540775E+04</rscale>
<asrwt>0</asrwt>
<pdfrwt beam="1">  1        2 0.38391713E+00 0.20540775E+04</pdfrwt>
<pdfrwt beam="2">  1       -3 0.65029358E-01 0.20540775E+04</pdfrwt>
<totfact> 0.47610450E+00</totfact>
</mgrwt>
</event>
<event>
12    6  0.1450532E-007  0.2726465E+04  0.7818608E-02  0.8326469E-01
          2   -1    0    0  501    0  0.00000000000E+00  0.00000000000E+00  0.24050270958E+04  0.24050270958E+04  0.00000000000E+00 0. -1.
         -1   -1    0    0    0  501 -0.00000000000E+00 -0.00000000000E+00 -0.77271598037E+03  0.77271598037E+03  0.00000000000E+00 0.  1.
         24    2    1    2    0    0  0.48188860378E+03 -0.11135976931E+04  0.77757726276E+03  0.14446250326E+04  0.99993182628E+02 0.  0.
        254    2    1    2    0    0 -0.48188860378E+03  0.11135976931E+04  0.85473385263E+03  0.17331180436E+04  0.89488085547E+03 0.  0.
         23    2    4    4    0    0 -0.40407311151E+03  0.12485705775E+04  0.67432262838E+03  0.14777202899E+04  0.82113832560E+02 0.  0.
         23    2    4    4    0    0 -0.77815492268E+02 -0.13497288435E+03  0.18041122425E+03  0.25539775371E+03  0.91688998342E+02 0.  0.
          2    1    3    3  502    0  0.18439450733E+03 -0.54658748903E+03  0.38546823323E+03  0.69379029708E+03  0.00000000000E+00 0. -1.
         -3    1    3    3    0  502  0.29749409645E+03 -0.56701020410E+03  0.39210902952E+03  0.75083473549E+03  0.00000000000E+00 0.  1.
         11    1    5    5    0    0  0.56382716861E+00  0.11023483171E+02 -0.81783010262E+00  0.11068149275E+02  0.00000000000E+00 0.  1.
        -11    1    5    5    0    0 -0.40463693868E+03  0.12375470943E+04  0.67514045848E+03  0.14666521406E+04  0.00000000000E+00 0. -1.
          3    1    6    6  503    0  0.19699510383E+02 -0.37142711199E+02  0.33598464346E+02  0.53819220646E+02  0.00000000000E+00 0. -1.
         -3    1    6    6    0  503 -0.97515002651E+02 -0.97830173153E+02  0.14681275990E+03  0.20157853306E+03  0.00000000000E+00 0.  1.
<mgrwt>
<rscale>  0 0.27264650E+04</rscale>
<asrwt>0</asrwt>
<pdfrwt beam="1">  1        2 0.37000416E+00 0.27264650E+04</pdfrwt>
<pdfrwt beam="2">  1       -1 0.11887938E+00 0.27264650E+04</pdfrwt>
<totfact> 0.24896616E+00</totfact>
</mgrwt>
</event>
<event>
12    6  0.1450532E-007  0.2830894E+04  0.7818608E-02  0.8293741E-01
          2   -1    0    0  501    0  0.00000000000E+00  0.00000000000E+00  0.26991811675E+04  0.26991811675E+04  0.00000000000E+00 0. -1.
         -1   -1    0    0    0  501 -0.00000000000E+00 -0.00000000000E+00 -0.74225826796E+03  0.74225826796E+03  0.00000000000E+00 0.  1.
         24    2    1    2    0    0  0.24432991413E+03 -0.69780591925E+03 -0.37332124405E+03  0.83206585841E+03  0.79590411384E+02 0.  0.
        254    2    1    2    0    0 -0.24432991413E+03  0.69780591925E+03  0.23302441436E+04  0.26093735771E+04  0.91222940540E+03 0.  0.
         23    2    4    4    0    0  0.32167722391E+03  0.34071522277E+03  0.72533490001E+03  0.86819526653E+03  0.89940003546E+02 0.  0.
         23    2    4    4    0    0 -0.56600713804E+03  0.35709069649E+03  0.16049092436E+04  0.17411783106E+04  0.89946557093E+02 0.  0.
          4    1    3    3  502    0  0.14634405045E+02 -0.10311569089E+02 -0.31955599317E+01  0.18185320217E+02  0.00000000000E+00 0. -1.
         -3    1    3    3    0  502  0.22969550909E+03 -0.68749435016E+03 -0.37012568412E+03  0.81388053819E+03  0.00000000000E+00 0.  1.
         11    1    5    5    0    0  0.92884544504E+02  0.70775521547E+02  0.24687638267E+03  0.27310192489E+03  0.00000000000E+00 0. -1.
        -11    1    5    5    0    0  0.22879267941E+03  0.26993970122E+03  0.47845851734E+03  0.59509334163E+03  0.00000000000E+00 0.  1.
          4    1    6    6  503    0 -0.16795636665E+02  0.17493650876E+01  0.82062031588E+02  0.83781446141E+02  0.00000000000E+00 0. -1.
         -4    1    6    6    0  503 -0.54921150138E+03  0.35534133140E+03  0.15228472120E+04  0.16573968644E+04  0.00000000000E+00 0.  1.
<mgrwt>
<rscale>  0 0.28308935E+04</rscale>
<asrwt>0</asrwt>
<pdfrwt beam="1">  1        2 0.41525864E+00 0.28308935E+04</pdfrwt>
<pdfrwt beam="2">  1       -1 0.11419358E+00 0.28308935E+04</pdfrwt>
<totfact> 0.18303030E+00</totfact>
</mgrwt>
</event>
<event>
12    6  0.1450532E-007  0.4153828E+04  0.7818608E-02  0.7974214E-01
          2   -1    0    0  501    0  0.00000000000E+00  0.00000000000E+00  0.28560062029E+04  0.28560062029E+04  0.00000000000E+00 0. -1.
         -1   -1    0    0    0  501 -0.00000000000E+00 -0.00000000000E+00 -0.15103510409E+04  0.15103510409E+04  0.00000000000E+00 0.  1.
         24    2    1    2    0    0 -0.16094792450E+04 -0.39618925700E+03  0.17767404754E+04  0.24311789620E+04  0.80218829939E+02 0.  0.
        254    2    1    2    0    0  0.16094792450E+04  0.39618925700E+03 -0.43108531343E+03  0.19351782819E+04  0.90093899221E+03 0.  0.
         23    2    4    4    0    0  0.48758004239E+03  0.42329046374E+02 -0.55880956386E+03  0.74863369768E+03  0.93049657423E+02 0.  0.
         23    2    4    4    0    0  0.11218992026E+04  0.35386021063E+03  0.12772425042E+03  0.11865445842E+04  0.87747915149E+02 0.  0.
          2    1    3    3  502    0 -0.15221524094E+04 -0.35565569703E+03  0.16775391131E+04  0.22929405593E+04  0.00000000000E+00 0. -1.
         -3    1    3    3    0  502 -0.87326835570E+02 -0.40533559971E+02  0.99201362279E+02  0.13823840267E+03  0.00000000000E+00 0.  1.
         11    1    5    5    0    0  0.13462276982E+03 -0.10441840311E+02 -0.10352458629E+03  0.17014600245E+03  0.00000000000E+00 0. -1.
        -11    1    5    5    0    0  0.35295727257E+03  0.52770886685E+02 -0.45528497756E+03  0.57848769523E+03  0.00000000000E+00 0.  1.
          2    1    6    6  503    0  0.43608006846E+02  0.29861606438E+02 -0.37128376202E+01  0.52982628883E+02  0.00000000000E+00 0. -1.
         -2    1    6    6    0  503  0.10782911958E+04  0.32399860419E+03  0.13143708804E+03  0.11335619553E+04  0.00000000000E+00 0.  1.
<mgrwt>
<rscale>  0 0.41538281E+04</rscale>
<asrwt>0</asrwt>
<pdfrwt beam="1">  1        2 0.43938557E+00 0.41538281E+04</pdfrwt>
<pdfrwt beam="2">  1       -1 0.23236170E+00 0.41538281E+04</pdfrwt>
<totfact> 0.17224126E-01</totfact>
</mgrwt>
</event>
<event>
12    6  0.1450532E-007  0.4372676E+04  0.7818608E-02  0.7933315E-01
         -1   -1    0    0    0  501 -0.00000000000E+00  0.00000000000E+00  0.20603260703E+04  0.20603260703E+04  0.00000000000E+00 0.  1.
          2   -1    0    0  501    0  0.00000000000E+00 -0.00000000000E+00 -0.23200569363E+04  0.23200569363E+04  0.00000000000E+00 0. -1.
         24    2    1    2    0    0  0.13633376375E+04 -0.37901898600E+03  0.13853143622E+04  0.19818832222E+04  0.80126891026E+02 0.  0.
        254    2    1    2    0    0 -0.13633376375E+04  0.37901898600E+03 -0.16450452282E+04  0.23984997844E+04  0.10219014176E+04 0.  0.
         23    2    4    4    0    0 -0.17335138461E+03  0.50784267024E+03 -0.54777017301E+03  0.77214069064E+03  0.90521839573E+02 0.  0.
         23    2    4    4    0    0 -0.11899862529E+04 -0.12882368424E+03 -0.10972750552E+04  0.16263590938E+04  0.91479677212E+02 0.  0.
          2    1    3    3  502    0  0.22006831240E+03 -0.64480686016E+02  0.26708063435E+03  0.35202256495E+03  0.00000000000E+00 0. -1.
         -3    1    3    3    0  502  0.11432693251E+04 -0.31453829998E+03  0.11182337279E+04  0.16298606573E+04  0.00000000000E+00 0.  1.
         11    1    5    5    0    0 -0.17321026286E+03  0.47760194762E+03 -0.53891156762E+03  0.74062884986E+03  0.00000000000E+00 0.  1.
        -11    1    5    5    0    0 -0.14112175150E+00  0.30240722619E+02 -0.88586053902E+01  0.31511840779E+02  0.00000000000E+00 0. -1.
          4    1    6    6  503    0 -0.36284941419E+03 -0.44132116769E+02 -0.27956387346E+03  0.46017746626E+03  0.00000000000E+00 0. -1.
         -4    1    6    6    0  503 -0.82713683874E+03 -0.84691567474E+02 -0.81771118175E+03  0.11661816275E+04  0.00000000000E+00 0.  1.
<mgrwt>
<rscale>  0 0.43726760E+04</rscale>
<asrwt>0</asrwt>
<pdfrwt beam="1">  1        2 0.35693183E+00 0.43726760E+04</pdfrwt>
<pdfrwt beam="2">  1       -1 0.31697324E+00 0.43726760E+04</pdfrwt>
<totfact> 0.98486003E-02</totfact>
</mgrwt>
</event>
<event>
12    6  0.1450532E-007  0.1350406E+04  0.7818608E-02  0.8990521E-01
          2   -1    0    0  501    0  0.00000000000E+00  0.00000000000E+00  0.47896543721E+03  0.47896543721E+03  0.00000000000E+00 0. -1.
         -1   -1    0    0    0  501 -0.00000000000E+00 -0.00000000000E+00 -0.95184124561E+03  0.95184124561E+03  0.00000000000E+00 0.  1.
         24    2    1    2    0    0  0.27597872452E+03 -0.16345779751E+03 -0.33179286155E+03  0.46878512550E+03  0.82403173238E+02 0.  0.
        254    2    1    2    0    0 -0.27597872452E+03  0.16345779751E+03 -0.14108294685E+03  0.96202155733E+03  0.89593435636E+03 0.  0.
         23    2    4    4    0    0 -0.13767046461E+03 -0.14313884532E+03 -0.44815015076E+03  0.49732464971E+03  0.83972398554E+02 0.  0.
         23    2    4    4    0    0 -0.13830825991E+03  0.30659664283E+03  0.30706720391E+03  0.46469690761E+03  0.92316152802E+02 0.  0.
          2    1    3    3  502    0  0.30556946369E+02 -0.47831492349E+02 -0.83868342909E+02  0.10126933185E+03  0.00000000000E+00 0. -1.
         -1    1    3    3    0  502  0.24542177815E+03 -0.11562630516E+03 -0.24792451864E+03  0.36751579365E+03  0.00000000000E+00 0.  1.
         11    1    5    5    0    0 -0.14546144538E+03 -0.11226908307E+03 -0.37864154300E+03  0.42087147348E+03  0.00000000000E+00 0. -1.
        -11    1    5    5    0    0  0.77909807698E+01 -0.30869762256E+02 -0.69508607761E+02  0.76453176232E+02  0.00000000000E+00 0.  1.
          1    1    6    6  503    0 -0.89181002068E+02  0.27302386550E+03  0.27230117950E+03  0.39578177651E+03  0.00000000000E+00 0. -1.
         -1    1    6    6    0  503 -0.49127257841E+02  0.33572777336E+02  0.34766024415E+02  0.68915131101E+02  0.00000000000E+00 0.  1.
<mgrwt>
<rscale>  0 0.13504060E+04</rscale>
<asrwt>0</asrwt>
<pdfrwt beam="1">  1        2 0.73686991E-01 0.13504060E+04</pdfrwt>
<pdfrwt beam="2">  1       -1 0.14643711E+00 0.13504060E+04</pdfrwt>
<totfact> 0.26913209E+01</totfact>
</mgrwt>
</event>
<event>
12    6  0.1450532E-007  0.1919534E+04  0.7818608E-02  0.8645194E-01
         -1   -1    0    0    0  501 -0.00000000000E+00  0.00000000000E+00  0.69371329467E+03  0.69371329467E+03  0.00000000000E+00 0.  1.
          2   -1    0    0  501    0  0.00000000000E+00 -0.00000000000E+00 -0.13278583394E+04  0.13278583394E+04  0.00000000000E+00 0. -1.
         24    2    1    2    0    0  0.26572543693E+03 -0.41314901268E+03  0.34341255834E+03  0.60856459502E+03  0.10543512972E+03 0.  0.
        254    2    1    2    0    0 -0.26572543693E+03  0.41314901268E+03 -0.97755760302E+03  0.14130070390E+04  0.89424152808E+03 0.  0.
         23    2    4    4    0    0 -0.55302574390E+03  0.30893862964E+03 -0.40445499628E+03  0.75720899459E+03  0.92201231961E+02 0.  0.
         23    2    4    4    0    0  0.28730030697E+03  0.10421038304E+03 -0.57310260674E+03  0.65579804441E+03  0.90681899452E+02 0.  0.
          2    1    3    3  502    0  0.23216406082E+03 -0.29199252409E+03  0.22373782851E+03  0.43499241507E+03  0.00000000000E+00 0. -1.
         -1    1    3    3    0  502  0.33561376109E+02 -0.12115648859E+03  0.11967472983E+03  0.17357217996E+03  0.00000000000E+00 0.  1.
         11    1    5    5    0    0 -0.39110975579E+03  0.17113741259E+03 -0.28545462070E+03  0.51355544544E+03  0.00000000000E+00 0.  1.
        -11    1    5    5    0    0 -0.16191598811E+03  0.13780121705E+03 -0.11900037558E+03  0.24365354915E+03  0.00000000000E+00 0. -1.
          1    1    6    6  503    0  0.19816091518E+02  0.11500446789E+02 -0.89456024204E+01  0.24595966378E+02  0.00000000000E+00 0. -1.
         -1    1    6    6    0  503  0.26748421545E+03  0.92709936249E+02 -0.56415700432E+03  0.63120207804E+03  0.00000000000E+00 0.  1.
<mgrwt>
<rscale>  0 0.19195343E+04</rscale>
<asrwt>0</asrwt>
<pdfrwt beam="1">  1        2 0.20428589E+00 0.19195343E+04</pdfrwt>
<pdfrwt beam="2">  1       -1 0.10672513E+00 0.19195343E+04</pdfrwt>
<totfact> 0.13911831E+01</totfact>
</mgrwt>
</event>
<event>
12    6  0.1450532E-007  0.1322984E+04  0.7818608E-02  0.9011535E-01
          2   -1    0    0  501    0  0.00000000000E+00  0.00000000000E+00  0.10926918014E+04  0.10926918014E+04  0.00000000000E+00 0. -1.
         -1   -1    0    0    0  501 -0.00000000000E+00 -0.00000000000E+00 -0.40045283220E+03  0.40045283220E+03  0.00000000000E+00 0.  1.
         24    2    1    2    0    0 -0.19338210366E+03  0.25644848071E+02 -0.13478775739E+03  0.25023028835E+03  0.79957247419E+02 0.  0.
        254    2    1    2    0    0  0.19338210366E+03 -0.25644848071E+02  0.82702672664E+03  0.12429143453E+04  0.90708795986E+03 0.  0.
         23    2    4    4    0    0  0.15636471076E+03  0.37894140171E+03  0.14583313718E+03  0.44460656892E+03  0.91439534800E+02 0.  0.
         23    2    4    4    0    0  0.37017392901E+02 -0.40458624978E+03  0.68119358945E+03  0.79830777638E+03  0.90610587879E+02 0.  0.
          2    1    3    3  502    0 -0.22242339594E+02 -0.13339957141E+02  0.42863290546E+01  0.26287805993E+02  0.00000000000E+00 0. -1.
         -1    1    3    3    0  502 -0.17113976407E+03  0.38984805212E+02 -0.13907408644E+03  0.22394248235E+03  0.00000000000E+00 0.  1.
         11    1    5    5    0    0  0.10010655849E+03  0.32703496813E+03  0.10454272885E+03  0.35763441611E+03  0.00000000000E+00 0. -1.
        -11    1    5    5    0    0  0.56258152264E+02  0.51906433580E+02  0.41290408337E+02  0.86972152806E+02  0.00000000000E+00 0.  1.
          1    1    6    6  503    0  0.40852589146E+02 -0.40621240632E+03  0.68116371233E+03  0.79414196218E+03  0.00000000000E+00 0. -1.
         -1    1    6    6    0  503 -0.38351962442E+01  0.16261565462E+01  0.29877118063E-01  0.41658142045E+01  0.00000000000E+00 0.  1.
<mgrwt>
<rscale>  0 0.13229838E+04</rscale>
<asrwt>0</asrwt>
<pdfrwt beam="1">  1        2 0.16810643E+00 0.13229838E+04</pdfrwt>
<pdfrwt beam="2">  1       -1 0.61608129E-01 0.13229838E+04</pdfrwt>
<totfact> 0.65658379E+01</totfact>
</mgrwt>
</event>
<event>
12    6  0.1450532E-007  0.1402426E+04  0.7818608E-02  0.8952065E-01
         -1   -1    0    0    0  501 -0.00000000000E+00  0.00000000000E+00  0.26539497430E+03  0.26539497430E+03  0.00000000000E+00 0.  1.
          2   -1    0    0  501    0  0.00000000000E+00 -0.00000000000E+00 -0.18527080644E+04  0.18527080644E+04  0.00000000000E+00 0. -1.
         24    2    1    2    0    0 -0.31861088355E+02 -0.38401192979E+02  0.14159282384E+03  0.16887355820E+03  0.77330267835E+02 0.  0.
        254    2    1    2    0    0  0.31861088355E+02  0.38401192979E+02 -0.17289059139E+04  0.19492294805E+04  0.89882708448E+03 0.  0.
         23    2    4    4    0    0  0.20363686150E+03 -0.37698155809E+03 -0.74108437601E+03  0.86062873816E+03  0.88840903254E+02 0.  0.
         23    2    4    4    0    0 -0.17177577315E+03  0.41538275107E+03 -0.98782153794E+03  0.10886007423E+04  0.84914305472E+02 0.  0.
          4    1    3    3  502    0 -0.83230945257E+01 -0.50746534357E+02  0.43851485378E+02  0.67582818982E+02  0.00000000000E+00 0. -1.
         -3    1    3    3    0  502 -0.23537993830E+02  0.12345341379E+02  0.97741338461E+02  0.10129073922E+03  0.00000000000E+00 0.  1.
         11    1    5    5    0    0  0.61291473424E+02 -0.10086481281E+03 -0.13320177719E+03  0.17796929124E+03  0.00000000000E+00 0. -1.
        -11    1    5    5    0    0  0.14234538808E+03 -0.27611674527E+03 -0.60788259882E+03  0.68265944692E+03  0.00000000000E+00 0.  1.
          3    1    6    6  503    0 -0.48779466945E+02  0.19457380915E+03 -0.51033868036E+03  0.54834658044E+03  0.00000000000E+00 0. -1.
         -3    1    6    6    0  503 -0.12299630620E+03  0.22080894192E+03 -0.47748285757E+03  0.54025416190E+03  0.00000000000E+00 0.  1.
<mgrwt>
<rscale>  0 0.14024256E+04</rscale>
<asrwt>0</asrwt>
<pdfrwt beam="1">  1        2 0.28503201E+00 0.14024256E+04</pdfrwt>
<pdfrwt beam="2">  1       -1 0.40829996E-01 0.14024256E+04</pdfrwt>
<totfact> 0.52461542E+01</totfact>
</mgrwt>
</event>
<event>
12    6  0.1450532E-007  0.2542197E+04  0.7818608E-02  0.8388105E-01
          2   -1    0    0  501    0  0.00000000000E+00  0.00000000000E+00  0.21068440191E+04  0.21068440191E+04  0.00000000000E+00 0. -1.
         -1   -1    0    0    0  501 -0.00000000000E+00 -0.00000000000E+00 -0.76687729701E+03  0.76687729701E+03  0.00000000000E+00 0.  1.
         24    2    1    2    0    0  0.65596546717E+03 -0.89711221671E+03  0.75353635711E+03  0.13452638826E+04  0.82564210987E+02 0.  0.
        254    2    1    2    0    0 -0.65596546717E+03  0.89711221671E+03  0.58643036494E+03  0.15284574334E+04  0.87016120887E+03 0.  0.
         23    2    4    4    0    0 -0.75555785490E+03  0.47251814115E+03  0.15810756450E+03  0.90926578966E+03  0.87322439781E+02 0.  0.
         23    2    4    4    0    0  0.99592387727E+02  0.42459407557E+03  0.42832280044E+03  0.61919164378E+03  0.98686866647E+02 0.  0.
          2    1    3    3  502    0  0.49643383821E+03 -0.69703747085E+03  0.53910405763E+03  0.10114054461E+04  0.00000000000E+00 0. -1.
         -1    1    3    3    0  502  0.15953162896E+03 -0.20007474587E+03  0.21443229948E+03  0.33385843651E+03  0.00000000000E+00 0.  1.
         11    1    5    5    0    0 -0.62753688156E+03  0.41892225518E+03  0.15592432257E+03  0.77046141239E+03  0.00000000000E+00 0. -1.
        -11    1    5    5    0    0 -0.12802097334E+03  0.53595885966E+02  0.21832419343E+01  0.13880437728E+03  0.00000000000E+00 0.  1.
          3    1    6    6  503    0  0.67766330358E+02  0.40125133749E+03  0.40002499928E+03  0.57062677068E+03  0.00000000000E+00 0. -1.
         -3    1    6    6    0  503  0.31826057369E+02  0.23342738081E+02  0.28297801153E+02  0.48564873097E+02  0.00000000000E+00 0.  1.
<mgrwt>
<rscale>  0 0.25421966E+04</rscale>
<asrwt>0</asrwt>
<pdfrwt beam="1">  1        2 0.32412985E+00 0.25421966E+04</pdfrwt>
<pdfrwt beam="2">  1       -1 0.11798112E+00 0.25421966E+04</pdfrwt>
<totfact> 0.37999070E+00</totfact>
</mgrwt>
</event>
<event>
12    6  0.1450532E-007  0.2603334E+04  0.7818608E-02  0.8367070E-01
         -1   -1    0    0    0  501 -0.00000000000E+00  0.00000000000E+00  0.86409111695E+03  0.86409111695E+03  0.00000000000E+00 0.  1.
          2   -1    0    0  501    0  0.00000000000E+00 -0.00000000000E+00 -0.19608311936E+04  0.19608311936E+04  0.00000000000E+00 0. -1.
         24    2    1    2    0    0 -0.10780453757E+04  0.46199698530E+02 -0.84694162754E+02  0.10852766765E+04  0.79599743348E+02 0.  0.
        254    2    1    2    0    0  0.10780453757E+04 -0.46199698530E+02 -0.10120459139E+04  0.17396456341E+04  0.91532166801E+03 0.  0.
         23    2    4    4    0    0  0.10379733819E+04  0.10233070281E+03 -0.11187873307E+04  0.15317413460E+04  0.81768855257E+02 0.  0.
         23    2    4    4    0    0  0.40071993868E+02 -0.14853040134E+03  0.10674141675E+03  0.20790428802E+03  0.90351635908E+02 0.  0.
          2    1    3    3  502    0 -0.33997064674E+03  0.45567890374E+02 -0.47279279585E+02  0.34625395818E+03  0.00000000000E+00 0. -1.
         -1    1    3    3    0  502 -0.73807472899E+03  0.63180815585E+00 -0.37414883169E+02  0.73902271835E+03  0.00000000000E+00 0.  1.
         11    1    5    5    0    0  0.11109571168E+03  0.34714848762E+02 -0.13939328248E+03  0.18159808666E+03  0.00000000000E+00 0. -1.
        -11    1    5    5    0    0  0.92687767018E+03  0.67615854051E+02 -0.97939404820E+03  0.13501432594E+04  0.00000000000E+00 0.  1.
          1    1    6    6  503    0  0.59515600343E+02 -0.56668810228E+02  0.33185462106E+02  0.88626946422E+02  0.00000000000E+00 0. -1.
         -1    1    6    6    0  503 -0.19443606475E+02 -0.91861591115E+02  0.73555954643E+02  0.11927734160E+03  0.00000000000E+00 0.  1.
<mgrwt>
<rscale>  0 0.26033339E+04</rscale>
<asrwt>0</asrwt>
<pdfrwt beam="1">  1        2 0.30166633E+00 0.26033339E+04</pdfrwt>
<pdfrwt beam="2">  1       -1 0.13293710E+00 0.26033339E+04</pdfrwt>
<totfact> 0.33869418E+00</totfact>
</mgrwt>
</event>
<event>
12    6  0.1450532E-007  0.2398139E+04  0.7818608E-02  0.8440201E-01
         -1   -1    0    0    0  501 -0.00000000000E+00  0.00000000000E+00  0.79790612117E+03  0.79790612117E+03  0.00000000000E+00 0.  1.
          2   -1    0    0  501    0  0.00000000000E+00 -0.00000000000E+00 -0.18019263079E+04  0.18019263079E+04  0.00000000000E+00 0. -1.
         24    2    1    2    0    0 -0.70260039655E+03 -0.48213029031E+03  0.19196871213E+03  0.87715521607E+03  0.80326537153E+02 0.  0.
        254    2    1    2    0    0  0.70260039655E+03  0.48213029031E+03 -0.11959888989E+04  0.17226772130E+04  0.90062778102E+03 0.  0.
         23    2    4    4    0    0  0.72928123706E+03  0.59197708891E+03 -0.12495195775E+04  0.15658736779E+04  0.91505213990E+02 0.  0.
         23    2    4    4    0    0 -0.26680840513E+02 -0.10984679859E+03  0.53530678613E+02  0.15680353509E+03  0.94570760019E+02 0.  0.
          4    1    3    3  502    0 -0.12264052070E+03 -0.63211190401E+02  0.56057635890E+02  0.14892551981E+03  0.00000000000E+00 0. -1.
         -3    1    3    3    0  502 -0.57995987584E+03 -0.41891909991E+03  0.13591107624E+03  0.72822969625E+03  0.00000000000E+00 0.  1.
         11    1    5    5    0    0  0.67304315374E+03  0.52599228482E+03 -0.11666957228E+04  0.14459716041E+04  0.00000000000E+00 0. -1.
        -11    1    5    5    0    0  0.56238083317E+02  0.65984804093E+02 -0.82823854740E+02  0.11990207380E+03  0.00000000000E+00 0.  1.
          1    1    6    6  503    0 -0.46498322670E+02 -0.10990034876E+03  0.62886610361E+02  0.13488849629E+03  0.00000000000E+00 0. -1.
         -1    1    6    6    0  503  0.19817482156E+02  0.53550162819E-01 -0.93559317479E+01  0.21915038798E+02  0.00000000000E+00 0.  1.
<mgrwt>
<rscale>  0 0.23981393E+04</rscale>
<asrwt>0</asrwt>
<pdfrwt beam="1">  1        2 0.27721943E+00 0.23981393E+04</pdfrwt>
<pdfrwt beam="2">  1       -1 0.12275479E+00 0.23981393E+04</pdfrwt>
<totfact> 0.51587876E+00</totfact>
</mgrwt>
</event>
<event>
12    6  0.1450532E-007  0.2268896E+04  0.7818608E-02  0.8490287E-01
         -1   -1    0    0    0  501 -0.00000000000E+00  0.00000000000E+00  0.77280498151E+03  0.77280498151E+03  0.00000000000E+00 0.  1.
          2   -1    0    0  501    0  0.00000000000E+00 -0.00000000000E+00 -0.16653258255E+04  0.16653258255E+04  0.00000000000E+00 0. -1.
         24    2    1    2    0    0 -0.69070062807E+03  0.65239023215E+03 -0.26168903043E+03  0.98868295552E+03  0.79576788423E+02 0.  0.
        254    2    1    2    0    0  0.69070062807E+03 -0.65239023215E+03 -0.63083181359E+03  0.14494478515E+04  0.89457807071E+03 0.  0.
         23    2    4    4    0    0 -0.57163430505E+01 -0.28305936410E+03  0.15257735276E+03  0.33414715852E+03  0.90659774942E+02 0.  0.
         23    2    4    4    0    0  0.69641697112E+03 -0.36933086806E+03 -0.78340916635E+03  0.11153006930E+04  0.93615309059E+02 0.  0.
          4    1    3    3  502    0 -0.55750966575E+03  0.52652782574E+03 -0.24328272556E+03  0.80450920643E+03  0.00000000000E+00 0. -1.
         -3    1    3    3    0  502 -0.13319096233E+03  0.12586240642E+03 -0.18406304876E+02  0.18417374909E+03  0.00000000000E+00 0.  1.
         11    1    5    5    0    0  0.99593930525E+01 -0.16651506292E+03  0.13633212508E+03  0.21543654290E+03  0.00000000000E+00 0.  1.
        -11    1    5    5    0    0 -0.15675736103E+02 -0.11654430118E+03  0.16245227688E+02  0.11871061562E+03  0.00000000000E+00 0. -1.
          3    1    6    6  503    0  0.17596611047E+03 -0.52791693875E+02 -0.15884694984E+03  0.24286495929E+03  0.00000000000E+00 0. -1.
         -3    1    6    6    0  503  0.52045086065E+03 -0.31653917418E+03 -0.62456221651E+03  0.87243573370E+03  0.00000000000E+00 0.  1.
<mgrwt>
<rscale>  0 0.22688958E+04</rscale>
<asrwt>0</asrwt>
<pdfrwt beam="1">  1        2 0.25620397E+00 0.22688958E+04</pdfrwt>
<pdfrwt beam="2">  1       -1 0.11889307E+00 0.22688958E+04</pdfrwt>
<totfact> 0.67208320E+00</totfact>
</mgrwt>
</event>
<event>
12    6  0.1450532E-007  0.1435656E+04  0.7818608E-02  0.8928406E-01
          2   -1    0    0  501    0  0.00000000000E+00  0.00000000000E+00  0.31945751946E+04  0.31945751946E+04  0.00000000000E+00 0. -1.
         -1   -1    0    0    0  501 -0.00000000000E+00 -0.00000000000E+00 -0.16129744158E+03  0.16129744158E+03  0.00000000000E+00 0.  1.
         24    2    1    2    0    0 -0.50582686142E+02  0.18942928885E+03  0.25356683456E+02  0.21236362362E+03  0.77545364981E+02 0.  0.
        254    2    1    2    0    0  0.50582686142E+02 -0.18942928885E+03  0.30079210696E+04  0.31435090126E+04  0.89197403980E+03 0.  0.
         23    2    4    4    0    0  0.29328079220E+03  0.64048191229E+02  0.39293488356E+03  0.50342361168E+03  0.94454836832E+02 0.  0.
         23    2    4    4    0    0 -0.24269810606E+03 -0.25347748008E+03  0.26149861860E+04  0.26400854009E+04  0.93514530122E+02 0.  0.
          4    1    3    3  502    0 -0.11001157716E+02  0.18784323735E+02 -0.21948927513E+02  0.30913293390E+02  0.00000000000E+00 0. -1.
         -3    1    3    3    0  502 -0.39581528426E+02  0.17064496512E+03  0.47305610969E+02  0.18145033023E+03  0.00000000000E+00 0.  1.
         11    1    5    5    0    0  0.16984499067E+03  0.97798149901E-02  0.26319961296E+03  0.31324328757E+03  0.00000000000E+00 0. -1.
        -11    1    5    5    0    0  0.12343580153E+03  0.64038411414E+02  0.12973527061E+03  0.19018032410E+03  0.00000000000E+00 0.  1.
          4    1    6    6  503    0 -0.24706312598E+03 -0.25727311454E+03  0.25472512833E+04  0.25721039528E+04  0.00000000000E+00 0.  1.
         -4    1    6    6    0  503  0.43650199166E+01  0.37956344629E+01  0.67734902668E+02  0.67981448052E+02  0.00000000000E+00 0. -1.
<mgrwt>
<rscale>  0 0.14356557E+04</rscale>
<asrwt>0</asrwt>
<pdfrwt beam="1">  1        2 0.49147306E+00 0.14356557E+04</pdfrwt>
<pdfrwt beam="2">  1       -1 0.24814993E-01 0.14356557E+04</pdfrwt>
<totfact> 0.20734569E+01</totfact>
</mgrwt>
</event>
<event>
12    6  0.1450532E-007  0.1606961E+04  0.7818608E-02  0.8816283E-01
         -1   -1    0    0    0  501 -0.00000000000E+00  0.00000000000E+00  0.44974532285E+03  0.44974532285E+03  0.00000000000E+00 0.  1.
          2   -1    0    0  501    0  0.00000000000E+00 -0.00000000000E+00 -0.14354363815E+04  0.14354363815E+04  0.00000000000E+00 0. -1.
         24    2    1    2    0    0 -0.13162711938E+03  0.29827850898E+02  0.27974462302E+03  0.32064591110E+03  0.79632574650E+02 0.  0.
        254    2    1    2    0    0  0.13162711938E+03 -0.29827850898E+02 -0.12654356817E+04  0.15645357933E+04  0.91007108771E+03 0.  0.
         23    2    4    4    0    0 -0.19076369920E+03 -0.99325172282E+02  0.19905269140E+02  0.23446595329E+03  0.91223816698E+02 0.  0.
         23    2    4    4    0    0  0.32239081858E+03  0.69497321385E+02 -0.12853409508E+04  0.13300698400E+04  0.90657055812E+02 0.  0.
          2    1    3    3  502    0 -0.81113197315E+02  0.21934979894E+02  0.85865943237E+02  0.12013931217E+03  0.00000000000E+00 0. -1.
         -1    1    3    3    0  502 -0.50513922068E+02  0.78928710033E+01  0.19387867979E+03  0.20050659892E+03  0.00000000000E+00 0.  1.
         11    1    5    5    0    0 -0.38058861246E+02 -0.59857987236E+02  0.28652119957E+02  0.76500977336E+02  0.00000000000E+00 0. -1.
        -11    1    5    5    0    0 -0.15270483795E+03 -0.39467185046E+02 -0.87468508171E+01  0.15796497596E+03  0.00000000000E+00 0.  1.
          2    1    6    6  503    0  0.64277420919E+02 -0.87532028208E+00 -0.14244219271E+03  0.15627581800E+03  0.00000000000E+00 0. -1.
         -2    1    6    6    0  503  0.25811339766E+03  0.70372641667E+02 -0.11428987581E+04  0.11737940220E+04  0.00000000000E+00 0.  1.
<mgrwt>
<rscale>  0 0.16069609E+04</rscale>
<asrwt>0</asrwt>
<pdfrwt beam="1">  1        2 0.22083636E+00 0.16069609E+04</pdfrwt>
<pdfrwt beam="2">  1       -1 0.69191589E-01 0.16069609E+04</pdfrwt>
<totfact> 0.31876660E+01</totfact>
</mgrwt>
</event>
<event>
12    6  0.1450532E-007  0.1854535E+04  0.7818608E-02  0.8677824E-01
          2   -1    0    0  501    0  0.00000000000E+00  0.00000000000E+00  0.29883814966E+04  0.29883814966E+04  0.00000000000E+00 0. -1.
         -1   -1    0    0    0  501 -0.00000000000E+00 -0.00000000000E+00 -0.28772273480E+03  0.28772273480E+03  0.00000000000E+00 0.  1.
         24    2    1    2    0    0  0.54239093974E+03  0.12964809372E+03  0.27232545704E+03  0.62574548144E+03  0.79998082923E+02 0.  0.
        254    2    1    2    0    0 -0.54239093974E+03 -0.12964809372E+03  0.24283333048E+04  0.26503587500E+04  0.90366050304E+03 0.  0.
         23    2    4    4    0    0 -0.33370424066E+03  0.77049396333E+02  0.21239285538E+03  0.41320431143E+03  0.91279506214E+02 0.  0.
         23    2    4    4    0    0 -0.20868669907E+03 -0.20669749006E+03  0.22159404494E+04  0.22371544386E+04  0.90520251040E+02 0.  0.
          4    1    3    3  502    0  0.19394602146E+03  0.29170821408E+02  0.58091103603E+02  0.20454968194E+03  0.00000000000E+00 0. -1.
         -3    1    3    3    0  502  0.34844491827E+03  0.10047727232E+03  0.21423435344E+03  0.42119579950E+03  0.00000000000E+00 0.  1.
         11    1    5    5    0    0 -0.61186210107E+02  0.36406501517E+02  0.81322305034E+02  0.10808562789E+03  0.00000000000E+00 0. -1.
        -11    1    5    5    0    0 -0.27251803056E+03  0.40642894816E+02  0.13107055034E+03  0.30511868354E+03  0.00000000000E+00 0.  1.
          3    1    6    6  503    0 -0.17385787015E+02 -0.46708443327E+02  0.21325628998E+03  0.21900271570E+03  0.00000000000E+00 0. -1.
         -3    1    6    6    0  503 -0.19130091206E+03 -0.15998904673E+03  0.20026841594E+04  0.20181517229E+04  0.00000000000E+00 0.  1.
<mgrwt>
<rscale>  0 0.18545353E+04</rscale>
<asrwt>0</asrwt>
<pdfrwt beam="1">  1        2 0.45975098E+00 0.18545353E+04</pdfrwt>
<pdfrwt beam="2">  1       -1 0.44265038E-01 0.18545353E+04</pdfrwt>
<totfact> 0.96005989E+00</totfact>
</mgrwt>
</event>
<event>
12    6  0.1450532E-007  0.1297511E+04  0.7818608E-02  0.9031541E-01
         -1   -1    0    0    0  501 -0.00000000000E+00  0.00000000000E+00  0.20059790338E+03  0.20059790338E+03  0.00000000000E+00 0.  1.
          2   -1    0    0  501    0  0.00000000000E+00 -0.00000000000E+00 -0.20981460253E+04  0.20981460253E+04  0.00000000000E+00 0. -1.
         24    2    1    2    0    0 -0.12277255316E+03 -0.17327383440E+02  0.42126396826E+02  0.15428051913E+03  0.81575163180E+02 0.  0.
        254    2    1    2    0    0  0.12277255316E+03  0.17327383440E+02 -0.19396745188E+04  0.21444634096E+04  0.90609753241E+03 0.  0.
         23    2    4    4    0    0  0.29452820120E+02 -0.43355573568E+03 -0.99529674473E+03  0.10895504245E+04  0.87558397405E+02 0.  0.
         23    2    4    4    0    0  0.93319733037E+02  0.45088311912E+03 -0.94437777403E+03  0.10549129851E+04  0.94804357837E+02 0.  0.
          2    1    3    3  502    0 -0.66973603926E+02  0.84252086646E+01 -0.16346417242E+02  0.69452524220E+02  0.00000000000E+00 0. -1.
         -3    1    3    3    0  502 -0.55798949232E+02 -0.25752592105E+02  0.58472814068E+02  0.84827994910E+02  0.00000000000E+00 0.  1.
         11    1    5    5    0    0  0.20889873412E+02 -0.24970190728E+03 -0.67681633916E+03  0.72171170578E+03  0.00000000000E+00 0. -1.
        -11    1    5    5    0    0  0.85629467083E+01 -0.18385382839E+03 -0.31848040557E+03  0.36783871874E+03  0.00000000000E+00 0.  1.
          3    1    6    6  503    0  0.85980522600E+02  0.43088899807E+03 -0.83569758600E+03  0.94416546969E+03  0.00000000000E+00 0. -1.
         -3    1    6    6    0  503  0.73392104369E+01  0.19994121051E+02 -0.10868018804E+03  0.11074751536E+03  0.00000000000E+00 0.  1.
<mgrwt>
<rscale>  0 0.12975110E+04</rscale>
<asrwt>0</asrwt>
<pdfrwt beam="1">  1        2 0.32279172E+00 0.12975110E+04</pdfrwt>
<pdfrwt beam="2">  1       -1 0.30861214E-01 0.12975110E+04</pdfrwt>
<totfact> 0.63942249E+01</totfact>
</mgrwt>
</event>
<event>
12    6  0.1450532E-007  0.1340281E+04  0.7818608E-02  0.8998218E-01
          2   -1    0    0  501    0  0.00000000000E+00  0.00000000000E+00  0.14998540339E+04  0.14998540339E+04  0.00000000000E+00 0. -1.
         -1   -1    0    0    0  501 -0.00000000000E+00 -0.00000000000E+00 -0.29942137634E+03  0.29942137634E+03  0.00000000000E+00 0.  1.
         24    2    1    2    0    0 -0.67706165725E+02 -0.28859846263E+02  0.80192393670E+03  0.80925633292E+03  0.79979975677E+02 0.  0.
        254    2    1    2    0    0  0.67706165725E+02  0.28859846263E+02  0.39850872091E+03  0.99001907737E+03  0.90327822808E+03 0.  0.
         23    2    4    4    0    0  0.18728968607E+03 -0.40029388429E+03  0.19253533883E+03  0.49030666698E+03  0.89544126968E+02 0.  0.
         23    2    4    4    0    0 -0.11958352035E+03  0.42915373055E+03  0.20597338208E+03  0.49971241040E+03  0.93884589759E+02 0.  0.
          2    1    3    3  502    0 -0.78746314052E+02 -0.13685770774E+02  0.46569065668E+03  0.47249980955E+03  0.00000000000E+00 0. -1.
         -1    1    3    3    0  502  0.11040148327E+02 -0.15174075489E+02  0.33623328002E+03  0.33675652337E+03  0.00000000000E+00 0.  1.
         11    1    5    5    0    0  0.84670620403E+02 -0.26677748542E+03  0.94293313157E+02  0.29534821752E+03  0.00000000000E+00 0.  1.
        -11    1    5    5    0    0  0.10261906567E+03 -0.13351639887E+03  0.98242025677E+02  0.19495844946E+03  0.00000000000E+00 0. -1.
          2    1    6    6  503    0 -0.98837428678E+02  0.19689953927E+03  0.77929688850E+02  0.23369061230E+03  0.00000000000E+00 0. -1.
         -2    1    6    6    0  503 -0.20746091671E+02  0.23225419128E+03  0.12804369323E+03  0.26602179810E+03  0.00000000000E+00 0.  1.
<mgrwt>
<rscale>  0 0.13402811E+04</rscale>
<asrwt>0</asrwt>
<pdfrwt beam="1">  1        2 0.23074677E+00 0.13402811E+04</pdfrwt>
<pdfrwt beam="2">  1       -1 0.46064828E-01 0.13402811E+04</pdfrwt>
<totfact> 0.66268987E+01</totfact>
</mgrwt>
</event>
<event>
12    6  0.1450532E-007  0.1863836E+04  0.7818608E-02  0.8673070E-01
          2   -1    0    0  501    0  0.00000000000E+00  0.00000000000E+00  0.75315256172E+03  0.75315256172E+03  0.00000000000E+00 0. -1.
         -1   -1    0    0    0  501 -0.00000000000E+00 -0.00000000000E+00 -0.11531141434E+04  0.11531141434E+04  0.00000000000E+00 0.  1.
         24    2    1    2    0    0 -0.18445669803E+03 -0.50325625976E+03  0.33293130150E+03  0.63595624930E+03  0.79410094214E+02 0.  0.
        254    2    1    2    0    0  0.18445669803E+03  0.50325625976E+03 -0.73289288323E+03  0.12703104559E+04  0.88840617938E+03 0.  0.
         23    2    4    4    0    0 -0.14206667811E+03 -0.14240274291E+03 -0.42407953187E+03  0.47837215395E+03  0.92384988523E+02 0.  0.
         23    2    4    4    0    0  0.32652337614E+03  0.64565900267E+03 -0.30881335136E+03  0.79193830192E+03  0.91145626195E+02 0.  0.
          4    1    3    3  502    0 -0.85218798469E+02 -0.32192943076E+03  0.17778097446E+03  0.37750083030E+03  0.00000000000E+00 0. -1.
         -3    1    3    3    0  502 -0.99237899557E+02 -0.18132682900E+03  0.15515032704E+03  0.25845541899E+03  0.00000000000E+00 0.  1.
         11    1    5    5    0    0 -0.14093285410E+03 -0.15447701550E+03 -0.40419783806E+03  0.45508362965E+03  0.00000000000E+00 0. -1.
        -11    1    5    5    0    0 -0.11338240118E+01  0.12074272585E+02 -0.19881693809E+02  0.23288524300E+02  0.00000000000E+00 0.  1.
          4    1    6    6  503    0  0.97432248674E+02  0.28372861038E+03 -0.14676951189E+03  0.33397044338E+03  0.00000000000E+00 0. -1.
         -4    1    6    6    0  503  0.22909112746E+03  0.36193039230E+03 -0.16204383946E+03  0.45796785854E+03  0.00000000000E+00 0.  1.
<mgrwt>
<rscale>  0 0.18638357E+04</rscale>
<asrwt>0</asrwt>
<pdfrwt beam="1">  1        2 0.11586963E+00 0.18638357E+04</pdfrwt>
<pdfrwt beam="2">  1       -1 0.17740218E+00 0.18638357E+04</pdfrwt>
<totfact> 0.86888261E+00</totfact>
</mgrwt>
</event>
<event>
12    6  0.1450532E-007  0.1342997E+04  0.7818608E-02  0.8996146E-01
         -1   -1    0    0    0  501 -0.00000000000E+00  0.00000000000E+00  0.52389863344E+03  0.52389863344E+03  0.00000000000E+00 0.  1.
          2   -1    0    0  501    0  0.00000000000E+00 -0.00000000000E+00 -0.86068266589E+03  0.86068266589E+03  0.00000000000E+00 0. -1.
         24    2    1    2    0    0  0.30364769924E+03 -0.13555547306E+03 -0.21599839497E+03  0.40506804346E+03  0.82750236654E+02 0.  0.
        254    2    1    2    0    0 -0.30364769924E+03  0.13555547306E+03 -0.12078563748E+03  0.97951325588E+03  0.91338920329E+03 0.  0.
         23    2    4    4    0    0 -0.43407533754E+03 -0.25784963957E+03  0.65315368749E+02  0.51741933648E+03  0.92459921484E+02 0.  0.
         23    2    4    4    0    0  0.13042763830E+03  0.39340511264E+03 -0.18610100623E+03  0.46209391940E+03  0.84369747802E+02 0.  0.
          4    1    3    3  502    0  0.29865958368E+03 -0.14282032771E+03 -0.21752880351E+03  0.39612368433E+03  0.00000000000E+00 0. -1.
         -3    1    3    3    0  502  0.49881155698E+01  0.72648546476E+01  0.15304085364E+01  0.89443591317E+01  0.00000000000E+00 0.  1.
         11    1    5    5    0    0 -0.78946623392E+02 -0.84356985046E+02 -0.64442613353E+01  0.11571602644E+03  0.00000000000E+00 0. -1.
        -11    1    5    5    0    0 -0.35512871415E+03 -0.17349265453E+03  0.71759630085E+02  0.40170331004E+03  0.00000000000E+00 0.  1.
          3    1    6    6  503    0  0.33046577365E+02  0.21909367881E+03 -0.77050526900E+02  0.23458665791E+03  0.00000000000E+00 0. -1.
         -3    1    6    6    0  503  0.97381060933E+02  0.17431143382E+03 -0.10905047933E+03  0.22750726149E+03  0.00000000000E+00 0.  1.
<mgrwt>
<rscale>  0 0.13429974E+04</rscale>
<asrwt>0</asrwt>
<pdfrwt beam="1">  1        2 0.13241272E+00 0.13429974E+04</pdfrwt>
<pdfrwt beam="2">  1       -1 0.80599790E-01 0.13429974E+04</pdfrwt>
<totfact> 0.53448220E+01</totfact>
</mgrwt>
</event>
<event>
12    6  0.1450532E-007  0.1998550E+04  0.7818608E-02  0.8607299E-01
          2   -1    0    0  501    0  0.00000000000E+00  0.00000000000E+00  0.33632438841E+03  0.33632438841E+03  0.00000000000E+00 0. -1.
         -1   -1    0    0    0  501 -0.00000000000E+00 -0.00000000000E+00 -0.29690095013E+04  0.29690095013E+04  0.00000000000E+00 0.  1.
         24    2    1    2    0    0  0.69615881581E+03  0.70545872289E+01 -0.41317873173E+03  0.81339699137E+03  0.78810768198E+02 0.  0.
        254    2    1    2    0    0 -0.69615881581E+03 -0.70545872289E+01 -0.22195063811E+04  0.24919368983E+04  0.89378636442E+03 0.  0.
         23    2    4    4    0    0 -0.43679449902E+03 -0.17883455844E+03 -0.20872729858E+04  0.21418684209E+04  0.90114268447E+02 0.  0.
         23    2    4    4    0    0 -0.25936431679E+03  0.17177997121E+03 -0.13223339532E+03  0.35006847743E+03  0.91016815583E+02 0.  0.
          4    1    3    3  502    0  0.66691593241E+03  0.22371672633E+02 -0.39889153855E+03  0.77742640305E+03  0.00000000000E+00 0. -1.
         -3    1    3    3    0  502  0.29242883403E+02 -0.15317085404E+02 -0.14287193180E+02  0.35970588318E+02  0.00000000000E+00 0.  1.
         11    1    5    5    0    0 -0.41639498929E+03 -0.18697211356E+03 -0.19404290056E+04  0.19933911017E+04  0.00000000000E+00 0. -1.
        -11    1    5    5    0    0 -0.20399509732E+02  0.81375551226E+01 -0.14684398021E+03  0.14847731922E+03  0.00000000000E+00 0.  1.
          4    1    6    6  503    0 -0.70519183131E+02  0.99359867135E+02 -0.52259603041E+02  0.13257603289E+03  0.00000000000E+00 0. -1.
         -4    1    6    6    0  503 -0.18884513366E+03  0.72420104078E+02 -0.79973792276E+02  0.21749244454E+03  0.00000000000E+00 0.  1.
<mgrwt>
<rscale>  0 0.19985498E+04</rscale>
<asrwt>0</asrwt>
<pdfrwt beam="1">  1        2 0.51742214E-01 0.19985498E+04</pdfrwt>
<pdfrwt beam="2">  1       -1 0.45677069E+00 0.19985498E+04</pdfrwt>
<totfact> 0.29845249E-01</totfact>
</mgrwt>
</event>
<event>
12    6  0.1450532E-007  0.3613417E+04  0.7818608E-02  0.8087425E-01
         -1   -1    0    0    0  501 -0.00000000000E+00  0.00000000000E+00  0.24981174894E+04  0.24981174894E+04  0.00000000000E+00 0.  1.
          2   -1    0    0  501    0  0.00000000000E+00 -0.00000000000E+00 -0.13066620780E+04  0.13066620780E+04  0.00000000000E+00 0. -1.
         24    2    1    2    0    0 -0.56188788806E+03 -0.14824435177E+03  0.22338774696E+04  0.23096223925E+04  0.80328451751E+02 0.  0.
        254    2    1    2    0    0  0.56188788806E+03  0.14824435177E+03 -0.10424220582E+04  0.14951571749E+04  0.90064246163E+03 0.  0.
         23    2    4    4    0    0  0.21978261860E+03 -0.33320040688E+03 -0.68685915634E+03  0.79975141615E+03  0.92194991199E+02 0.  0.
         23    2    4    4    0    0  0.34210526946E+03  0.48144475865E+03 -0.35556290183E+03  0.69540575874E+03  0.91318788396E+02 0.  0.
          2    1    3    3  502    0 -0.44272463495E+02 -0.19999043962E+02  0.11865175851E+03  0.12821174899E+03  0.00000000000E+00 0. -1.
         -1    1    3    3    0  502 -0.51761542457E+03 -0.12824530781E+03  0.21152257111E+04  0.21814106435E+04  0.00000000000E+00 0.  1.
         11    1    5    5    0    0  0.13328163226E+03 -0.22090328069E+03 -0.52239145695E+03  0.58262774326E+03  0.00000000000E+00 0. -1.
        -11    1    5    5    0    0  0.86500986345E+02 -0.11229712619E+03 -0.16446769939E+03  0.21712367290E+03  0.00000000000E+00 0.  1.
          1    1    6    6  503    0  0.33688027914E+03  0.43188654681E+03 -0.32868644948E+03  0.63878720546E+03  0.00000000000E+00 0. -1.
         -1    1    6    6    0  503  0.52249903115E+01  0.49558211840E+02 -0.26876452346E+02  0.56618553277E+02  0.00000000000E+00 0.  1.
<mgrwt>
<rscale>  0 0.36134169E+04</rscale>
<asrwt>0</asrwt>
<pdfrwt beam="1">  1        2 0.20102494E+00 0.36134169E+04</pdfrwt>
<pdfrwt beam="2">  1       -1 0.38432577E+00 0.36134169E+04</pdfrwt>
<totfact> 0.13886013E-01</totfact>
</mgrwt>
</event>
<event>
12    6  0.1450532E-007  0.1205360E+04  0.7818608E-02  0.9108178E-01
         -1   -1    0    0    0  501 -0.00000000000E+00  0.00000000000E+00  0.59829720412E+03  0.59829720412E+03  0.00000000000E+00 0.  1.
          2   -1    0    0  501    0  0.00000000000E+00 -0.00000000000E+00 -0.60709449354E+03  0.60709449354E+03  0.00000000000E+00 0. -1.
         24    2    1    2    0    0  0.96648494506E+02  0.23107080460E+03  0.56037596762E+02  0.26976964976E+03  0.83071074684E+02 0.  0.
        254    2    1    2    0    0 -0.96648494506E+02 -0.23107080460E+03 -0.64834886177E+02  0.93562204790E+03  0.89913870221E+03 0.  0.
         23    2    4    4    0    0 -0.23148414819E+03  0.24355060814E+03  0.16275305256E+03  0.38471639566E+03  0.92824239215E+02 0.  0.
         23    2    4    4    0    0  0.13483565369E+03 -0.47462141274E+03 -0.22758793874E+03  0.55090565223E+03  0.90854988121E+02 0.  0.
          4    1    3    3  502    0  0.19135141893E+02  0.19059778829E+02 -0.17704429241E+02  0.32293585107E+02  0.00000000000E+00 0. -1.
         -3    1    3    3    0  502  0.77513352612E+02  0.21201102577E+03  0.73742026002E+02  0.23747606465E+03  0.00000000000E+00 0.  1.
         11    1    5    5    0    0 -0.88317954955E+02  0.15447220852E+03  0.62763988262E+02  0.18868238549E+03  0.00000000000E+00 0. -1.
        -11    1    5    5    0    0 -0.14316619324E+03  0.89078399618E+02  0.99989064300E+02  0.19603401017E+03  0.00000000000E+00 0.  1.
          4    1    6    6  503    0  0.79206207006E+02 -0.24975157892E+03 -0.71547884211E+02  0.27160370788E+03  0.00000000000E+00 0. -1.
         -4    1    6    6    0  503  0.55629446679E+02 -0.22486983382E+03 -0.15604005453E+03  0.27930194435E+03  0.00000000000E+00 0.  1.
<mgrwt>
<rscale>  0 0.12053596E+04</rscale>
<asrwt>0</asrwt>
<pdfrwt beam="1">  1        2 0.93399153E-01 0.12053596E+04</pdfrwt>
<pdfrwt beam="2">  1       -1 0.92045723E-01 0.12053596E+04</pdfrwt>
<totfact> 0.63373611E+01</totfact>
</mgrwt>
</event>
<event>
12    6  0.1450532E-007  0.2784109E+04  0.7818608E-02  0.8308219E-01
         -1   -1    0    0    0  501 -0.00000000000E+00  0.00000000000E+00  0.22687959848E+04  0.22687959848E+04  0.00000000000E+00 0.  1.
          2   -1    0    0  501    0  0.00000000000E+00 -0.00000000000E+00 -0.85411639771E+03  0.85411639771E+03  0.00000000000E+00 0. -1.
         24    2    1    2    0    0 -0.62446404851E+03  0.10683593518E+04  0.44358233690E+03  0.13169646834E+04  0.79269383775E+02 0.  0.
        254    2    1    2    0    0  0.62446404851E+03 -0.10683593518E+04  0.97109725018E+03  0.18059476991E+04  0.88716975261E+03 0.  0.
         23    2    4    4    0    0  0.62030073192E+02 -0.90193767800E+03  0.72922995990E+03  0.11648209784E+04  0.87705600091E+02 0.  0.
         23    2    4    4    0    0  0.56243397532E+03 -0.16642167384E+03  0.24186729028E+03  0.64112672069E+03  0.92279660630E+02 0.  0.
          4    1    3    3  502    0 -0.60695234055E+03  0.10525879619E+04  0.42599043935E+03  0.12875559855E+04  0.00000000000E+00 0. -1.
         -3    1    3    3    0  502 -0.17511707955E+02  0.15771389902E+02  0.17591897546E+02  0.29408697935E+02  0.00000000000E+00 0.  1.
         11    1    5    5    0    0  0.22273410937E+02 -0.71187626464E+02  0.82823736303E+02  0.11146099897E+03  0.00000000000E+00 0. -1.
        -11    1    5    5    0    0  0.39756662255E+02 -0.83075005154E+03  0.64640622359E+03  0.10533599794E+04  0.00000000000E+00 0.  1.
          1    1    6    6  503    0  0.17572920751E+03 -0.23740089061E+02  0.38313930408E+02  0.18141748390E+03  0.00000000000E+00 0. -1.
         -1    1    6    6    0  503  0.38670476780E+03 -0.14268158478E+03  0.20355335987E+03  0.45970923679E+03  0.00000000000E+00 0.  1.
<mgrwt>
<rscale>  0 0.27841091E+04</rscale>
<asrwt>0</asrwt>
<pdfrwt beam="1">  1        2 0.13140252E+00 0.27841091E+04</pdfrwt>
<pdfrwt beam="2">  1       -1 0.34904553E+00 0.27841091E+04</pdfrwt>
<totfact> 0.49373366E-01</totfact>
</mgrwt>
</event>
<event>
12    6  0.1450532E-007  0.1910230E+04  0.7818608E-02  0.8649781E-01
          2   -1    0    0  501    0  0.00000000000E+00  0.00000000000E+00  0.11144899779E+04  0.11144899779E+04  0.00000000000E+00 0. -1.
         -1   -1    0    0    0  501 -0.00000000000E+00 -0.00000000000E+00 -0.81853065255E+03  0.81853065255E+03  0.00000000000E+00 0.  1.
         24    2    1    2    0    0  0.32986059732E+03 -0.66779171735E+03  0.22257769435E+03  0.78127213974E+03  0.78048285537E+02 0.  0.
        254    2    1    2    0    0 -0.32986059732E+03  0.66779171735E+03  0.73381631007E+02  0.11517484907E+04  0.87543470953E+03 0.  0.
         23    2    4    4    0    0  0.27404110420E+03  0.27439274375E+03 -0.87689002086E+02  0.40771350921E+03  0.90283109692E+02 0.  0.
         23    2    4    4    0    0 -0.60390170153E+03  0.39339897361E+03  0.16107063309E+03  0.74403498150E+03  0.90467050944E+02 0.  0.
          4    1    3    3  502    0  0.31524608848E+03 -0.65988994773E+03  0.22326182952E+03  0.76464415511E+03  0.00000000000E+00 0. -1.
         -3    1    3    3    0  502  0.14614508847E+02 -0.79017696211E+01 -0.68413516743E+00  0.16627984632E+02  0.00000000000E+00 0.  1.
         11    1    5    5    0    0  0.18415896415E+03  0.19876126786E+03 -0.18980821576E+02  0.27162628236E+03  0.00000000000E+00 0.  1.
        -11    1    5    5    0    0  0.89882140055E+02  0.75631475883E+02 -0.68708180510E+02  0.13608722686E+03  0.00000000000E+00 0. -1.
          4    1    6    6  503    0 -0.15113647777E+03  0.14144411711E+03  0.26433160817E+02  0.20868010247E+03  0.00000000000E+00 0. -1.
         -4    1    6    6    0  503 -0.45276522375E+03  0.25195485650E+03  0.13463747228E+03  0.53535487902E+03  0.00000000000E+00 0.  1.
<mgrwt>
<rscale>  0 0.19102295E+04</rscale>
<asrwt>0</asrwt>
<pdfrwt beam="1">  1        2 0.17146000E+00 0.19102295E+04</pdfrwt>
<pdfrwt beam="2">  1       -1 0.12592779E+00 0.19102295E+04</pdfrwt>
<totfact> 0.12515210E+01</totfact>
</mgrwt>
</event>
<event>
12    6  0.1450532E-007  0.1880111E+04  0.7818608E-02  0.8664820E-01
         -1   -1    0    0    0  501 -0.00000000000E+00  0.00000000000E+00  0.70921034739E+03  0.70921034739E+03  0.00000000000E+00 0.  1.
          2   -1    0    0  501    0  0.00000000000E+00 -0.00000000000E+00 -0.12460392386E+04  0.12460392386E+04  0.00000000000E+00 0. -1.
         24    2    1    2    0    0  0.41330837461E+03  0.43286990742E+03  0.21529880498E+03  0.64097301857E+03  0.79326325035E+02 0.  0.
        254    2    1    2    0    0 -0.41330837461E+03 -0.43286990742E+03 -0.75212769624E+03  0.13142765675E+04  0.89634070255E+03 0.  0.
         23    2    4    4    0    0  0.73078248937E+02 -0.12889116586E+03 -0.71095726417E+03  0.73214271049E+03  0.92840475745E+02 0.  0.
         23    2    4    4    0    0 -0.48638662354E+03 -0.30397874155E+03 -0.41170432070E+02  0.58213385697E+03  0.90607947109E+02 0.  0.
          2    1    3    3  502    0  0.14831465197E+03  0.12884435223E+03  0.10546398301E+03  0.22298151224E+03  0.00000000000E+00 0. -1.
         -1    1    3    3    0  502  0.26499372264E+03  0.30402555519E+03  0.10983482197E+03  0.41799150633E+03  0.00000000000E+00 0.  1.
         11    1    5    5    0    0  0.44204832524E+02 -0.86094680731E+02 -0.24638883365E+03  0.26471459842E+03  0.00000000000E+00 0. -1.
        -11    1    5    5    0    0  0.28873416413E+02 -0.42796485133E+02 -0.46456843052E+03  0.46742811206E+03  0.00000000000E+00 0.  1.
          1    1    6    6  503    0 -0.28617193017E+02  0.40659876529E+01 -0.26609673733E+01  0.29026827920E+02  0.00000000000E+00 0. -1.
         -1    1    6    6    0  503 -0.45776943053E+03 -0.30804472921E+03 -0.38509464697E+02  0.55310702905E+03  0.00000000000E+00 0.  1.
<mgrwt>
<rscale>  0 0.18801106E+04</rscale>
<asrwt>0</asrwt>
<pdfrwt beam="1">  1        2 0.19169834E+00 0.18801106E+04</pdfrwt>
<pdfrwt beam="2">  1       -1 0.10910928E+00 0.18801106E+04</pdfrwt>
<totfact> 0.14797774E+01</totfact>
</mgrwt>
</event>
<event>
12    6  0.1450532E-007  0.2034212E+04  0.7818608E-02  0.8590791E-01
          2   -1    0    0  501    0  0.00000000000E+00  0.00000000000E+00  0.10328134137E+04  0.10328134137E+04  0.00000000000E+00 0. -1.
         -1   -1    0    0    0  501 -0.00000000000E+00 -0.00000000000E+00 -0.10016370102E+04  0.10016370102E+04  0.00000000000E+00 0.  1.
         24    2    1    2    0    0 -0.40701663232E+03  0.31642300001E+03 -0.62234851545E+03  0.81183999966E+03  0.77333410920E+02 0.  0.
        254    2    1    2    0    0  0.40701663232E+03 -0.31642300001E+03  0.65352491895E+03  0.12226104243E+04  0.89548611160E+03 0.  0.
         23    2    4    4    0    0  0.43772277177E+03 -0.46809716369E+03  0.77294160442E+03  0.10081810487E+04  0.90962209783E+02 0.  0.
         23    2    4    4    0    0 -0.30706139452E+02  0.15167416368E+03 -0.11941668547E+03  0.21442937559E+03  0.88157208554E+02 0.  0.
          4    1    3    3  502    0 -0.38739124884E+02  0.11394056951E+02 -0.73760689052E+02  0.84090329884E+02  0.00000000000E+00 0. -1.
         -3    1    3    3    0  502 -0.36827750744E+03  0.30502894306E+03 -0.54858782640E+03  0.72774966978E+03  0.00000000000E+00 0.  1.
         11    1    5    5    0    0  0.12494206034E+03 -0.80670118374E+02  0.15923220018E+03  0.21788317974E+03  0.00000000000E+00 0.  1.
        -11    1    5    5    0    0  0.31278071143E+03 -0.38742704531E+03  0.61370940424E+03  0.79029786900E+03  0.00000000000E+00 0. -1.
          4    1    6    6  503    0 -0.29485456915E+02  0.16192234033E+03 -0.10039569183E+03  0.19278882593E+03  0.00000000000E+00 0. -1.
         -4    1    6    6    0  503 -0.12206825374E+01 -0.10248176647E+02 -0.19020993642E+02  0.21640549660E+02  0.00000000000E+00 0.  1.
<mgrwt>
<rscale>  0 0.20342115E+04</rscale>
<asrwt>0</asrwt>
<pdfrwt beam="1">  1        2 0.15889437E+00 0.20342115E+04</pdfrwt>
<pdfrwt beam="2">  1       -1 0.15409800E+00 0.20342115E+04</pdfrwt>
<totfact> 0.82247999E+00</totfact>
</mgrwt>
</event>
<event>
12    6  0.1450532E-007  0.1254683E+04  0.7818608E-02  0.9066295E-01
          2   -1    0    0  501    0  0.00000000000E+00  0.00000000000E+00  0.33083607809E+04  0.33083607809E+04  0.00000000000E+00 0. -1.
         -1   -1    0    0    0  501 -0.00000000000E+00 -0.00000000000E+00 -0.11895834878E+03  0.11895834878E+03  0.00000000000E+00 0.  1.
         24    2    1    2    0    0  0.36361348133E+01  0.16975339286E+03  0.15633845357E+04  0.15745594797E+04  0.78974128513E+02 0.  0.
        254    2    1    2    0    0 -0.36361348133E+01 -0.16975339286E+03  0.16260178965E+04  0.18527596500E+04  0.87175379841E+03 0.  0.
         23    2    4    4    0    0  0.21987825076E+03 -0.39923440084E+03  0.52081332111E+03  0.69799382084E+03  0.90632811458E+02 0.  0.
         23    2    4    4    0    0 -0.22351438558E+03  0.22948100798E+03  0.11052045754E+04  0.11547658291E+04  0.96885257577E+02 0.  0.
          2    1    3    3  502    0 -0.34696318165E+02  0.11241032836E+03  0.10470284285E+04  0.10536168404E+04  0.00000000000E+00 0. -1.
         -1    1    3    3    0  502  0.38332452979E+02  0.57343064499E+02  0.51635610721E+03  0.52094263931E+03  0.00000000000E+00 0.  1.
         11    1    5    5    0    0  0.87627985429E+02 -0.23596158239E+03  0.24492299154E+03  0.35120336556E+03  0.00000000000E+00 0. -1.
        -11    1    5    5    0    0  0.13225026533E+03 -0.16327281845E+03  0.27589032956E+03  0.34679045528E+03  0.00000000000E+00 0.  1.
          2    1    6    6  503    0 -0.23350554741E+02  0.59621496191E+02  0.13102491791E+03  0.14583381065E+03  0.00000000000E+00 0. -1.
         -2    1    6    6    0  503 -0.20016383083E+03  0.16985951179E+03  0.97417965745E+03  0.10089320185E+04  0.00000000000E+00 0.  1.
<mgrwt>
<rscale>  0 0.12546826E+04</rscale>
<asrwt>0</asrwt>
<pdfrwt beam="1">  1        2 0.50897851E+00 0.12546826E+04</pdfrwt>
<pdfrwt beam="2">  1       -1 0.18301287E-01 0.12546826E+04</pdfrwt>
<totfact> 0.29756556E+01</totfact>
</mgrwt>
</event>
<event>
12    6  0.1450532E-007  0.1811336E+04  0.7818608E-02  0.8700294E-01
         -1   -1    0    0    0  501 -0.00000000000E+00  0.00000000000E+00  0.52042736118E+03  0.52042736118E+03  0.00000000000E+00 0.  1.
          2   -1    0    0  501    0  0.00000000000E+00 -0.00000000000E+00 -0.15760789705E+04  0.15760789705E+04  0.00000000000E+00 0. -1.
         24    2    1    2    0    0 -0.10004767023E+02 -0.18609159030E+03 -0.11490826139E+04  0.11668795873E+04  0.80541556070E+02 0.  0.
        254    2    1    2    0    0  0.10004767023E+02  0.18609159030E+03  0.93431004578E+02  0.92962674443E+03  0.90595052624E+03 0.  0.
         23    2    4    4    0    0 -0.19897055145E+03  0.46219943205E+03  0.21127587778E+03  0.55312779530E+03  0.89973696584E+02 0.  0.
         23    2    4    4    0    0  0.20897531847E+03 -0.27610784175E+03 -0.11784487320E+03  0.37649894912E+03  0.89206617157E+02 0.  0.
          2    1    3    3  502    0 -0.19595781957E+02 -0.11832071223E+03 -0.49930059240E+03  0.51350254838E+03  0.00000000000E+00 0. -1.
         -1    1    3    3    0  502  0.95910149338E+01 -0.67770878067E+02 -0.64978202153E+03  0.65337703892E+03  0.00000000000E+00 0.  1.
         11    1    5    5    0    0  0.20681614185E+01  0.65267621044E+02  0.38601348782E+02  0.75856468255E+02  0.00000000000E+00 0. -1.
        -11    1    5    5    0    0 -0.20103871287E+03  0.39693181100E+03  0.17267452900E+03  0.47727132705E+03  0.00000000000E+00 0.  1.
          2    1    6    6  503    0  0.20884017961E+02 -0.33474670603E+01 -0.24311729037E+02  0.32224337242E+02  0.00000000000E+00 0. -1.
         -2    1    6    6    0  503  0.18809130051E+03 -0.27276037469E+03 -0.93533144166E+02  0.34427461188E+03  0.00000000000E+00 0.  1.
<mgrwt>
<rscale>  0 0.18113361E+04</rscale>
<asrwt>0</asrwt>
<pdfrwt beam="1">  1        2 0.24247369E+00 0.18113361E+04</pdfrwt>
<pdfrwt beam="2">  1       -1 0.80065748E-01 0.18113361E+04</pdfrwt>
<totfact> 0.19245653E+01</totfact>
</mgrwt>
</event>
<event>
12    6  0.1450532E-007  0.2689393E+04  0.7818608E-02  0.8338455E-01
         -1   -1    0    0    0  501 -0.00000000000E+00  0.00000000000E+00  0.14811123916E+04  0.14811123916E+04  0.00000000000E+00 0.  1.
          2   -1    0    0  501    0  0.00000000000E+00 -0.00000000000E+00 -0.12208447883E+04  0.12208447883E+04  0.00000000000E+00 0. -1.
         24    2    1    2    0    0 -0.92681102854E+03 -0.69182402559E+03  0.35307428007E+03  0.12118556979E+04  0.79584045407E+02 0.  0.
        254    2    1    2    0    0  0.92681102854E+03  0.69182402559E+03 -0.92806676762E+02  0.14901014820E+04  0.93498138075E+03 0.  0.
         23    2    4    4    0    0  0.91548160523E+03  0.35684829349E+03 -0.36192815492E+03  0.10506001396E+04  0.85565120823E+02 0.  0.
         23    2    4    4    0    0  0.11329423306E+02  0.33497573210E+03  0.26912147816E+03  0.43950134238E+03  0.91640400610E+02 0.  0.
          2    1    3    3  502    0 -0.66865572934E+02 -0.31176308450E+02  0.99275641825E+01  0.74441410405E+02  0.00000000000E+00 0. -1.
         -1    1    3    3    0  502 -0.85994545560E+03 -0.66064771714E+03  0.34314671589E+03  0.11374142875E+04  0.00000000000E+00 0.  1.
         11    1    5    5    0    0  0.78007921374E+02  0.42074698627E+02 -0.57046455358E+02  0.10540310304E+03  0.00000000000E+00 0. -1.
        -11    1    5    5    0    0  0.83747368386E+03  0.31477359486E+03 -0.30488169957E+03  0.94519703655E+03  0.00000000000E+00 0.  1.
          4    1    6    6  503    0  0.64249066802E+01  0.79226754812E+02  0.11838837187E+03  0.14259721140E+03  0.00000000000E+00 0. -1.
         -4    1    6    6    0  503  0.49045166253E+01  0.25574897728E+03  0.15073310629E+03  0.29690413099E+03  0.00000000000E+00 0.  1.
<mgrwt>
<rscale>  0 0.26893928E+04</rscale>
<asrwt>0</asrwt>
<pdfrwt beam="1">  1        2 0.18782227E+00 0.26893928E+04</pdfrwt>
<pdfrwt beam="2">  1       -1 0.22786345E+00 0.26893928E+04</pdfrwt>
<totfact> 0.17959734E+00</totfact>
</mgrwt>
</event>
<event>
12    6  0.1450532E-007  0.1548700E+04  0.7818608E-02  0.8852698E-01
         -1   -1    0    0    0  501 -0.00000000000E+00  0.00000000000E+00  0.72383583339E+03  0.72383583339E+03  0.00000000000E+00 0.  1.
          2   -1    0    0  501    0  0.00000000000E+00 -0.00000000000E+00 -0.82838949982E+03  0.82838949982E+03  0.00000000000E+00 0. -1.
         24    2    1    2    0    0  0.20250939706E+03  0.23073202201E+02  0.43567633677E+03  0.48394830694E+03  0.53382251817E+02 0.  0.
        254    2    1    2    0    0 -0.20250939706E+03 -0.23073202201E+02 -0.54023000321E+03  0.10682770263E+04  0.89879080989E+03 0.  0.
         23    2    4    4    0    0  0.11847367445E+03 -0.39444209996E+03 -0.23496813570E+03  0.48309570342E+03  0.92470817579E+02 0.  0.
         23    2    4    4    0    0 -0.32098307151E+03  0.37136889776E+03 -0.30526186751E+03  0.58518132285E+03  0.91144843185E+02 0.  0.
          4    1    3    3  502    0  0.80805775079E+02  0.15462556261E+02  0.23657476530E+03  0.25047212123E+03  0.00000000000E+00 0. -1.
         -3    1    3    3    0  502  0.12170362198E+03  0.76106459403E+01  0.19910157147E+03  0.23347618571E+03  0.00000000000E+00 0.  1.
         11    1    5    5    0    0  0.15976650007E+02 -0.93899727093E+02 -0.99879187872E+02  0.13801544937E+03  0.00000000000E+00 0. -1.
        -11    1    5    5    0    0  0.10249702445E+03 -0.30054237287E+03 -0.13508894783E+03  0.34508025405E+03  0.00000000000E+00 0.  1.
          1    1    6    6  503    0 -0.54460036966E+02  0.31499241877E+02 -0.14628891822E+02  0.64591813267E+02  0.00000000000E+00 0. -1.
         -1    1    6    6    0  503 -0.26652303455E+03  0.33986965589E+03 -0.29063297569E+03  0.52058950959E+03  0.00000000000E+00 0.  1.
<mgrwt>
<rscale>  0 0.15487001E+04</rscale>
<asrwt>0</asrwt>
<pdfrwt beam="1">  1        2 0.12744454E+00 0.15487001E+04</pdfrwt>
<pdfrwt beam="2">  1       -1 0.11135936E+00 0.15487001E+04</pdfrwt>
<totfact> 0.26784645E+01</totfact>
</mgrwt>
</event>
<event>
12    6  0.1450532E-007  0.1649006E+04  0.7818608E-02  0.8790995E-01
         -1   -1    0    0    0  501 -0.00000000000E+00  0.00000000000E+00  0.75760305794E+03  0.75760305794E+03  0.00000000000E+00 0.  1.
          2   -1    0    0  501    0  0.00000000000E+00 -0.00000000000E+00 -0.89731006389E+03  0.89731006389E+03  0.00000000000E+00 0. -1.
         24    2    1    2    0    0 -0.18530302436E+03  0.44685009155E+03  0.29339551141E+03  0.57143032923E+03  0.80246369973E+02 0.  0.
        254    2    1    2    0    0  0.18530302436E+03 -0.44685009155E+03 -0.43310251737E+03  0.10834827926E+04  0.86737820825E+03 0.  0.
         23    2    4    4    0    0  0.13042617209E+03 -0.42709259139E+03 -0.67699536183E+03  0.81641875806E+03  0.93796591550E+02 0.  0.
         23    2    4    4    0    0  0.54876852267E+02 -0.19757500156E+02  0.24389284446E+03  0.26706403454E+03  0.91856688597E+02 0.  0.
          2    1    3    3  502    0 -0.46391448286E+01 -0.17934608976E+01  0.92046348773E+01  0.10462479150E+02  0.00000000000E+00 0. -1.
         -1    1    3    3    0  502 -0.18066387953E+03  0.44864355245E+03  0.28419087654E+03  0.56096785008E+03  0.00000000000E+00 0.  1.
         11    1    5    5    0    0  0.90669534328E+02 -0.14827848694E+03 -0.28314869223E+03  0.33223584403E+03  0.00000000000E+00 0.  1.
        -11    1    5    5    0    0  0.39756637764E+02 -0.27881410445E+03 -0.39384666959E+03  0.48418291403E+03  0.00000000000E+00 0. -1.
          1    1    6    6  503    0  0.27179247800E+02 -0.26665743051E+02  0.23365579264E+03  0.23673783559E+03  0.00000000000E+00 0. -1.
         -1    1    6    6    0  503  0.27697604467E+02  0.69082428948E+01  0.10237051818E+02  0.30326198954E+02  0.00000000000E+00 0.  1.
<mgrwt>
<rscale>  0 0.16490056E+04</rscale>
<asrwt>0</asrwt>
<pdfrwt beam="1">  1        2 0.13804770E+00 0.16490056E+04</pdfrwt>
<pdfrwt beam="2">  1       -1 0.11655432E+00 0.16490056E+04</pdfrwt>
<totfact> 0.21339669E+01</totfact>
</mgrwt>
</event>
<event>
12    6  0.1450532E-007  0.2075495E+04  0.7818608E-02  0.8572115E-01
         -1   -1    0    0    0  501 -0.00000000000E+00  0.00000000000E+00  0.54954559688E+03  0.54954559688E+03  0.00000000000E+00 0.  1.
          2   -1    0    0  501    0  0.00000000000E+00 -0.00000000000E+00 -0.19596553522E+04  0.19596553522E+04  0.00000000000E+00 0. -1.
         24    2    1    2    0    0  0.29294985586E+03 -0.72671472073E+03 -0.95359320748E+03  0.12367066780E+04  0.78546157247E+02 0.  0.
        254    2    1    2    0    0 -0.29294985586E+03  0.72671472073E+03 -0.45651654786E+03  0.12724942711E+04  0.89269278479E+03 0.  0.
         23    2    4    4    0    0 -0.20074657705E+03  0.38607238793E+03 -0.70334172571E+03  0.83200303357E+03  0.90489711156E+02 0.  0.
         23    2    4    4    0    0 -0.92203278812E+02  0.34064233279E+03  0.24682517785E+03  0.44049123748E+03  0.92580874706E+02 0.  0.
          4    1    3    3  502    0  0.15894820620E+03 -0.49114718584E+03 -0.61115472632E+03  0.80000011869E+03  0.00000000000E+00 0. -1.
         -3    1    3    3    0  502  0.13400164966E+03 -0.23556753489E+03 -0.34243848116E+03  0.43670655936E+03  0.00000000000E+00 0.  1.
         11    1    5    5    0    0 -0.12401368464E+03  0.31733248645E+03 -0.51928838970E+03  0.62107948977E+03  0.00000000000E+00 0. -1.
        -11    1    5    5    0    0 -0.76732892405E+02  0.68739901477E+02 -0.18405333601E+03  0.21092354380E+03  0.00000000000E+00 0.  1.
          2    1    6    6  503    0 -0.65564052961E+02  0.23306535503E+03  0.21843650959E+03  0.32608681892E+03  0.00000000000E+00 0. -1.
         -2    1    6    6    0  503 -0.26639225851E+02  0.10757697777E+03  0.28388668260E+02  0.11440441856E+03  0.00000000000E+00 0.  1.
<mgrwt>
<rscale>  0 0.20754951E+04</rscale>
<asrwt>0</asrwt>
<pdfrwt beam="1">  1        2 0.30148544E+00 0.20754951E+04</pdfrwt>
<pdfrwt beam="2">  1       -1 0.84545475E-01 0.20754951E+04</pdfrwt>
<totfact> 0.10243982E+01</totfact>
</mgrwt>
</event>
<event>
12    6  0.1450532E-007  0.1219521E+04  0.7818608E-02  0.9095940E-01
          2   -1    0    0  501    0  0.00000000000E+00  0.00000000000E+00  0.22239970988E+04  0.22239970988E+04  0.00000000000E+00 0. -1.
         -1   -1    0    0    0  501 -0.00000000000E+00 -0.00000000000E+00 -0.16717991655E+03  0.16717991655E+03  0.00000000000E+00 0.  1.
         24    2    1    2    0    0  0.12244581792E+03 -0.24302083550E+03  0.34923280042E+03  0.44987576398E+03  0.79828248859E+02 0.  0.
        254    2    1    2    0    0 -0.12244581792E+03  0.24302083550E+03  0.17075843819E+04  0.19413012514E+04  0.88247040894E+03 0.  0.
         23    2    4    4    0    0 -0.25947755196E+03  0.14794227888E+03  0.10894289226E+03  0.33108318539E+03  0.92368847681E+02 0.  0.
         23    2    4    4    0    0  0.13703173404E+03  0.95078556613E+02  0.15986414896E+04  0.16102180660E+04  0.96591820257E+02 0.  0.
          4    1    3    3  502    0  0.26738800711E+02 -0.11389899484E+03  0.19324370951E+03  0.22590058821E+03  0.00000000000E+00 0. -1.
         -3    1    3    3    0  502  0.95707017210E+02 -0.12912184066E+03  0.15598909091E+03  0.22397517577E+03  0.00000000000E+00 0.  1.
         11    1    5    5    0    0 -0.19857713203E+03  0.15162766031E+03  0.73099409523E+02  0.26032162494E+03  0.00000000000E+00 0.  1.
        -11    1    5    5    0    0 -0.60900419924E+02 -0.36853814205E+01  0.35843482738E+02  0.70761560454E+02  0.00000000000E+00 0. -1.
          3    1    6    6  503    0  0.70234817130E+02  0.22321495927E+02  0.34991429819E+03  0.35759082034E+03  0.00000000000E+00 0. -1.
         -3    1    6    6    0  503  0.66796916907E+02  0.72757060687E+02  0.12487271914E+04  0.12526272457E+04  0.00000000000E+00 0.  1.
<mgrwt>
<rscale>  0 0.12195206E+04</rscale>
<asrwt>0</asrwt>
<pdfrwt beam="1">  1        2 0.34215338E+00 0.12195206E+04</pdfrwt>
<pdfrwt beam="2">  1       -1 0.25719989E-01 0.12195206E+04</pdfrwt>
<totfact> 0.75176769E+01</totfact>
</mgrwt>
</event>
<event>
12    6  0.1450532E-007  0.1281312E+04  0.7818608E-02  0.9044517E-01
          2   -1    0    0  501    0  0.00000000000E+00  0.00000000000E+00  0.28074434522E+04  0.28074434522E+04  0.00000000000E+00 0. -1.
         -1   -1    0    0    0  501 -0.00000000000E+00 -0.00000000000E+00 -0.14619721181E+03  0.14619721181E+03  0.00000000000E+00 0.  1.
         24    2    1    2    0    0  0.13870264178E+03 -0.17969074042E+03  0.11731433252E+04  0.11976500662E+04  0.81075486468E+02 0.  0.
        254    2    1    2    0    0 -0.13870264178E+03  0.17969074042E+03  0.14881029151E+04  0.17559905978E+04  0.90417117209E+03 0.  0.
         23    2    4    4    0    0 -0.36048574871E+03  0.38025103865E+03  0.12646520025E+04  0.13718727907E+04  0.90274242950E+02 0.  0.
         23    2    4    4    0    0  0.22178310693E+03 -0.20056029822E+03  0.22345091259E+03  0.38411780707E+03  0.90575932943E+02 0.  0.
          4    1    3    3  502    0  0.87548210050E+02 -0.12983642217E+03  0.96422120402E+03  0.97685450087E+03  0.00000000000E+00 0. -1.
         -3    1    3    3    0  502  0.51154431733E+02 -0.49854318258E+02  0.20892212120E+03  0.22079556531E+03  0.00000000000E+00 0.  1.
         11    1    5    5    0    0 -0.31799260126E+03  0.30350221887E+03  0.11131835709E+04  0.11968335531E+04  0.00000000000E+00 0. -1.
        -11    1    5    5    0    0 -0.42493147447E+02  0.76748819775E+02  0.15146843164E+03  0.17503923760E+03  0.00000000000E+00 0.  1.
          1    1    6    6  503    0  0.16245084291E+03 -0.17764284870E+03  0.20923056324E+03  0.31894307744E+03  0.00000000000E+00 0. -1.
         -1    1    6    6    0  503  0.59332264014E+02 -0.22917449522E+02  0.14220349350E+02  0.65174729622E+02  0.00000000000E+00 0.  1.
<mgrwt>
<rscale>  0 0.12813125E+04</rscale>
<asrwt>0</asrwt>
<pdfrwt beam="1">  1        2 0.43191434E+00 0.12813125E+04</pdfrwt>
<pdfrwt beam="2">  1       -1 0.22491881E-01 0.12813125E+04</pdfrwt>
<totfact> 0.43306238E+01</totfact>
</mgrwt>
</event>
<event>
12    6  0.1450532E-007  0.1058798E+04  0.7818608E-02  0.9246307E-01
         -1   -1    0    0    0  501 -0.00000000000E+00  0.00000000000E+00  0.53613157713E+03  0.53613157713E+03  0.00000000000E+00 0.  1.
          2   -1    0    0  501    0  0.00000000000E+00 -0.00000000000E+00 -0.52275101454E+03  0.52275101454E+03  0.00000000000E+00 0. -1.
         24    2    1    2    0    0  0.11560331382E+03  0.31164998019E+02 -0.50858901700E+01  0.14370985128E+03  0.79317537832E+02 0.  0.
        254    2    1    2    0    0 -0.11560331382E+03 -0.31164998019E+02  0.18466452754E+02  0.91517274039E+03  0.90711892915E+03 0.  0.
         23    2    4    4    0    0  0.92927418817E+02 -0.42885549814E+03  0.67651155658E+02  0.45314654170E+03  0.90623208614E+02 0.  0.
         23    2    4    4    0    0 -0.20853073264E+03  0.39769050012E+03 -0.49184702904E+02  0.46202619870E+03  0.96985941993E+02 0.  0.
          4    1    3    3  502    0  0.67946104477E+02  0.48433678858E+02 -0.28092571207E+02  0.88043664839E+02  0.00000000000E+00 0. -1.
         -3    1    3    3    0  502  0.47657209345E+02 -0.17268680839E+02  0.23006681037E+02  0.55666186440E+02  0.00000000000E+00 0.  1.
         11    1    5    5    0    0  0.70923259083E+02 -0.14534904183E+03  0.41469836886E+01  0.16178272502E+03  0.00000000000E+00 0. -1.
        -11    1    5    5    0    0  0.22004159734E+02 -0.28350645631E+03  0.63504171969E+02  0.29136381668E+03  0.00000000000E+00 0.  1.
          3    1    6    6  503    0 -0.14279021921E+03  0.27079853862E+03  0.12448995321E+02  0.30639169817E+03  0.00000000000E+00 0. -1.
         -3    1    6    6    0  503 -0.65740513427E+02  0.12689196149E+03 -0.61633698224E+02  0.15563450053E+03  0.00000000000E+00 0.  1.
<mgrwt>
<rscale>  0 0.10587980E+04</rscale>
<asrwt>0</asrwt>
<pdfrwt beam="1">  1        2 0.80423233E-01 0.10587980E+04</pdfrwt>
<pdfrwt beam="2">  1       -1 0.82481781E-01 0.10587980E+04</pdfrwt>
<totfact> 0.97246224E+01</totfact>
</mgrwt>
</event>
<event>
12    6  0.1450532E-007  0.1936382E+04  0.7818608E-02  0.8636956E-01
         -1   -1    0    0    0  501 -0.00000000000E+00  0.00000000000E+00  0.11347254537E+04  0.11347254537E+04  0.00000000000E+00 0.  1.
          2   -1    0    0  501    0  0.00000000000E+00 -0.00000000000E+00 -0.82609743140E+03  0.82609743140E+03  0.00000000000E+00 0. -1.
         24    2    1    2    0    0  0.37626687794E+03 -0.38663236039E+03 -0.43160571322E+03  0.69544509593E+03  0.79366518332E+02 0.  0.
        254    2    1    2    0    0 -0.37626687794E+03  0.38663236039E+03  0.74023373551E+03  0.12653777892E+04  0.87302555552E+03 0.  0.
         23    2    4    4    0    0 -0.49127994410E+02 -0.99559827709E+02 -0.14208608913E+03  0.20234478661E+03  0.91810875256E+02 0.  0.
         23    2    4    4    0    0 -0.32713888353E+03  0.48619218810E+03  0.88231982464E+03  0.10630330026E+04  0.90267373281E+02 0.  0.
          4    1    3    3  502    0  0.20693242590E+03 -0.21228941120E+03 -0.18635226288E+03  0.35016423130E+03  0.00000000000E+00 0. -1.
         -3    1    3    3    0  502  0.16933445204E+03 -0.17434294919E+03 -0.24525345034E+03  0.34528086463E+03  0.00000000000E+00 0.  1.
         11    1    5    5    0    0 -0.15345981506E+02 -0.93807469615E+02 -0.13837260609E+03  0.16787590244E+03  0.00000000000E+00 0.  1.
        -11    1    5    5    0    0 -0.33782012904E+02 -0.57523580942E+01 -0.37134830398E+01  0.34468884168E+02  0.00000000000E+00 0. -1.
          1    1    6    6  503    0 -0.14031291820E+02  0.23282089613E+02  0.14430264534E+02  0.30776052077E+02  0.00000000000E+00 0. -1.
         -1    1    6    6    0  503 -0.31310759171E+03  0.46291009848E+03  0.86788956011E+03  0.10322569505E+04  0.00000000000E+00 0.  1.
<mgrwt>
<rscale>  0 0.19363820E+04</rscale>
<asrwt>0</asrwt>
<pdfrwt beam="1">  1        2 0.12709191E+00 0.19363820E+04</pdfrwt>
<pdfrwt beam="2">  1       -1 0.17457315E+00 0.19363820E+04</pdfrwt>
<totfact> 0.80102957E+00</totfact>
</mgrwt>
</event>
<event>
12    6  0.1450532E-007  0.1162971E+04  0.7818608E-02  0.9145900E-01
         -1   -1    0    0    0  501 -0.00000000000E+00  0.00000000000E+00  0.29625390027E+03  0.29625390027E+03  0.00000000000E+00 0.  1.
          2   -1    0    0  501    0  0.00000000000E+00 -0.00000000000E+00 -0.11413369943E+04  0.11413369943E+04  0.00000000000E+00 0. -1.
         24    2    1    2    0    0  0.12484796552E+03  0.10480484537E+03  0.12614548716E+02  0.18236566679E+03  0.80790095167E+02 0.  0.
        254    2    1    2    0    0 -0.12484796552E+03 -0.10480484537E+03 -0.85769764279E+03  0.12552252278E+04  0.90187252759E+03 0.  0.
         23    2    4    4    0    0  0.36297149658E+03  0.22227596251E+02 -0.52430548621E+03  0.64410239972E+03  0.87916352772E+02 0.  0.
         23    2    4    4    0    0 -0.48781946211E+03 -0.12703244162E+03 -0.33339215657E+03  0.61112282810E+03  0.90640565606E+02 0.  0.
          2    1    3    3  502    0  0.17409197456E+02 -0.73193372335E+01 -0.15647008450E+02  0.24525124404E+02  0.00000000000E+00 0. -1.
         -1    1    3    3    0  502  0.10743876807E+03  0.11212418260E+03  0.28261557166E+02  0.15784054239E+03  0.00000000000E+00 0.  1.
         11    1    5    5    0    0  0.35896432693E+03  0.33594429826E+02 -0.49469721582E+03  0.61213504153E+03  0.00000000000E+00 0. -1.
        -11    1    5    5    0    0  0.40071696493E+01 -0.11366833574E+02 -0.29608270392E+02  0.31967358191E+02  0.00000000000E+00 0.  1.
          3    1    6    6  503    0 -0.35077842144E+03 -0.11081736140E+03 -0.28331592877E+03  0.46432090630E+03  0.00000000000E+00 0. -1.
         -3    1    6    6    0  503 -0.13704104067E+03 -0.16215080216E+02 -0.50076227802E+02  0.14680192180E+03  0.00000000000E+00 0.  1.
<mgrwt>
<rscale>  0 0.11629713E+04</rscale>
<asrwt>0</asrwt>
<pdfrwt beam="1">  1        2 0.17559031E+00 0.11629713E+04</pdfrwt>
<pdfrwt beam="2">  1       -1 0.45577523E-01 0.11629713E+04</pdfrwt>
<totfact> 0.11075966E+02</totfact>
</mgrwt>
</event>
<event>
12    6  0.1450532E-007  0.1975098E+04  0.7818608E-02  0.8618353E-01
         -1   -1    0    0    0  501 -0.00000000000E+00  0.00000000000E+00  0.82631801085E+03  0.82631801085E+03  0.00000000000E+00 0.  1.
          2   -1    0    0  501    0  0.00000000000E+00 -0.00000000000E+00 -0.11802390590E+04  0.11802390590E+04  0.00000000000E+00 0. -1.
         24    2    1    2    0    0 -0.15847332030E+03 -0.58744501837E+03  0.34077515481E+03  0.70207740467E+03  0.81114321602E+02 0.  0.
        254    2    1    2    0    0  0.15847332030E+03  0.58744501837E+03 -0.69469620295E+03  0.13044796652E+04  0.92133541101E+03 0.  0.
         23    2    4    4    0    0  0.32594597942E+03  0.54577029700E+02 -0.65250454891E+03  0.73705991069E+03  0.90970830071E+02 0.  0.
         23    2    4    4    0    0 -0.16747265913E+03  0.53286798867E+03 -0.42191654042E+02  0.56741975448E+03  0.90496724809E+02 0.  0.
          4    1    3    3  502    0 -0.39725718152E+02 -0.27494509497E+03  0.12854652461E+03  0.30609989696E+03  0.00000000000E+00 0. -1.
         -3    1    3    3    0  502 -0.11874760214E+03 -0.31249992340E+03  0.21222863020E+03  0.39597750772E+03  0.00000000000E+00 0.  1.
         11    1    5    5    0    0  0.22116357120E+03  0.53682877711E+02 -0.35545820221E+03  0.42207310990E+03  0.00000000000E+00 0.  1.
        -11    1    5    5    0    0  0.10478240822E+03  0.89415198859E+00 -0.29704634670E+03  0.31498680078E+03  0.00000000000E+00 0. -1.
          4    1    6    6  503    0  0.58170886825E+01  0.85019773525E+02  0.14899801087E+01  0.85231569572E+02  0.00000000000E+00 0. -1.
         -4    1    6    6    0  503 -0.17328974781E+03  0.44784821514E+03 -0.43681634150E+02  0.48218818491E+03  0.00000000000E+00 0.  1.
<mgrwt>
<rscale>  0 0.19750978E+04</rscale>
<asrwt>0</asrwt>
<pdfrwt beam="1">  1        2 0.18157524E+00 0.19750978E+04</pdfrwt>
<pdfrwt beam="2">  1       -1 0.12712585E+00 0.19750978E+04</pdfrwt>
<totfact> 0.11086589E+01</totfact>
</mgrwt>
</event>
<event>
12    6  0.1450532E-007  0.1374193E+04  0.7818608E-02  0.8972714E-01
         -3   -1    0    0    0  501 -0.00000000000E+00  0.00000000000E+00  0.19400169437E+04  0.19400169437E+04  0.00000000000E+00 0.  1.
          4   -1    0    0  501    0  0.00000000000E+00 -0.00000000000E+00 -0.24334914906E+03  0.24334914906E+03  0.00000000000E+00 0. -1.
         24    2    1    2    0    0  0.30697949700E+03  0.16396576498E+03  0.68814261205E+03  0.77520239629E+03  0.79229521162E+02 0.  0.
        254    2    1    2    0    0 -0.30697949700E+03 -0.16396576498E+03  0.10085251825E+04  0.14081636964E+04  0.91906516007E+03 0.  0.
         23    2    4    4    0    0 -0.15344750194E+03 -0.37887979095E+03  0.65570390857E+02  0.42456140605E+03  0.94110995655E+02 0.  0.
         23    2    4    4    0    0 -0.15353199506E+03  0.21491402598E+03  0.94295479169E+03  0.98360229038E+03  0.92464124985E+02 0.  0.
          4    1    3    3  502    0  0.15858142213E+03  0.78980591063E+02  0.26453112953E+03  0.31837512418E+03  0.00000000000E+00 0. -1.
         -3    1    3    3    0  502  0.14839807487E+03  0.84985173912E+02  0.42361148253E+03  0.45682727210E+03  0.00000000000E+00 0.  1.
         11    1    5    5    0    0 -0.15245293839E+02 -0.68439034107E+02  0.46658427462E+02  0.84221904675E+02  0.00000000000E+00 0. -1.
        -11    1    5    5    0    0 -0.13820220810E+03 -0.31044075684E+03  0.18911963395E+02  0.34033950137E+03  0.00000000000E+00 0.  1.
          4    1    6    6  503    0 -0.75573905296E+02  0.17053011170E+03  0.70632970614E+03  0.73054335117E+03  0.00000000000E+00 0.  1.
         -4    1    6    6    0  503 -0.77958089764E+02  0.44383914273E+02  0.23662508555E+03  0.25305893922E+03  0.00000000000E+00 0. -1.
<mgrwt>
<rscale>  0 0.13741928E+04</rscale>
<asrwt>0</asrwt>
<pdfrwt beam="1">  1        4 0.37438332E-01 0.13741928E+04</pdfrwt>
<pdfrwt beam="2">  1       -3 0.29846414E+00 0.13741928E+04</pdfrwt>
<totfact> 0.60707227E-01</totfact>
</mgrwt>
</event>
<event>
12    6  0.1450532E-007  0.1528918E+04  0.7818608E-02  0.8865447E-01
          2   -1    0    0  501    0  0.00000000000E+00  0.00000000000E+00  0.15402022780E+04  0.15402022780E+04  0.00000000000E+00 0. -1.
         -1   -1    0    0    0  501 -0.00000000000E+00 -0.00000000000E+00 -0.37942894380E+03  0.37942894380E+03  0.00000000000E+00 0.  1.
         24    2    1    2    0    0 -0.10910543835E+03 -0.17706712421E+03 -0.18067581229E+03  0.28677916937E+03  0.79635291704E+02 0.  0.
        254    2    1    2    0    0  0.10910543835E+03  0.17706712421E+03  0.13414491465E+04  0.16328520524E+04  0.90744875853E+03 0.  0.
         23    2    4    4    0    0  0.56490292160E+02 -0.35585238047E+03  0.39857790380E+03  0.54465883099E+03  0.89257083629E+02 0.  0.
         23    2    4    4    0    0  0.52615146185E+02  0.53291950468E+03  0.94287124268E+03  0.10881932214E+04  0.91579227110E+02 0.  0.
          4    1    3    3  502    0  0.11676279710E+02 -0.81023320421E+01 -0.61232624008E+01  0.15475064937E+02  0.00000000000E+00 0. -1.
         -3    1    3    3    0  502 -0.12078171806E+03 -0.16896479217E+03 -0.17455254989E+03  0.27130410443E+03  0.00000000000E+00 0.  1.
         11    1    5    5    0    0 -0.82654770017E+00 -0.54826039656E+02  0.21814947151E+02  0.59012453980E+02  0.00000000000E+00 0. -1.
        -11    1    5    5    0    0  0.57316839860E+02 -0.30102634081E+03  0.37676295665E+03  0.48564637701E+03  0.00000000000E+00 0.  1.
          2    1    6    6  503    0  0.61007232916E+02  0.50159686476E+03  0.91580612506E+03  0.10459551405E+04  0.00000000000E+00 0.  1.
         -2    1    6    6    0  503 -0.83920867309E+01  0.31322639917E+02  0.27065117623E+02  0.42238080957E+02  0.00000000000E+00 0. -1.
<mgrwt>
<rscale>  0 0.15289177E+04</rscale>
<asrwt>0</asrwt>
<pdfrwt beam="1">  1        2 0.23695419E+00 0.15289177E+04</pdfrwt>
<pdfrwt beam="2">  1       -1 0.58373684E-01 0.15289177E+04</pdfrwt>
<totfact> 0.39355353E+01</totfact>
</mgrwt>
</event>
<event>
12    6  0.1450532E-007  0.1574814E+04  0.7818608E-02  0.8836172E-01
         -1   -1    0    0    0  501 -0.00000000000E+00  0.00000000000E+00  0.40743594418E+03  0.40743594418E+03  0.00000000000E+00 0.  1.
          2   -1    0    0  501    0  0.00000000000E+00 -0.00000000000E+00 -0.15217365409E+04  0.15217365409E+04  0.00000000000E+00 0. -1.
         24    2    1    2    0    0  0.75885849562E+02  0.19280896189E+03  0.21564608712E+03  0.31012542705E+03  0.82101081987E+02 0.  0.
        254    2    1    2    0    0 -0.75885849562E+02 -0.19280896189E+03 -0.13299466838E+04  0.16190470580E+04  0.89978955112E+03 0.  0.
         23    2    4    4    0    0  0.35966184494E+03 -0.35979125093E+01 -0.28600448184E+03  0.46861692317E+03  0.91835011637E+02 0.  0.
         23    2    4    4    0    0 -0.43554769450E+03 -0.18921104938E+03 -0.10439422020E+04  0.11504301349E+04  0.90396674120E+02 0.  0.
          4    1    3    3  502    0  0.19553024360E+02  0.14953816616E+03  0.16016495296E+03  0.21999271819E+03  0.00000000000E+00 0. -1.
         -3    1    3    3    0  502  0.56332825202E+02  0.43270795724E+02  0.55481134160E+02  0.90132708855E+02  0.00000000000E+00 0.  1.
         11    1    5    5    0    0  0.36270225496E+02 -0.13136022926E+02 -0.28590170860E+01  0.38681498608E+02  0.00000000000E+00 0.  1.
        -11    1    5    5    0    0  0.32339161945E+03  0.95381104167E+01 -0.28314546476E+03  0.42993542456E+03  0.00000000000E+00 0. -1.
          2    1    6    6  503    0 -0.36554255443E+03 -0.17240077288E+03 -0.80317598470E+03  0.89913016187E+03  0.00000000000E+00 0. -1.
         -2    1    6    6    0  503 -0.70005140069E+02 -0.16810276498E+02 -0.24076621730E+03  0.25129997299E+03  0.00000000000E+00 0.  1.
<mgrwt>
<rscale>  0 0.15748145E+04</rscale>
<asrwt>0</asrwt>
<pdfrwt beam="1">  1        2 0.23411332E+00 0.15748145E+04</pdfrwt>
<pdfrwt beam="2">  1       -1 0.62682453E-01 0.15748145E+04</pdfrwt>
<totfact> 0.34873248E+01</totfact>
</mgrwt>
</event>
<event>
12    6  0.1450532E-007  0.3340401E+04  0.7818608E-02  0.8152691E-01
         -1   -1    0    0    0  501 -0.00000000000E+00  0.00000000000E+00  0.12976385241E+04  0.12976385241E+04  0.00000000000E+00 0.  1.
          2   -1    0    0  501    0  0.00000000000E+00 -0.00000000000E+00 -0.21497272868E+04  0.21497272868E+04  0.00000000000E+00 0. -1.
         24    2    1    2    0    0  0.11879563629E+04  0.67472785127E+03  0.35025636505E+03  0.14127470257E+04  0.81710734209E+02 0.  0.
        254    2    1    2    0    0 -0.11879563629E+04 -0.67472785127E+03 -0.12023451278E+04  0.20346187851E+04  0.90969324562E+03 0.  0.
         23    2    4    4    0    0 -0.50314558977E+03 -0.46896214147E+03 -0.11093354822E+04  0.13084121009E+04  0.90752625736E+02 0.  0.
         23    2    4    4    0    0 -0.68481077310E+03 -0.20576570980E+03 -0.93009645617E+02  0.72620668425E+03  0.86139606406E+02 0.  0.
          4    1    3    3  502    0  0.10551728483E+03  0.83584453060E+02  0.21242626673E+02  0.13627731792E+03  0.00000000000E+00 0. -1.
         -3    1    3    3    0  502  0.10824390780E+04  0.59114339821E+03  0.32901373838E+03  0.12764697078E+04  0.00000000000E+00 0.  1.
         11    1    5    5    0    0 -0.42376888795E+03 -0.38902323651E+03 -0.85815586455E+03  0.10331266315E+04  0.00000000000E+00 0.  1.
        -11    1    5    5    0    0 -0.79376701812E+02 -0.79938904966E+02 -0.25117961763E+03  0.27528546934E+03  0.00000000000E+00 0. -1.
          1    1    6    6  503    0 -0.25496396555E+02 -0.22610866617E+02 -0.15865837528E+02  0.37590455264E+02  0.00000000000E+00 0. -1.
         -1    1    6    6    0  503 -0.65931437654E+03 -0.18315484318E+03 -0.77143808089E+02  0.68861622899E+03  0.00000000000E+00 0.  1.
<mgrwt>
<rscale>  0 0.33404005E+04</rscale>
<asrwt>0</asrwt>
<pdfrwt beam="1">  1        2 0.33072727E+00 0.33404005E+04</pdfrwt>
<pdfrwt beam="2">  1       -1 0.19963670E+00 0.33404005E+04</pdfrwt>
<totfact> 0.78967806E-01</totfact>
</mgrwt>
</event>
<event>
12    6  0.1504718E-007  0.1428320E+04  0.7818608E-02  0.8933571E-01
         -1   -1    0    0    0  501 -0.00000000000E+00  0.00000000000E+00  0.34579963858E+03  0.34579963858E+03  0.00000000000E+00 0.  1.
          2   -1    0    0  501    0  0.00000000000E+00 -0.00000000000E+00 -0.14749127099E+04  0.14749127099E+04  0.00000000000E+00 0. -1.
         24    2    1    2    0    0  0.12115188491E+03  0.18431455548E+03  0.11950679016E+03  0.26019684890E+03  0.69071649072E+02 0.  0.
        254    2    1    2    0    0 -0.12115188491E+03 -0.18431455548E+03 -0.12486198615E+04  0.15605154996E+04  0.90967435459E+03 0.  0.
         23    2    4    4    0    0  0.29405659171E+03 -0.95126195420E+02 -0.11005313574E+03  0.34190836823E+03  0.96287940043E+02 0.  0.
         23    2    4    4    0    0 -0.41520847662E+03 -0.89188360059E+02 -0.11385667257E+04  0.12186071314E+04  0.91194895733E+02 0.  0.
          4    1    3    3  502    0 -0.77824214384E+01  0.28411600084E+01  0.65741267956E+01  0.10576266674E+02  0.00000000000E+00 0. -1.
         -3    1    3    3    0  502  0.12893430635E+03  0.18147339547E+03  0.11293266336E+03  0.24962058223E+03  0.00000000000E+00 0.  1.
         11    1    5    5    0    0  0.22582716029E+03 -0.11033269861E+03 -0.68176524201E+02  0.26042129168E+03  0.00000000000E+00 0. -1.
        -11    1    5    5    0    0  0.68229431416E+02  0.15206503191E+02 -0.41876611540E+02  0.81487076550E+02  0.00000000000E+00 0.  1.
          3    1    6    6  503    0 -0.36868216106E+03 -0.49440538956E+02 -0.10069231779E+04  0.10734361597E+04  0.00000000000E+00 0. -1.
         -3    1    6    6    0  503 -0.46526315555E+02 -0.39747821103E+02 -0.13164354785E+03  0.14517097165E+03  0.00000000000E+00 0.  1.
<mgrwt>
<rscale>  0 0.14283197E+04</rscale>
<asrwt>0</asrwt>
<pdfrwt beam="1">  1        2 0.22690964E+00 0.14283197E+04</pdfrwt>
<pdfrwt beam="2">  1       -1 0.53199945E-01 0.14283197E+04</pdfrwt>
<totfact> 0.51727002E+01</totfact>
</mgrwt>
</event>
<event>
12    6  0.1450532E-007  0.1253935E+04  0.7818608E-02  0.9066914E-01
         -1   -1    0    0    0  501 -0.00000000000E+00  0.00000000000E+00  0.67361805977E+03  0.67361805977E+03  0.00000000000E+00 0.  1.
          2   -1    0    0  501    0  0.00000000000E+00 -0.00000000000E+00 -0.58354791406E+03  0.58354791406E+03  0.00000000000E+00 0. -1.
         24    2    1    2    0    0  0.18164937769E+03 -0.23405937794E+03 -0.14683567703E+02  0.30727924671E+03  0.80153848816E+02 0.  0.
        254    2    1    2    0    0 -0.18164937769E+03  0.23405937794E+03  0.10475371341E+03  0.94988672712E+03  0.89639899882E+03 0.  0.
         23    2    4    4    0    0  0.25256317666E+03  0.30031109088E+02  0.31690181623E+03  0.41639028458E+03  0.90906997797E+02 0.  0.
         23    2    4    4    0    0 -0.43421255435E+03  0.20402826885E+03 -0.21214810282E+03  0.53349644254E+03  0.97177980143E+02 0.  0.
          4    1    3    3  502    0  0.22529372835E+02 -0.41921761221E+02 -0.31772302458E+02  0.57223123890E+02  0.00000000000E+00 0. -1.
         -3    1    3    3    0  502  0.15912000485E+03 -0.19213761672E+03  0.17088734755E+02  0.25005612282E+03  0.00000000000E+00 0.  1.
         11    1    5    5    0    0  0.18997894379E+03  0.59033682586E+02  0.21091921041E+03  0.28993773138E+03  0.00000000000E+00 0. -1.
        -11    1    5    5    0    0  0.62584232879E+02 -0.29002573498E+02  0.10598260582E+03  0.12645255320E+03  0.00000000000E+00 0.  1.
          1    1    6    6  503    0 -0.22970733873E+03  0.54359647076E+02 -0.99513793213E+02  0.25617070038E+03  0.00000000000E+00 0. -1.
         -1    1    6    6    0  503 -0.20450521563E+03  0.14966862177E+03 -0.11263430961E+03  0.27732574216E+03  0.00000000000E+00 0.  1.
<mgrwt>
<rscale>  0 0.12539353E+04</rscale>
<asrwt>0</asrwt>
<pdfrwt beam="1">  1        2 0.89776602E-01 0.12539353E+04</pdfrwt>
<pdfrwt beam="2">  1       -1 0.10363355E+00 0.12539353E+04</pdfrwt>
<totfact> 0.50618005E+01</totfact>
</mgrwt>
</event>
<event>
12    6  0.1450532E-007  0.2261876E+04  0.7818608E-02  0.8493106E-01
         -1   -1    0    0    0  501 -0.00000000000E+00  0.00000000000E+00  0.73408259684E+03  0.73408259684E+03  0.00000000000E+00 0.  1.
          2   -1    0    0  501    0  0.00000000000E+00 -0.00000000000E+00 -0.17423389398E+04  0.17423389398E+04  0.00000000000E+00 0. -1.
         24    2    1    2    0    0  0.71320245819E+03  0.56828600164E+03 -0.13391884515E+03  0.92506849249E+03  0.78808201923E+02 0.  0.
        254    2    1    2    0    0 -0.71320245819E+03 -0.56828600164E+03 -0.87433749782E+03  0.15513530442E+04  0.90034631201E+03 0.  0.
         23    2    4    4    0    0 -0.21482649544E+03 -0.17401117387E+03 -0.86171992096E+03  0.90955027762E+03  0.91050390276E+02 0.  0.
         23    2    4    4    0    0 -0.49837596275E+03 -0.39427482777E+03 -0.12617576862E+02  0.64180276655E+03  0.88996336149E+02 0.  0.
          4    1    3    3  502    0  0.69308855323E+03  0.56418536216E+03 -0.12392877720E+03  0.90223899678E+03  0.00000000000E+00 0. -1.
         -1    1    3    3    0  502  0.20113904955E+02  0.41006394852E+01 -0.99900679578E+01  0.22829495714E+02  0.00000000000E+00 0.  1.
         11    1    5    5    0    0 -0.11783445826E+03 -0.73330345126E+02 -0.29769339535E+03  0.32845647612E+03  0.00000000000E+00 0. -1.
        -11    1    5    5    0    0 -0.96992037173E+02 -0.10068082875E+03 -0.56402652561E+03  0.58109380151E+03  0.00000000000E+00 0.  1.
          3    1    6    6  503    0 -0.80183436104E+02 -0.70611334033E+02  0.30847531613E+02  0.11120662807E+03  0.00000000000E+00 0. -1.
         -3    1    6    6    0  503 -0.41819252665E+03 -0.32366349373E+03 -0.43465108475E+02  0.53059613848E+03  0.00000000000E+00 0.  1.
<mgrwt>
<rscale>  0 0.22618759E+04</rscale>
<asrwt>0</asrwt>
<pdfrwt beam="1">  1        2 0.26805214E+00 0.22618759E+04</pdfrwt>
<pdfrwt beam="2">  1       -1 0.11293578E+00 0.22618759E+04</pdfrwt>
<totfact> 0.68951418E+00</totfact>
</mgrwt>
</event>
<event>
12    6  0.1450532E-007  0.1157712E+04  0.7818608E-02  0.9150698E-01
          2   -1    0    0  501    0  0.00000000000E+00  0.00000000000E+00  0.10991324383E+04  0.10991324383E+04  0.00000000000E+00 0. -1.
         -1   -1    0    0    0  501 -0.00000000000E+00 -0.00000000000E+00 -0.30485335230E+03  0.30485335230E+03  0.00000000000E+00 0.  1.
         24    2    1    2    0    0  0.79051521665E+02  0.11236152870E+03 -0.36096741977E+02  0.16297249887E+03  0.79892455195E+02 0.  0.
        254    2    1    2    0    0 -0.79051521665E+02 -0.11236152870E+03  0.83037582799E+03  0.12410132918E+04  0.91198449460E+03 0.  0.
         23    2    4    4    0    0 -0.30802282293E+03 -0.41561980412E+03  0.54035818205E+03  0.75353460759E+03  0.90606616168E+02 0.  0.
         23    2    4    4    0    0  0.22897130127E+03  0.30325827542E+03  0.29001764594E+03  0.48747868417E+03  0.95560421450E+02 0.  0.
          2    1    3    3  502    0 -0.70681178927E+01 -0.71068487354E+01  0.32449827087E+01  0.10535440298E+02  0.00000000000E+00 0. -1.
         -1    1    3    3    0  502  0.86119639558E+02  0.11946837744E+03 -0.39341724686E+02  0.15243705857E+03  0.00000000000E+00 0.  1.
         11    1    5    5    0    0 -0.61074362848E+02 -0.94554143227E+02  0.17484966329E+03  0.20794943749E+03  0.00000000000E+00 0. -1.
        -11    1    5    5    0    0 -0.24694846009E+03 -0.32106566089E+03  0.36550851876E+03  0.54558517010E+03  0.00000000000E+00 0.  1.
          4    1    6    6  503    0 -0.13918376268E+01 -0.28320979658E+01  0.16417679361E+02  0.16718199259E+02  0.00000000000E+00 0. -1.
         -4    1    6    6    0  503  0.23036313890E+03  0.30609037338E+03  0.27359996658E+03  0.47076048491E+03  0.00000000000E+00 0.  1.
<mgrwt>
<rscale>  0 0.11577119E+04</rscale>
<asrwt>0</asrwt>
<pdfrwt beam="1">  1        2 0.16909730E+00 0.11577119E+04</pdfrwt>
<pdfrwt beam="2">  1       -1 0.46900516E-01 0.11577119E+04</pdfrwt>
<totfact> 0.11146440E+02</totfact>
</mgrwt>
</event>
<event>
12    6  0.1450532E-007  0.1269462E+04  0.7818608E-02  0.9054139E-01
         -1   -1    0    0    0  501 -0.00000000000E+00  0.00000000000E+00  0.33590613149E+03  0.33590613149E+03  0.00000000000E+00 0.  1.
          2   -1    0    0  501    0  0.00000000000E+00 -0.00000000000E+00 -0.11993926817E+04  0.11993926817E+04  0.00000000000E+00 0. -1.
         24    2    1    2    0    0 -0.55281569695E+02 -0.16081754608E+03  0.89902063531E+02  0.20881235233E+03  0.81251968491E+02 0.  0.
        254    2    1    2    0    0  0.55281569695E+02  0.16081754608E+03 -0.95338861375E+03  0.13264864609E+04  0.90647567368E+03 0.  0.
         23    2    4    4    0    0 -0.20488875030E+03  0.35176943176E+03 -0.12962957777E+03  0.43672508494E+03  0.90575047669E+02 0.  0.
         23    2    4    4    0    0  0.26017031999E+03 -0.19095188568E+03 -0.82375903598E+03  0.88976137593E+03  0.94578743373E+02 0.  0.
          4    1    3    3  502    0  0.40223440898E+00 -0.84100552574E+02  0.97342125686E+01  0.84662976737E+02  0.00000000000E+00 0. -1.
         -3    1    3    3    0  502 -0.55683804104E+02 -0.76716993503E+02  0.80167850962E+02  0.12414937559E+03  0.00000000000E+00 0.  1.
         11    1    5    5    0    0 -0.25560088309E+02  0.12518691101E+03 -0.47577929812E+02  0.13634053032E+03  0.00000000000E+00 0. -1.
        -11    1    5    5    0    0 -0.17932866199E+03  0.22658252075E+03 -0.82051647959E+02  0.30038455462E+03  0.00000000000E+00 0.  1.
          2    1    6    6  503    0  0.53188900141E+02 -0.53901031256E+02 -0.10587865986E+03  0.13017169770E+03  0.00000000000E+00 0. -1.
         -2    1    6    6    0  503  0.20698141985E+03 -0.13705085443E+03 -0.71788037612E+03  0.75958967823E+03  0.00000000000E+00 0.  1.
<mgrwt>
<rscale>  0 0.12694619E+04</rscale>
<asrwt>0</asrwt>
<pdfrwt beam="1">  1        2 0.18452195E+00 0.12694619E+04</pdfrwt>
<pdfrwt beam="2">  1       -1 0.51677866E-01 0.12694619E+04</pdfrwt>
<totfact> 0.79974718E+01</totfact>
</mgrwt>
</event>
<event>
12    6  0.1450532E-007  0.3129957E+04  0.7818608E-02  0.8207564E-01
         -1   -1    0    0    0  501 -0.00000000000E+00  0.00000000000E+00  0.12057725813E+04  0.12057725813E+04  0.00000000000E+00 0.  1.
          2   -1    0    0  501    0  0.00000000000E+00 -0.00000000000E+00 -0.20311932169E+04  0.20311932169E+04  0.00000000000E+00 0. -1.
         24    2    1    2    0    0  0.71806533833E+03 -0.12421539246E+04 -0.38326189472E+03  0.14872579752E+04  0.80513366993E+02 0.  0.
        254    2    1    2    0    0 -0.71806533833E+03  0.12421539246E+04 -0.44215874084E+03  0.17497078230E+04  0.89855935311E+03 0.  0.
         23    2    4    4    0    0 -0.69927870262E+03  0.63399817422E+03 -0.59011479570E+03  0.11169236756E+04  0.91316132772E+02 0.  0.
         23    2    4    4    0    0 -0.18786635709E+02  0.60815575041E+03  0.14795605487E+03  0.63278414739E+03  0.91205419658E+02 0.  0.
          2    1    3    3  502    0  0.15749342321E+03 -0.26151594793E+03 -0.11553492430E+03  0.32640938728E+03  0.00000000000E+00 0. -1.
         -1    1    3    3    0  502  0.56057191512E+03 -0.98063797671E+03 -0.26772697042E+03  0.11608485879E+04  0.00000000000E+00 0.  1.
         11    1    5    5    0    0 -0.26896230665E+03  0.21660857908E+03 -0.26229984289E+03  0.43366024317E+03  0.00000000000E+00 0.  1.
        -11    1    5    5    0    0 -0.43031639597E+03  0.41738959514E+03 -0.32781495282E+03  0.68326343241E+03  0.00000000000E+00 0. -1.
          4    1    6    6  503    0 -0.61637401717E+01  0.56458020253E+03  0.15802932126E+03  0.58631225739E+03  0.00000000000E+00 0. -1.
         -4    1    6    6    0  503 -0.12622895537E+02  0.43575547880E+02 -0.10073266389E+02  0.46471890004E+02  0.00000000000E+00 0.  1.
<mgrwt>
<rscale>  0 0.31299566E+04</rscale>
<asrwt>0</asrwt>
<pdfrwt beam="1">  1        2 0.31249126E+00 0.31299566E+04</pdfrwt>
<pdfrwt beam="2">  1       -1 0.18550347E+00 0.31299566E+04</pdfrwt>
<totfact> 0.11755262E+00</totfact>
</mgrwt>
</event>
<event>
12    6  0.1450532E-007  0.1525233E+04  0.7818608E-02  0.8867845E-01
          2   -1    0    0  501    0  0.00000000000E+00  0.00000000000E+00  0.15799225957E+04  0.15799225957E+04  0.00000000000E+00 0. -1.
         -3   -1    0    0    0  501 -0.00000000000E+00 -0.00000000000E+00 -0.36810902556E+03  0.36810902556E+03  0.00000000000E+00 0.  1.
         24    2    1    2    0    0 -0.62592492456E+02 -0.98031761095E+02 -0.21409716753E+03  0.25773035962E+03  0.84019609778E+02 0.  0.
        254    2    1    2    0    0  0.62592492456E+02  0.98031761095E+02  0.14259107376E+04  0.16903012616E+04  0.90020490833E+03 0.  0.
         23    2    4    4    0    0 -0.32364367665E+03 -0.16639055666E+03  0.34805704265E+03  0.51170207585E+03  0.90907990391E+02 0.  0.
         23    2    4    4    0    0  0.38623616910E+03  0.26442231775E+03  0.10778536950E+04  0.11785991857E+04  0.90718864648E+02 0.  0.
          2    1    3    3  502    0  0.13055251803E+02 -0.17631898990E+01 -0.57296662874E+02  0.58791632183E+02  0.00000000000E+00 0. -1.
         -1    1    3    3    0  502 -0.75647744258E+02 -0.96268571196E+02 -0.15680050466E+03  0.19893872743E+03  0.00000000000E+00 0.  1.
         11    1    5    5    0    0 -0.69172715438E+02 -0.61086766831E+02  0.13491536304E+03  0.16345829079E+03  0.00000000000E+00 0. -1.
        -11    1    5    5    0    0 -0.25447096121E+03 -0.10530378983E+03  0.21314167961E+03  0.34824378507E+03  0.00000000000E+00 0.  1.
          1    1    6    6  503    0  0.25383787974E+03  0.12088639243E+03  0.61335565027E+03  0.67472390115E+03  0.00000000000E+00 0. -1.
         -1    1    6    6    0  503  0.13239828937E+03  0.14353592532E+03  0.46449804472E+03  0.50387528460E+03  0.00000000000E+00 0.  1.
<mgrwt>
<rscale>  0 0.15252328E+04</rscale>
<asrwt>0</asrwt>
<pdfrwt beam="1">  1        2 0.24306501E+00 0.15252328E+04</pdfrwt>
<pdfrwt beam="2">  1       -3 0.56632159E-01 0.15252328E+04</pdfrwt>
<totfact> 0.21655075E+01</totfact>
</mgrwt>
</event>
<event>
12    6  0.1450532E-007  0.1518822E+04  0.7818608E-02  0.8872032E-01
          2   -1    0    0  501    0  0.00000000000E+00  0.00000000000E+00  0.46407282871E+03  0.46407282871E+03  0.00000000000E+00 0. -1.
         -1   -1    0    0    0  501 -0.00000000000E+00 -0.00000000000E+00 -0.12427037831E+04  0.12427037831E+04  0.00000000000E+00 0.  1.
         24    2    1    2    0    0 -0.20933187761E+03 -0.39246071900E+03 -0.25109041025E+02  0.45327959923E+03  0.83586363711E+02 0.  0.
        254    2    1    2    0    0  0.20933187761E+03  0.39246071900E+03 -0.75352191341E+03  0.12534970126E+04  0.89756015716E+03 0.  0.
         23    2    4    4    0    0 -0.72335644297E+02  0.54979257100E+03 -0.72264849888E+03  0.91566835027E+03  0.93398919658E+02 0.  0.
         23    2    4    4    0    0  0.28166752191E+03 -0.15733185200E+03 -0.30873414528E+02  0.33782866235E+03  0.95315963146E+02 0.  0.
          2    1    3    3  502    0 -0.19906179719E+03 -0.30468043658E+03 -0.14102679724E+02  0.36421786490E+03  0.00000000000E+00 0. -1.
         -1    1    3    3    0  502 -0.10270080415E+02 -0.87780282417E+02 -0.11006361301E+02  0.89061734331E+02  0.00000000000E+00 0.  1.
         11    1    5    5    0    0 -0.80180260273E+01  0.17177423527E+03 -0.29349904022E+03  0.34016519995E+03  0.00000000000E+00 0. -1.
        -11    1    5    5    0    0 -0.64317618270E+02  0.37801833573E+03 -0.42914945866E+03  0.57550315033E+03  0.00000000000E+00 0.  1.
          2    1    6    6  503    0  0.17587548584E+03 -0.80292247390E+02  0.26107903800E+02  0.19509139948E+03  0.00000000000E+00 0. -1.
         -2    1    6    6    0  503  0.10579203607E+03 -0.77039604610E+02 -0.56981318328E+02  0.14273726287E+03  0.00000000000E+00 0.  1.
<mgrwt>
<rscale>  0 0.15188220E+04</rscale>
<asrwt>0</asrwt>
<pdfrwt beam="1">  1        2 0.71395820E-01 0.15188220E+04</pdfrwt>
<pdfrwt beam="2">  1       -1 0.19118520E+00 0.15188220E+04</pdfrwt>
<totfact> 0.12836843E+01</totfact>
</mgrwt>
</event>
<event>
12    6  0.1450532E-007  0.1287746E+04  0.7818608E-02  0.9039340E-01
          2   -1    0    0  501    0  0.00000000000E+00  0.00000000000E+00  0.10205183830E+04  0.10205183830E+04  0.00000000000E+00 0. -1.
         -1   -1    0    0    0  501 -0.00000000000E+00 -0.00000000000E+00 -0.40623711995E+03  0.40623711995E+03  0.00000000000E+00 0.  1.
         24    2    1    2    0    0  0.36845963552E+02  0.24374241160E+02 -0.19457097809E+03  0.21463456781E+03  0.79110072180E+02 0.  0.
        254    2    1    2    0    0 -0.36845963552E+02 -0.24374241160E+02  0.80885224114E+03  0.12121209351E+04  0.90168923955E+03 0.  0.
         23    2    4    4    0    0 -0.44523558555E+03  0.10095291079E+03  0.44731873766E+03  0.64481197670E+03  0.85218632977E+02 0.  0.
         23    2    4    4    0    0  0.40838962199E+03 -0.12532715195E+03  0.36153350349E+03  0.56730895843E+03  0.92973124088E+02 0.  0.
          4    1    3    3  502    0  0.35232057791E+02 -0.68872412207E+01 -0.29052445573E+02  0.46181994127E+02  0.00000000000E+00 0. -1.
         -3    1    3    3    0  502  0.16139057618E+01  0.31261482381E+02 -0.16551853252E+03  0.16845257368E+03  0.00000000000E+00 0.  1.
         11    1    5    5    0    0 -0.44368558506E+03  0.10743419220E+03  0.44559324902E+03  0.63792816807E+03  0.00000000000E+00 0. -1.
        -11    1    5    5    0    0 -0.15500004821E+01 -0.64812814126E+01  0.17254886403E+01  0.68838086327E+01  0.00000000000E+00 0.  1.
          1    1    6    6  503    0  0.38703420911E+03 -0.10200686429E+03  0.35504154834E+03  0.53502839218E+03  0.00000000000E+00 0. -1.
         -1    1    6    6    0  503  0.21355412883E+02 -0.23320287662E+02  0.64919551425E+01  0.32280566253E+02  0.00000000000E+00 0.  1.
<mgrwt>
<rscale>  0 0.12877460E+04</rscale>
<asrwt>0</asrwt>
<pdfrwt beam="1">  1        2 0.15700283E+00 0.12877460E+04</pdfrwt>
<pdfrwt beam="2">  1       -1 0.62498018E-01 0.12877460E+04</pdfrwt>
<totfact> 0.71015935E+01</totfact>
</mgrwt>
</event>
<event>
12    6  0.1450532E-007  0.1448506E+04  0.7818608E-02  0.8919437E-01
         -1   -1    0    0    0  501 -0.00000000000E+00  0.00000000000E+00  0.42736950153E+03  0.42736950153E+03  0.00000000000E+00 0.  1.
          2   -1    0    0  501    0  0.00000000000E+00 -0.00000000000E+00 -0.12273749489E+04  0.12273749489E+04  0.00000000000E+00 0. -1.
         24    2    1    2    0    0  0.27627161297E+03 -0.50148629576E+02 -0.66931290491E+03  0.72991556084E+03  0.77175592620E+02 0.  0.
        254    2    1    2    0    0 -0.27627161297E+03  0.50148629576E+02 -0.13069254249E+03  0.92482888962E+03  0.87142816413E+03 0.  0.
         23    2    4    4    0    0  0.27627921026E+03  0.13380023099E+03  0.63600867801E+02  0.32618310581E+03  0.90097970556E+02 0.  0.
         23    2    4    4    0    0 -0.55255082323E+03 -0.83651601416E+02 -0.19429341029E+03  0.59864578381E+03  0.91196724291E+02 0.  0.
          4    1    3    3  502    0  0.21348865952E+03 -0.51613296485E+02 -0.58433530684E+03  0.62425082374E+03  0.00000000000E+00 0. -1.
         -3    1    3    3    0  502  0.62782953450E+02  0.14646669091E+01 -0.84977598068E+02  0.10566473710E+03  0.00000000000E+00 0.  1.
         11    1    5    5    0    0  0.27059519548E+03  0.13174679318E+03  0.42154252587E+02  0.30390123123E+03  0.00000000000E+00 0.  1.
        -11    1    5    5    0    0  0.56840147755E+01  0.20534378134E+01  0.21446615214E+02  0.22281874584E+02  0.00000000000E+00 0. -1.
          1    1    6    6  503    0 -0.86583022171E+01 -0.14934538847E+02 -0.78877981105E+00  0.17280880228E+02  0.00000000000E+00 0. -1.
         -1    1    6    6    0  503 -0.54389252101E+03 -0.68717062568E+02 -0.19350463048E+03  0.58136490358E+03  0.00000000000E+00 0.  1.
<mgrwt>
<rscale>  0 0.14485063E+04</rscale>
<asrwt>0</asrwt>
<pdfrwt beam="1">  1        2 0.18882692E+00 0.14485063E+04</pdfrwt>
<pdfrwt beam="2">  1       -1 0.65749154E-01 0.14485063E+04</pdfrwt>
<totfact> 0.47299653E+01</totfact>
</mgrwt>
</event>
<event>
12    6  0.1450532E-007  0.1565391E+04  0.7818608E-02  0.8842097E-01
          2   -1    0    0  501    0  0.00000000000E+00  0.00000000000E+00  0.12969221849E+04  0.12969221849E+04  0.00000000000E+00 0. -1.
         -1   -1    0    0    0  501 -0.00000000000E+00 -0.00000000000E+00 -0.47235828555E+03  0.47235828555E+03  0.00000000000E+00 0.  1.
         24    2    1    2    0    0  0.15137151978E+03 -0.20732434823E+03 -0.23837360378E+03  0.35930714287E+03  0.79893213564E+02 0.  0.
        254    2    1    2    0    0 -0.15137151978E+03  0.20732434823E+03  0.10629375031E+04  0.14099733275E+04  0.89010781736E+03 0.  0.
         23    2    4    4    0    0 -0.46819866278E+03  0.47644311212E+02  0.87627963061E+03  0.99883838351E+03  0.91280650398E+02 0.  0.
         23    2    4    4    0    0  0.31682714300E+03  0.15968003701E+03  0.18665787248E+03  0.41113494402E+03  0.91179098885E+02 0.  0.
          4    1    3    3  502    0  0.14231406317E+02 -0.14695000408E+02 -0.59189295454E+02  0.62624664942E+02  0.00000000000E+00 0. -1.
         -3    1    3    3    0  502  0.13714011347E+03 -0.19262934782E+03 -0.17918430832E+03  0.29668247793E+03  0.00000000000E+00 0.  1.
         11    1    5    5    0    0 -0.13957330530E+02  0.80223941969E+01  0.76868629231E+01  0.17839667759E+02  0.00000000000E+00 0.  1.
        -11    1    5    5    0    0 -0.45424133226E+03  0.39621917015E+02  0.86859276768E+03  0.98099871575E+03  0.00000000000E+00 0. -1.
          2    1    6    6  503    0  0.24685302468E+03  0.16214499306E+03  0.13885794618E+03  0.32635708018E+03  0.00000000000E+00 0. -1.
         -2    1    6    6    0  503  0.69974118322E+02 -0.24649560407E+01  0.47799926303E+02  0.84777863843E+02  0.00000000000E+00 0.  1.
<mgrwt>
<rscale>  0 0.15653906E+04</rscale>
<asrwt>0</asrwt>
<pdfrwt beam="1">  1        2 0.19952649E+00 0.15653906E+04</pdfrwt>
<pdfrwt beam="2">  1       -1 0.72670506E-01 0.15653906E+04</pdfrwt>
<totfact> 0.34744894E+01</totfact>
</mgrwt>
</event>
<event>
12    6  0.1450532E-007  0.1792413E+04  0.7818608E-02  0.8710344E-01
          2   -1    0    0  501    0  0.00000000000E+00  0.00000000000E+00  0.16929150340E+04  0.16929150340E+04  0.00000000000E+00 0. -1.
         -1   -1    0    0    0  501 -0.00000000000E+00 -0.00000000000E+00 -0.47443984263E+03  0.47443984263E+03  0.00000000000E+00 0.  1.
         24    2    1    2    0    0  0.60213292896E+03 -0.25602061416E+03  0.62667889974E+03  0.90973168703E+03  0.82308444331E+02 0.  0.
        254    2    1    2    0    0 -0.60213292896E+03  0.25602061416E+03  0.59179629162E+03  0.12576231896E+04  0.89626035123E+03 0.  0.
         23    2    4    4    0    0 -0.42156171594E+03 -0.28922919838E+03  0.20014773634E+03  0.55686981986E+03  0.93150793689E+02 0.  0.
         23    2    4    4    0    0 -0.18057121301E+03  0.54524981255E+03  0.39164855528E+03  0.70075336972E+03  0.88110006627E+02 0.  0.
          4    1    3    3  502    0  0.40138576285E+03 -0.13531476371E+03  0.37241143969E+03  0.56401320579E+03  0.00000000000E+00 0. -1.
         -3    1    3    3    0  502  0.20074716611E+03 -0.12070585045E+03  0.25426746005E+03  0.34571848125E+03  0.00000000000E+00 0.  1.
         11    1    5    5    0    0 -0.74443800370E+02 -0.11996162830E+02  0.27583540025E+02  0.80290964725E+02  0.00000000000E+00 0.  1.
        -11    1    5    5    0    0 -0.34711791557E+03 -0.27723303555E+03  0.17256419632E+03  0.47657885514E+03  0.00000000000E+00 0. -1.
          4    1    6    6  503    0 -0.13110435682E+03  0.38606178851E+03  0.22791522830E+03  0.46709464589E+03  0.00000000000E+00 0. -1.
         -4    1    6    6    0  503 -0.49466856193E+02  0.15918802403E+03  0.16373332698E+03  0.23365872383E+03  0.00000000000E+00 0.  1.
<mgrwt>
<rscale>  0 0.17924133E+04</rscale>
<asrwt>0</asrwt>
<pdfrwt beam="1">  1        2 0.26044846E+00 0.17924133E+04</pdfrwt>
<pdfrwt beam="2">  1       -1 0.72990746E-01 0.17924133E+04</pdfrwt>
<totfact> 0.20149021E+01</totfact>
</mgrwt>
</event>
<event>
12    6  0.1450532E-007  0.2606593E+04  0.7818608E-02  0.8365965E-01
         -1   -1    0    0    0  501 -0.00000000000E+00  0.00000000000E+00  0.23227925093E+04  0.23227925093E+04  0.00000000000E+00 0.  1.
          2   -1    0    0  501    0  0.00000000000E+00 -0.00000000000E+00 -0.73126714414E+03  0.73126714414E+03  0.00000000000E+00 0. -1.
         24    2    1    2    0    0 -0.15361031788E+03  0.90253068759E+03 -0.11094826321E+03  0.92568819618E+03  0.80195683300E+02 0.  0.
        254    2    1    2    0    0  0.15361031788E+03 -0.90253068759E+03  0.17024736283E+04  0.21283714572E+04  0.89072489185E+03 0.  0.
         23    2    4    4    0    0  0.42434015129E+02 -0.98297304897E+03  0.99697364152E+03  0.14037640974E+04  0.92523179518E+02 0.  0.
         23    2    4    4    0    0  0.11117630275E+03  0.80442361375E+02  0.70549998681E+03  0.72460735978E+03  0.92165344148E+02 0.  0.
          2    1    3    3  502    0 -0.16139794754E+03  0.88389444419E+03 -0.11200114511E+03  0.90546283328E+03  0.00000000000E+00 0. -1.
         -1    1    3    3    0  502  0.77876296640E+01  0.18636243404E+02  0.10528819039E+01  0.20225362897E+02  0.00000000000E+00 0.  1.
         11    1    5    5    0    0  0.32433039730E+02 -0.10029766578E+03  0.11214164020E+03  0.15390669672E+03  0.00000000000E+00 0. -1.
        -11    1    5    5    0    0  0.10000975399E+02 -0.88267538319E+03  0.88483200132E+03  0.12498574007E+04  0.00000000000E+00 0.  1.
          1    1    6    6  503    0  0.90808727217E+01  0.31627199917E+02  0.53126129250E+02  0.62491020419E+02  0.00000000000E+00 0. -1.
         -1    1    6    6    0  503  0.10209543003E+03  0.48815161459E+02  0.65237385756E+03  0.66211633936E+03  0.00000000000E+00 0.  1.
<mgrwt>
<rscale>  0 0.26065931E+04</rscale>
<asrwt>0</asrwt>
<pdfrwt beam="1">  1        2 0.11250264E+00 0.26065931E+04</pdfrwt>
<pdfrwt beam="2">  1       -1 0.35735269E+00 0.26065931E+04</pdfrwt>
<totfact> 0.54251747E-01</totfact>
</mgrwt>
</event>
<event>
12    6  0.1450532E-007  0.1256565E+04  0.7818608E-02  0.9064737E-01
         -1   -1    0    0    0  501 -0.00000000000E+00  0.00000000000E+00  0.21894195723E+03  0.21894195723E+03  0.00000000000E+00 0.  1.
          2   -1    0    0  501    0  0.00000000000E+00 -0.00000000000E+00 -0.18029388103E+04  0.18029388103E+04  0.00000000000E+00 0. -1.
         24    2    1    2    0    0 -0.15101156759E+01  0.27659370632E+03 -0.23071887709E+03  0.36914248164E+03  0.80799830977E+02 0.  0.
        254    2    1    2    0    0  0.15101156759E+01 -0.27659370632E+03 -0.13532779760E+04  0.16527382859E+04  0.90756608713E+03 0.  0.
         23    2    4    4    0    0  0.32473078699E+03 -0.23502053948E+03 -0.12224557470E+04  0.12903259174E+04  0.99288375643E+02 0.  0.
         23    2    4    4    0    0 -0.32322067131E+03 -0.41573166840E+02 -0.13082222893E+03  0.36241236851E+03  0.89600997217E+02 0.  0.
          2    1    3    3  502    0 -0.26762266655E+02  0.56672038954E+02 -0.78689036800E+02  0.10059773073E+03  0.00000000000E+00 0. -1.
         -1    1    3    3    0  502  0.25252150979E+02  0.21992166736E+03 -0.15202984028E+03  0.26854475091E+03  0.00000000000E+00 0.  1.
         11    1    5    5    0    0  0.16082341397E+03 -0.16882479008E+03 -0.61675937931E+03  0.65936189774E+03  0.00000000000E+00 0.  1.
        -11    1    5    5    0    0  0.16390737302E+03 -0.66195749397E+02 -0.60569636773E+03  0.63096401961E+03  0.00000000000E+00 0. -1.
          1    1    6    6  503    0 -0.31896758623E+03 -0.45870972926E+02 -0.14006092520E+03  0.35137092935E+03  0.00000000000E+00 0. -1.
         -1    1    6    6    0  503 -0.42530850844E+01  0.42978060856E+01  0.92386962766E+01  0.11041439162E+02  0.00000000000E+00 0.  1.
<mgrwt>
<rscale>  0 0.12565651E+04</rscale>
<asrwt>0</asrwt>
<pdfrwt beam="1">  1        2 0.27737519E+00 0.12565651E+04</pdfrwt>
<pdfrwt beam="2">  1       -1 0.33683379E-01 0.12565651E+04</pdfrwt>
<totfact> 0.80028954E+01</totfact>
</mgrwt>
</event>
<event>
12    6  0.1450532E-007  0.1295206E+04  0.7818608E-02  0.9033376E-01
          2   -1    0    0  501    0  0.00000000000E+00  0.00000000000E+00  0.25831644719E+04  0.25831644719E+04  0.00000000000E+00 0. -1.
         -1   -1    0    0    0  501 -0.00000000000E+00 -0.00000000000E+00 -0.16235486657E+03  0.16235486657E+03  0.00000000000E+00 0.  1.
         24    2    1    2    0    0 -0.42028043273E+02 -0.32555987174E+03  0.54535258977E+03  0.64153807991E+03  0.80037955326E+02 0.  0.
        254    2    1    2    0    0  0.42028043273E+02  0.32555987174E+03  0.18754570156E+04  0.21039812586E+04  0.89534492384E+03 0.  0.
         23    2    4    4    0    0  0.35803608531E+03  0.46431720948E+03  0.12638108355E+04  0.13958915538E+04  0.86689633673E+02 0.  0.
         23    2    4    4    0    0 -0.31600804204E+03 -0.13875733773E+03  0.61164618004E+03  0.70808970476E+03  0.90362044135E+02 0.  0.
          2    1    3    3  502    0 -0.25329827813E+02 -0.28295604108E+03  0.50972176312E+03  0.58354262669E+03  0.00000000000E+00 0. -1.
         -1    1    3    3    0  502 -0.16698215460E+02 -0.42603830660E+02  0.35630826645E+02  0.57995453217E+02  0.00000000000E+00 0.  1.
         11    1    5    5    0    0  0.36058773548E+03  0.44286818386E+03  0.12172592904E+04  0.13445727661E+04  0.00000000000E+00 0. -1.
        -11    1    5    5    0    0 -0.25516501687E+01  0.21449025615E+02  0.46551545105E+02  0.51318787691E+02  0.00000000000E+00 0.  1.
          3    1    6    6  503    0 -0.27985028775E+03 -0.14278606516E+03  0.58107274005E+03  0.66056761439E+03  0.00000000000E+00 0. -1.
         -3    1    6    6    0  503 -0.36157754289E+02  0.40287274307E+01  0.30573439999E+02  0.47522090372E+02  0.00000000000E+00 0.  1.
<mgrwt>
<rscale>  0 0.12952055E+04</rscale>
<asrwt>0</asrwt>
<pdfrwt beam="1">  1        2 0.39740989E+00 0.12952055E+04</pdfrwt>
<pdfrwt beam="2">  1       -1 0.24977674E-01 0.12952055E+04</pdfrwt>
<totfact> 0.49056023E+01</totfact>
</mgrwt>
</event>
<event>
12    6  0.1450532E-007  0.1602859E+04  0.7818608E-02  0.8818793E-01
          2   -1    0    0  501    0  0.00000000000E+00  0.00000000000E+00  0.15050642249E+04  0.15050642249E+04  0.00000000000E+00 0. -1.
         -1   -1    0    0    0  501 -0.00000000000E+00 -0.00000000000E+00 -0.42675221503E+03  0.42675221503E+03  0.00000000000E+00 0.  1.
         24    2    1    2    0    0 -0.50750435240E+03  0.14140581105E+02  0.13177849620E+03  0.53028450396E+03  0.77945232988E+02 0.  0.
        254    2    1    2    0    0  0.50750435240E+03 -0.14140581105E+02  0.94653351368E+03  0.14015319360E+04  0.90033629902E+03 0.  0.
         23    2    4    4    0    0  0.64958578122E+03 -0.27568772236E+03  0.56131994583E+03  0.90637285836E+03  0.92012332651E+02 0.  0.
         23    2    4    4    0    0 -0.14208142883E+03  0.26154714125E+03  0.38521356785E+03  0.49515907762E+03  0.90548218008E+02 0.  0.
          2    1    3    3  502    0 -0.44036676431E+01  0.90064863402E+01 -0.56964035984E+00  0.10041592257E+02  0.00000000000E+00 0. -1.
         -1    1    3    3    0  502 -0.50310068475E+03  0.51340947644E+01  0.13234813656E+03  0.52024291170E+03  0.00000000000E+00 0.  1.
         11    1    5    5    0    0  0.40595759773E+03 -0.14797949081E+03  0.39172400684E+03  0.58322139741E+03  0.00000000000E+00 0.  1.
        -11    1    5    5    0    0  0.24362818349E+03 -0.12770823154E+03  0.16959593899E+03  0.32315146095E+03  0.00000000000E+00 0. -1.
          3    1    6    6  503    0 -0.22521730397E+00  0.68390721030E+02  0.11661248868E+03  0.13518806886E+03  0.00000000000E+00 0. -1.
         -3    1    6    6    0  503 -0.14185621152E+03  0.19315642022E+03  0.26860107917E+03  0.35997100877E+03  0.00000000000E+00 0.  1.
<mgrwt>
<rscale>  0 0.16028593E+04</rscale>
<asrwt>0</asrwt>
<pdfrwt beam="1">  1        2 0.23154834E+00 0.16028593E+04</pdfrwt>
<pdfrwt beam="2">  1       -1 0.65654187E-01 0.16028593E+04</pdfrwt>
<totfact> 0.32395548E+01</totfact>
</mgrwt>
</event>
<event>
12    6  0.1450532E-007  0.1695828E+04  0.7818608E-02  0.8763747E-01
          2   -1    0    0  501    0  0.00000000000E+00  0.00000000000E+00  0.19379824477E+04  0.19379824477E+04  0.00000000000E+00 0. -1.
         -1   -1    0    0    0  501 -0.00000000000E+00 -0.00000000000E+00 -0.37098271759E+03  0.37098271759E+03  0.00000000000E+00 0.  1.
         24    2    1    2    0    0 -0.44840284572E+02 -0.58500127539E+03  0.32155976824E+03  0.67464694043E+03  0.86664100670E+02 0.  0.
        254    2    1    2    0    0  0.44840284572E+02  0.58500127539E+03  0.12454399619E+04  0.16343182248E+04  0.88070325203E+03 0.  0.
         23    2    4    4    0    0 -0.21458958137E+03  0.36084222955E+03  0.10764439444E+03  0.44247949085E+03  0.89134623527E+02 0.  0.
         23    2    4    4    0    0  0.25942986594E+03  0.22415904584E+03  0.11377955674E+04  0.11918387340E+04  0.91376591322E+02 0.  0.
          4    1    3    3  502    0  0.16882280367E+02 -0.41145851301E+02  0.13085227441E+02  0.46359633809E+02  0.00000000000E+00 0. -1.
         -3    1    3    3    0  502 -0.61722564939E+02 -0.54385542409E+03  0.30847454080E+03  0.62828730662E+03  0.00000000000E+00 0.  1.
         11    1    5    5    0    0 -0.23809911092E+02  0.11780504937E+03  0.32363643332E+02  0.12446825673E+03  0.00000000000E+00 0. -1.
        -11    1    5    5    0    0 -0.19077967028E+03  0.24303718018E+03  0.75280751112E+02  0.31801123412E+03  0.00000000000E+00 0.  1.
          4    1    6    6  503    0  0.15366109688E+03  0.10775240202E+03  0.47723005434E+03  0.51280682289E+03  0.00000000000E+00 0. -1.
         -4    1    6    6    0  503  0.10576876906E+03  0.11640664382E+03  0.66056551307E+03  0.67903191110E+03  0.00000000000E+00 0.  1.
<mgrwt>
<rscale>  0 0.16958278E+04</rscale>
<asrwt>0</asrwt>
<pdfrwt beam="1">  1        2 0.29815114E+00 0.16958278E+04</pdfrwt>
<pdfrwt beam="2">  1       -1 0.57074265E-01 0.16958278E+04</pdfrwt>
<totfact> 0.24376535E+01</totfact>
</mgrwt>
</event>
<event>
12    6  0.1450532E-007  0.1506260E+04  0.7818608E-02  0.8880301E-01
          4   -1    0    0  501    0  0.00000000000E+00  0.00000000000E+00  0.16219276201E+04  0.16219276201E+04  0.00000000000E+00 0. -1.
         -3   -1    0    0    0  501 -0.00000000000E+00 -0.00000000000E+00 -0.34971046419E+03  0.34971046419E+03  0.00000000000E+00 0.  1.
         24    2    1    2    0    0  0.17553419122E+03  0.35248612263E+03  0.73751027819E+03  0.83989600513E+03  0.80281816566E+02 0.  0.
        254    2    1    2    0    0 -0.17553419122E+03 -0.35248612263E+03  0.53470687775E+03  0.11317420792E+04  0.91644419892E+03 0.  0.
         23    2    4    4    0    0 -0.12011307864E+02 -0.16044085215E+02  0.70480836182E+03  0.71088522452E+03  0.90560981395E+02 0.  0.
         23    2    4    4    0    0 -0.16352288336E+03 -0.33644203742E+03 -0.17010148407E+03  0.42085685466E+03  0.90846019764E+02 0.  0.
          2    1    3    3  502    0  0.11749501137E+03  0.26230057477E+03  0.60191396298E+03  0.66701355912E+03  0.00000000000E+00 0. -1.
         -1    1    3    3    0  502  0.58039179855E+02  0.90185547866E+02  0.13559631521E+03  0.17288244602E+03  0.00000000000E+00 0.  1.
         11    1    5    5    0    0 -0.75069447251E+01 -0.38259512435E+02  0.13222925596E+03  0.13785761003E+03  0.00000000000E+00 0. -1.
        -11    1    5    5    0    0 -0.45043631390E+01  0.22215427220E+02  0.57257910586E+03  0.57302761449E+03  0.00000000000E+00 0.  1.
          4    1    6    6  503    0 -0.30914672977E+02 -0.44673456465E+02 -0.62442307346E+02  0.82767605163E+02  0.00000000000E+00 0. -1.
         -4    1    6    6    0  503 -0.13260821038E+03 -0.29176858095E+03 -0.10765917673E+03  0.33808924950E+03  0.00000000000E+00 0.  1.
<mgrwt>
<rscale>  0 0.15062604E+04</rscale>
<asrwt>0</asrwt>
<pdfrwt beam="1">  1        4 0.24952732E+00 0.15062604E+04</pdfrwt>
<pdfrwt beam="2">  1       -3 0.53801611E-01 0.15062604E+04</pdfrwt>
<totfact> 0.47977964E-01</totfact>
</mgrwt>
</event>
<event>
12    6  0.1450532E-007  0.1416462E+04  0.7818608E-02  0.8941988E-01
         -1   -1    0    0    0  501 -0.00000000000E+00  0.00000000000E+00  0.11195992830E+04  0.11195992830E+04  0.00000000000E+00 0.  1.
          2   -1    0    0  501    0  0.00000000000E+00 -0.00000000000E+00 -0.44800954017E+03  0.44800954017E+03  0.00000000000E+00 0. -1.
         24    2    1    2    0    0 -0.22759632611E+02 -0.41158103687E+03  0.16142819686E+03  0.44910483690E+03  0.75625002460E+02 0.  0.
        254    2    1    2    0    0  0.22759632611E+02  0.41158103687E+03  0.51016154601E+03  0.11185039863E+04  0.90601843996E+03 0.  0.
         23    2    4    4    0    0 -0.23898337850E+02 -0.27452575298E+03  0.76177530008E+02  0.30026658712E+03  0.91768663844E+02 0.  0.
         23    2    4    4    0    0  0.46657970460E+02  0.68610678985E+03  0.43398401600E+03  0.81823739918E+03  0.90834035356E+02 0.  0.
          2    1    3    3  502    0  0.15152928641E+02 -0.21666370195E+03  0.56063940041E+02  0.22431214047E+03  0.00000000000E+00 0. -1.
         -1    1    3    3    0  502 -0.37912561252E+02 -0.19491733492E+03  0.10536425682E+03  0.22479269643E+03  0.00000000000E+00 0.  1.
         11    1    5    5    0    0  0.93559127770E+01 -0.23079022158E+03  0.81802192340E+02  0.24503725870E+03  0.00000000000E+00 0.  1.
        -11    1    5    5    0    0 -0.33254250627E+02 -0.43735531402E+02 -0.56246623317E+01  0.55229328423E+02  0.00000000000E+00 0. -1.
          1    1    6    6  503    0  0.17913744087E+02  0.63267970004E+03  0.39909562788E+03  0.74825251437E+03  0.00000000000E+00 0.  1.
         -1    1    6    6    0  503  0.28744226374E+02  0.53427089814E+02  0.34888388117E+02  0.69984884805E+02  0.00000000000E+00 0. -1.
<mgrwt>
<rscale>  0 0.14164620E+04</rscale>
<asrwt>0</asrwt>
<pdfrwt beam="1">  1        2 0.68924545E-01 0.14164620E+04</pdfrwt>
<pdfrwt beam="2">  1       -1 0.17224604E+00 0.14164620E+04</pdfrwt>
<totfact> 0.18412058E+01</totfact>
</mgrwt>
</event>
<event>
12    6  0.1450532E-007  0.1948883E+04  0.7818608E-02  0.8630900E-01
          2   -1    0    0  501    0  0.00000000000E+00  0.00000000000E+00  0.14335211101E+04  0.14335211101E+04  0.00000000000E+00 0. -1.
         -1   -1    0    0    0  501 -0.00000000000E+00 -0.00000000000E+00 -0.66238028437E+03  0.66238028437E+03  0.00000000000E+00 0.  1.
         24    2    1    2    0    0 -0.30149859947E+03 -0.66087855921E+03  0.46088966873E+02  0.73219812816E+03  0.79548918943E+02 0.  0.
        254    2    1    2    0    0  0.30149859947E+03  0.66087855921E+03  0.72505185890E+03  0.13637032664E+04  0.89795574783E+03 0.  0.
         23    2    4    4    0    0  0.29203821351E+03  0.85947293167E+03  0.68337828179E+03  0.11400825353E+04  0.93820428504E+02 0.  0.
         23    2    4    4    0    0  0.94603859634E+01 -0.19859437246E+03  0.41673577105E+02  0.22362073107E+03  0.93489682112E+02 0.  0.
          4    1    3    3  502    0 -0.22412988040E+03 -0.55494878835E+03  0.52988640022E+02  0.60084120776E+03  0.00000000000E+00 0. -1.
         -3    1    3    3    0  502 -0.77368719075E+02 -0.10592977086E+03 -0.68996731483E+01  0.13135692040E+03  0.00000000000E+00 0.  1.
         11    1    5    5    0    0  0.18473322493E+03  0.43511386665E+03  0.39381911401E+03  0.61525924285E+03  0.00000000000E+00 0. -1.
        -11    1    5    5    0    0  0.10730498858E+03  0.42435906502E+03  0.28955916778E+03  0.52482329243E+03  0.00000000000E+00 0.  1.
          3    1    6    6  503    0 -0.30410887807E+01 -0.18971395626E+03  0.60674843823E+02  0.19920358956E+03  0.00000000000E+00 0. -1.
         -3    1    6    6    0  503  0.12501474744E+02 -0.88804161963E+01 -0.19001266718E+02  0.24417141509E+02  0.00000000000E+00 0.  1.
<mgrwt>
<rscale>  0 0.19488829E+04</rscale>
<asrwt>0</asrwt>
<pdfrwt beam="1">  1        2 0.22054171E+00 0.19488829E+04</pdfrwt>
<pdfrwt beam="2">  1       -1 0.10190466E+00 0.19488829E+04</pdfrwt>
<totfact> 0.13433748E+01</totfact>
</mgrwt>
</event>
<event>
12    6  0.1450532E-007  0.1800669E+04  0.7818608E-02  0.8705944E-01
          2   -1    0    0  501    0  0.00000000000E+00  0.00000000000E+00  0.76620239568E+03  0.76620239568E+03  0.00000000000E+00 0. -1.
         -1   -1    0    0    0  501 -0.00000000000E+00 -0.00000000000E+00 -0.10579474352E+04  0.10579474352E+04  0.00000000000E+00 0.  1.
         24    2    1    2    0    0 -0.17257714109E+03  0.19294729245E+02 -0.76968419643E+03  0.79296705692E+03  0.78916632727E+02 0.  0.
        254    2    1    2    0    0  0.17257714109E+03 -0.19294729245E+02  0.47793915692E+03  0.10311827740E+04  0.89708244850E+03 0.  0.
         23    2    4    4    0    0  0.51277889916E+02  0.87494672790E+02 -0.24779167148E+03  0.28253563348E+03  0.90227113268E+02 0.  0.
         23    2    4    4    0    0  0.12129925117E+03 -0.10678940204E+03  0.72573082840E+03  0.74864714049E+03  0.87577513962E+02 0.  0.
          4    1    3    3  502    0 -0.33576002822E+00  0.10133992108E+02 -0.11157545198E+02  0.15076516364E+02  0.00000000000E+00 0. -1.
         -3    1    3    3    0  502 -0.17224138106E+03  0.91607371374E+01 -0.75852665124E+03  0.77789054056E+03  0.00000000000E+00 0.  1.
         11    1    5    5    0    0 -0.33144284355E+01  0.42602816674E+02 -0.17854626243E+03  0.18358854336E+03  0.00000000000E+00 0.  1.
        -11    1    5    5    0    0  0.54592318352E+02  0.44891856116E+02 -0.69245409047E+02  0.98947090117E+02  0.00000000000E+00 0. -1.
          3    1    6    6  503    0  0.48315797932E+02 -0.99123162278E+02  0.45075935881E+03  0.46405152427E+03  0.00000000000E+00 0. -1.
         -3    1    6    6    0  503  0.72983453238E+02 -0.76662397577E+01  0.27497146959E+03  0.28459561621E+03  0.00000000000E+00 0.  1.
<mgrwt>
<rscale>  0 0.18006686E+04</rscale>
<asrwt>0</asrwt>
<pdfrwt beam="1">  1        2 0.11787729E+00 0.18006686E+04</pdfrwt>
<pdfrwt beam="2">  1       -1 0.16276114E+00 0.18006686E+04</pdfrwt>
<totfact> 0.10947239E+01</totfact>
</mgrwt>
</event>
<event>
12    6  0.1450532E-007  0.1499420E+04  0.7818608E-02  0.8884839E-01
         -1   -1    0    0    0  501 -0.00000000000E+00  0.00000000000E+00  0.51764562435E+03  0.51764562435E+03  0.00000000000E+00 0.  1.
          2   -1    0    0  501    0  0.00000000000E+00 -0.00000000000E+00 -0.10858105238E+04  0.10858105238E+04  0.00000000000E+00 0. -1.
         24    2    1    2    0    0  0.17122426802E+03 -0.32881314908E+03  0.15789722518E+03  0.41072165946E+03  0.79529308223E+02 0.  0.
        254    2    1    2    0    0 -0.17122426802E+03  0.32881314908E+03 -0.72606212458E+03  0.11927344886E+04  0.87063971578E+03 0.  0.
         23    2    4    4    0    0 -0.50534718804E+03  0.12465646000E+03 -0.30148408587E+03  0.60787627546E+03  0.87783248672E+02 0.  0.
         23    2    4    4    0    0  0.33412292002E+03  0.20415668908E+03 -0.42457803870E+03  0.58485821319E+03  0.92057260483E+02 0.  0.
          2    1    3    3  502    0  0.11785982116E+03 -0.24129494896E+03  0.15076790714E+03  0.30796940052E+03  0.00000000000E+00 0. -1.
         -1    1    3    3    0  502  0.53364446856E+02 -0.87518200121E+02  0.71293180375E+01  0.10275225894E+03  0.00000000000E+00 0.  1.
         11    1    5    5    0    0 -0.50624203548E+03  0.11937428931E+03 -0.30344512966E+03  0.60217121000E+03  0.00000000000E+00 0. -1.
        -11    1    5    5    0    0  0.89484744035E+00  0.52821706939E+01  0.19610437841E+01  0.57050654602E+01  0.00000000000E+00 0.  1.
          3    1    6    6  503    0  0.30381943031E+03  0.18362187396E+03 -0.41670054915E+03  0.54741445587E+03  0.00000000000E+00 0. -1.
         -3    1    6    6    0  503  0.30303489717E+02  0.20534815117E+02 -0.78774895518E+01  0.37443757324E+02  0.00000000000E+00 0.  1.
<mgrwt>
<rscale>  0 0.14994200E+04</rscale>
<asrwt>0</asrwt>
<pdfrwt beam="1">  1        2 0.16704777E+00 0.14994200E+04</pdfrwt>
<pdfrwt beam="2">  1       -1 0.79637789E-01 0.14994200E+04</pdfrwt>
<totfact> 0.38598420E+01</totfact>
</mgrwt>
</event>
<event>
12    6  0.1450532E-007  0.1407848E+04  0.7818608E-02  0.8948157E-01
          2   -1    0    0  501    0  0.00000000000E+00  0.00000000000E+00  0.37566367723E+03  0.37566367723E+03  0.00000000000E+00 0. -1.
         -1   -1    0    0    0  501 -0.00000000000E+00 -0.00000000000E+00 -0.13190230002E+04  0.13190230002E+04  0.00000000000E+00 0.  1.
         24    2    1    2    0    0  0.40411064660E+03  0.26536591421E+01 -0.46343788800E+03  0.61954009046E+03  0.75781205161E+02 0.  0.
        254    2    1    2    0    0 -0.40411064660E+03 -0.26536591421E+01 -0.47992143497E+03  0.10751465870E+04  0.87309973262E+03 0.  0.
         23    2    4    4    0    0 -0.25865089192E+03  0.37920555208E+03 -0.41037092033E+02  0.46879955059E+03  0.85975816882E+02 0.  0.
         23    2    4    4    0    0 -0.14545975468E+03 -0.38185921122E+03 -0.43888434294E+03  0.60634703637E+03  0.89790114262E+02 0.  0.
          4    1    3    3  502    0  0.18416824607E+03  0.71222272142E+01 -0.15576991409E+03  0.24131501221E+03  0.00000000000E+00 0. -1.
         -3    1    3    3    0  502  0.21994240053E+03 -0.44685680721E+01 -0.30766797391E+03  0.37822507826E+03  0.00000000000E+00 0.  1.
         11    1    5    5    0    0 -0.25317050641E+03  0.32734880052E+03 -0.46206776716E+02  0.41639837744E+03  0.00000000000E+00 0. -1.
        -11    1    5    5    0    0 -0.54803855101E+01  0.51856751562E+02  0.51696846825E+01  0.52401173151E+02  0.00000000000E+00 0.  1.
          2    1    6    6  503    0 -0.83989016045E+02 -0.26590348796E+03 -0.23917488488E+03  0.36737371338E+03  0.00000000000E+00 0. -1.
         -2    1    6    6    0  503 -0.61470738632E+02 -0.11595572326E+03 -0.19970945806E+03  0.23897332299E+03  0.00000000000E+00 0.  1.
<mgrwt>
<rscale>  0 0.14078480E+04</rscale>
<asrwt>0</asrwt>
<pdfrwt beam="1">  1        2 0.57794411E-01 0.14078480E+04</pdfrwt>
<pdfrwt beam="2">  1       -1 0.20292662E+00 0.14078480E+04</pdfrwt>
<totfact> 0.13651465E+01</totfact>
</mgrwt>
</event>
<event>
12    6  0.1450532E-007  0.2263447E+04  0.7818608E-02  0.8492475E-01
          2   -1    0    0  501    0  0.00000000000E+00  0.00000000000E+00  0.76254695504E+03  0.76254695504E+03  0.00000000000E+00 0. -1.
         -1   -1    0    0    0  501 -0.00000000000E+00 -0.00000000000E+00 -0.16796312797E+04  0.16796312797E+04  0.00000000000E+00 0.  1.
         24    2    1    2    0    0 -0.11428026967E+02  0.90243561761E+03 -0.68451875999E+02  0.90873734646E+03  0.81223529819E+02 0.  0.
        254    2    1    2    0    0  0.11428026967E+02 -0.90243561761E+03 -0.84863244864E+03  0.15334408883E+04  0.90373850266E+03 0.  0.
         23    2    4    4    0    0 -0.14723257458E+03 -0.24398142634E+03 -0.79354060686E+03  0.84812200582E+03  0.91650829861E+02 0.  0.
         23    2    4    4    0    0  0.15866060154E+03 -0.65845419126E+03 -0.55091841785E+02  0.68531888244E+03  0.88835528495E+02 0.  0.
          4    1    3    3  502    0 -0.31402617093E+02  0.82489007635E+03 -0.71692903888E+02  0.82859497638E+03  0.00000000000E+00 0. -1.
         -3    1    3    3    0  502  0.19974590126E+02  0.77545541260E+02  0.32410278885E+01  0.80142370079E+02  0.00000000000E+00 0.  1.
         11    1    5    5    0    0 -0.33704572549E+02 -0.12246464768E+03 -0.26183991360E+03  0.29102186944E+03  0.00000000000E+00 0.  1.
        -11    1    5    5    0    0 -0.11352800203E+03 -0.12151677866E+03 -0.53170069326E+03  0.55710013638E+03  0.00000000000E+00 0. -1.
          1    1    6    6  503    0  0.12820731582E+03 -0.34681333428E+03 -0.21092659777E+02  0.37035321649E+03  0.00000000000E+00 0. -1.
         -1    1    6    6    0  503  0.30453285720E+02 -0.31164085698E+03 -0.33999182008E+02  0.31496566595E+03  0.00000000000E+00 0.  1.
<mgrwt>
<rscale>  0 0.22634467E+04</rscale>
<asrwt>0</asrwt>
<pdfrwt beam="1">  1        2 0.11731492E+00 0.22634467E+04</pdfrwt>
<pdfrwt beam="2">  1       -1 0.25840481E+00 0.22634467E+04</pdfrwt>
<totfact> 0.23397171E+00</totfact>
</mgrwt>
</event>
<event>
12    6  0.1450532E-007  0.1851919E+04  0.7818608E-02  0.8679167E-01
         -1   -1    0    0    0  501 -0.00000000000E+00  0.00000000000E+00  0.40718981496E+03  0.40718981496E+03  0.00000000000E+00 0.  1.
          2   -1    0    0  501    0  0.00000000000E+00 -0.00000000000E+00 -0.21056532417E+04  0.21056532417E+04  0.00000000000E+00 0. -1.
         24    2    1    2    0    0  0.55144884881E+03 -0.44477723349E+03 -0.64806718499E+03  0.96358927930E+03  0.81182526672E+02 0.  0.
        254    2    1    2    0    0 -0.55144884881E+03  0.44477723349E+03 -0.10503962418E+04  0.15492537774E+04  0.89158980573E+03 0.  0.
         23    2    4    4    0    0 -0.34392826105E+03 -0.22947795992E+03 -0.45547212872E+03  0.62194985729E+03  0.91760460405E+02 0.  0.
         23    2    4    4    0    0 -0.20752058776E+03  0.67425519341E+03 -0.59492411303E+03  0.92730392008E+03  0.90956031876E+02 0.  0.
          2    1    3    3  502    0  0.54015303818E+03 -0.41500570277E+03 -0.61594426324E+03  0.91835852117E+03  0.00000000000E+00 0. -1.
         -3    1    3    3    0  502  0.11295810629E+02 -0.29771530725E+02 -0.32122921747E+02  0.45230758130E+02  0.00000000000E+00 0.  1.
         11    1    5    5    0    0 -0.86766022668E+02 -0.70879946224E+02 -0.18582380325E+03  0.21698570303E+03  0.00000000000E+00 0.  1.
        -11    1    5    5    0    0 -0.25716223839E+03 -0.15859801370E+03 -0.26964832548E+03  0.40496415426E+03  0.00000000000E+00 0. -1.
          4    1    6    6  503    0 -0.16347707867E+02  0.18954972994E+03 -0.15693795562E+03  0.24662901205E+03  0.00000000000E+00 0. -1.
         -4    1    6    6    0  503 -0.19117287989E+03  0.48470546347E+03 -0.43798615741E+03  0.68067490802E+03  0.00000000000E+00 0.  1.
<mgrwt>
<rscale>  0 0.18519185E+04</rscale>
<asrwt>0</asrwt>
<pdfrwt beam="1">  1        2 0.32394665E+00 0.18519185E+04</pdfrwt>
<pdfrwt beam="2">  1       -1 0.62644588E-01 0.18519185E+04</pdfrwt>
<totfact> 0.16141626E+01</totfact>
</mgrwt>
</event>
<event>
12    6  0.1450532E-007  0.1833815E+04  0.7818608E-02  0.8688521E-01
         -1   -1    0    0    0  501 -0.00000000000E+00  0.00000000000E+00  0.10395611884E+04  0.10395611884E+04  0.00000000000E+00 0.  1.
          2   -1    0    0  501    0  0.00000000000E+00 -0.00000000000E+00 -0.80872504805E+03  0.80872504805E+03  0.00000000000E+00 0. -1.
         24    2    1    2    0    0  0.67099716156E+03 -0.13937449729E+03  0.19681096107E+03  0.71741850110E+03  0.79324082199E+02 0.  0.
        254    2    1    2    0    0 -0.67099716156E+03  0.13937449729E+03  0.34025179312E+02  0.11308677354E+04  0.89891138651E+03 0.  0.
         23    2    4    4    0    0 -0.31772640836E+03 -0.36060667432E+03  0.12603695542E+03  0.50501846209E+03  0.90394074986E+02 0.  0.
         23    2    4    4    0    0 -0.35327075320E+03  0.49998117161E+03 -0.92011776105E+02  0.62584927329E+03  0.91868106049E+02 0.  0.
          2    1    3    3  502    0  0.97486656071E+02 -0.48513372070E+02  0.39368281401E+02  0.11578884645E+03  0.00000000000E+00 0. -1.
         -1    1    3    3    0  502  0.57351050549E+03 -0.90861125217E+02  0.15744267967E+03  0.60162965465E+03  0.00000000000E+00 0.  1.
         11    1    5    5    0    0 -0.25944218421E+02 -0.12672979953E+01  0.98069374428E+01  0.27764807503E+02  0.00000000000E+00 0. -1.
        -11    1    5    5    0    0 -0.29178218994E+03 -0.35933937632E+03  0.11623001797E+03  0.47725365459E+03  0.00000000000E+00 0.  1.
          1    1    6    6  503    0 -0.26653515978E+03  0.34722367065E+03 -0.27064733982E+02  0.43856330066E+03  0.00000000000E+00 0. -1.
         -1    1    6    6    0  503 -0.86735593418E+02  0.15275750095E+03 -0.64947042123E+02  0.18728597263E+03  0.00000000000E+00 0.  1.
<mgrwt>
<rscale>  0 0.18338148E+04</rscale>
<asrwt>0</asrwt>
<pdfrwt beam="1">  1        2 0.12441924E+00 0.18338148E+04</pdfrwt>
<pdfrwt beam="2">  1       -1 0.15993249E+00 0.18338148E+04</pdfrwt>
<totfact> 0.10675380E+01</totfact>
</mgrwt>
</event>
<event>
12    6  0.1450532E-007  0.1811214E+04  0.7818608E-02  0.8700359E-01
          2   -1    0    0  501    0  0.00000000000E+00  0.00000000000E+00  0.18565331941E+04  0.18565331941E+04  0.00000000000E+00 0. -1.
         -1   -1    0    0    0  501 -0.00000000000E+00 -0.00000000000E+00 -0.44175013126E+03  0.44175013126E+03  0.00000000000E+00 0.  1.
         24    2    1    2    0    0 -0.33510848037E+02  0.22500128825E+03 -0.27412787338E+03  0.36495480294E+03  0.79355910806E+02 0.  0.
        254    2    1    2    0    0  0.33510848037E+02 -0.22500128825E+03  0.16889109362E+04  0.19333285224E+04  0.91301175702E+03 0.  0.
         23    2    4    4    0    0 -0.21363179578E+03  0.20377929535E+03  0.21577625723E+03  0.37650676186E+03  0.89629253954E+02 0.  0.
         23    2    4    4    0    0  0.24714264382E+03 -0.42878058360E+03  0.14731346789E+04  0.15568217605E+04  0.92929739239E+02 0.  0.
          4    1    3    3  502    0 -0.22218355859E+02  0.94734707504E+01 -0.18643855597E+02  0.30512216188E+02  0.00000000000E+00 0. -1.
         -3    1    3    3    0  502 -0.11292492177E+02  0.21552781750E+03 -0.25548401778E+03  0.33444258676E+03  0.00000000000E+00 0.  1.
         11    1    5    5    0    0 -0.17576474409E+03  0.12771477302E+03  0.11899135521E+03  0.24771606958E+03  0.00000000000E+00 0.  1.
        -11    1    5    5    0    0 -0.37867051690E+02  0.76064522333E+02  0.96784902014E+02  0.12879069228E+03  0.00000000000E+00 0. -1.
          1    1    6    6  503    0  0.86771316393E+02 -0.78480701885E+02  0.29799507344E+03  0.32013988460E+03  0.00000000000E+00 0. -1.
         -1    1    6    6    0  503  0.16037132742E+03 -0.35029988171E+03  0.11751396055E+04  0.12366818759E+04  0.00000000000E+00 0.  1.
<mgrwt>
<rscale>  0 0.18112137E+04</rscale>
<asrwt>0</asrwt>
<pdfrwt beam="1">  1        2 0.28562049E+00 0.18112137E+04</pdfrwt>
<pdfrwt beam="2">  1       -1 0.67961559E-01 0.18112137E+04</pdfrwt>
<totfact> 0.18902072E+01</totfact>
</mgrwt>
</event>
<event>
12    6  0.1450532E-007  0.1397412E+04  0.7818608E-02  0.8955694E-01
          2   -1    0    0  501    0  0.00000000000E+00  0.00000000000E+00  0.11222080205E+04  0.11222080205E+04  0.00000000000E+00 0. -1.
         -1   -1    0    0    0  501 -0.00000000000E+00 -0.00000000000E+00 -0.43502653802E+03  0.43502653802E+03  0.00000000000E+00 0.  1.
         24    2    1    2    0    0 -0.14815626831E+03  0.96064322676E+02 -0.20358113739E+03  0.27981843182E+03  0.75328887916E+02 0.  0.
        254    2    1    2    0    0  0.14815626831E+03 -0.96064322676E+02  0.89076261990E+03  0.12774161267E+04  0.89841821101E+03 0.  0.
         23    2    4    4    0    0 -0.29528999410E+03 -0.14439827677E+03  0.88762676454E+02  0.35511651865E+03  0.10090533254E+03 0.  0.
         23    2    4    4    0    0  0.44344626241E+03  0.48333954095E+02  0.80199994344E+03  0.92229960808E+03  0.91934210244E+02 0.  0.
          4    1    3    3  502    0 -0.17121187317E+02 -0.40686906929E+01  0.28532289914E+00  0.17600304209E+02  0.00000000000E+00 0. -1.
         -3    1    3    3    0  502 -0.13103508099E+03  0.10013301337E+03 -0.20386646029E+03  0.26221812761E+03  0.00000000000E+00 0.  1.
         11    1    5    5    0    0 -0.21651354130E+03 -0.90361035313E+02  0.16233495014E+02  0.23517388594E+03  0.00000000000E+00 0.  1.
        -11    1    5    5    0    0 -0.78776452802E+02 -0.54037241458E+02  0.72529181440E+02  0.11994263271E+03  0.00000000000E+00 0. -1.
          2    1    6    6  503    0  0.10623133561E+03  0.11720774865E+02  0.28072693012E+03  0.30038322610E+03  0.00000000000E+00 0. -1.
         -2    1    6    6    0  503  0.33721492680E+03  0.36613179230E+02  0.52127301332E+03  0.62191638198E+03  0.00000000000E+00 0.  1.
<mgrwt>
<rscale>  0 0.13974123E+04</rscale>
<asrwt>0</asrwt>
<pdfrwt beam="1">  1        2 0.17264739E+00 0.13974123E+04</pdfrwt>
<pdfrwt beam="2">  1       -1 0.66927160E-01 0.13974123E+04</pdfrwt>
<totfact> 0.53013404E+01</totfact>
</mgrwt>
</event>
<event>
12    6  0.1450532E-007  0.1838624E+04  0.7818608E-02  0.8686025E-01
          2   -1    0    0  501    0  0.00000000000E+00  0.00000000000E+00  0.26681862006E+04  0.26681862006E+04  0.00000000000E+00 0. -1.
         -1   -1    0    0    0  501 -0.00000000000E+00 -0.00000000000E+00 -0.31674506562E+03  0.31674506562E+03  0.00000000000E+00 0.  1.
         24    2    1    2    0    0  0.37940302257E+03 -0.64629149414E+02  0.18337978494E+04  0.18754666206E+04  0.80230367750E+02 0.  0.
        254    2    1    2    0    0 -0.37940302257E+03  0.64629149414E+02  0.51764328554E+03  0.11094646456E+04  0.90268136588E+03 0.  0.
         23    2    4    4    0    0 -0.58370811249E+03 -0.35269984429E+02  0.67419016289E+02  0.59575771865E+03  0.91775831159E+02 0.  0.
         23    2    4    4    0    0  0.20430508992E+03  0.99899133843E+02  0.45022426925E+03  0.51370692696E+03  0.97326807625E+02 0.  0.
          4    1    3    3  502    0  0.18033481667E+03 -0.59690656560E+01  0.10058534291E+04  0.10219087027E+04  0.00000000000E+00 0. -1.
         -3    1    3    3    0  502  0.19906820589E+03 -0.58660083758E+02  0.82794442030E+03  0.85355791785E+03  0.00000000000E+00 0.  1.
         11    1    5    5    0    0 -0.22965218327E+03  0.27546327102E+02  0.91269131212E+01  0.23147834880E+03  0.00000000000E+00 0. -1.
        -11    1    5    5    0    0 -0.35405592921E+03 -0.62816311532E+02  0.58292103168E+02  0.36427936985E+03  0.00000000000E+00 0.  1.
          1    1    6    6  503    0  0.11843737409E+03  0.13419647704E+02  0.16510918548E+03  0.20363826177E+03  0.00000000000E+00 0. -1.
         -1    1    6    6    0  503  0.85867715827E+02  0.86479486139E+02  0.28511508377E+03  0.31006866520E+03  0.00000000000E+00 0.  1.
<mgrwt>
<rscale>  0 0.18386243E+04</rscale>
<asrwt>0</asrwt>
<pdfrwt beam="1">  1        2 0.41049017E+00 0.18386243E+04</pdfrwt>
<pdfrwt beam="2">  1       -1 0.48730012E-01 0.18386243E+04</pdfrwt>
<totfact> 0.12549344E+01</totfact>
</mgrwt>
</event>
<event>
12    6  0.1450532E-007  0.1588263E+04  0.7818608E-02  0.8827791E-01
         -1   -1    0    0    0  501 -0.00000000000E+00  0.00000000000E+00  0.11671095568E+04  0.11671095568E+04  0.00000000000E+00 0.  1.
          2   -1    0    0  501    0  0.00000000000E+00 -0.00000000000E+00 -0.54034784997E+03  0.54034784997E+03  0.00000000000E+00 0. -1.
         24    2    1    2    0    0 -0.24669101301E+03  0.46919049887E+03  0.26980576147E+03  0.59983570307E+03  0.77534131960E+02 0.  0.
        254    2    1    2    0    0  0.24669101301E+03 -0.46919049887E+03  0.35695594538E+03  0.11076217037E+04  0.90466132418E+03 0.  0.
         23    2    4    4    0    0 -0.17620969143E+03  0.29091924500E+02  0.39950056543E+03  0.44620315943E+03  0.87180056635E+02 0.  0.
         23    2    4    4    0    0  0.42290070444E+03 -0.49828242337E+03 -0.42544620053E+02  0.66141854429E+03  0.92380012885E+02 0.  0.
          4    1    3    3  502    0 -0.16969192715E+03  0.32277522106E+03  0.14425177199E+03  0.39215783454E+03  0.00000000000E+00 0. -1.
         -3    1    3    3    0  502 -0.76999085860E+02  0.14641527781E+03  0.12555398949E+03  0.20767786853E+03  0.00000000000E+00 0.  1.
         11    1    5    5    0    0 -0.15629895191E+03  0.52557100054E+02  0.36127910519E+03  0.39713247536E+03  0.00000000000E+00 0. -1.
        -11    1    5    5    0    0 -0.19910739522E+02 -0.23465175554E+02  0.38221460239E+02  0.49070684068E+02  0.00000000000E+00 0.  1.
          1    1    6    6  503    0  0.64256851010E+02 -0.13519817070E+03 -0.11096612169E+02  0.15010204217E+03  0.00000000000E+00 0. -1.
         -1    1    6    6    0  503  0.35864385343E+03 -0.36308425267E+03 -0.31448007883E+02  0.51131650212E+03  0.00000000000E+00 0.  1.
<mgrwt>
<rscale>  0 0.15882634E+04</rscale>
<asrwt>0</asrwt>
<pdfrwt beam="1">  1        2 0.83130439E-01 0.15882634E+04</pdfrwt>
<pdfrwt beam="2">  1       -1 0.17955532E+00 0.15882634E+04</pdfrwt>
<totfact> 0.12927071E+01</totfact>
</mgrwt>
</event>
<event>
12    6  0.1450532E-007  0.1957314E+04  0.7818608E-02  0.8626842E-01
         -1   -1    0    0    0  501 -0.00000000000E+00  0.00000000000E+00  0.50634502182E+03  0.50634502182E+03  0.00000000000E+00 0.  1.
          2   -1    0    0  501    0  0.00000000000E+00 -0.00000000000E+00 -0.18915361379E+04  0.18915361379E+04  0.00000000000E+00 0. -1.
         24    2    1    2    0    0  0.20542543412E+03 -0.34917334017E+03 -0.13308244516E+04  0.13933324470E+04  0.78485389174E+02 0.  0.
        254    2    1    2    0    0 -0.20542543412E+03  0.34917334017E+03 -0.54366664454E+02  0.10045487127E+04  0.91762778487E+03 0.  0.
         23    2    4    4    0    0  0.15451171415E+03  0.87766195890E+02 -0.39018401207E+03  0.43999565944E+03  0.98872858276E+02 0.  0.
         23    2    4    4    0    0 -0.35993714827E+03  0.26140714428E+03  0.33581734762E+03  0.56455305328E+03  0.89768665089E+02 0.  0.
          2    1    3    3  502    0  0.17626075752E+03 -0.23268021779E+03 -0.90623033319E+03  0.95208264094E+03  0.00000000000E+00 0. -1.
         -1    1    3    3    0  502  0.29164676598E+02 -0.11649312238E+03 -0.42459411846E+03  0.44124980607E+03  0.00000000000E+00 0.  1.
         11    1    5    5    0    0  0.87713988581E+01 -0.59308081145E+01 -0.11041206550E+03  0.11091860137E+03  0.00000000000E+00 0. -1.
        -11    1    5    5    0    0  0.14574031529E+03  0.93697004005E+02 -0.27977194657E+03  0.32907705807E+03  0.00000000000E+00 0.  1.
          1    1    6    6  503    0 -0.16045018294E+03  0.16726806869E+03  0.19456278132E+03  0.30261781818E+03  0.00000000000E+00 0. -1.
         -1    1    6    6    0  503 -0.19948696532E+03  0.94139075593E+02  0.14125456630E+03  0.26193523510E+03  0.00000000000E+00 0.  1.
<mgrwt>
<rscale>  0 0.19573144E+04</rscale>
<asrwt>0</asrwt>
<pdfrwt beam="1">  1        2 0.29100556E+00 0.19573144E+04</pdfrwt>
<pdfrwt beam="2">  1       -1 0.77899234E-01 0.19573144E+04</pdfrwt>
<totfact> 0.13450082E+01</totfact>
</mgrwt>
</event>
<event>
12    6  0.1450532E-007  0.3465639E+04  0.7818608E-02  0.8121982E-01
         -1   -1    0    0    0  501 -0.00000000000E+00  0.00000000000E+00  0.77541988726E+03  0.77541988726E+03  0.00000000000E+00 0.  1.
          2   -1    0    0  501    0  0.00000000000E+00 -0.00000000000E+00 -0.38723063224E+04  0.38723063224E+04  0.00000000000E+00 0. -1.
         24    2    1    2    0    0 -0.15088290589E+04  0.15057582458E+03 -0.70206518432E+03  0.16727817976E+04  0.77879467320E+02 0.  0.
        254    2    1    2    0    0  0.15088290589E+04 -0.15057582458E+03 -0.23948212508E+04  0.29749444121E+04  0.90326475847E+03 0.  0.
         23    2    4    4    0    0  0.25307618767E+03 -0.38285129585E+03 -0.83300769340E+03  0.95533237513E+03  0.90196774956E+02 0.  0.
         23    2    4    4    0    0  0.12557528712E+04  0.23227547127E+03 -0.15618135574E+04  0.20196120369E+04  0.93295357099E+02 0.  0.
          4    1    3    3  502    0 -0.14185821063E+04  0.15513086710E+03 -0.67370113242E+03  0.15780728735E+04  0.00000000000E+00 0. -1.
         -3    1    3    3    0  502 -0.90246952548E+02 -0.45550425173E+01 -0.28364051903E+02  0.94708924062E+02  0.00000000000E+00 0.  1.
         11    1    5    5    0    0  0.45809245140E+02 -0.11524128981E+03 -0.16443023709E+03  0.20595228740E+03  0.00000000000E+00 0.  1.
        -11    1    5    5    0    0  0.20726694253E+03 -0.26761000604E+03 -0.66857745631E+03  0.74938008773E+03  0.00000000000E+00 0. -1.
          1    1    6    6  503    0  0.82849847195E+03  0.19761423000E+03 -0.10480921613E+04  0.13505399959E+04  0.00000000000E+00 0. -1.
         -1    1    6    6    0  503  0.42725439923E+03  0.34661241277E+02 -0.51372139610E+03  0.66907204105E+03  0.00000000000E+00 0.  1.
<mgrwt>
<rscale>  0 0.34656389E+04</rscale>
<asrwt>0</asrwt>
<pdfrwt beam="1">  1        2 0.59573944E+00 0.34656389E+04</pdfrwt>
<pdfrwt beam="2">  1       -1 0.11929537E+00 0.34656389E+04</pdfrwt>
<totfact> 0.25323338E-01</totfact>
</mgrwt>
</event>
<event>
12    6  0.1850252E-007  0.1538485E+04  0.7818608E-02  0.8859257E-01
          2   -1    0    0  501    0  0.00000000000E+00  0.00000000000E+00  0.12645214130E+04  0.12645214130E+04  0.00000000000E+00 0. -1.
         -1   -1    0    0    0  501 -0.00000000000E+00 -0.00000000000E+00 -0.46795085748E+03  0.46795085748E+03  0.00000000000E+00 0.  1.
         24    2    1    2    0    0  0.25111563627E+03  0.12825547077E+02 -0.22749824891E+03  0.34866841774E+03  0.81182848145E+02 0.  0.
        254    2    1    2    0    0 -0.25111563627E+03 -0.12825547077E+02  0.10240688045E+04  0.13838038528E+04  0.89608740046E+03 0.  0.
         23    2    4    4    0    0 -0.15031418447E+02 -0.40132361709E+02 -0.15192425535E+03  0.18102014854E+03  0.88604541740E+02 0.  0.
         23    2    4    4    0    0 -0.23608421782E+03  0.27306814632E+02  0.11759930598E+04  0.12027837043E+04  0.85132499302E+02 0.  0.
          2    1    3    3  502    0  0.22688551509E+02 -0.59186038584E+01 -0.61084770018E+02  0.65430492657E+02  0.00000000000E+00 0. -1.
         -1    1    3    3    0  502  0.22842708476E+03  0.18744150935E+02 -0.16641347889E+03  0.28323792508E+03  0.00000000000E+00 0.  1.
         11    1    5    5    0    0  0.20008650853E+02 -0.39845290490E+02 -0.13487040559E+03  0.14204935617E+03  0.00000000000E+00 0. -1.
        -11    1    5    5    0    0 -0.35040069300E+02 -0.28707121972E+00 -0.17053849754E+02  0.38970792369E+02  0.00000000000E+00 0.  1.
          4    1    6    6  503    0 -0.20416133634E+03  0.50711311654E+02  0.91970194976E+03  0.94345384878E+03  0.00000000000E+00 0. -1.
         -4    1    6    6    0  503 -0.31922881485E+02 -0.23404497022E+02  0.25629111006E+03  0.25932985547E+03  0.00000000000E+00 0.  1.
<mgrwt>
<rscale>  0 0.15384848E+04</rscale>
<asrwt>0</asrwt>
<pdfrwt beam="1">  1        2 0.19454175E+00 0.15384848E+04</pdfrwt>
<pdfrwt beam="2">  1       -1 0.71992440E-01 0.15384848E+04</pdfrwt>
<totfact> 0.37089865E+01</totfact>
</mgrwt>
</event>
<event>
12    6  0.1450532E-007  0.1810363E+04  0.7818608E-02  0.8700808E-01
          2   -1    0    0  501    0  0.00000000000E+00  0.00000000000E+00  0.34579511908E+04  0.34579511908E+04  0.00000000000E+00 0. -1.
         -1   -1    0    0    0  501 -0.00000000000E+00 -0.00000000000E+00 -0.23694768119E+03  0.23694768119E+03  0.00000000000E+00 0.  1.
         24    2    1    2    0    0 -0.54886000682E+03  0.32386427398E+03  0.82203796830E+03  0.10430455573E+04  0.77860376153E+02 0.  0.
        254    2    1    2    0    0  0.54886000682E+03 -0.32386427398E+03  0.23989655413E+04  0.26518533147E+04  0.93335682317E+03 0.  0.
         23    2    4    4    0    0 -0.15567581097E+03  0.14128574998E+02  0.67554175788E+02  0.19123079306E+03  0.87011923299E+02 0.  0.
         23    2    4    4    0    0  0.70453581779E+03 -0.33799284898E+03  0.23314113655E+04  0.24606225217E+04  0.92597809326E+02 0.  0.
          4    1    3    3  502    0 -0.32585800563E+02  0.16836932855E+02  0.82612344520E+02  0.90388694942E+02  0.00000000000E+00 0. -1.
         -3    1    3    3    0  502 -0.51627420626E+03  0.30702734113E+03  0.73942562379E+03  0.95265686234E+03  0.00000000000E+00 0.  1.
         11    1    5    5    0    0 -0.92207992609E+02  0.50369683600E+02  0.31205421498E+02  0.10960473191E+03  0.00000000000E+00 0. -1.
        -11    1    5    5    0    0 -0.63467818362E+02 -0.36241108602E+02  0.36348754290E+02  0.81626061149E+02  0.00000000000E+00 0.  1.
          1    1    6    6  503    0  0.59681086267E+03 -0.30105682848E+03  0.20762874478E+04  0.21812354265E+04  0.00000000000E+00 0. -1.
         -1    1    6    6    0  503  0.10772495512E+03 -0.36936020503E+02  0.25512391772E+03  0.27938709519E+03  0.00000000000E+00 0.  1.
<mgrwt>
<rscale>  0 0.18103630E+04</rscale>
<asrwt>0</asrwt>
<pdfrwt beam="1">  1        2 0.53199245E+00 0.18103630E+04</pdfrwt>
<pdfrwt beam="2">  1       -1 0.36453492E-01 0.18103630E+04</pdfrwt>
<totfact> 0.67871774E+00</totfact>
</mgrwt>
</event>
<event>
12    6  0.1450532E-007  0.2131219E+04  0.7818608E-02  0.8547615E-01
         -1   -1    0    0    0  501 -0.00000000000E+00  0.00000000000E+00  0.96712059106E+03  0.96712059106E+03  0.00000000000E+00 0.  1.
          2   -1    0    0  501    0  0.00000000000E+00 -0.00000000000E+00 -0.11741278191E+04  0.11741278191E+04  0.00000000000E+00 0. -1.
         24    2    1    2    0    0 -0.33728154217E+03  0.67023181960E+03 -0.53681812700E+03  0.92600861054E+03  0.79678821721E+02 0.  0.
        254    2    1    2    0    0  0.33728154217E+03 -0.67023181960E+03  0.32981089893E+03  0.12152397996E+04  0.89725303616E+03 0.  0.
         23    2    4    4    0    0 -0.21512099009E+02 -0.24179353204E+03  0.54963141909E+03  0.60780041948E+03  0.91650262036E+02 0.  0.
         23    2    4    4    0    0  0.35879364118E+03 -0.42843828756E+03 -0.21982052016E+03  0.60743938016E+03  0.91483858107E+02 0.  0.
          2    1    3    3  502    0 -0.21015807237E+03  0.47889521689E+03 -0.40221444316E+03  0.65976018554E+03  0.00000000000E+00 0. -1.
         -1    1    3    3    0  502 -0.12712346981E+03  0.19133660271E+03 -0.13460368384E+03  0.26624842500E+03  0.00000000000E+00 0.  1.
         11    1    5    5    0    0 -0.26466080508E+02 -0.11516703654E+03  0.16587816284E+03  0.20366507955E+03  0.00000000000E+00 0.  1.
        -11    1    5    5    0    0  0.49539814994E+01 -0.12662649550E+03  0.38375325625E+03  0.40413533993E+03  0.00000000000E+00 0. -1.
          2    1    6    6  503    0  0.24987891014E+03 -0.35656852366E+03 -0.15978991175E+03  0.46380318853E+03  0.00000000000E+00 0. -1.
         -2    1    6    6    0  503  0.10891473104E+03 -0.71869763903E+02 -0.60030608404E+02  0.14363619163E+03  0.00000000000E+00 0.  1.
<mgrwt>
<rscale>  0 0.21312186E+04</rscale>
<asrwt>0</asrwt>
<pdfrwt beam="1">  1        2 0.18063505E+00 0.21312186E+04</pdfrwt>
<pdfrwt beam="2">  1       -1 0.14878778E+00 0.21312186E+04</pdfrwt>
<totfact> 0.73372233E+00</totfact>
</mgrwt>
</event>
<event>
12    6  0.1450532E-007  0.1375383E+04  0.7818608E-02  0.8971833E-01
          2   -1    0    0  501    0  0.00000000000E+00  0.00000000000E+00  0.86305520915E+03  0.86305520915E+03  0.00000000000E+00 0. -1.
         -1   -1    0    0    0  501 -0.00000000000E+00 -0.00000000000E+00 -0.54795971533E+03  0.54795971533E+03  0.00000000000E+00 0.  1.
         24    2    1    2    0    0 -0.38215205562E+03  0.90930718711E+02  0.29588585685E+02  0.40195937666E+03  0.79920378276E+02 0.  0.
        254    2    1    2    0    0  0.38215205562E+03 -0.90930718711E+02  0.28550690813E+03  0.10090555478E+04  0.88451699518E+03 0.  0.
         23    2    4    4    0    0  0.33249844059E+03 -0.32980713990E+03 -0.15145357760E+03  0.50024111688E+03  0.89303002852E+02 0.  0.
         23    2    4    4    0    0  0.49653615028E+02  0.23887642119E+03  0.43696048574E+03  0.50881443094E+03  0.91816299997E+02 0.  0.
          4    1    3    3  502    0 -0.69239232678E+01  0.16193368508E+02  0.61084458316E+01  0.18640788812E+02  0.00000000000E+00 0. -1.
         -3    1    3    3    0  502 -0.37522813235E+03  0.74737350203E+02  0.23480139854E+02  0.38331858785E+03  0.00000000000E+00 0.  1.
         11    1    5    5    0    0  0.82371762860E+02 -0.10138435568E+03 -0.82682245138E+02  0.15459705221E+03  0.00000000000E+00 0. -1.
        -11    1    5    5    0    0  0.25012667773E+03 -0.22842278423E+03 -0.68771332467E+02  0.34564406466E+03  0.00000000000E+00 0.  1.
          1    1    6    6  503    0 -0.15085196073E+02  0.35691759479E+02  0.28716355167E+02  0.48229595575E+02  0.00000000000E+00 0. -1.
         -1    1    6    6    0  503  0.64738811102E+02  0.20318466171E+03  0.40824413057E+03  0.46058483536E+03  0.00000000000E+00 0.  1.
<mgrwt>
<rscale>  0 0.13753828E+04</rscale>
<asrwt>0</asrwt>
<pdfrwt beam="1">  1        2 0.13277772E+00 0.13753828E+04</pdfrwt>
<pdfrwt beam="2">  1       -1 0.84301494E-01 0.13753828E+04</pdfrwt>
<totfact> 0.48231870E+01</totfact>
</mgrwt>
</event>
<event>
12    6  0.1450532E-007  0.1876811E+04  0.7818608E-02  0.8666486E-01
         -1   -1    0    0    0  501 -0.00000000000E+00  0.00000000000E+00  0.25688527979E+03  0.25688527979E+03  0.00000000000E+00 0.  1.
          2   -1    0    0  501    0  0.00000000000E+00 -0.00000000000E+00 -0.34280099834E+04  0.34280099834E+04  0.00000000000E+00 0. -1.
         24    2    1    2    0    0 -0.33554205669E+03 -0.52752248024E+03 -0.52525651489E+03  0.81981799322E+03  0.73066384861E+02 0.  0.
        254    2    1    2    0    0  0.33554205669E+03  0.52752248024E+03 -0.26458681887E+04  0.28650772700E+04  0.90398055949E+03 0.  0.
         23    2    4    4    0    0 -0.29160475886E+03  0.92135729623E+02 -0.98492206410E+03  0.10352635349E+04  0.90425584405E+02 0.  0.
         23    2    4    4    0    0  0.62714681554E+03  0.43538675062E+03 -0.16609461246E+04  0.18298137350E+04  0.81249771005E+02 0.  0.
          4    1    3    3  502    0 -0.62638137170E+02 -0.14854172809E+03 -0.11292921543E+03  0.19682781538E+03  0.00000000000E+00 0. -1.
         -3    1    3    3    0  502 -0.27290391952E+03 -0.37898075215E+03 -0.41232729947E+03  0.62299017783E+03  0.00000000000E+00 0.  1.
         11    1    5    5    0    0 -0.12886451564E+03  0.28090761403E+02 -0.28850891547E+03  0.31722633651E+03  0.00000000000E+00 0. -1.
        -11    1    5    5    0    0 -0.16274024322E+03  0.64044968220E+02 -0.69641314862E+03  0.71803719840E+03  0.00000000000E+00 0.  1.
          1    1    6    6  503    0  0.54678888679E+03  0.40685441047E+03 -0.15033340065E+04  0.16506125327E+04  0.00000000000E+00 0. -1.
         -1    1    6    6    0  503  0.80357928755E+02  0.28532340146E+02 -0.15761211809E+03  0.17920120234E+03  0.00000000000E+00 0.  1.
<mgrwt>
<rscale>  0 0.18768114E+04</rscale>
<asrwt>0</asrwt>
<pdfrwt beam="1">  1        2 0.52738612E+00 0.18768114E+04</pdfrwt>
<pdfrwt beam="2">  1       -1 0.39520814E-01 0.18768114E+04</pdfrwt>
<totfact> 0.61061094E+00</totfact>
</mgrwt>
</event>
<event>
12    6  0.1450532E-007  0.1140959E+04  0.7818608E-02  0.9166165E-01
          2   -1    0    0  501    0  0.00000000000E+00  0.00000000000E+00  0.31802205903E+04  0.31802205903E+04  0.00000000000E+00 0. -1.
         -1   -1    0    0    0  501 -0.00000000000E+00 -0.00000000000E+00 -0.10233462109E+03  0.10233462109E+03  0.00000000000E+00 0.  1.
         24    2    1    2    0    0 -0.10638280349E+03 -0.14336962847E+03  0.30109496816E+03  0.35886646947E+03  0.79087368180E+02 0.  0.
        254    2    1    2    0    0  0.10638280349E+03  0.14336962847E+03  0.27767910011E+04  0.29236887420E+04  0.89750512249E+03 0.  0.
         23    2    4    4    0    0  0.28215937865E+03  0.40624115447E+03  0.10347295734E+04  0.11507495854E+04  0.94411480983E+02 0.  0.
         23    2    4    4    0    0 -0.17577657515E+03 -0.26287152600E+03  0.17420614277E+04  0.17729391565E+04  0.92392593821E+02 0.  0.
          4    1    3    3  502    0 -0.15199858901E+02 -0.50207938588E+02  0.15211182015E+03  0.16090332077E+03  0.00000000000E+00 0. -1.
         -3    1    3    3    0  502 -0.91182944592E+02 -0.93161689887E+02  0.14898314802E+03  0.19796314869E+03  0.00000000000E+00 0.  1.
         11    1    5    5    0    0  0.28888552565E+03  0.39058367907E+03  0.10093788636E+04  0.11202036188E+04  0.00000000000E+00 0.  1.
        -11    1    5    5    0    0 -0.67261470085E+01  0.15657475400E+02  0.25350709760E+02  0.30545966588E+02  0.00000000000E+00 0. -1.
          3    1    6    6  503    0 -0.11894718044E+02 -0.64184039435E+02  0.22933949338E+03  0.23844848177E+03  0.00000000000E+00 0. -1.
         -3    1    6    6    0  503 -0.16388185711E+03 -0.19868748656E+03  0.15127219343E+04  0.15344906748E+04  0.00000000000E+00 0.  1.
<mgrwt>
<rscale>  0 0.11409587E+04</rscale>
<asrwt>0</asrwt>
<pdfrwt beam="1">  1        2 0.48926463E+00 0.11409587E+04</pdfrwt>
<pdfrwt beam="2">  1       -1 0.15743790E-01 0.11409587E+04</pdfrwt>
<totfact> 0.46785172E+01</totfact>
</mgrwt>
</event>
<event>
12    6  0.1450532E-007  0.1732300E+04  0.7818608E-02  0.8743154E-01
         -1   -1    0    0    0  501 -0.00000000000E+00  0.00000000000E+00  0.23575285082E+03  0.23575285082E+03  0.00000000000E+00 0.  1.
          2   -1    0    0  501    0  0.00000000000E+00 -0.00000000000E+00 -0.31822127297E+04  0.31822127297E+04  0.00000000000E+00 0. -1.
         24    2    1    2    0    0 -0.15496023378E+02  0.83613740637E+02  0.15124741171E+03  0.19139259287E+03  0.80771038692E+02 0.  0.
        254    2    1    2    0    0  0.15496023378E+02 -0.83613740637E+02 -0.30977072906E+04  0.32265729876E+04  0.89874991076E+03 0.  0.
         23    2    4    4    0    0 -0.14632620068E+03 -0.42665912608E+03 -0.11157089941E+04  0.12066731731E+04  0.88341497718E+02 0.  0.
         23    2    4    4    0    0  0.16182222406E+03  0.34304538545E+03 -0.19819982965E+04  0.20198998146E+04  0.88382379277E+02 0.  0.
          4    1    3    3  502    0 -0.48279297222E+02  0.44003172273E+02  0.75421865920E+02  0.99777891184E+02  0.00000000000E+00 0. -1.
         -3    1    3    3    0  502  0.32783273844E+02  0.39610568364E+02  0.75825545788E+02  0.91614701681E+02  0.00000000000E+00 0.  1.
         11    1    5    5    0    0 -0.94267403972E+02 -0.25565705531E+03 -0.78188232579E+03  0.82800171786E+03  0.00000000000E+00 0.  1.
        -11    1    5    5    0    0 -0.52058796708E+02 -0.17100207077E+03 -0.33382666829E+03  0.37867145520E+03  0.00000000000E+00 0. -1.
          3    1    6    6  503    0  0.29411207264E+01  0.81044611136E+02 -0.50287586920E+03  0.50937316283E+03  0.00000000000E+00 0. -1.
         -3    1    6    6    0  503  0.15888110333E+03  0.26200077431E+03 -0.14791224273E+04  0.15105266517E+04  0.00000000000E+00 0.  1.
<mgrwt>
<rscale>  0 0.17322999E+04</rscale>
<asrwt>0</asrwt>
<pdfrwt beam="1">  1        2 0.48957114E+00 0.17322999E+04</pdfrwt>
<pdfrwt beam="2">  1       -1 0.36269673E-01 0.17322999E+04</pdfrwt>
<totfact> 0.10538125E+01</totfact>
</mgrwt>
</event>
<event>
12    6  0.1450532E-007  0.4504492E+04  0.7818608E-02  0.7909851E-01
          2   -1    0    0  501    0  0.00000000000E+00  0.00000000000E+00  0.18214079469E+04  0.18214079469E+04  0.00000000000E+00 0. -1.
         -1   -1    0    0    0  501 -0.00000000000E+00 -0.00000000000E+00 -0.27849946867E+04  0.27849946867E+04  0.00000000000E+00 0.  1.
         24    2    1    2    0    0 -0.11611825764E+04  0.17415873547E+04 -0.10220139206E+04  0.23307381780E+04  0.79727730432E+02 0.  0.
        254    2    1    2    0    0  0.11611825764E+04 -0.17415873547E+04  0.58427180846E+02  0.22756644556E+04  0.89093405430E+03 0.  0.
         23    2    4    4    0    0  0.65732687750E+03 -0.53060670922E+03 -0.31962949163E+03  0.90775821795E+03  0.90773710802E+02 0.  0.
         23    2    4    4    0    0  0.50385569885E+03 -0.12109806455E+04  0.37805667248E+03  0.13679062376E+04  0.88859092246E+02 0.  0.
          2    1    3    3  502    0 -0.11185233154E+04  0.16537539495E+04 -0.98561781189E+03  0.22265307103E+04  0.00000000000E+00 0. -1.
         -1    1    3    3    0  502 -0.42659260928E+02  0.87833405165E+02 -0.36396108716E+02  0.10420746775E+03  0.00000000000E+00 0.  1.
         11    1    5    5    0    0  0.14676962454E+02 -0.33852113264E+02 -0.78832675348E+01  0.37729626374E+02  0.00000000000E+00 0.  1.
        -11    1    5    5    0    0  0.64264991505E+03 -0.49675459596E+03 -0.31174622410E+03  0.87002859158E+03  0.00000000000E+00 0. -1.
          3    1    6    6  503    0  0.45957192259E+03 -0.10907987355E+04  0.31347823177E+03  0.12244659388E+04  0.00000000000E+00 0. -1.
         -3    1    6    6    0  503  0.44283776256E+02 -0.12018190999E+03  0.64578440708E+02  0.14344029884E+03  0.00000000000E+00 0.  1.
<mgrwt>
<rscale>  0 0.45044917E+04</rscale>
<asrwt>0</asrwt>
<pdfrwt beam="1">  1        2 0.28021661E+00 0.45044917E+04</pdfrwt>
<pdfrwt beam="2">  1       -1 0.42846072E+00 0.45044917E+04</pdfrwt>
<totfact> 0.33018582E-02</totfact>
</mgrwt>
</event>
<event>
12    6  0.1450532E-007  0.1051987E+04  0.7818608E-02  0.9253295E-01
          2   -1    0    0  501    0  0.00000000000E+00  0.00000000000E+00  0.87219886583E+03  0.87219886583E+03  0.00000000000E+00 0. -1.
         -1   -1    0    0    0  501 -0.00000000000E+00 -0.00000000000E+00 -0.31720869918E+03  0.31720869918E+03  0.00000000000E+00 0.  1.
         24    2    1    2    0    0  0.12502024662E+02  0.11508559891E+03  0.47311944728E+02  0.15011898018E+03  0.83043918505E+02 0.  0.
        254    2    1    2    0    0 -0.12502024662E+02 -0.11508559891E+03  0.50767822192E+03  0.10392885848E+04  0.89943459453E+03 0.  0.
         23    2    4    4    0    0 -0.18285884562E+03 -0.40866644587E+03  0.45760827329E+02  0.45894387593E+03  0.89943351818E+02 0.  0.
         23    2    4    4    0    0  0.17035682096E+03  0.29358084696E+03  0.46191739460E+03  0.58034470890E+03  0.90670511004E+02 0.  0.
          2    1    3    3  502    0 -0.22182557224E+02  0.97435526745E+02  0.48727547011E+02  0.11117608356E+03  0.00000000000E+00 0. -1.
         -1    1    3    3    0  502  0.34684581886E+02  0.17650072165E+02 -0.14156022835E+01  0.38942896629E+02  0.00000000000E+00 0.  1.
         11    1    5    5    0    0 -0.17877091872E+03 -0.36431963652E+03  0.17491219883E+02  0.40619426598E+03  0.00000000000E+00 0. -1.
        -11    1    5    5    0    0 -0.40879268971E+01 -0.44346809347E+02  0.28269607446E+02  0.52749609958E+02  0.00000000000E+00 0.  1.
          3    1    6    6  503    0  0.14545064066E+03  0.20786596596E+03  0.39211844706E+03  0.46703428697E+03  0.00000000000E+00 0. -1.
         -3    1    6    6    0  503  0.24906180294E+02  0.85714880999E+02  0.69798947532E+02  0.11331042193E+03  0.00000000000E+00 0.  1.
<mgrwt>
<rscale>  0 0.10519868E+04</rscale>
<asrwt>0</asrwt>
<pdfrwt beam="1">  1        2 0.13418444E+00 0.10519868E+04</pdfrwt>
<pdfrwt beam="2">  1       -1 0.48801339E-01 0.10519868E+04</pdfrwt>
<totfact> 0.14621129E+02</totfact>
</mgrwt>
</event>
<event>
12    6  0.1450532E-007  0.1127269E+04  0.7818608E-02  0.9179014E-01
          2   -1    0    0  501    0  0.00000000000E+00  0.00000000000E+00  0.35393975314E+03  0.35393975314E+03  0.00000000000E+00 0. -1.
         -1   -1    0    0    0  501 -0.00000000000E+00 -0.00000000000E+00 -0.89756455402E+03  0.89756455402E+03  0.00000000000E+00 0.  1.
         24    2    1    2    0    0  0.62754537651E+02  0.18912962437E+03 -0.10735291599E+03  0.23933323304E+03  0.77766323412E+02 0.  0.
        254    2    1    2    0    0 -0.62754537651E+02 -0.18912962437E+03 -0.43627188489E+03  0.10121710741E+04  0.89131867418E+03 0.  0.
         23    2    4    4    0    0 -0.25643121465E+03  0.71271292049E+02 -0.57954247273E+03  0.64415761047E+03  0.90735795119E+02 0.  0.
         23    2    4    4    0    0  0.19367667700E+03 -0.26040091642E+03  0.14327058784E+03  0.36801346365E+03  0.97919127868E+02 0.  0.
          4    1    3    3  502    0  0.35776143060E+02  0.65932061977E+02 -0.20613261678E+01  0.75041443712E+02  0.00000000000E+00 0. -1.
         -3    1    3    3    0  502  0.26978394591E+02  0.12319756239E+03 -0.10529158982E+03  0.16429178933E+03  0.00000000000E+00 0.  1.
         11    1    5    5    0    0 -0.40850353950E+02  0.93215057404E+01 -0.32863407859E+02  0.53250778992E+02  0.00000000000E+00 0.  1.
        -11    1    5    5    0    0 -0.21558086070E+03  0.61949786309E+02 -0.54667906487E+03  0.59090683148E+03  0.00000000000E+00 0. -1.
          1    1    6    6  503    0  0.17704779449E+03 -0.26334437076E+03  0.11999401670E+03  0.33925616161E+03  0.00000000000E+00 0. -1.
         -1    1    6    6    0  503  0.16628882508E+02  0.29434543384E+01  0.23276571137E+02  0.28757302043E+02  0.00000000000E+00 0.  1.
<mgrwt>
<rscale>  0 0.11272689E+04</rscale>
<asrwt>0</asrwt>
<pdfrwt beam="1">  1        2 0.54452270E-01 0.11272689E+04</pdfrwt>
<pdfrwt beam="2">  1       -1 0.13808685E+00 0.11272689E+04</pdfrwt>
<totfact> 0.45018017E+01</totfact>
</mgrwt>
</event>
<event>
12    6  0.1450532E-007  0.1992210E+04  0.7818608E-02  0.8610271E-01
          2   -1    0    0  501    0  0.00000000000E+00  0.00000000000E+00  0.94455288069E+03  0.94455288069E+03  0.00000000000E+00 0. -1.
         -1   -1    0    0    0  501 -0.00000000000E+00 -0.00000000000E+00 -0.10504706583E+04  0.10504706583E+04  0.00000000000E+00 0.  1.
         24    2    1    2    0    0  0.62141683697E+03 -0.47884212913E+03  0.80981669650E+01  0.78857170877E+03  0.79568144782E+02 0.  0.
        254    2    1    2    0    0 -0.62141683697E+03  0.47884212913E+03 -0.11401594459E+03  0.12064518302E+04  0.90943813047E+03 0.  0.
         23    2    4    4    0    0 -0.34325061317E+03 -0.18877805559E+03 -0.23664229506E+03  0.46721218447E+03  0.93965481911E+02 0.  0.
         23    2    4    4    0    0 -0.27816622380E+03  0.66762018473E+03  0.12262635047E+03  0.73923964576E+03  0.91350275984E+02 0.  0.
          2    1    3    3  502    0  0.45047532143E+03 -0.33531827930E+03 -0.28918121893E+02  0.56231896769E+03  0.00000000000E+00 0. -1.
         -1    1    3    3    0  502  0.17094151554E+03 -0.14352384983E+03  0.37016288858E+02  0.22625274108E+03  0.00000000000E+00 0.  1.
         11    1    5    5    0    0 -0.22175153851E+03 -0.69005645502E+02 -0.13625053658E+03  0.26925774392E+03  0.00000000000E+00 0. -1.
        -11    1    5    5    0    0 -0.12149907466E+03 -0.11977241009E+03 -0.10039175848E+03  0.19795444055E+03  0.00000000000E+00 0.  1.
          2    1    6    6  503    0 -0.10321771237E+03  0.36634673943E+03  0.63086893838E+02  0.38580278098E+03  0.00000000000E+00 0. -1.
         -2    1    6    6    0  503 -0.17494851143E+03  0.30127344529E+03  0.59539456631E+02  0.35343686478E+03  0.00000000000E+00 0.  1.
<mgrwt>
<rscale>  0 0.19922099E+04</rscale>
<asrwt>0</asrwt>
<pdfrwt beam="1">  1        2 0.14531583E+00 0.19922099E+04</pdfrwt>
<pdfrwt beam="2">  1       -1 0.16161087E+00 0.19922099E+04</pdfrwt>
<totfact> 0.82504824E+00</totfact>
</mgrwt>
</event>
<event>
12    6  0.1450532E-007  0.1221977E+04  0.7818608E-02  0.9093835E-01
          2   -1    0    0  501    0  0.00000000000E+00  0.00000000000E+00  0.86830117423E+03  0.86830117423E+03  0.00000000000E+00 0. -1.
         -1   -1    0    0    0  501 -0.00000000000E+00 -0.00000000000E+00 -0.42992795799E+03  0.42992795799E+03  0.00000000000E+00 0.  1.
         24    2    1    2    0    0 -0.25341254208E+03 -0.82807463153E+02  0.18863721424E+03  0.33602464014E+03  0.79079502684E+02 0.  0.
        254    2    1    2    0    0  0.25341254208E+03  0.82807463153E+02  0.24973600200E+03  0.96220449209E+03  0.89016538995E+03 0.  0.
         23    2    4    4    0    0 -0.61572448604E+01  0.21581296105E+03 -0.27143002263E+03  0.35836665255E+03  0.90217817823E+02 0.  0.
         23    2    4    4    0    0  0.25956978694E+03 -0.13300549789E+03  0.52116602464E+03  0.60383783954E+03  0.89102045211E+02 0.  0.
          4    1    3    3  502    0 -0.46763507161E+02 -0.20734477841E+02  0.78693273396E+02  0.93858273216E+02  0.00000000000E+00 0. -1.
         -3    1    3    3    0  502 -0.20664903492E+03 -0.62072985313E+02  0.10994394084E+03  0.24216636692E+03  0.00000000000E+00 0.  1.
         11    1    5    5    0    0  0.68096529518E+01  0.67840412399E-02  0.42477217492E+01  0.80258681403E+01  0.00000000000E+00 0.  1.
        -11    1    5    5    0    0 -0.12966897812E+02  0.21580617701E+03 -0.27567774438E+03  0.35034078441E+03  0.00000000000E+00 0. -1.
          3    1    6    6  503    0  0.54123531817E+02  0.35100578618E+01  0.13646568934E+03  0.14684877108E+03  0.00000000000E+00 0. -1.
         -3    1    6    6    0  503  0.20544625512E+03 -0.13651555576E+03  0.38470033530E+03  0.45698906845E+03  0.00000000000E+00 0.  1.
<mgrwt>
<rscale>  0 0.12219770E+04</rscale>
<asrwt>0</asrwt>
<pdfrwt beam="1">  1        2 0.13358480E+00 0.12219770E+04</pdfrwt>
<pdfrwt beam="2">  1       -1 0.66142763E-01 0.12219770E+04</pdfrwt>
<totfact> 0.80311456E+01</totfact>
</mgrwt>
</event>
<event>
12    6  0.1450532E-007  0.3649035E+04  0.7818608E-02  0.8079351E-01
          2   -1    0    0  501    0  0.00000000000E+00  0.00000000000E+00  0.15237639021E+04  0.15237639021E+04  0.00000000000E+00 0. -1.
         -1   -1    0    0    0  501 -0.00000000000E+00 -0.00000000000E+00 -0.21846325082E+04  0.21846325082E+04  0.00000000000E+00 0.  1.
         24    2    1    2    0    0  0.15226032506E+04  0.71966119314E+03 -0.11017227511E+02  0.16858602184E+04  0.75963181879E+02 0.  0.
        254    2    1    2    0    0 -0.15226032506E+04 -0.71966119314E+03 -0.64985137858E+03  0.20225361918E+04  0.91220224801E+03 0.  0.
         23    2    4    4    0    0 -0.13217799326E+03 -0.14159927201E+03  0.19872745009E+03  0.29173997019E+03  0.89990194205E+02 0.  0.
         23    2    4    4    0    0 -0.13904252574E+04 -0.57806192114E+03 -0.84857882867E+03  0.17307962217E+04  0.90175115088E+02 0.  0.
          2    1    3    3  502    0  0.19727685280E+03  0.12158195270E+03 -0.66462323037E+01  0.23182860108E+03  0.00000000000E+00 0. -1.
         -1    1    3    3    0  502  0.13253263978E+04  0.59807924044E+03 -0.43709952078E+01  0.14540316174E+04  0.00000000000E+00 0.  1.
         11    1    5    5    0    0 -0.23200718285E+02 -0.13611538585E+02 -0.52667628443E+01  0.27409598728E+02  0.00000000000E+00 0. -1.
        -11    1    5    5    0    0 -0.10897727497E+03 -0.12798773342E+03  0.20399421293E+03  0.26433037146E+03  0.00000000000E+00 0.  1.
          1    1    6    6  503    0 -0.47390889994E+03 -0.23048380614E+03 -0.26260625541E+03  0.58879068922E+03  0.00000000000E+00 0. -1.
         -1    1    6    6    0  503 -0.91651635744E+03 -0.34757811500E+03 -0.58597257327E+03  0.11420055324E+04  0.00000000000E+00 0.  1.
<mgrwt>
<rscale>  0 0.36490350E+04</rscale>
<asrwt>0</asrwt>
<pdfrwt beam="1">  1        2 0.23442521E+00 0.36490350E+04</pdfrwt>
<pdfrwt beam="2">  1       -1 0.33609731E+00 0.36490350E+04</pdfrwt>
<totfact> 0.21830639E-01</totfact>
</mgrwt>
</event>
<event>
12    6  0.1450532E-007  0.1736697E+04  0.7818608E-02  0.8740707E-01
          2   -1    0    0  501    0  0.00000000000E+00  0.00000000000E+00  0.33593936727E+04  0.33593936727E+04  0.00000000000E+00 0. -1.
         -1   -1    0    0    0  501 -0.00000000000E+00 -0.00000000000E+00 -0.22445396936E+03  0.22445396936E+03  0.00000000000E+00 0.  1.
         24    2    1    2    0    0  0.25698026429E+03  0.57590070705E+03  0.10627891381E+04  0.12383289866E+04  0.78977504956E+02 0.  0.
        254    2    1    2    0    0 -0.25698026429E+03 -0.57590070705E+03  0.20721505652E+04  0.23455186555E+04  0.89997184266E+03 0.  0.
         23    2    4    4    0    0 -0.34051466486E+02 -0.18468505514E+03 -0.13040188709E+02  0.21029786721E+03  0.93739396583E+02 0.  0.
         23    2    4    4    0    0 -0.22292879781E+03 -0.39121565192E+03  0.20851907539E+04  0.21352207883E+04  0.91653691292E+02 0.  0.
          4    1    3    3  502    0  0.15202476926E+03  0.36465819323E+03  0.59152444488E+03  0.71132854382E+03  0.00000000000E+00 0. -1.
         -3    1    3    3    0  502  0.10495549503E+03  0.21124251382E+03  0.47126469320E+03  0.52700044274E+03  0.00000000000E+00 0.  1.
         11    1    5    5    0    0 -0.67083699186E+01  0.67903745800E+01  0.11925797296E+02  0.15275341405E+02  0.00000000000E+00 0. -1.
        -11    1    5    5    0    0 -0.27343096568E+02 -0.19147542972E+03 -0.24965986005E+02  0.19502252581E+03  0.00000000000E+00 0.  1.
          2    1    6    6  503    0 -0.56841088382E+02 -0.92126194034E+02  0.34009130090E+03  0.35690368155E+03  0.00000000000E+00 0. -1.
         -2    1    6    6    0  503 -0.16608770942E+03 -0.29908945788E+03  0.17450994530E+04  0.17783171067E+04  0.00000000000E+00 0.  1.
<mgrwt>
<rscale>  0 0.17366971E+04</rscale>
<asrwt>0</asrwt>
<pdfrwt beam="1">  1        2 0.51682976E+00 0.17366971E+04</pdfrwt>
<pdfrwt beam="2">  1       -1 0.34531382E-01 0.17366971E+04</pdfrwt>
<totfact> 0.87929013E+00</totfact>
</mgrwt>
</event>
<event>
12    6  0.1450532E-007  0.1952438E+04  0.7818608E-02  0.8629186E-01
          2   -1    0    0  501    0  0.00000000000E+00  0.00000000000E+00  0.29267247296E+04  0.29267247296E+04  0.00000000000E+00 0. -1.
         -1   -1    0    0    0  501 -0.00000000000E+00 -0.00000000000E+00 -0.32562125016E+03  0.32562125016E+03  0.00000000000E+00 0.  1.
         24    2    1    2    0    0 -0.37049829878E+03  0.30865314820E+03  0.19953280819E+04  0.20542455371E+04  0.77812706282E+02 0.  0.
        254    2    1    2    0    0  0.37049829878E+03 -0.30865314820E+03  0.60577539752E+03  0.11981004426E+04  0.91430032427E+03 0.  0.
         23    2    4    4    0    0 -0.27834796682E+03 -0.19837307086E+03  0.11576719970E+03  0.37253105680E+03  0.92454734200E+02 0.  0.
         23    2    4    4    0    0  0.64884626559E+03 -0.11028007734E+03  0.49000819782E+03  0.82556938577E+03  0.91069231721E+02 0.  0.
          4    1    3    3  502    0 -0.20593341025E+03  0.15477983989E+03  0.12169235242E+04  0.12438923716E+04  0.00000000000E+00 0. -1.
         -3    1    3    3    0  502 -0.16456488853E+03  0.15387330831E+03  0.77840455765E+03  0.81035316555E+03  0.00000000000E+00 0.  1.
         11    1    5    5    0    0 -0.97151468231E+02 -0.11231553392E+03  0.18668914914E+02  0.14967202585E+03  0.00000000000E+00 0. -1.
        -11    1    5    5    0    0 -0.18119649859E+03 -0.86057536948E+02  0.97098284786E+02  0.22285903095E+03  0.00000000000E+00 0.  1.
          3    1    6    6  503    0  0.56260903173E+03 -0.77860108250E+02  0.45213164480E+03  0.72595739769E+03  0.00000000000E+00 0. -1.
         -3    1    6    6    0  503  0.86237233870E+02 -0.32419969089E+02  0.37876553019E+02  0.99611988083E+02  0.00000000000E+00 0.  1.
<mgrwt>
<rscale>  0 0.19524382E+04</rscale>
<asrwt>0</asrwt>
<pdfrwt beam="1">  1        2 0.45026533E+00 0.19524382E+04</pdfrwt>
<pdfrwt beam="2">  1       -1 0.50095579E-01 0.19524382E+04</pdfrwt>
<totfact> 0.82309702E+00</totfact>
</mgrwt>
</event>
<event>
12    6  0.1450532E-007  0.1557423E+04  0.7818608E-02  0.8847140E-01
         -1   -1    0    0    0  501 -0.00000000000E+00  0.00000000000E+00  0.22279630776E+04  0.22279630776E+04  0.00000000000E+00 0.  1.
          2   -1    0    0  501    0  0.00000000000E+00 -0.00000000000E+00 -0.27217320562E+03  0.27217320562E+03  0.00000000000E+00 0. -1.
         24    2    1    2    0    0  0.22775056811E+03 -0.50972972399E+01  0.13726820826E+04  0.13937614920E+04  0.80116746014E+02 0.  0.
        254    2    1    2    0    0 -0.22775056811E+03  0.50972972399E+01  0.58310778941E+03  0.11063747912E+04  0.91222485216E+03 0.  0.
         23    2    4    4    0    0  0.12774577491E+03 -0.30722839452E+03 -0.63095973840E+01  0.34520489096E+03  0.91751492201E+02 0.  0.
         23    2    4    4    0    0 -0.35549634302E+03  0.31232569176E+03  0.58941738680E+03  0.76116990028E+03  0.89675936544E+02 0.  0.
          2    1    3    3  502    0  0.74787374100E+02 -0.38943706817E+02  0.43828639430E+03  0.44632356767E+03  0.00000000000E+00 0. -1.
         -1    1    3    3    0  502  0.15296319401E+03  0.33846409577E+02  0.93439568829E+03  0.94743792433E+03  0.00000000000E+00 0.  1.
         11    1    5    5    0    0  0.13143043085E+03 -0.25355310444E+03 -0.28490830326E+02  0.28701021295E+03  0.00000000000E+00 0.  1.
        -11    1    5    5    0    0 -0.36846559417E+01 -0.53675290079E+02  0.22181232942E+02  0.58194678015E+02  0.00000000000E+00 0. -1.
          4    1    6    6  503    0 -0.31172806719E+02  0.35925288671E+02  0.10943132444E+03  0.11932135188E+03  0.00000000000E+00 0. -1.
         -4    1    6    6    0  503 -0.32432353630E+03  0.27640040309E+03  0.47998606235E+03  0.64184854840E+03  0.00000000000E+00 0.  1.
<mgrwt>
<rscale>  0 0.15574233E+04</rscale>
<asrwt>0</asrwt>
<pdfrwt beam="1">  1        2 0.41872802E-01 0.15574233E+04</pdfrwt>
<pdfrwt beam="2">  1       -1 0.34276354E+00 0.15574233E+04</pdfrwt>
<totfact> 0.23491315E+00</totfact>
</mgrwt>
</event>
<event>
12    6  0.1450532E-007  0.2063578E+04  0.7818608E-02  0.8577459E-01
          2   -1    0    0  501    0  0.00000000000E+00  0.00000000000E+00  0.78651156410E+03  0.78651156410E+03  0.00000000000E+00 0. -1.
         -1   -1    0    0    0  501 -0.00000000000E+00 -0.00000000000E+00 -0.13535577779E+04  0.13535577779E+04  0.00000000000E+00 0.  1.
         24    2    1    2    0    0 -0.56684875591E+03  0.60781221644E+03 -0.32153026029E+03  0.89506495559E+03  0.83704025735E+02 0.  0.
        254    2    1    2    0    0  0.56684875591E+03 -0.60781221644E+03 -0.24551595350E+03  0.12450043864E+04  0.89387059255E+03 0.  0.
         23    2    4    4    0    0  0.74482816292E+03 -0.39381664073E+03  0.23719320383E+02  0.84713070395E+03  0.84895727901E+02 0.  0.
         23    2    4    4    0    0 -0.17797940701E+03 -0.21399557570E+03 -0.26923527388E+03  0.39787368246E+03  0.91351293092E+02 0.  0.
          4    1    3    3  502    0 -0.13152765898E+03  0.17174144184E+03 -0.51743566098E+02  0.22242312055E+03  0.00000000000E+00 0. -1.
         -3    1    3    3    0  502 -0.43532109693E+03  0.43607077459E+03 -0.26978669420E+03  0.67264183505E+03  0.00000000000E+00 0.  1.
         11    1    5    5    0    0  0.38905162598E+03 -0.15873645655E+03  0.20587472641E+02  0.42069261266E+03  0.00000000000E+00 0. -1.
        -11    1    5    5    0    0  0.35577653694E+03 -0.23508018418E+03  0.31318477420E+01  0.42643809129E+03  0.00000000000E+00 0.  1.
          4    1    6    6  503    0 -0.11296055280E+03 -0.16382593022E+03 -0.13485262560E+03  0.24038355296E+03  0.00000000000E+00 0. -1.
         -4    1    6    6    0  503 -0.65018854214E+02 -0.50169645483E+02 -0.13438264828E+03  0.15749012950E+03  0.00000000000E+00 0.  1.
<mgrwt>
<rscale>  0 0.20635783E+04</rscale>
<asrwt>0</asrwt>
<pdfrwt beam="1">  1        2 0.12100178E+00 0.20635783E+04</pdfrwt>
<pdfrwt beam="2">  1       -1 0.20823966E+00 0.20635783E+04</pdfrwt>
<totfact> 0.49107478E+00</totfact>
</mgrwt>
</event>
<event>
12    6  0.1450532E-007  0.1766826E+04  0.7818608E-02  0.8724143E-01
          2   -1    0    0  501    0  0.00000000000E+00  0.00000000000E+00  0.26886961401E+04  0.26886961401E+04  0.00000000000E+00 0. -1.
         -1   -1    0    0    0  501 -0.00000000000E+00 -0.00000000000E+00 -0.29025916105E+03  0.29025916105E+03  0.00000000000E+00 0.  1.
         24    2    1    2    0    0  0.98608717037E+02 -0.43079913300E+03  0.16784725821E+04  0.17375049231E+04  0.79634017770E+02 0.  0.
        254    2    1    2    0    0 -0.98608717037E+02  0.43079913300E+03  0.71996439695E+03  0.12414503781E+04  0.90969156106E+03 0.  0.
         23    2    4    4    0    0 -0.37739613887E+02 -0.51021592436E+02 -0.18221535867E+03  0.21332041620E+03  0.90970773779E+02 0.  0.
         23    2    4    4    0    0 -0.60869103150E+02  0.48182072544E+03  0.90217975562E+03  0.10281299619E+04  0.85244635352E+02 0.  0.
          4    1    3    3  502    0  0.60090049025E+02 -0.27543640375E+03  0.12112279285E+04  0.12436032813E+04  0.00000000000E+00 0. -1.
         -3    1    3    3    0  502  0.38518668012E+02 -0.15536272925E+03  0.46724465365E+03  0.49390164181E+03  0.00000000000E+00 0.  1.
         11    1    5    5    0    0 -0.11365012655E+02  0.10318310942E+02  0.36904788843E+01  0.15787675185E+02  0.00000000000E+00 0.  1.
        -11    1    5    5    0    0 -0.26374601232E+02 -0.61339903378E+02 -0.18590583755E+03  0.19753274102E+03  0.00000000000E+00 0. -1.
          2    1    6    6  503    0 -0.52588503606E+02  0.31247853939E+03  0.50370865480E+03  0.59508889858E+03  0.00000000000E+00 0. -1.
         -2    1    6    6    0  503 -0.82805995446E+01  0.16934218604E+03  0.39847110082E+03  0.43304106329E+03  0.00000000000E+00 0.  1.
<mgrwt>
<rscale>  0 0.17668262E+04</rscale>
<asrwt>0</asrwt>
<pdfrwt beam="1">  1        2 0.41364554E+00 0.17668262E+04</pdfrwt>
<pdfrwt beam="2">  1       -1 0.44655257E-01 0.17668262E+04</pdfrwt>
<totfact> 0.14473235E+01</totfact>
</mgrwt>
</event>
<event>
12    6  0.1450532E-007  0.1508673E+04  0.7818608E-02  0.8878706E-01
          2   -1    0    0  501    0  0.00000000000E+00  0.00000000000E+00  0.10357497068E+04  0.10357497068E+04  0.00000000000E+00 0. -1.
         -1   -1    0    0    0  501 -0.00000000000E+00 -0.00000000000E+00 -0.54938321797E+03  0.54938321797E+03  0.00000000000E+00 0.  1.
         24    2    1    2    0    0 -0.37467368587E+03  0.26247249454E+03  0.32964204271E+03  0.56958575974E+03  0.80572204291E+02 0.  0.
        254    2    1    2    0    0  0.37467368587E+03 -0.26247249454E+03  0.15672444611E+03  0.10155471650E+04  0.89302928905E+03 0.  0.
         23    2    4    4    0    0  0.10821627573E+03 -0.13701022387E+03  0.51022225522E+03  0.54674619642E+03  0.90122637588E+02 0.  0.
         23    2    4    4    0    0  0.26645741014E+03 -0.12546227067E+03 -0.35349780911E+03  0.46880096860E+03  0.89851624004E+02 0.  0.
          2    1    3    3  502    0 -0.15108845825E+03  0.11277325006E+03  0.88517281562E+02  0.20828066948E+03  0.00000000000E+00 0. -1.
         -1    1    3    3    0  502 -0.22358522762E+03  0.14969924448E+03  0.24112476115E+03  0.36130509026E+03  0.00000000000E+00 0.  1.
         11    1    5    5    0    0  0.90082511635E+02 -0.41759831290E+02  0.24495957358E+03  0.26431786754E+03  0.00000000000E+00 0.  1.
        -11    1    5    5    0    0  0.18133764095E+02 -0.95250392576E+02  0.26526268164E+03  0.28242832889E+03  0.00000000000E+00 0. -1.
          4    1    6    6  503    0  0.12820009106E+03 -0.11797847460E+02 -0.15613781521E+03  0.20236963678E+03  0.00000000000E+00 0. -1.
         -4    1    6    6    0  503  0.13825731908E+03 -0.11366442321E+03 -0.19735999389E+03  0.26643133181E+03  0.00000000000E+00 0.  1.
<mgrwt>
<rscale>  0 0.15086729E+04</rscale>
<asrwt>0</asrwt>
<pdfrwt beam="1">  1        2 0.15934611E+00 0.15086729E+04</pdfrwt>
<pdfrwt beam="2">  1       -1 0.84520495E-01 0.15086729E+04</pdfrwt>
<totfact> 0.36493960E+01</totfact>
</mgrwt>
</event>
<event>
12    6  0.1450532E-007  0.2702353E+04  0.7818608E-02  0.8334242E-01
          2   -1    0    0  501    0  0.00000000000E+00  0.00000000000E+00  0.14844182714E+04  0.14844182714E+04  0.00000000000E+00 0. -1.
         -1   -1    0    0    0  501 -0.00000000000E+00 -0.00000000000E+00 -0.12298942576E+04  0.12298942576E+04  0.00000000000E+00 0.  1.
         24    2    1    2    0    0  0.61597269218E+03 -0.97832049091E+03 -0.17709020917E+03  0.11722211711E+04  0.78792076740E+02 0.  0.
        254    2    1    2    0    0 -0.61597269218E+03  0.97832049091E+03  0.43161422304E+03  0.15420913579E+04  0.92478190838E+03 0.  0.
         23    2    4    4    0    0 -0.21264012523E+03  0.94056294528E+03  0.37719079859E+02  0.96919470598E+03  0.89672583450E+02 0.  0.
         23    2    4    4    0    0 -0.40333256695E+03  0.37757545628E+02  0.39389514318E+03  0.57289665190E+03  0.94627681561E+02 0.  0.
          2    1    3    3  502    0  0.36181499646E+03 -0.54310312963E+03 -0.64199575950E+02  0.65573827602E+03  0.00000000000E+00 0. -1.
         -1    1    3    3    0  502  0.25415769572E+03 -0.43521736128E+03 -0.11289063322E+03  0.51648289509E+03  0.00000000000E+00 0.  1.
         11    1    5    5    0    0 -0.20158898455E+03  0.78752423361E+03  0.82764140216E+01  0.81295820080E+03  0.00000000000E+00 0.  1.
        -11    1    5    5    0    0 -0.11051140679E+02  0.15303871166E+03  0.29442665838E+02  0.15623650518E+03  0.00000000000E+00 0. -1.
          3    1    6    6  503    0 -0.34087637946E+03  0.40383425570E+01  0.29285591729E+03  0.44941918359E+03  0.00000000000E+00 0. -1.
         -3    1    6    6    0  503 -0.62456187492E+02  0.33719203071E+02  0.10103922589E+03  0.12347746831E+03  0.00000000000E+00 0.  1.
<mgrwt>
<rscale>  0 0.27023527E+04</rscale>
<asrwt>0</asrwt>
<pdfrwt beam="1">  1        2 0.22837204E+00 0.27023527E+04</pdfrwt>
<pdfrwt beam="2">  1       -1 0.18921450E+00 0.27023527E+04</pdfrwt>
<totfact> 0.23159117E+00</totfact>
</mgrwt>
</event>
<event>
12    6  0.1450532E-007  0.1507935E+04  0.7818608E-02  0.8879193E-01
          2   -1    0    0  501    0  0.00000000000E+00  0.00000000000E+00  0.61269591797E+03  0.61269591797E+03  0.00000000000E+00 0. -1.
         -1   -1    0    0    0  501 -0.00000000000E+00 -0.00000000000E+00 -0.92781313177E+03  0.92781313177E+03  0.00000000000E+00 0.  1.
         24    2    1    2    0    0  0.13129606229E+03 -0.33544380370E+03  0.22877136658E+03  0.43475747301E+03  0.83165622493E+02 0.  0.
        254    2    1    2    0    0 -0.13129606229E+03  0.33544380370E+03 -0.54388858038E+03  0.11057515767E+04  0.89281048391E+03 0.  0.
         23    2    4    4    0    0  0.25096253831E+03 -0.12980453752E+03 -0.36679267006E+03  0.47114555480E+03  0.87234496616E+02 0.  0.
         23    2    4    4    0    0 -0.38225860059E+03  0.46524834122E+03 -0.17709591031E+03  0.63460602193E+03  0.93723982488E+02 0.  0.
          4    1    3    3  502    0  0.14000938445E+03 -0.27635293454E+03  0.18681356111E+03  0.36176356751E+03  0.00000000000E+00 0. -1.
         -3    1    3    3    0  502 -0.87133221659E+01 -0.59090869152E+02  0.41957805469E+02  0.72993905500E+02  0.00000000000E+00 0.  1.
         11    1    5    5    0    0  0.18663667372E+03 -0.56826639568E+02 -0.27663584115E+03  0.33851130490E+03  0.00000000000E+00 0.  1.
        -11    1    5    5    0    0  0.64325864591E+02 -0.72977897954E+02 -0.90156828918E+02  0.13263424990E+03  0.00000000000E+00 0. -1.
          4    1    6    6  503    0 -0.54410948667E+01  0.51278145725E+01  0.87564971827E+01  0.11514175548E+02  0.00000000000E+00 0. -1.
         -4    1    6    6    0  503 -0.37681750573E+03  0.46012052665E+03 -0.18585240750E+03  0.62309184639E+03  0.00000000000E+00 0.  1.
<mgrwt>
<rscale>  0 0.15079354E+04</rscale>
<asrwt>0</asrwt>
<pdfrwt beam="1">  1        2 0.94260910E-01 0.15079354E+04</pdfrwt>
<pdfrwt beam="2">  1       -1 0.14274048E+00 0.15079354E+04</pdfrwt>
<totfact> 0.21251374E+01</totfact>
</mgrwt>
</event>
<event>
12    6  0.1450532E-007  0.2648046E+04  0.7818608E-02  0.8352062E-01
         -1   -1    0    0    0  501 -0.00000000000E+00  0.00000000000E+00  0.16096524636E+04  0.16096524636E+04  0.00000000000E+00 0.  1.
          2   -1    0    0  501    0  0.00000000000E+00 -0.00000000000E+00 -0.10890781399E+04  0.10890781399E+04  0.00000000000E+00 0. -1.
         24    2    1    2    0    0 -0.15093962215E+03 -0.27763537910E+03 -0.91727608377E+03  0.97321865391E+03  0.76778650634E+02 0.  0.
        254    2    1    2    0    0  0.15093962215E+03  0.27763537910E+03  0.14378504075E+04  0.17255119495E+04  0.90006306465E+03 0.  0.
         23    2    4    4    0    0  0.20861425520E+03  0.29816905193E+03  0.15345860691E+04  0.15798918872E+04  0.93162657284E+02 0.  0.
         23    2    4    4    0    0 -0.57674633050E+02 -0.20533672828E+02 -0.96735661627E+02  0.14562006232E+03  0.89996773840E+02 0.  0.
          2    1    3    3  502    0 -0.12469536717E+03 -0.25917543648E+03 -0.75774113921E+03  0.81048903479E+03  0.00000000000E+00 0. -1.
         -1    1    3    3    0  502 -0.26244254979E+02 -0.18459942616E+02 -0.15953494456E+03  0.16272961911E+03  0.00000000000E+00 0.  1.
         11    1    5    5    0    0  0.35264201985E+02  0.67217206232E+02  0.18909212500E+03  0.20375855440E+03  0.00000000000E+00 0. -1.
        -11    1    5    5    0    0  0.17335005321E+03  0.23095184569E+03  0.13454939441E+04  0.13761333328E+04  0.00000000000E+00 0.  1.
          1    1    6    6  503    0 -0.65924910046E+02 -0.39609751089E+02 -0.98260553789E+02  0.12478045751E+03  0.00000000000E+00 0.  1.
         -1    1    6    6    0  503  0.82502769955E+01  0.19076078261E+02  0.15248921629E+01  0.20839604805E+02  0.00000000000E+00 0. -1.
<mgrwt>
<rscale>  0 0.26480463E+04</rscale>
<asrwt>0</asrwt>
<pdfrwt beam="1">  1        2 0.16755048E+00 0.26480463E+04</pdfrwt>
<pdfrwt beam="2">  1       -1 0.24763884E+00 0.26480463E+04</pdfrwt>
<totfact> 0.16052539E+00</totfact>
</mgrwt>
</event>
<event>
12    6  0.1450532E-007  0.1849745E+04  0.7818608E-02  0.8680284E-01
          2   -1    0    0  501    0  0.00000000000E+00  0.00000000000E+00  0.13132074856E+04  0.13132074856E+04  0.00000000000E+00 0. -1.
         -1   -1    0    0    0  501 -0.00000000000E+00 -0.00000000000E+00 -0.65137366197E+03  0.65137366197E+03  0.00000000000E+00 0.  1.
         24    2    1    2    0    0 -0.10928363079E+03  0.55178170675E+03 -0.17468716507E+03  0.59368407945E+03  0.74425914089E+02 0.  0.
        254    2    1    2    0    0  0.10928363079E+03 -0.55178170675E+03  0.83652098869E+03  0.13708970681E+04  0.92907773786E+03 0.  0.
         23    2    4    4    0    0  0.97944505673E+02  0.15972051176E+03  0.56705373950E+03  0.60423679340E+03  0.91915129071E+02 0.  0.
         23    2    4    4    0    0  0.11339125119E+02 -0.71150221851E+03  0.26946724919E+03  0.76666027472E+03  0.93762443096E+02 0.  0.
          4    1    3    3  502    0 -0.94821688697E+01  0.22400994101E+02 -0.24293623523E+02  0.34378717356E+02  0.00000000000E+00 0. -1.
         -3    1    3    3    0  502 -0.99801461923E+02  0.52938071265E+03 -0.15039354154E+03  0.55930536209E+03  0.00000000000E+00 0.  1.
         11    1    5    5    0    0  0.41268252533E+02  0.10402343197E+03  0.44298652591E+03  0.45690371546E+03  0.00000000000E+00 0.  1.
        -11    1    5    5    0    0  0.56676253140E+02  0.55697079791E+02  0.12406721359E+03  0.14733307794E+03  0.00000000000E+00 0. -1.
          2    1    6    6  503    0  0.63859594276E+01 -0.17461088931E+03  0.11038291369E+03  0.20667397218E+03  0.00000000000E+00 0. -1.
         -2    1    6    6    0  503  0.49531656919E+01 -0.53689132920E+03  0.15908433550E+03  0.55998630253E+03  0.00000000000E+00 0.  1.
<mgrwt>
<rscale>  0 0.18497446E+04</rscale>
<asrwt>0</asrwt>
<pdfrwt beam="1">  1        2 0.20203192E+00 0.18497446E+04</pdfrwt>
<pdfrwt beam="2">  1       -1 0.10021133E+00 0.18497446E+04</pdfrwt>
<totfact> 0.16513392E+01</totfact>
</mgrwt>
</event>
<event>
12    6  0.1450532E-007  0.2046292E+04  0.7818608E-02  0.8585278E-01
         -1   -1    0    0    0  501 -0.00000000000E+00  0.00000000000E+00  0.11429258922E+04  0.11429258922E+04  0.00000000000E+00 0.  1.
          2   -1    0    0  501    0  0.00000000000E+00 -0.00000000000E+00 -0.91591899738E+03  0.91591899738E+03  0.00000000000E+00 0. -1.
         24    2    1    2    0    0  0.80475805788E+03 -0.12512209471E+03 -0.39453214010E+02  0.82006410787E+03  0.87507226038E+02 0.  0.
        254    2    1    2    0    0 -0.80475805788E+03  0.12512209471E+03  0.26646010887E+03  0.12387807818E+04  0.89458692440E+03 0.  0.
         23    2    4    4    0    0 -0.67624250297E+02 -0.29031684781E+03 -0.74907582263E+02  0.32137979388E+03  0.93898427498E+02 0.  0.
         23    2    4    4    0    0 -0.73713380758E+03  0.41543894252E+03  0.34136769113E+03  0.91740098787E+03  0.95587168339E+02 0.  0.
          4    1    3    3  502    0  0.75664458425E+03 -0.96278821331E+02 -0.31392292372E+02  0.76339119351E+03  0.00000000000E+00 0. -1.
         -3    1    3    3    0  502  0.48113473631E+02 -0.28843273376E+02 -0.80609216376E+01  0.56672914355E+02  0.00000000000E+00 0.  1.
         11    1    5    5    0    0 -0.11414972960E+02 -0.16702417206E+03 -0.18191312152E+01  0.16742366888E+03  0.00000000000E+00 0. -1.
        -11    1    5    5    0    0 -0.56209277337E+02 -0.12329267574E+03 -0.73088451048E+02  0.15395612501E+03  0.00000000000E+00 0.  1.
          2    1    6    6  503    0 -0.14655863385E+03  0.77764886781E+02  0.27440410552E+02  0.16816595048E+03  0.00000000000E+00 0. -1.
         -2    1    6    6    0  503 -0.59057517374E+03  0.33767405574E+03  0.31392728058E+03  0.74923503738E+03  0.00000000000E+00 0.  1.
<mgrwt>
<rscale>  0 0.20462918E+04</rscale>
<asrwt>0</asrwt>
<pdfrwt beam="1">  1        2 0.14091062E+00 0.20462918E+04</pdfrwt>
<pdfrwt beam="2">  1       -1 0.17583475E+00 0.20462918E+04</pdfrwt>
<totfact> 0.67373795E+00</totfact>
</mgrwt>
</event>
<event>
12    6  0.1450532E-007  0.1565370E+04  0.7818608E-02  0.8842109E-01
         -1   -1    0    0    0  501 -0.00000000000E+00  0.00000000000E+00  0.66446234633E+03  0.66446234633E+03  0.00000000000E+00 0.  1.
          2   -1    0    0  501    0  0.00000000000E+00 -0.00000000000E+00 -0.92194256756E+03  0.92194256756E+03  0.00000000000E+00 0. -1.
         24    2    1    2    0    0 -0.42826758299E+03 -0.48969894219E+02  0.20940902634E+03  0.48571475688E+03  0.79091792004E+02 0.  0.
        254    2    1    2    0    0  0.42826758299E+03  0.48969894219E+02 -0.46688924757E+03  0.11006901570E+04  0.89873359737E+03 0.  0.
         23    2    4    4    0    0 -0.10435702425E+03 -0.50716860633E+02 -0.52778765697E+03  0.54801833367E+03  0.91113636297E+02 0.  0.
         23    2    4    4    0    0  0.53262460724E+03  0.99686754852E+02  0.60898409401E+02  0.55267182334E+03  0.90061682841E+02 0.  0.
          4    1    3    3  502    0 -0.92416885484E+02  0.20580896175E+02  0.55903119044E+02  0.10995277499E+03  0.00000000000E+00 0. -1.
         -3    1    3    3    0  502 -0.33585069750E+03 -0.69550790394E+02  0.15350590730E+03  0.37576198189E+03  0.00000000000E+00 0.  1.
         11    1    5    5    0    0 -0.10254766262E+03 -0.57023859120E+02 -0.52854573906E+03  0.54141328198E+03  0.00000000000E+00 0. -1.
        -11    1    5    5    0    0 -0.18093616237E+01  0.63069984871E+01  0.75808208821E+00  0.66050516920E+01  0.00000000000E+00 0.  1.
          3    1    6    6  503    0  0.37790117765E+03  0.35132058550E+02  0.64554342294E+02  0.38498159010E+03  0.00000000000E+00 0. -1.
         -3    1    6    6    0  503  0.15472342959E+03  0.64554696302E+02 -0.36559328932E+01  0.16769023324E+03  0.00000000000E+00 0.  1.
<mgrwt>
<rscale>  0 0.15653704E+04</rscale>
<asrwt>0</asrwt>
<pdfrwt beam="1">  1        2 0.14183732E+00 0.15653704E+04</pdfrwt>
<pdfrwt beam="2">  1       -1 0.10222498E+00 0.15653704E+04</pdfrwt>
<totfact> 0.28180855E+01</totfact>
</mgrwt>
</event>
<event>
12    6  0.1450532E-007  0.1678366E+04  0.7818608E-02  0.8773800E-01
         -1   -1    0    0    0  501 -0.00000000000E+00  0.00000000000E+00  0.49987886966E+03  0.49987886966E+03  0.00000000000E+00 0.  1.
          2   -1    0    0  501    0  0.00000000000E+00 -0.00000000000E+00 -0.14087982545E+04  0.14087982545E+04  0.00000000000E+00 0. -1.
         24    2    1    2    0    0  0.27400960031E+03 -0.15028733152E+03  0.24773612556E+03  0.40671185729E+03  0.79836106367E+02 0.  0.
        254    2    1    2    0    0 -0.27400960031E+03  0.15028733152E+03 -0.11566555104E+04  0.15019652669E+04  0.90574839226E+03 0.  0.
         23    2    4    4    0    0  0.10796224105E+03  0.95888402826E+02 -0.10851115201E+04  0.10988016046E+04  0.95118473078E+02 0.  0.
         23    2    4    4    0    0 -0.38197184136E+03  0.54398928696E+02 -0.71543990373E+02  0.40316366234E+03  0.92523861994E+02 0.  0.
          4    1    3    3  502    0  0.16996798580E+02  0.99375702414E+01  0.15159390933E+02  0.24848613598E+02  0.00000000000E+00 0. -1.
         -3    1    3    3    0  502  0.25701280173E+03 -0.16022490176E+03  0.23257673463E+03  0.38186324370E+03  0.00000000000E+00 0.  1.
         11    1    5    5    0    0  0.84459775729E+02  0.96062768395E+02 -0.10409113753E+04  0.10487411504E+04  0.00000000000E+00 0.  1.
        -11    1    5    5    0    0  0.23502465323E+02 -0.17436556923E+00 -0.44200144761E+02  0.50060454218E+02  0.00000000000E+00 0. -1.
          1    1    6    6  503    0 -0.15224988152E+03 -0.66040904320E+01  0.77830457746E+01  0.15259166502E+03  0.00000000000E+00 0. -1.
         -1    1    6    6    0  503 -0.22972195984E+03  0.61003019128E+02 -0.79327036147E+02  0.25057199732E+03  0.00000000000E+00 0.  1.
<mgrwt>
<rscale>  0 0.16783664E+04</rscale>
<asrwt>0</asrwt>
<pdfrwt beam="1">  1        2 0.21673819E+00 0.16783664E+04</pdfrwt>
<pdfrwt beam="2">  1       -1 0.76904442E-01 0.16783664E+04</pdfrwt>
<totfact> 0.26355236E+01</totfact>
</mgrwt>
</event>
<event>
12    6  0.1450532E-007  0.1268068E+04  0.7818608E-02  0.9055278E-01
         -1   -1    0    0    0  501 -0.00000000000E+00  0.00000000000E+00  0.12634763778E+04  0.12634763778E+04  0.00000000000E+00 0.  1.
          2   -1    0    0  501    0  0.00000000000E+00 -0.00000000000E+00 -0.31816885600E+03  0.31816885600E+03  0.00000000000E+00 0. -1.
         24    2    1    2    0    0 -0.20691646149E+03  0.80757359735E+02 -0.52387826192E+02  0.24219513464E+03  0.81103795978E+02 0.  0.
        254    2    1    2    0    0  0.20691646149E+03 -0.80757359735E+02  0.99769534803E+03  0.13394500992E+04  0.86567568267E+03 0.  0.
         23    2    4    4    0    0  0.41461702682E+03 -0.83303356787E+02  0.10240355513E+04  0.11115792455E+04  0.90071530864E+02 0.  0.
         23    2    4    4    0    0 -0.20770056532E+03  0.25459970522E+01 -0.26340203251E+02  0.22787085365E+03  0.89918366864E+02 0.  0.
          4    1    3    3  502    0 -0.18391092615E+03  0.43292433282E+02 -0.58547856964E+02  0.19780120094E+03  0.00000000000E+00 0. -1.
         -3    1    3    3    0  502 -0.23005535343E+02  0.37464926453E+02  0.61600307723E+01  0.44393933704E+02  0.00000000000E+00 0.  1.
         11    1    5    5    0    0  0.22691932786E+02  0.15652957661E+02  0.80941726754E+02  0.85507321482E+02  0.00000000000E+00 0. -1.
        -11    1    5    5    0    0  0.39192509403E+03 -0.98956314448E+02  0.94309382452E+03  0.10260719241E+04  0.00000000000E+00 0.  1.
          1    1    6    6  503    0 -0.46086068370E+02 -0.22494660734E+02  0.24187049996E+02  0.56700518929E+02  0.00000000000E+00 0. -1.
         -1    1    6    6    0  503 -0.16161449695E+03  0.25040657786E+02 -0.50527253248E+02  0.17117033472E+03  0.00000000000E+00 0.  1.
<mgrwt>
<rscale>  0 0.12680676E+04</rscale>
<asrwt>0</asrwt>
<pdfrwt beam="1">  1        2 0.48949056E-01 0.12680676E+04</pdfrwt>
<pdfrwt beam="2">  1       -1 0.19438098E+00 0.12680676E+04</pdfrwt>
<totfact> 0.19047045E+01</totfact>
</mgrwt>
</event>
<event>
12    6  0.1450532E-007  0.3010474E+04  0.7818608E-02  0.8240746E-01
         -1   -1    0    0    0  501 -0.00000000000E+00  0.00000000000E+00  0.23405159837E+04  0.23405159837E+04  0.00000000000E+00 0.  1.
          2   -1    0    0  501    0  0.00000000000E+00 -0.00000000000E+00 -0.96805088295E+03  0.96805088295E+03  0.00000000000E+00 0. -1.
         24    2    1    2    0    0  0.43934711065E+03 -0.87741821037E+02  0.20408041998E+04  0.20909449341E+04  0.80277176438E+02 0.  0.
        254    2    1    2    0    0 -0.43934711065E+03  0.87741821037E+02 -0.66833909901E+03  0.12176219325E+04  0.91389359798E+03 0.  0.
         23    2    4    4    0    0 -0.39021047715E+03  0.30462832752E+03  0.38595166481E+01  0.50353572690E+03  0.92036394938E+02 0.  0.
         23    2    4    4    0    0 -0.49136633506E+02 -0.21688650648E+03 -0.67219861566E+03  0.71408620560E+03  0.92811446908E+02 0.  0.
          2    1    3    3  502    0  0.65809782796E+02 -0.37384452559E+02  0.43180043661E+03  0.43838355565E+03  0.00000000000E+00 0. -1.
         -1    1    3    3    0  502  0.37353732786E+03 -0.50357368478E+02  0.16090037632E+04  0.16525613785E+04  0.00000000000E+00 0.  1.
         11    1    5    5    0    0 -0.69272380884E+02  0.41302607148E+02 -0.32179728009E+02  0.86833766504E+02  0.00000000000E+00 0. -1.
        -11    1    5    5    0    0 -0.32093809626E+03  0.26332572037E+03  0.36039244657E+02  0.41670196040E+03  0.00000000000E+00 0.  1.
          3    1    6    6  503    0  0.25978967187E+02 -0.30929124365E+02 -0.11663518671E+03  0.12343129364E+03  0.00000000000E+00 0. -1.
         -3    1    6    6    0  503 -0.75115600693E+02 -0.18595738212E+03 -0.55556342895E+03  0.59065491196E+03  0.00000000000E+00 0.  1.
<mgrwt>
<rscale>  0 0.30104741E+04</rscale>
<asrwt>0</asrwt>
<pdfrwt beam="1">  1        2 0.14893091E+00 0.30104741E+04</pdfrwt>
<pdfrwt beam="2">  1       -1 0.36007938E+00 0.30104741E+04</pdfrwt>
<totfact> 0.34276368E-01</totfact>
</mgrwt>
</event>
<event>
12    6  0.1450532E-007  0.1999271E+04  0.7818608E-02  0.8606961E-01
         -1   -1    0    0    0  501 -0.00000000000E+00  0.00000000000E+00  0.13885468895E+04  0.13885468895E+04  0.00000000000E+00 0.  1.
          2   -1    0    0  501    0  0.00000000000E+00 -0.00000000000E+00 -0.71965277255E+03  0.71965277255E+03  0.00000000000E+00 0. -1.
         24    2    1    2    0    0  0.18395145654E+03  0.73362672596E+03  0.52468492052E+03  0.92399861625E+03  0.80205146949E+02 0.  0.
        254    2    1    2    0    0 -0.18395145654E+03 -0.73362672596E+03  0.14420919638E+03  0.11842010458E+04  0.89971635144E+03 0.  0.
         23    2    4    4    0    0 -0.43273378089E+03 -0.58108444166E+03  0.35643503404E+03  0.81228159115E+03  0.88531329819E+02 0.  0.
         23    2    4    4    0    0  0.24878232434E+03 -0.15254228429E+03 -0.21222583766E+03  0.37191945461E+03  0.90124808726E+02 0.  0.
          2    1    3    3  502    0  0.55525666063E+02  0.23221788729E+03  0.12148535471E+03  0.26789352023E+03  0.00000000000E+00 0. -1.
         -1    1    3    3    0  502  0.12842579048E+03  0.50140883866E+03  0.40319956581E+03  0.65610509602E+03  0.00000000000E+00 0.  1.
         11    1    5    5    0    0 -0.36127188257E+03 -0.53231909638E+03  0.31108995522E+03  0.71460335413E+03  0.00000000000E+00 0.  1.
        -11    1    5    5    0    0 -0.71461898322E+02 -0.48765345286E+02  0.45345078819E+02  0.97678237012E+02  0.00000000000E+00 0. -1.
          2    1    6    6  503    0  0.95449080494E+02 -0.10680958444E+03 -0.78221185761E+02  0.16320958366E+03  0.00000000000E+00 0. -1.
         -2    1    6    6    0  503  0.15333324385E+03 -0.45732699853E+02 -0.13400465190E+03  0.20870987096E+03  0.00000000000E+00 0.  1.
<mgrwt>
<rscale>  0 0.19992715E+04</rscale>
<asrwt>0</asrwt>
<pdfrwt beam="1">  1        2 0.11071581E+00 0.19992715E+04</pdfrwt>
<pdfrwt beam="2">  1       -1 0.21362260E+00 0.19992715E+04</pdfrwt>
<totfact> 0.50956890E+00</totfact>
</mgrwt>
</event>
<event>
12    6  0.1450532E-007  0.1402148E+04  0.7818608E-02  0.8952265E-01
         -1   -1    0    0    0  501 -0.00000000000E+00  0.00000000000E+00  0.26906911937E+03  0.26906911937E+03  0.00000000000E+00 0.  1.
          2   -1    0    0  501    0  0.00000000000E+00 -0.00000000000E+00 -0.18266853784E+04  0.18266853784E+04  0.00000000000E+00 0. -1.
         24    2    1    2    0    0 -0.11521283808E+03  0.38850443110E+03 -0.50097240903E+03  0.64917929755E+03  0.79061461602E+02 0.  0.
        254    2    1    2    0    0  0.11521283808E+03 -0.38850443110E+03 -0.10566438500E+04  0.14465752002E+04  0.90104045029E+03 0.  0.
         23    2    4    4    0    0  0.46042002889E+03 -0.11177293657E+03 -0.77803613620E+03  0.91526416728E+03  0.88817083451E+02 0.  0.
         23    2    4    4    0    0 -0.34520719081E+03 -0.27673149454E+03 -0.27860771376E+03  0.53131103290E+03  0.94450150150E+02 0.  0.
          2    1    3    3  502    0 -0.37154889005E+02  0.25330347123E+03 -0.32980962264E+03  0.41751349859E+03  0.00000000000E+00 0. -1.
         -1    1    3    3    0  502 -0.78057949079E+02  0.13520095987E+03 -0.17116278639E+03  0.23166579896E+03  0.00000000000E+00 0.  1.
         11    1    5    5    0    0  0.21159063867E+03 -0.11436040030E+02 -0.38344704878E+03  0.43810160991E+03  0.00000000000E+00 0.  1.
        -11    1    5    5    0    0  0.24882939022E+03 -0.10033689654E+03 -0.39458908742E+03  0.47716255737E+03  0.00000000000E+00 0. -1.
          1    1    6    6  503    0 -0.25468427209E+03 -0.19216946094E+03 -0.14934309371E+03  0.35227338788E+03  0.00000000000E+00 0. -1.
         -1    1    6    6    0  503 -0.90522918717E+02 -0.84562033599E+02 -0.12926462005E+03  0.17903764503E+03  0.00000000000E+00 0.  1.
<mgrwt>
<rscale>  0 0.14021478E+04</rscale>
<asrwt>0</asrwt>
<pdfrwt beam="1">  1        2 0.28102852E+00 0.14021478E+04</pdfrwt>
<pdfrwt beam="2">  1       -1 0.41395249E-01 0.14021478E+04</pdfrwt>
<totfact> 0.52878377E+01</totfact>
</mgrwt>
</event>
<event>
12    6  0.1450532E-007  0.1474941E+04  0.7818608E-02  0.8901290E-01
          2   -1    0    0  501    0  0.00000000000E+00  0.00000000000E+00  0.59705721112E+03  0.59705721112E+03  0.00000000000E+00 0. -1.
         -1   -1    0    0    0  501 -0.00000000000E+00 -0.00000000000E+00 -0.91090514833E+03  0.91090514833E+03  0.00000000000E+00 0.  1.
         24    2    1    2    0    0  0.21972943813E+02  0.28465155674E+03  0.26626175992E+03  0.39865678586E+03  0.80762547632E+02 0.  0.
        254    2    1    2    0    0 -0.21972943813E+02 -0.28465155674E+03 -0.58010969713E+03  0.11093055736E+04  0.90140017522E+03 0.  0.
         23    2    4    4    0    0 -0.28328417508E+03  0.21022018821E+03 -0.13395485015E+03  0.38814691704E+03  0.90948754519E+02 0.  0.
         23    2    4    4    0    0  0.26131123127E+03 -0.49487174495E+03 -0.44615484698E+03  0.72115865655E+03  0.88510207839E+02 0.  0.
          2    1    3    3  502    0  0.44926719743E+02  0.23900790030E+03  0.23797881629E+03  0.34026034673E+03  0.00000000000E+00 0. -1.
         -1    1    3    3    0  502 -0.22953775931E+02  0.45643656444E+02  0.28282943636E+02  0.58396439136E+02  0.00000000000E+00 0.  1.
         11    1    5    5    0    0 -0.13701354506E+03  0.15704846202E+03 -0.83772709243E+02  0.22462145438E+03  0.00000000000E+00 0. -1.
        -11    1    5    5    0    0 -0.14627063003E+03  0.53171726185E+02 -0.50182140904E+02  0.16352546266E+03  0.00000000000E+00 0.  1.
          3    1    6    6  503    0  0.99093567590E+02 -0.27918872308E+03 -0.24784026966E+03  0.38625209061E+03  0.00000000000E+00 0. -1.
         -3    1    6    6    0  503  0.16221766368E+03 -0.21568302187E+03 -0.19831457732E+03  0.33490656594E+03  0.00000000000E+00 0.  1.
<mgrwt>
<rscale>  0 0.14749407E+04</rscale>
<asrwt>0</asrwt>
<pdfrwt beam="1">  1        2 0.91854956E-01 0.14749407E+04</pdfrwt>
<pdfrwt beam="2">  1       -1 0.14013925E+00 0.14749407E+04</pdfrwt>
<totfact> 0.23076388E+01</totfact>
</mgrwt>
</event>
<event>
12    6  0.1450532E-007  0.1469219E+04  0.7818608E-02  0.8905184E-01
          2   -1    0    0  501    0  0.00000000000E+00  0.00000000000E+00  0.85948631644E+03  0.85948631644E+03  0.00000000000E+00 0. -1.
         -1   -1    0    0    0  501 -0.00000000000E+00 -0.00000000000E+00 -0.62787598648E+03  0.62787598648E+03  0.00000000000E+00 0.  1.
         24    2    1    2    0    0  0.30130482528E+03  0.52279361715E+02  0.41364734229E+03  0.51942209110E+03  0.71954538009E+02 0.  0.
        254    2    1    2    0    0 -0.30130482528E+03 -0.52279361715E+02 -0.18203701233E+03  0.96794021182E+03  0.90014057257E+03 0.  0.
         23    2    4    4    0    0 -0.12518331295E+03 -0.39022464706E+03 -0.34695692380E+03  0.54466840808E+03  0.91315008453E+02 0.  0.
         23    2    4    4    0    0 -0.17612151234E+03  0.33794528535E+03  0.16491991147E+03  0.42327180374E+03  0.82064850249E+02 0.  0.
          4    1    3    3  502    0  0.27215657458E+03  0.44831466079E+02  0.40119086636E+03  0.48686052693E+03  0.00000000000E+00 0. -1.
         -3    1    3    3    0  502  0.29148250704E+02  0.74478956357E+01  0.12456475937E+02  0.32561564171E+02  0.00000000000E+00 0.  1.
         11    1    5    5    0    0 -0.56330210930E+02 -0.24191406228E+03 -0.15618302636E+03  0.29340866367E+03  0.00000000000E+00 0. -1.
        -11    1    5    5    0    0 -0.68853102018E+02 -0.14831058478E+03 -0.19077389744E+03  0.25125974441E+03  0.00000000000E+00 0.  1.
          4    1    6    6  503    0 -0.17776987812E+02  0.11492445868E+03  0.47603313677E+02  0.12565718432E+03  0.00000000000E+00 0. -1.
         -4    1    6    6    0  503 -0.15834452452E+03  0.22302082666E+03  0.11731659780E+03  0.29761461942E+03  0.00000000000E+00 0.  1.
<mgrwt>
<rscale>  0 0.14692186E+04</rscale>
<asrwt>0</asrwt>
<pdfrwt beam="1">  1        2 0.13222866E+00 0.14692186E+04</pdfrwt>
<pdfrwt beam="2">  1       -1 0.96596305E-01 0.14692186E+04</pdfrwt>
<totfact> 0.35646683E+01</totfact>
</mgrwt>
</event>
<event>
12    6  0.1450532E-007  0.1810460E+04  0.7818608E-02  0.8700757E-01
         -1   -1    0    0    0  501 -0.00000000000E+00  0.00000000000E+00  0.57798824358E+03  0.57798824358E+03  0.00000000000E+00 0.  1.
          2   -1    0    0  501    0  0.00000000000E+00 -0.00000000000E+00 -0.14177477162E+04  0.14177477162E+04  0.00000000000E+00 0. -1.
         24    2    1    2    0    0  0.39550346927E+03 -0.27866368723E+03 -0.84059475508E+03  0.97315919296E+03  0.79767335322E+02 0.  0.
        254    2    1    2    0    0 -0.39550346927E+03  0.27866368723E+03  0.83528245334E+00  0.10225767668E+04  0.90088073661E+03 0.  0.
         23    2    4    4    0    0 -0.38882552611E+02  0.46980834252E+03 -0.24655562725E+03  0.53972884969E+03  0.91026492065E+02 0.  0.
         23    2    4    4    0    0 -0.35662091666E+03 -0.19114465529E+03  0.24739090970E+03  0.48284791715E+03  0.90692289904E+02 0.  0.
          4    1    3    3  502    0  0.35312929513E+03 -0.27512583004E+03 -0.76021688726E+03  0.88222686261E+03  0.00000000000E+00 0. -1.
         -3    1    3    3    0  502  0.42374174144E+02 -0.35378571970E+01 -0.80377867817E+02  0.90932330349E+02  0.00000000000E+00 0.  1.
         11    1    5    5    0    0 -0.15386453812E+02  0.28049340858E+03 -0.96536024265E+02  0.29703955831E+03  0.00000000000E+00 0.  1.
        -11    1    5    5    0    0 -0.23496098800E+02  0.18931493394E+03 -0.15001960298E+03  0.24268929138E+03  0.00000000000E+00 0. -1.
          2    1    6    6  503    0 -0.19195954964E+03 -0.58529826117E+02  0.14722567748E+03  0.24889678454E+03  0.00000000000E+00 0. -1.
         -2    1    6    6    0  503 -0.16466136701E+03 -0.13261482917E+03  0.10016523222E+03  0.23395113261E+03  0.00000000000E+00 0.  1.
<mgrwt>
<rscale>  0 0.18104602E+04</rscale>
<asrwt>0</asrwt>
<pdfrwt beam="1">  1        2 0.21811503E+00 0.18104602E+04</pdfrwt>
<pdfrwt beam="2">  1       -1 0.88921270E-01 0.18104602E+04</pdfrwt>
<totfact> 0.18852061E+01</totfact>
</mgrwt>
</event>
<event>
12    6  0.1450532E-007  0.1144825E+04  0.7818608E-02  0.9162571E-01
          2   -1    0    0  501    0  0.00000000000E+00  0.00000000000E+00  0.10893189492E+04  0.10893189492E+04  0.00000000000E+00 0. -1.
         -1   -1    0    0    0  501 -0.00000000000E+00 -0.00000000000E+00 -0.30078966798E+03  0.30078966798E+03  0.00000000000E+00 0.  1.
         24    2    1    2    0    0  0.13835038774E+03 -0.38549659386E+01 -0.20306643075E+02  0.16107060900E+03  0.79847922824E+02 0.  0.
        254    2    1    2    0    0 -0.13835038774E+03  0.38549659386E+01  0.80883592428E+03  0.12290380082E+04  0.91496621934E+03 0.  0.
         23    2    4    4    0    0  0.18233079731E+03  0.27047324622E+03  0.26296037164E+02  0.33781351578E+03  0.83822391432E+02 0.  0.
         23    2    4    4    0    0 -0.32068118505E+03 -0.26661828028E+03  0.78253988712E+03  0.89122449238E+03  0.89390665414E+02 0.  0.
          2    1    3    3  502    0 -0.72478471791E+01 -0.10739844560E+02 -0.69395230096E+01  0.14698045091E+02  0.00000000000E+00 0. -1.
         -1    1    3    3    0  502  0.14559823492E+03  0.68848786211E+01 -0.13367120065E+02  0.14637256391E+03  0.00000000000E+00 0.  1.
         11    1    5    5    0    0  0.15284850037E+03  0.20807869509E+03  0.53440525451E+02  0.26365753768E+03  0.00000000000E+00 0.  1.
        -11    1    5    5    0    0  0.29482296939E+02  0.62394551126E+02 -0.27144488287E+02  0.74155978096E+02  0.00000000000E+00 0. -1.
          4    1    6    6  503    0 -0.17658131666E+03 -0.17083686465E+03  0.54024370099E+03  0.59348921825E+03  0.00000000000E+00 0. -1.
         -4    1    6    6    0  503 -0.14409986840E+03 -0.95781415625E+02  0.24229618613E+03  0.29773527413E+03  0.00000000000E+00 0.  1.
<mgrwt>
<rscale>  0 0.11448247E+04</rscale>
<asrwt>0</asrwt>
<pdfrwt beam="1">  1        2 0.16758753E+00 0.11448247E+04</pdfrwt>
<pdfrwt beam="2">  1       -1 0.46275334E-01 0.11448247E+04</pdfrwt>
<totfact> 0.11601566E+02</totfact>
</mgrwt>
</event>
<event>
12    6  0.1785863E-007  0.1482644E+04  0.7818608E-02  0.8896077E-01
          2   -1    0    0  501    0  0.00000000000E+00  0.00000000000E+00  0.96888809975E+03  0.96888809975E+03  0.00000000000E+00 0. -1.
         -1   -1    0    0    0  501 -0.00000000000E+00 -0.00000000000E+00 -0.56720519429E+03  0.56720519429E+03  0.00000000000E+00 0.  1.
         24    2    1    2    0    0 -0.22681234555E+03  0.24053290540E+03 -0.21992872936E+03  0.40530703874E+03  0.81272572149E+02 0.  0.
        254    2    1    2    0    0  0.22681234555E+03 -0.24053290540E+03  0.62161163482E+03  0.11307862553E+04  0.88485965664E+03 0.  0.
         23    2    4    4    0    0 -0.75099768159E+02 -0.49361200447E+03  0.49125519957E+03  0.70563378874E+03  0.85408351847E+02 0.  0.
         23    2    4    4    0    0  0.30191211371E+03  0.25307909908E+03  0.13035643525E+03  0.42515246656E+03  0.92530345402E+02 0.  0.
          2    1    3    3  502    0  0.56231554002E+01  0.13114028643E+02 -0.16136704212E+02  0.21540446763E+02  0.00000000000E+00 0. -1.
         -1    1    3    3    0  502 -0.23243550095E+03  0.22741887675E+03 -0.20379202515E+03  0.38376659198E+03  0.00000000000E+00 0.  1.
         11    1    5    5    0    0 -0.78904071738E+02 -0.45401587955E+03  0.47736213853E+03  0.66349896965E+03  0.00000000000E+00 0. -1.
        -11    1    5    5    0    0  0.38043035792E+01 -0.39596124923E+02  0.13893061038E+02  0.42134819089E+02  0.00000000000E+00 0.  1.
          4    1    6    6  503    0  0.25209800965E+03  0.18433327432E+03  0.67482985249E+02  0.31950917951E+03  0.00000000000E+00 0. -1.
         -4    1    6    6    0  503  0.49814104055E+02  0.68745824757E+02  0.62873450004E+02  0.10564328705E+03  0.00000000000E+00 0.  1.
<mgrwt>
<rscale>  0 0.14826441E+04</rscale>
<asrwt>0</asrwt>
<pdfrwt beam="1">  1        2 0.14905971E+00 0.14826441E+04</pdfrwt>
<pdfrwt beam="2">  1       -1 0.87262338E-01 0.14826441E+04</pdfrwt>
<totfact> 0.37667853E+01</totfact>
</mgrwt>
</event>
<event>
12    6  0.1450532E-007  0.1651734E+04  0.7818608E-02  0.8789381E-01
         -3   -1    0    0    0  501 -0.00000000000E+00  0.00000000000E+00  0.57013084780E+03  0.57013084780E+03  0.00000000000E+00 0.  1.
          2   -1    0    0  501    0  0.00000000000E+00 -0.00000000000E+00 -0.11963159658E+04  0.11963159658E+04  0.00000000000E+00 0. -1.
         24    2    1    2    0    0  0.57243207742E+03  0.21093666583E+02 -0.31521317667E+03  0.65887776815E+03  0.81468647831E+02 0.  0.
        254    2    1    2    0    0 -0.57243207742E+03 -0.21093666583E+02 -0.31097194128E+03  0.11075690454E+04  0.89547876360E+03 0.  0.
         23    2    4    4    0    0 -0.39292208360E+02  0.37146304653E+03 -0.18604415521E+03  0.42712709259E+03  0.91084866815E+02 0.  0.
         23    2    4    4    0    0 -0.53313986906E+03 -0.39255671311E+03 -0.12492778607E+03  0.68044195282E+03  0.95159899268E+02 0.  0.
          2    1    3    3  502    0  0.47977534482E+03  0.15871164283E+02 -0.22763830788E+03  0.53127721066E+03  0.00000000000E+00 0. -1.
         -1    1    3    3    0  502  0.92656732607E+02  0.52225023006E+01 -0.87574868799E+02  0.12760055749E+03  0.00000000000E+00 0.  1.
         11    1    5    5    0    0  0.15416215863E+02  0.37972029489E+02  0.75337416750E+00  0.40989051071E+02  0.00000000000E+00 0. -1.
        -11    1    5    5    0    0 -0.54708424223E+02  0.33349101704E+03 -0.18679752938E+03  0.38613804152E+03  0.00000000000E+00 0.  1.
          3    1    6    6  503    0 -0.12379723075E+03 -0.49528438029E+02 -0.43167299506E+02  0.14015076262E+03  0.00000000000E+00 0. -1.
         -3    1    6    6    0  503 -0.40934263831E+03 -0.34302827508E+03 -0.81760486563E+02  0.54029119020E+03  0.00000000000E+00 0.  1.
<mgrwt>
<rscale>  0 0.16517344E+04</rscale>
<asrwt>0</asrwt>
<pdfrwt beam="1">  1        2 0.18404861E+00 0.16517344E+04</pdfrwt>
<pdfrwt beam="2">  1       -3 0.87712439E-01 0.16517344E+04</pdfrwt>
<totfact> 0.13663642E+01</totfact>
</mgrwt>
</event>
<event>
12    6  0.1450532E-007  0.1091567E+04  0.7818608E-02  0.9213450E-01
          2   -1    0    0  501    0  0.00000000000E+00  0.00000000000E+00  0.11616452237E+04  0.11616452237E+04  0.00000000000E+00 0. -1.
         -1   -1    0    0    0  501 -0.00000000000E+00 -0.00000000000E+00 -0.25642931227E+03  0.25642931227E+03  0.00000000000E+00 0.  1.
         24    2    1    2    0    0  0.33207018563E+02 -0.13267503912E+03  0.44852169933E+02  0.16463780597E+03  0.79928204786E+02 0.  0.
        254    2    1    2    0    0 -0.33207018563E+02  0.13267503912E+03  0.86036374146E+03  0.12534367300E+04  0.90120613419E+03 0.  0.
         23    2    4    4    0    0 -0.88612493598E+02 -0.29768747773E+03  0.47171184683E+02  0.32714668681E+03  0.91267878269E+02 0.  0.
         23    2    4    4    0    0  0.55405475035E+02  0.43036251685E+03  0.81319255678E+03  0.92629004315E+03  0.91920873968E+02 0.  0.
          2    1    3    3  502    0 -0.94960363297E+01 -0.24168427149E+02  0.40300501384E+02  0.47941818787E+02  0.00000000000E+00 0. -1.
         -1    1    3    3    0  502  0.42703054893E+02 -0.10850661197E+03  0.45516685490E+01  0.11669598718E+03  0.00000000000E+00 0.  1.
         11    1    5    5    0    0 -0.87903197607E+02 -0.18807597449E+03 -0.52618085519E+00  0.20760496428E+03  0.00000000000E+00 0. -1.
        -11    1    5    5    0    0 -0.70929599099E+00 -0.10961150324E+03  0.47697365538E+02  0.11954172252E+03  0.00000000000E+00 0.  1.
          1    1    6    6  503    0 -0.18642699413E+01  0.87160717598E+02  0.24472314627E+03  0.25978815315E+03  0.00000000000E+00 0. -1.
         -1    1    6    6    0  503  0.57269744977E+02  0.34320179925E+03  0.56846941051E+03  0.66650189001E+03  0.00000000000E+00 0.  1.
<mgrwt>
<rscale>  0 0.10915675E+04</rscale>
<asrwt>0</asrwt>
<pdfrwt beam="1">  1        2 0.17871465E+00 0.10915675E+04</pdfrwt>
<pdfrwt beam="2">  1       -1 0.39450664E-01 0.10915675E+04</pdfrwt>
<totfact> 0.14118436E+02</totfact>
</mgrwt>
</event>
<event>
12    6  0.1450532E-007  0.1874520E+04  0.7818608E-02  0.8667644E-01
          2   -1    0    0  501    0  0.00000000000E+00  0.00000000000E+00  0.66722263948E+03  0.66722263948E+03  0.00000000000E+00 0. -1.
         -1   -1    0    0    0  501 -0.00000000000E+00 -0.00000000000E+00 -0.13165870365E+04  0.13165870365E+04  0.00000000000E+00 0.  1.
         24    2    1    2    0    0  0.44531291800E+03 -0.20556951478E+03 -0.80456523234E+03  0.94593681375E+03  0.83119324936E+02 0.  0.
        254    2    1    2    0    0 -0.44531291800E+03  0.20556951478E+03  0.15520083527E+03  0.10378728623E+04  0.90140465863E+03 0.  0.
         23    2    4    4    0    0 -0.59852441983E+03 -0.14133189693E+03  0.10786942333E+02  0.62199858635E+03  0.92518630936E+02 0.  0.
         23    2    4    4    0    0  0.15321150183E+03  0.34690141171E+03  0.14441389294E+03  0.41587427591E+03  0.91003775497E+02 0.  0.
          2    1    3    3  502    0  0.22117023513E+03 -0.60792939230E+02 -0.40558544708E+03  0.46595236801E+03  0.00000000000E+00 0. -1.
         -1    1    3    3    0  502  0.22414268288E+03 -0.14477657555E+03 -0.39897978526E+03  0.47998444575E+03  0.00000000000E+00 0.  1.
         11    1    5    5    0    0 -0.39353764626E+03 -0.64729810147E+02  0.41676397678E+02  0.40099719384E+03  0.00000000000E+00 0.  1.
        -11    1    5    5    0    0 -0.20498677357E+03 -0.76602086778E+02 -0.30889455345E+02  0.22100139251E+03  0.00000000000E+00 0. -1.
          3    1    6    6  503    0  0.62551029826E+02  0.23705042409E+03  0.68892438426E+02  0.25465997519E+03  0.00000000000E+00 0. -1.
         -3    1    6    6    0  503  0.90660472002E+02  0.10985098762E+03  0.75521454516E+02  0.16121430072E+03  0.00000000000E+00 0.  1.
<mgrwt>
<rscale>  0 0.18745204E+04</rscale>
<asrwt>0</asrwt>
<pdfrwt beam="1">  1        2 0.10264964E+00 0.18745204E+04</pdfrwt>
<pdfrwt beam="2">  1       -1 0.20255185E+00 0.18745204E+04</pdfrwt>
<totfact> 0.67399557E+00</totfact>
</mgrwt>
</event>
<event>
12    6  0.1450532E-007  0.1645805E+04  0.7818608E-02  0.8792892E-01
         -1   -1    0    0    0  501 -0.00000000000E+00  0.00000000000E+00  0.53425231020E+03  0.53425231020E+03  0.00000000000E+00 0.  1.
          2   -1    0    0  501    0  0.00000000000E+00 -0.00000000000E+00 -0.12675067553E+04  0.12675067553E+04  0.00000000000E+00 0. -1.
         24    2    1    2    0    0 -0.11210490064E+03 -0.14566709257E+03 -0.87253113261E+03  0.89528294508E+03  0.80215732673E+02 0.  0.
        254    2    1    2    0    0  0.11210490064E+03  0.14566709257E+03  0.13927668750E+03  0.90647612043E+03  0.87664961679E+03 0.  0.
         23    2    4    4    0    0 -0.28431826297E+03  0.30557595140E+03 -0.46800231329E+02  0.42979036316E+03  0.91191873973E+02 0.  0.
         23    2    4    4    0    0  0.39642316361E+03 -0.15990885883E+03  0.18607691883E+03  0.47668575727E+03  0.99410883106E+02 0.  0.
          2    1    3    3  502    0 -0.70164677928E+02 -0.14034130182E+03 -0.72678769859E+03  0.74353152041E+03  0.00000000000E+00 0. -1.
         -1    1    3    3    0  502 -0.41940222708E+02 -0.53257907528E+01 -0.14574343402E+03  0.15175142466E+03  0.00000000000E+00 0.  1.
         11    1    5    5    0    0 -0.51503595417E+02  0.10846371070E+03 -0.32561443035E+02  0.12440757394E+03  0.00000000000E+00 0. -1.
        -11    1    5    5    0    0 -0.23281466756E+03  0.19711224070E+03 -0.14238788294E+02  0.30538278923E+03  0.00000000000E+00 0.  1.
          1    1    6    6  503    0  0.16211952985E+03 -0.11861540063E+03  0.89548977699E+02  0.21993493273E+03  0.00000000000E+00 0. -1.
         -1    1    6    6    0  503  0.23430363376E+03 -0.41293458195E+02  0.96527941134E+02  0.25675082454E+03  0.00000000000E+00 0.  1.
<mgrwt>
<rscale>  0 0.16458049E+04</rscale>
<asrwt>0</asrwt>
<pdfrwt beam="1">  1        2 0.19500104E+00 0.16458049E+04</pdfrwt>
<pdfrwt beam="2">  1       -1 0.82192664E-01 0.16458049E+04</pdfrwt>
<totfact> 0.27703506E+01</totfact>
</mgrwt>
</event>
<event>
12    6  0.1450532E-007  0.1155314E+04  0.7818608E-02  0.9152895E-01
          2   -1    0    0  501    0  0.00000000000E+00  0.00000000000E+00  0.10590278088E+04  0.10590278088E+04  0.00000000000E+00 0. -1.
         -1   -1    0    0    0  501 -0.00000000000E+00 -0.00000000000E+00 -0.31508858442E+03  0.31508858442E+03  0.00000000000E+00 0.  1.
         24    2    1    2    0    0 -0.11800548196E+03  0.25145082657E+02  0.34022941462E+03  0.36947875879E+03  0.78745981909E+02 0.  0.
        254    2    1    2    0    0  0.11800548196E+03 -0.25145082657E+02  0.40370980975E+03  0.10046376344E+04  0.91200745451E+03 0.  0.
         23    2    4    4    0    0 -0.25313369526E+03 -0.23752752943E+03  0.43799872868E+03  0.56674675624E+03  0.94143531202E+02 0.  0.
         23    2    4    4    0    0  0.37113917722E+03  0.21238244677E+03 -0.34288918931E+02  0.43789087820E+03  0.87875472608E+02 0.  0.
          4    1    3    3  502    0 -0.93609882959E+02 -0.14497802182E+02  0.19170824642E+03  0.21383416051E+03  0.00000000000E+00 0. -1.
         -3    1    3    3    0  502 -0.24395599001E+02  0.39642884838E+02  0.14852116820E+03  0.15564459827E+03  0.00000000000E+00 0.  1.
         11    1    5    5    0    0 -0.21379247807E+03 -0.17647470374E+03  0.39424973807E+03  0.48195788271E+03  0.00000000000E+00 0. -1.
        -11    1    5    5    0    0 -0.39341217188E+02 -0.61052825686E+02  0.43748990612E+02  0.84788873525E+02  0.00000000000E+00 0.  1.
          3    1    6    6  503    0  0.24892961850E+03  0.10339922435E+03 -0.47143290377E+02  0.27364181770E+03  0.00000000000E+00 0. -1.
         -3    1    6    6    0  503  0.12220955871E+03  0.10898322242E+03  0.12854371446E+02  0.16424906050E+03  0.00000000000E+00 0.  1.
<mgrwt>
<rscale>  0 0.11553139E+04</rscale>
<asrwt>0</asrwt>
<pdfrwt beam="1">  1        2 0.16292735E+00 0.11553139E+04</pdfrwt>
<pdfrwt beam="2">  1       -1 0.48475167E-01 0.11553139E+04</pdfrwt>
<totfact> 0.11095637E+02</totfact>
</mgrwt>
</event>
<event>
12    6  0.1450532E-007  0.1960085E+04  0.7818608E-02  0.8625513E-01
         -1   -1    0    0    0  501 -0.00000000000E+00  0.00000000000E+00  0.34837981503E+03  0.34837981503E+03  0.00000000000E+00 0.  1.
          2   -1    0    0  501    0  0.00000000000E+00 -0.00000000000E+00 -0.27570005889E+04  0.27570005889E+04  0.00000000000E+00 0. -1.
         24    2    1    2    0    0  0.62340536941E+03 -0.42221589004E+03 -0.68987208427E+03  0.10244860420E+04  0.82144051128E+02 0.  0.
        254    2    1    2    0    0 -0.62340536941E+03  0.42221589004E+03 -0.17187486896E+04  0.20808943620E+04  0.89951307671E+03 0.  0.
         23    2    4    4    0    0  0.10009444128E+03  0.14674882686E+03 -0.10022063878E+04  0.10220337101E+04  0.92634471512E+02 0.  0.
         23    2    4    4    0    0 -0.72349981069E+03  0.27546706318E+03 -0.71654230177E+03  0.10588606519E+04  0.91754732573E+02 0.  0.
          4    1    3    3  502    0  0.30701493257E+03 -0.24428134549E+03 -0.39600963008E+03  0.55745418798E+03  0.00000000000E+00 0. -1.
         -3    1    3    3    0  502  0.31639043683E+03 -0.17793454455E+03 -0.29386245418E+03  0.46703185399E+03  0.00000000000E+00 0.  1.
         11    1    5    5    0    0  0.11456868202E+03  0.12166703998E+03 -0.91524207241E+03  0.93037460338E+03  0.00000000000E+00 0.  1.
        -11    1    5    5    0    0 -0.14474240736E+02  0.25081786886E+02 -0.86964315429E+02  0.91659106674E+02  0.00000000000E+00 0. -1.
          3    1    6    6  503    0 -0.32334392808E+03  0.15554740995E+03 -0.28476368224E+03  0.45807930241E+03  0.00000000000E+00 0. -1.
         -3    1    6    6    0  503 -0.40015588261E+03  0.11991965323E+03 -0.43177861953E+03  0.60078134949E+03  0.00000000000E+00 0.  1.
<mgrwt>
<rscale>  0 0.19600851E+04</rscale>
<asrwt>0</asrwt>
<pdfrwt beam="1">  1        2 0.42415394E+00 0.19600851E+04</pdfrwt>
<pdfrwt beam="2">  1       -1 0.53596895E-01 0.19600851E+04</pdfrwt>
<totfact> 0.91627191E+00</totfact>
</mgrwt>
</event>
<event>
12    6  0.1450532E-007  0.1419861E+04  0.7818608E-02  0.8939566E-01
         -1   -1    0    0    0  501 -0.00000000000E+00  0.00000000000E+00  0.30269991034E+03  0.30269991034E+03  0.00000000000E+00 0.  1.
          2   -1    0    0  501    0  0.00000000000E+00 -0.00000000000E+00 -0.16650203005E+04  0.16650203005E+04  0.00000000000E+00 0. -1.
         24    2    1    2    0    0 -0.32655678966E+03 -0.33106330637E+02 -0.56699158326E+02  0.34269409270E+03  0.80554829865E+02 0.  0.
        254    2    1    2    0    0  0.32655678966E+03  0.33106330637E+02 -0.13056212318E+04  0.16250261181E+04  0.91012511095E+03 0.  0.
         23    2    4    4    0    0 -0.27022081982E+03 -0.15274902911E+03 -0.32371326177E+03  0.45758735529E+03  0.90798427933E+02 0.  0.
         23    2    4    4    0    0  0.59677760949E+03  0.18585535975E+03 -0.98190797004E+03  0.11674387628E+04  0.89912587431E+02 0.  0.
          2    1    3    3  502    0 -0.10279135807E+03 -0.14551821595E+02 -0.56427801315E+02  0.11816054996E+03  0.00000000000E+00 0. -1.
         -1    1    3    3    0  502 -0.22376543159E+03 -0.18554509042E+02 -0.27135701131E+00  0.22453354274E+03  0.00000000000E+00 0.  1.
         11    1    5    5    0    0 -0.10666069711E+03 -0.10470213252E+03 -0.11805667718E+03  0.19046369704E+03  0.00000000000E+00 0.  1.
        -11    1    5    5    0    0 -0.16356012271E+03 -0.48046896593E+02 -0.20565658458E+03  0.26712365825E+03  0.00000000000E+00 0. -1.
          3    1    6    6  503    0  0.35487801622E+03  0.92807052863E+02 -0.49821939091E+03  0.61868741456E+03  0.00000000000E+00 0. -1.
         -3    1    6    6    0  503  0.24189959326E+03  0.93048306885E+02 -0.48368857913E+03  0.54875134826E+03  0.00000000000E+00 0.  1.
<mgrwt>
<rscale>  0 0.14198613E+04</rscale>
<asrwt>0</asrwt>
<pdfrwt beam="1">  1        2 0.25615696E+00 0.14198613E+04</pdfrwt>
<pdfrwt beam="2">  1       -1 0.46569218E-01 0.14198613E+04</pdfrwt>
<totfact> 0.52154717E+01</totfact>
</mgrwt>
</event>
<event>
12    6  0.1810368E-007  0.2379571E+04  0.7818608E-02  0.8447192E-01
         -1   -1    0    0    0  501 -0.00000000000E+00  0.00000000000E+00  0.81185121717E+03  0.81185121717E+03  0.00000000000E+00 0.  1.
          2   -1    0    0  501    0  0.00000000000E+00 -0.00000000000E+00 -0.17436567683E+04  0.17436567683E+04  0.00000000000E+00 0. -1.
         24    2    1    2    0    0 -0.19841736150E+03 -0.74764239400E+03  0.31007215005E+03  0.83729798636E+03  0.81145431693E+02 0.  0.
        254    2    1    2    0    0  0.19841736150E+03  0.74764239400E+03 -0.12418777012E+04  0.17182099991E+04  0.90091441195E+03 0.  0.
         23    2    4    4    0    0 -0.18798967107E+03  0.74208017825E+03 -0.67248981579E+03  0.10230147972E+04  0.91069289632E+02 0.  0.
         23    2    4    4    0    0  0.38640703257E+03  0.55622157493E+01 -0.56938788539E+03  0.69519520192E+03  0.98754603362E+02 0.  0.
          2    1    3    3  502    0 -0.67540546488E+02 -0.27784313446E+03  0.15672081358E+03  0.32606739517E+03  0.00000000000E+00 0. -1.
         -1    1    3    3    0  502 -0.13087681501E+03 -0.46979925954E+03  0.15335133647E+03  0.51123059119E+03  0.00000000000E+00 0.  1.
         11    1    5    5    0    0 -0.19479730052E+03  0.73559893938E+03 -0.66816583591E+03  0.10126684414E+04  0.00000000000E+00 0.  1.
        -11    1    5    5    0    0  0.68076294519E+01  0.64812388658E+01 -0.43239798868E+01  0.10346355786E+02  0.00000000000E+00 0. -1.
          1    1    6    6  503    0  0.10330431386E+03 -0.75464917648E+00 -0.83586284307E+02  0.13288723671E+03  0.00000000000E+00 0. -1.
         -1    1    6    6    0  503  0.28310271871E+03  0.63168649258E+01 -0.48580160108E+03  0.56230796521E+03  0.00000000000E+00 0.  1.
<mgrwt>
<rscale>  0 0.23795713E+04</rscale>
<asrwt>0</asrwt>
<pdfrwt beam="1">  1        2 0.26825488E+00 0.23795713E+04</pdfrwt>
<pdfrwt beam="2">  1       -1 0.12490019E+00 0.23795713E+04</pdfrwt>
<totfact> 0.53326894E+00</totfact>
</mgrwt>
</event>
<event>
12    6  0.1450532E-007  0.2262968E+04  0.7818608E-02  0.8492667E-01
          2   -1    0    0  501    0  0.00000000000E+00  0.00000000000E+00  0.90993833591E+03  0.90993833591E+03  0.00000000000E+00 0. -1.
         -1   -1    0    0    0  501 -0.00000000000E+00 -0.00000000000E+00 -0.14069704756E+04  0.14069704756E+04  0.00000000000E+00 0.  1.
         24    2    1    2    0    0  0.78836228952E+03 -0.49824947177E+03 -0.38386224164E+03  0.10116681921E+04  0.79716213750E+02 0.  0.
        254    2    1    2    0    0 -0.78836228952E+03  0.49824947177E+03 -0.11316989810E+03  0.13052406194E+04  0.90613355149E+03 0.  0.
         23    2    4    4    0    0 -0.60024905427E+03  0.58849813231E+03  0.24567227564E+03  0.88065060010E+03  0.92529095663E+02 0.  0.
         23    2    4    4    0    0 -0.18811323525E+03 -0.90248660540E+02 -0.35884217374E+03  0.42459001934E+03  0.89317237204E+02 0.  0.
          4    1    3    3  502    0  0.25386726528E+03 -0.20537398590E+03 -0.13410094017E+03  0.35300159294E+03  0.00000000000E+00 0. -1.
         -3    1    3    3    0  502  0.53449502424E+03 -0.29287548587E+03 -0.24976130146E+03  0.65866659918E+03  0.00000000000E+00 0.  1.
         11    1    5    5    0    0 -0.59082537882E+02  0.87860706562E+02  0.54311916429E+02  0.11899594239E+03  0.00000000000E+00 0.  1.
        -11    1    5    5    0    0 -0.54116651638E+03  0.50063742575E+03  0.19136035921E+03  0.76165465770E+03  0.00000000000E+00 0. -1.
          1    1    6    6  503    0 -0.18896533085E+03 -0.62302106615E+02 -0.31251259923E+03  0.37047749383E+03  0.00000000000E+00 0. -1.
         -1    1    6    6    0  503  0.85209560290E+00 -0.27946553925E+02 -0.46329574507E+02  0.54112525511E+02  0.00000000000E+00 0.  1.
<mgrwt>
<rscale>  0 0.22629683E+04</rscale>
<asrwt>0</asrwt>
<pdfrwt beam="1">  1        2 0.13999051E+00 0.22629683E+04</pdfrwt>
<pdfrwt beam="2">  1       -1 0.21645700E+00 0.22629683E+04</pdfrwt>
<totfact> 0.34810541E+00</totfact>
</mgrwt>
</event>
<event>
12    6  0.1450532E-007  0.2731739E+04  0.7818608E-02  0.8324780E-01
         -1   -1    0    0    0  501 -0.00000000000E+00  0.00000000000E+00  0.15400692654E+04  0.15400692654E+04  0.00000000000E+00 0.  1.
          2   -1    0    0  501    0  0.00000000000E+00 -0.00000000000E+00 -0.12113741693E+04  0.12113741693E+04  0.00000000000E+00 0. -1.
         24    2    1    2    0    0 -0.50379763909E+03 -0.53351593395E+03 -0.82124245399E+03  0.11042200247E+04  0.80071103930E+02 0.  0.
        254    2    1    2    0    0  0.50379763909E+03  0.53351593395E+03  0.11499375501E+04  0.16472234101E+04  0.92332945411E+03 0.  0.
         23    2    4    4    0    0 -0.20257926797E+03  0.39571249908E+03  0.46618305006E+03  0.65050587556E+03  0.90578784742E+02 0.  0.
         23    2    4    4    0    0  0.70637690706E+03  0.13780343488E+03  0.68375450004E+03  0.99671753457E+03  0.89260886725E+02 0.  0.
          4    1    3    3  502    0 -0.33436104147E+03 -0.35278279619E+03 -0.59908196906E+03  0.77146108974E+03  0.00000000000E+00 0. -1.
         -1    1    3    3    0  502 -0.16943659762E+03 -0.18073313777E+03 -0.22216048493E+03  0.33275893492E+03  0.00000000000E+00 0.  1.
         11    1    5    5    0    0 -0.21100977192E+03  0.36458583000E+03  0.42798826206E+03  0.60051802949E+03  0.00000000000E+00 0.  1.
        -11    1    5    5    0    0  0.84305039536E+01  0.31126669074E+02  0.38194787997E+02  0.49987846070E+02  0.00000000000E+00 0. -1.
          2    1    6    6  503    0  0.27483136363E+03  0.98101535303E+02  0.27117266587E+03  0.39836014407E+03  0.00000000000E+00 0. -1.
         -2    1    6    6    0  503  0.43154554343E+03  0.39701899575E+02  0.41258183417E+03  0.59835739050E+03  0.00000000000E+00 0.  1.
<mgrwt>
<rscale>  0 0.27317395E+04</rscale>
<asrwt>0</asrwt>
<pdfrwt beam="1">  1        2 0.18636526E+00 0.27317395E+04</pdfrwt>
<pdfrwt beam="2">  1       -1 0.23693373E+00 0.27317395E+04</pdfrwt>
<totfact> 0.15789763E+00</totfact>
</mgrwt>
</event>
<event>
12    6  0.1450532E-007  0.2348177E+04  0.7818608E-02  0.8459164E-01
         -1   -1    0    0    0  501 -0.00000000000E+00  0.00000000000E+00  0.15138607375E+04  0.15138607375E+04  0.00000000000E+00 0.  1.
          2   -1    0    0  501    0  0.00000000000E+00 -0.00000000000E+00 -0.91057496478E+03  0.91057496478E+03  0.00000000000E+00 0. -1.
         24    2    1    2    0    0  0.58521123933E+03 -0.63321665691E+03  0.74582571749E+03  0.11421396805E+04  0.69220804359E+02 0.  0.
        254    2    1    2    0    0 -0.58521123933E+03  0.63321665691E+03 -0.14253994478E+03  0.12822960217E+04  0.93836555899E+03 0.  0.
         23    2    4    4    0    0 -0.15484253432E+03  0.77867316068E+03 -0.40015732531E+01  0.79921505753E+03  0.91763794652E+02 0.  0.
         23    2    4    4    0    0 -0.43036870501E+03 -0.14545650377E+03 -0.13853837153E+03  0.48308096421E+03  0.88314895984E+02 0.  0.
          2    1    3    3  502    0  0.22153885094E+03 -0.19691965203E+03  0.23564245031E+03  0.37866103076E+03  0.00000000000E+00 0. -1.
         -1    1    3    3    0  502  0.36367238839E+03 -0.43629700488E+03  0.51018326718E+03  0.76347864977E+03  0.00000000000E+00 0.  1.
         11    1    5    5    0    0 -0.13620685231E+03  0.63705029019E+03 -0.37391110756E+02  0.65252086098E+03  0.00000000000E+00 0.  1.
        -11    1    5    5    0    0 -0.18635682007E+02  0.14162287049E+03  0.33389537503E+02  0.14669419656E+03  0.00000000000E+00 0. -1.
          4    1    6    6  503    0 -0.25276094650E+03 -0.49046078461E+02 -0.10576898930E+03  0.27835353956E+03  0.00000000000E+00 0. -1.
         -4    1    6    6    0  503 -0.17760775851E+03 -0.96410425305E+02 -0.32769382226E+02  0.20472742464E+03  0.00000000000E+00 0.  1.
<mgrwt>
<rscale>  0 0.23481769E+04</rscale>
<asrwt>0</asrwt>
<pdfrwt beam="1">  1        2 0.14008846E+00 0.23481769E+04</pdfrwt>
<pdfrwt beam="2">  1       -1 0.23290165E+00 0.23481769E+04</pdfrwt>
<totfact> 0.26824040E+00</totfact>
</mgrwt>
</event>
<event>
12    6  0.1450532E-007  0.1280986E+04  0.7818608E-02  0.9044781E-01
          2   -1    0    0  501    0  0.00000000000E+00  0.00000000000E+00  0.85863075693E+03  0.85863075693E+03  0.00000000000E+00 0. -1.
         -1   -1    0    0    0  501 -0.00000000000E+00 -0.00000000000E+00 -0.47777388393E+03  0.47777388393E+03  0.00000000000E+00 0.  1.
         24    2    1    2    0    0  0.63725601476E+02 -0.24771321824E+03  0.28170067987E+03  0.38883338442E+03  0.80083313047E+02 0.  0.
        254    2    1    2    0    0 -0.63725601476E+02  0.24771321824E+03  0.99156193135E+02  0.94757125643E+03  0.90699313372E+03 0.  0.
         23    2    4    4    0    0 -0.26563984649E+03  0.29373611574E+03 -0.28944719605E+03  0.49910302506E+03  0.92079946719E+02 0.  0.
         23    2    4    4    0    0  0.20191424501E+03 -0.46022897501E+02  0.38860338918E+03  0.44846823138E+03  0.84992299884E+02 0.  0.
          2    1    3    3  502    0 -0.20042707910E+01 -0.48621963347E+02  0.10073883020E+03  0.11187682660E+03  0.00000000000E+00 0. -1.
         -1    1    3    3    0  502  0.65729872267E+02 -0.19909125489E+03  0.18096184967E+03  0.27695655782E+03  0.00000000000E+00 0.  1.
         11    1    5    5    0    0 -0.93475290462E+02  0.45187751260E+02 -0.84074274288E+02  0.13359658075E+03  0.00000000000E+00 0. -1.
        -11    1    5    5    0    0 -0.17216455603E+03  0.24854836448E+03 -0.20537292176E+03  0.36550644431E+03  0.00000000000E+00 0.  1.
          4    1    6    6  503    0  0.97375545962E+01 -0.28947677805E+02  0.62575235248E+02  0.69630798403E+02  0.00000000000E+00 0. -1.
         -4    1    6    6    0  503  0.19217669042E+03 -0.17075219696E+02  0.32602815393E+03  0.37883743298E+03  0.00000000000E+00 0.  1.
<mgrwt>
<rscale>  0 0.12809861E+04</rscale>
<asrwt>0</asrwt>
<pdfrwt beam="1">  1        2 0.13209704E+00 0.12809861E+04</pdfrwt>
<pdfrwt beam="2">  1       -1 0.73503675E-01 0.12809861E+04</pdfrwt>
<totfact> 0.65410497E+01</totfact>
</mgrwt>
</event>
<event>
12    6  0.1450532E-007  0.2117641E+04  0.7818608E-02  0.8553512E-01
         -1   -1    0    0    0  501 -0.00000000000E+00  0.00000000000E+00  0.99848087821E+03  0.99848087821E+03  0.00000000000E+00 0.  1.
          2   -1    0    0  501    0  0.00000000000E+00 -0.00000000000E+00 -0.11228064889E+04  0.11228064889E+04  0.00000000000E+00 0. -1.
         24    2    1    2    0    0 -0.11343538944E+03  0.33152768647E+03 -0.84875194156E+03  0.92027979074E+03  0.61293070201E+02 0.  0.
        254    2    1    2    0    0  0.11343538944E+03 -0.33152768647E+03  0.72442633090E+03  0.12010075763E+04  0.89154220039E+03 0.  0.
         23    2    4    4    0    0 -0.25344766190E+03 -0.37506527870E+03  0.10447580192E+03  0.47369416460E+03  0.92527227234E+02 0.  0.
         23    2    4    4    0    0  0.36688305135E+03  0.43537592230E+02  0.61995052898E+03  0.72731341175E+03  0.90263199769E+02 0.  0.
          2    1    3    3  502    0 -0.79523915695E+02  0.16627694236E+03 -0.49948557545E+03  0.53240765849E+03  0.00000000000E+00 0. -1.
         -1    1    3    3    0  502 -0.33911473749E+02  0.16525074411E+03 -0.34926636611E+03  0.38787213225E+03  0.00000000000E+00 0.  1.
         11    1    5    5    0    0 -0.22737835058E+03 -0.26739777943E+03  0.86017553438E+02  0.36138830399E+03  0.00000000000E+00 0.  1.
        -11    1    5    5    0    0 -0.26069311321E+02 -0.10766749927E+03  0.18458248482E+02  0.11230586061E+03  0.00000000000E+00 0. -1.
          3    1    6    6  503    0  0.11859994745E+03 -0.18954592069E+02  0.15012881410E+03  0.19225994101E+03  0.00000000000E+00 0. -1.
         -3    1    6    6    0  503  0.24828310390E+03  0.62492184299E+02  0.46982171488E+03  0.53505347074E+03  0.00000000000E+00 0.  1.
<mgrwt>
<rscale>  0 0.21176410E+04</rscale>
<asrwt>0</asrwt>
<pdfrwt beam="1">  1        2 0.17273946E+00 0.21176410E+04</pdfrwt>
<pdfrwt beam="2">  1       -1 0.15361244E+00 0.21176410E+04</pdfrwt>
<totfact> 0.72395482E+00</totfact>
</mgrwt>
</event>
<event>
12    6  0.1450532E-007  0.1446187E+04  0.7818608E-02  0.8921048E-01
          2   -1    0    0  501    0  0.00000000000E+00  0.00000000000E+00  0.11699301215E+04  0.11699301215E+04  0.00000000000E+00 0. -1.
         -1   -1    0    0    0  501 -0.00000000000E+00 -0.00000000000E+00 -0.44691899145E+03  0.44691899145E+03  0.00000000000E+00 0.  1.
         24    2    1    2    0    0 -0.31866601451E+03 -0.65893294519E+02  0.16137986252E+02  0.33538601742E+03  0.79582604970E+02 0.  0.
        254    2    1    2    0    0  0.31866601451E+03  0.65893294519E+02  0.70687314384E+03  0.12814630956E+04  0.10181296915E+04 0.  0.
         23    2    4    4    0    0  0.29769964501E+03  0.48111370723E+03  0.62570876320E+03  0.84825468281E+03  0.89045340375E+02 0.  0.
         23    2    4    4    0    0  0.20966369505E+02 -0.41522041271E+03  0.81164380646E+02  0.43320841276E+03  0.90743002029E+02 0.  0.
          2    1    3    3  502    0 -0.21672447498E+03 -0.71237597750E+02  0.37224924090E+02  0.23114927723E+03  0.00000000000E+00 0. -1.
         -1    1    3    3    0  502 -0.10194153953E+03  0.53443032311E+01 -0.21086937837E+02  0.10423674019E+03  0.00000000000E+00 0.  1.
         11    1    5    5    0    0  0.18609629921E+03  0.37533634473E+03  0.45387921207E+03  0.61766944509E+03  0.00000000000E+00 0.  1.
        -11    1    5    5    0    0  0.11160334580E+03  0.10577736250E+03  0.17182955113E+03  0.23058523772E+03  0.00000000000E+00 0. -1.
          4    1    6    6  503    0 -0.35426413897E+02 -0.14643221372E+03  0.21802281818E+02  0.15222602770E+03  0.00000000000E+00 0. -1.
         -4    1    6    6    0  503  0.56392783402E+02 -0.26878819899E+03  0.59362098829E+02  0.28098238506E+03  0.00000000000E+00 0.  1.
<mgrwt>
<rscale>  0 0.14461867E+04</rscale>
<asrwt>0</asrwt>
<pdfrwt beam="1">  1        2 0.17998925E+00 0.14461867E+04</pdfrwt>
<pdfrwt beam="2">  1       -1 0.68756768E-01 0.14461867E+04</pdfrwt>
<totfact> 0.46757952E+01</totfact>
</mgrwt>
</event>
<event>
12    6  0.1450532E-007  0.1712281E+04  0.7818608E-02  0.8754391E-01
          2   -1    0    0  501    0  0.00000000000E+00  0.00000000000E+00  0.29681238284E+04  0.29681238284E+04  0.00000000000E+00 0. -1.
         -1   -1    0    0    0  501 -0.00000000000E+00 -0.00000000000E+00 -0.24694946777E+03  0.24694946777E+03  0.00000000000E+00 0.  1.
         24    2    1    2    0    0 -0.33157695743E+03 -0.48705006846E+03  0.13391447289E+04  0.14652841890E+04  0.81167121634E+02 0.  0.
        254    2    1    2    0    0  0.33157695743E+03  0.48705006846E+03  0.13820296317E+04  0.17497891071E+04  0.89699217878E+03 0.  0.
         23    2    4    4    0    0  0.26465169573E+03 -0.19639041504E+03  0.25376031834E+03  0.42587409106E+03  0.91458882037E+02 0.  0.
         23    2    4    4    0    0  0.66925261701E+02  0.68344048350E+03  0.11282693133E+04  0.13239150161E+04  0.90495531758E+02 0.  0.
          4    1    3    3  502    0 -0.17593726420E+03 -0.28725996584E+03  0.85350792666E+03  0.91757723914E+03  0.00000000000E+00 0. -1.
         -3    1    3    3    0  502 -0.15563969323E+03 -0.19979010262E+03  0.48563680227E+03  0.54770694987E+03  0.00000000000E+00 0.  1.
         11    1    5    5    0    0  0.20303566188E+03 -0.17395986412E+03  0.23909829220E+03  0.35868301835E+03  0.00000000000E+00 0.  1.
        -11    1    5    5    0    0  0.61616033844E+02 -0.22430550915E+02  0.14662026137E+02  0.67191072707E+02  0.00000000000E+00 0. -1.
          4    1    6    6  503    0 -0.12845612045E+02  0.36076998609E+02  0.89386585028E+02  0.97244645922E+02  0.00000000000E+00 0. -1.
         -4    1    6    6    0  503  0.79770873746E+02  0.64736348489E+03  0.10388827283E+04  0.12266703702E+04  0.00000000000E+00 0.  1.
<mgrwt>
<rscale>  0 0.17122811E+04</rscale>
<asrwt>0</asrwt>
<pdfrwt beam="1">  1        2 0.45663441E+00 0.17122811E+04</pdfrwt>
<pdfrwt beam="2">  1       -1 0.37992228E-01 0.17122811E+04</pdfrwt>
<totfact> 0.13261596E+01</totfact>
</mgrwt>
</event>
<event>
12    6  0.1450532E-007  0.2035126E+04  0.7818608E-02  0.8590372E-01
         -1   -1    0    0    0  501 -0.00000000000E+00  0.00000000000E+00  0.11662000885E+04  0.11662000885E+04  0.00000000000E+00 0.  1.
          2   -1    0    0  501    0  0.00000000000E+00 -0.00000000000E+00 -0.88787029942E+03  0.88787029942E+03  0.00000000000E+00 0. -1.
         24    2    1    2    0    0 -0.38627712141E+02  0.80379926314E+03  0.43356580897E+02  0.80956452503E+03  0.77003711036E+02 0.  0.
        254    2    1    2    0    0  0.38627712141E+02 -0.80379926314E+03  0.23497320816E+03  0.12445058629E+04  0.91978099491E+03 0.  0.
         23    2    4    4    0    0 -0.43428943532E+02 -0.75153667170E+03  0.52748641287E+03  0.92326969266E+03  0.86553842111E+02 0.  0.
         23    2    4    4    0    0  0.82056655674E+02 -0.52262591441E+02 -0.29251320471E+03  0.32123617021E+03  0.90355015997E+02 0.  0.
          4    1    3    3  502    0 -0.17221757219E+02  0.47177268956E+02 -0.81939556702E+01  0.50886388528E+02  0.00000000000E+00 0. -1.
         -3    1    3    3    0  502 -0.21405954922E+02  0.75662199418E+03  0.51550536568E+02  0.75867813650E+03  0.00000000000E+00 0.  1.
         11    1    5    5    0    0 -0.44355237063E+02 -0.73864559121E+03  0.52987359542E+03  0.91012676238E+03  0.00000000000E+00 0.  1.
        -11    1    5    5    0    0  0.92629353076E+00 -0.12891080490E+02 -0.23871825575E+01  0.13142930284E+02  0.00000000000E+00 0. -1.
          4    1    6    6  503    0  0.55647411029E+01  0.23578911963E+02 -0.40923970416E+02  0.47557363126E+02  0.00000000000E+00 0. -1.
         -4    1    6    6    0  503  0.76491914571E+02 -0.75841503404E+02 -0.25158923429E+03  0.27367880708E+03  0.00000000000E+00 0.  1.
<mgrwt>
<rscale>  0 0.20351260E+04</rscale>
<asrwt>0</asrwt>
<pdfrwt beam="1">  1        2 0.13659543E+00 0.20351260E+04</pdfrwt>
<pdfrwt beam="2">  1       -1 0.17941540E+00 0.20351260E+04</pdfrwt>
<totfact> 0.66374894E+00</totfact>
</mgrwt>
</event>
<event>
12    6  0.1450532E-007  0.1579772E+04  0.7818608E-02  0.8833072E-01
         -1   -1    0    0    0  501 -0.00000000000E+00  0.00000000000E+00  0.63609028445E+03  0.63609028445E+03  0.00000000000E+00 0.  1.
          2   -1    0    0  501    0  0.00000000000E+00 -0.00000000000E+00 -0.98086678280E+03  0.98086678280E+03  0.00000000000E+00 0. -1.
         24    2    1    2    0    0 -0.35662932915E+03 -0.25676055203E+03  0.18673948990E+03  0.48412198578E+03  0.79949987744E+02 0.  0.
        254    2    1    2    0    0  0.35662932915E+03  0.25676055203E+03 -0.53151598826E+03  0.11328350815E+04  0.89871887515E+03 0.  0.
         23    2    4    4    0    0 -0.79791664357E+02 -0.27827752005E+03 -0.14454855547E+03  0.33610657964E+03  0.90929973727E+02 0.  0.
         23    2    4    4    0    0  0.43642099351E+03  0.53503807208E+03 -0.38696743278E+03  0.79672850184E+03  0.91123484660E+02 0.  0.
          4    1    3    3  502    0 -0.19730162770E+03 -0.15718047676E+03  0.65873217672E+02  0.26071615864E+03  0.00000000000E+00 0. -1.
         -3    1    3    3    0  502 -0.15932770145E+03 -0.99580075275E+02  0.12086627223E+03  0.22340582715E+03  0.00000000000E+00 0.  1.
         11    1    5    5    0    0 -0.99237288870E+02 -0.20928435825E+03 -0.11460290059E+03  0.25842176172E+03  0.00000000000E+00 0. -1.
        -11    1    5    5    0    0  0.19445624513E+02 -0.68993161800E+02 -0.29945654885E+02  0.77684817914E+02  0.00000000000E+00 0.  1.
          2    1    6    6  503    0  0.92545276540E+02  0.17845617613E+03 -0.10796561570E+03  0.22818371804E+03  0.00000000000E+00 0. -1.
         -2    1    6    6    0  503  0.34387571697E+03  0.35658189595E+03 -0.27900181709E+03  0.56854478379E+03  0.00000000000E+00 0.  1.
<mgrwt>
<rscale>  0 0.15797719E+04</rscale>
<asrwt>0</asrwt>
<pdfrwt beam="1">  1        2 0.15090258E+00 0.15797719E+04</pdfrwt>
<pdfrwt beam="2">  1       -1 0.97860045E-01 0.15797719E+04</pdfrwt>
<totfact> 0.28443847E+01</totfact>
</mgrwt>
</event>
<event>
12    6  0.1450532E-007  0.2429162E+04  0.7818608E-02  0.8428666E-01
         -1   -1    0    0    0  501 -0.00000000000E+00  0.00000000000E+00  0.59012591495E+03  0.59012591495E+03  0.00000000000E+00 0.  1.
          2   -1    0    0  501    0  0.00000000000E+00 -0.00000000000E+00 -0.24998171339E+04  0.24998171339E+04  0.00000000000E+00 0. -1.
         24    2    1    2    0    0  0.21400357484E+02  0.16610316363E+03  0.48858395593E+03  0.52302414621E+03  0.82412009162E+02 0.  0.
        254    2    1    2    0    0 -0.21400357484E+02 -0.16610316363E+03 -0.23982751749E+04  0.25669189026E+04  0.89961136163E+03 0.  0.
         23    2    4    4    0    0 -0.25586294050E+03 -0.38452755059E+03 -0.74992752673E+03  0.88533822551E+03  0.90028866051E+02 0.  0.
         23    2    4    4    0    0  0.23446258301E+03  0.21842438696E+03 -0.16483476481E+04  0.16815806771E+04  0.89340298034E+02 0.  0.
          4    1    3    3  502    0  0.39042833084E+00 -0.14963815762E+01  0.91428969172E+02  0.91442047199E+02  0.00000000000E+00 0. -1.
         -3    1    3    3    0  502  0.21009929153E+02  0.16759954521E+03  0.39715498676E+03  0.43158209901E+03  0.00000000000E+00 0.  1.
         11    1    5    5    0    0 -0.15603185221E+03 -0.22061531646E+03 -0.35398821843E+03  0.44533663172E+03  0.00000000000E+00 0. -1.
        -11    1    5    5    0    0 -0.99831088284E+02 -0.16391223413E+03 -0.39593930829E+03  0.44000159379E+03  0.00000000000E+00 0.  1.
          3    1    6    6  503    0  0.11263078623E+03  0.70767384349E+02 -0.86582314278E+03  0.87598141034E+03  0.00000000000E+00 0. -1.
         -3    1    6    6    0  503  0.12183179678E+03  0.14765700261E+03 -0.78252450534E+03  0.80559926675E+03  0.00000000000E+00 0.  1.
<mgrwt>
<rscale>  0 0.24291619E+04</rscale>
<asrwt>0</asrwt>
<pdfrwt beam="1">  1        2 0.38458725E+00 0.24291619E+04</pdfrwt>
<pdfrwt beam="2">  1       -1 0.90788604E-01 0.24291619E+04</pdfrwt>
<totfact> 0.42093635E+00</totfact>
</mgrwt>
</event>
<event>
12    6  0.1450532E-007  0.2794414E+04  0.7818608E-02  0.8305005E-01
          2   -1    0    0  501    0  0.00000000000E+00  0.00000000000E+00  0.14317048047E+04  0.14317048047E+04  0.00000000000E+00 0. -1.
         -1   -1    0    0    0  501 -0.00000000000E+00 -0.00000000000E+00 -0.13635405095E+04  0.13635405095E+04  0.00000000000E+00 0.  1.
         24    2    1    2    0    0  0.34654314364E+03 -0.11344809293E+04 -0.36070871689E+03  0.12435473551E+04  0.95708497567E+02 0.  0.
        254    2    1    2    0    0 -0.34654314364E+03  0.11344809293E+04  0.42887301210E+03  0.15516979590E+04  0.90371199293E+03 0.  0.
         23    2    4    4    0    0 -0.38407416359E+03  0.62975781379E+03 -0.17013154912E+03  0.76231836589E+03  0.89870349996E+02 0.  0.
         23    2    4    4    0    0  0.37531019947E+02  0.50472311552E+03  0.59900456122E+03  0.78937959314E+03  0.90330929895E+02 0.  0.
          4    1    3    3  502    0  0.15637394578E+03 -0.60671522652E+03 -0.14958110520E+03  0.64415113448E+03  0.00000000000E+00 0. -1.
         -1    1    3    3    0  502  0.19016919786E+03 -0.52776570279E+03 -0.21112761169E+03  0.59939622061E+03  0.00000000000E+00 0.  1.
         11    1    5    5    0    0 -0.14746331603E+03  0.32790704028E+03 -0.79693170793E+02  0.36826547233E+03  0.00000000000E+00 0.  1.
        -11    1    5    5    0    0 -0.23661084756E+03  0.30185077351E+03 -0.90438378323E+02  0.39405289356E+03  0.00000000000E+00 0. -1.
          1    1    6    6  503    0  0.55050660189E+02  0.48084595894E+03  0.57217920963E+03  0.74942141639E+03  0.00000000000E+00 0. -1.
         -1    1    6    6    0  503 -0.17519640242E+02  0.23877156585E+02  0.26825351592E+02  0.39958176746E+02  0.00000000000E+00 0.  1.
<mgrwt>
<rscale>  0 0.27944141E+04</rscale>
<asrwt>0</asrwt>
<pdfrwt beam="1">  1        2 0.22026228E+00 0.27944141E+04</pdfrwt>
<pdfrwt beam="2">  1       -1 0.20977546E+00 0.27944141E+04</pdfrwt>
<totfact> 0.17753960E+00</totfact>
</mgrwt>
</event>
<event>
12    6  0.1450532E-007  0.4319377E+04  0.7818608E-02  0.7943045E-01
         -1   -1    0    0    0  501 -0.00000000000E+00  0.00000000000E+00  0.22356819299E+04  0.22356819299E+04  0.00000000000E+00 0.  1.
          2   -1    0    0  501    0  0.00000000000E+00 -0.00000000000E+00 -0.20862786152E+04  0.20862786152E+04  0.00000000000E+00 0. -1.
         24    2    1    2    0    0  0.40873495615E+03  0.43524460655E+03  0.20505695602E+04  0.21372842570E+04  0.81525101675E+02 0.  0.
        254    2    1    2    0    0 -0.40873495615E+03 -0.43524460655E+03 -0.19011662455E+04  0.21846762880E+04  0.89547487874E+03 0.  0.
         23    2    4    4    0    0 -0.56744500198E+03 -0.17966609068E+03 -0.61542241816E+03  0.86096237277E+03  0.90761887067E+02 0.  0.
         23    2    4    4    0    0  0.15871004583E+03 -0.25557851586E+03 -0.12857438274E+04  0.13237139153E+04  0.92585546539E+02 0.  0.
          4    1    3    3  502    0  0.66311702500E+02  0.38956159750E+02  0.20954399171E+03  0.22321180241E+03  0.00000000000E+00 0. -1.
         -3    1    3    3    0  502  0.34242325365E+03  0.39628844680E+03  0.18410255685E+04  0.19140724546E+04  0.00000000000E+00 0.  1.
         11    1    5    5    0    0 -0.35719958301E+03 -0.68537502495E+02 -0.39024208732E+03  0.53345835645E+03  0.00000000000E+00 0.  1.
        -11    1    5    5    0    0 -0.21024541897E+03 -0.11112858819E+03 -0.22518033084E+03  0.32750401632E+03  0.00000000000E+00 0. -1.
          2    1    6    6  503    0  0.13701948021E+03 -0.25655942298E+03 -0.12292444888E+04  0.12631860863E+04  0.00000000000E+00 0.  1.
         -2    1    6    6    0  503  0.21690565619E+02  0.98090712052E+00 -0.56499338611E+02  0.60527828964E+02  0.00000000000E+00 0. -1.
<mgrwt>
<rscale>  0 0.43193775E+04</rscale>
<asrwt>0</asrwt>
<pdfrwt beam="1">  1        2 0.32096594E+00 0.43193775E+04</pdfrwt>
<pdfrwt beam="2">  1       -1 0.34395107E+00 0.43193775E+04</pdfrwt>
<totfact> 0.89133407E-02</totfact>
</mgrwt>
</event>
<event>
12    6  0.1450532E-007  0.1590962E+04  0.7818608E-02  0.8826120E-01
          2   -1    0    0  501    0  0.00000000000E+00  0.00000000000E+00  0.95419242241E+03  0.95419242241E+03  0.00000000000E+00 0. -1.
         -1   -1    0    0    0  501 -0.00000000000E+00 -0.00000000000E+00 -0.66316827579E+03  0.66316827579E+03  0.00000000000E+00 0.  1.
         24    2    1    2    0    0  0.10954201979E+03 -0.28628081873E+03 -0.34875562978E+03  0.47097725966E+03  0.78948898295E+02 0.  0.
        254    2    1    2    0    0 -0.10954201979E+03  0.28628081873E+03  0.63977977640E+03  0.11463834385E+04  0.90051133508E+03 0.  0.
         23    2    4    4    0    0 -0.25555127622E+03  0.25922663092E+02 -0.13990091094E+03  0.30655331589E+03  0.91783611623E+02 0.  0.
         23    2    4    4    0    0  0.14600925643E+03  0.26035815564E+03  0.77968068734E+03  0.83983012265E+03  0.91145973711E+02 0.  0.
          4    1    3    3  502    0  0.66585119919E+02 -0.74837970630E+02 -0.12422908451E+03  0.15958435224E+03  0.00000000000E+00 0. -1.
         -3    1    3    3    0  502  0.42956899871E+02 -0.21144284810E+03 -0.22452654527E+03  0.31139290742E+03  0.00000000000E+00 0.  1.
         11    1    5    5    0    0 -0.24796760839E+03  0.16147821649E+02 -0.15028295936E+03  0.29040257373E+03  0.00000000000E+00 0.  1.
        -11    1    5    5    0    0 -0.75836678273E+01  0.97748414427E+01  0.10382048419E+02  0.16150742160E+02  0.00000000000E+00 0. -1.
          2    1    6    6  503    0 -0.11947775223E+02  0.19086109797E+02  0.39679610796E+02  0.45623463622E+02  0.00000000000E+00 0. -1.
         -2    1    6    6    0  503  0.15795703165E+03  0.24127204584E+03  0.74000107655E+03  0.79420665903E+03  0.00000000000E+00 0.  1.
<mgrwt>
<rscale>  0 0.15909622E+04</rscale>
<asrwt>0</asrwt>
<pdfrwt beam="1">  1        2 0.14679883E+00 0.15909622E+04</pdfrwt>
<pdfrwt beam="2">  1       -1 0.10202589E+00 0.15909622E+04</pdfrwt>
<totfact> 0.26891181E+01</totfact>
</mgrwt>
</event>
<event>
12    6  0.1450532E-007  0.1085523E+04  0.7818608E-02  0.9219419E-01
         -3   -1    0    0    0  501 -0.00000000000E+00  0.00000000000E+00  0.27497846422E+03  0.27497846422E+03  0.00000000000E+00 0.  1.
          2   -1    0    0  501    0  0.00000000000E+00 -0.00000000000E+00 -0.10713196204E+04  0.10713196204E+04  0.00000000000E+00 0. -1.
         24    2    1    2    0    0  0.14344717963E+03  0.46400406026E+02 -0.78601397310E+02  0.18754889919E+03  0.79160084053E+02 0.  0.
        254    2    1    2    0    0 -0.14344717963E+03 -0.46400406026E+02 -0.71773975887E+03  0.11587491854E+04  0.89711717308E+03 0.  0.
         23    2    4    4    0    0 -0.49055748302E+03 -0.14877517133E+03 -0.30856441928E+03  0.60529933052E+03  0.91621956564E+02 0.  0.
         23    2    4    4    0    0  0.34711030339E+03  0.10237476530E+03 -0.40917533958E+03  0.55344985490E+03  0.88972625440E+02 0.  0.
          4    1    3    3  502    0 -0.72858701492E+01  0.90367330918E+01 -0.16774078705E+02  0.20398925589E+02  0.00000000000E+00 0. -1.
         -3    1    3    3    0  502  0.15073304978E+03  0.37363672934E+02 -0.61827318605E+02  0.16714997360E+03  0.00000000000E+00 0.  1.
         11    1    5    5    0    0 -0.32745472604E+01 -0.60050606303E+01 -0.20279584848E+02  0.21401985295E+02  0.00000000000E+00 0. -1.
        -11    1    5    5    0    0 -0.48728293576E+03 -0.14277011069E+03 -0.28828483444E+03  0.58389734522E+03  0.00000000000E+00 0.  1.
          4    1    6    6  503    0  0.11393459761E+03  0.61529982942E+02 -0.97621237863E+02  0.16216330477E+03  0.00000000000E+00 0. -1.
         -4    1    6    6    0  503  0.23317570579E+03  0.40844782357E+02 -0.31155410172E+03  0.39128655013E+03  0.00000000000E+00 0.  1.
<mgrwt>
<rscale>  0 0.10855226E+04</rscale>
<asrwt>0</asrwt>
<pdfrwt beam="1">  1        2 0.16481840E+00 0.10855226E+04</pdfrwt>
<pdfrwt beam="2">  1       -3 0.42304380E-01 0.10855226E+04</pdfrwt>
<totfact> 0.80118023E+01</totfact>
</mgrwt>
</event>
<event>
12    6  0.1450532E-007  0.2061311E+04  0.7818608E-02  0.8578480E-01
         -3   -1    0    0    0  501 -0.00000000000E+00  0.00000000000E+00  0.97284221773E+03  0.97284221773E+03  0.00000000000E+00 0.  1.
          2   -1    0    0  501    0  0.00000000000E+00 -0.00000000000E+00 -0.10919049876E+04  0.10919049876E+04  0.00000000000E+00 0. -1.
         24    2    1    2    0    0 -0.42169710916E+03 -0.35623016905E+03  0.57742973012E+03  0.80280853827E+03  0.79674780617E+02 0.  0.
        254    2    1    2    0    0  0.42169710916E+03  0.35623016905E+03 -0.69649250000E+03  0.12619386671E+04  0.89591239062E+03 0.  0.
         23    2    4    4    0    0  0.66947646422E+03  0.35623890408E+03 -0.39029045873E+03  0.85776064604E+03  0.91223850005E+02 0.  0.
         23    2    4    4    0    0 -0.24777935506E+03 -0.87350230874E-02 -0.30620204127E+03  0.40417802102E+03  0.90584621951E+02 0.  0.
          2    1    3    3  502    0 -0.11376915000E+03 -0.10872975629E+03  0.11687028832E+03  0.19602102869E+03  0.00000000000E+00 0. -1.
         -1    1    3    3    0  502 -0.30792795916E+03 -0.24750041276E+03  0.46055944180E+03  0.60678750958E+03  0.00000000000E+00 0.  1.
         11    1    5    5    0    0  0.34965968424E+03  0.14178485892E+03 -0.21956631648E+03  0.43654805959E+03  0.00000000000E+00 0. -1.
        -11    1    5    5    0    0  0.31981677998E+03  0.21445404516E+03 -0.17072414225E+03  0.42121258645E+03  0.00000000000E+00 0.  1.
          2    1    6    6  503    0 -0.16995175247E+03  0.41850099161E+02 -0.21407216801E+03  0.27651748965E+03  0.00000000000E+00 0. -1.
         -2    1    6    6    0  503 -0.77827602583E+02 -0.41858834184E+02 -0.92129873264E+02  0.12766053137E+03  0.00000000000E+00 0.  1.
<mgrwt>
<rscale>  0 0.20613115E+04</rscale>
<asrwt>0</asrwt>
<pdfrwt beam="1">  1        2 0.16798538E+00 0.20613115E+04</pdfrwt>
<pdfrwt beam="2">  1       -3 0.14966803E+00 0.20613115E+04</pdfrwt>
<totfact> 0.41768426E+00</totfact>
</mgrwt>
</event>
<event>
12    6  0.1450532E-007  0.2220432E+04  0.7818608E-02  0.8509972E-01
         -1   -1    0    0    0  501 -0.00000000000E+00  0.00000000000E+00  0.50318618225E+03  0.50318618225E+03  0.00000000000E+00 0.  1.
          2   -1    0    0  501    0  0.00000000000E+00 -0.00000000000E+00 -0.24495491171E+04  0.24495491171E+04  0.00000000000E+00 0. -1.
         24    2    1    2    0    0  0.85931550194E+03 -0.11087919205E+03 -0.12656458623E+04  0.15362710091E+04  0.86901309369E+02 0.  0.
        254    2    1    2    0    0 -0.85931550194E+03  0.11087919205E+03 -0.68071707261E+03  0.14164642903E+04  0.89010000877E+03 0.  0.
         23    2    4    4    0    0 -0.69717505793E+03 -0.48210256069E+01 -0.87691318131E+03  0.11239392253E+04  0.90478455945E+02 0.  0.
         23    2    4    4    0    0 -0.16214044401E+03  0.11570021766E+03  0.19619610869E+03  0.29252506497E+03  0.86034508281E+02 0.  0.
          2    1    3    3  502    0  0.66359621220E+03 -0.11522208949E+03 -0.94182391196E+03  0.11578723349E+04  0.00000000000E+00 0. -1.
         -1    1    3    3    0  502  0.19571928975E+03  0.43428974387E+01 -0.32382195029E+03  0.37839867419E+03  0.00000000000E+00 0.  1.
         11    1    5    5    0    0 -0.69208714987E+03 -0.15908744425E+01 -0.84882997837E+03  0.10952166389E+04  0.00000000000E+00 0. -1.
        -11    1    5    5    0    0 -0.50879080575E+01 -0.32301511643E+01 -0.28083202940E+02  0.28722586449E+02  0.00000000000E+00 0.  1.
          1    1    6    6  503    0 -0.15493733056E+03  0.78775083699E+02  0.18366615630E+03  0.25287219535E+03  0.00000000000E+00 0. -1.
         -1    1    6    6    0  503 -0.72031134476E+01  0.36925133960E+02  0.12529952397E+02  0.39652869611E+02  0.00000000000E+00 0.  1.
<mgrwt>
<rscale>  0 0.22204317E+04</rscale>
<asrwt>0</asrwt>
<pdfrwt beam="1">  1        2 0.37685370E+00 0.22204317E+04</pdfrwt>
<pdfrwt beam="2">  1       -1 0.77413261E-01 0.22204317E+04</pdfrwt>
<totfact> 0.64664175E+00</totfact>
</mgrwt>
</event>
<event>
12    6  0.1450532E-007  0.1563664E+04  0.7818608E-02  0.8843187E-01
         -1   -1    0    0    0  501 -0.00000000000E+00  0.00000000000E+00  0.16727916830E+03  0.16727916830E+03  0.00000000000E+00 0.  1.
          2   -1    0    0  501    0  0.00000000000E+00 -0.00000000000E+00 -0.36541368590E+04  0.36541368590E+04  0.00000000000E+00 0. -1.
         24    2    1    2    0    0  0.23627507802E+03 -0.40027472030E+03 -0.61561028725E+03  0.77551865942E+03  0.80046243710E+02 0.  0.
        254    2    1    2    0    0 -0.23627507802E+03  0.40027472030E+03 -0.28712474034E+04  0.30458973679E+04  0.90409256145E+03 0.  0.
         23    2    4    4    0    0 -0.31974376168E+03  0.32211255691E+03 -0.54492646610E+03  0.71503776607E+03  0.91332256030E+02 0.  0.
         23    2    4    4    0    0  0.83468683654E+02  0.78162163395E+02 -0.23263209373E+04  0.23308596018E+04  0.89783266344E+02 0.  0.
          2    1    3    3  502    0  0.69913718501E+02 -0.13751036042E+03 -0.26688058702E+03  0.30825683282E+03  0.00000000000E+00 0. -1.
         -1    1    3    3    0  502  0.16636135952E+03 -0.26276435989E+03 -0.34872970023E+03  0.46726182659E+03  0.00000000000E+00 0.  1.
         11    1    5    5    0    0 -0.15106621239E+01  0.19194758854E+01 -0.30582705784E+02  0.30680097470E+02  0.00000000000E+00 0.  1.
        -11    1    5    5    0    0 -0.31823309956E+03  0.32019308102E+03 -0.51434376032E+03  0.68435766860E+03  0.00000000000E+00 0. -1.
          1    1    6    6  503    0  0.95359013617E+02  0.36962483485E+02 -0.15772435188E+04  0.15805558149E+04  0.00000000000E+00 0. -1.
         -1    1    6    6    0  503 -0.11890329963E+02  0.41199679910E+02 -0.74907741859E+03  0.75030378689E+03  0.00000000000E+00 0.  1.
<mgrwt>
<rscale>  0 0.15636636E+04</rscale>
<asrwt>0</asrwt>
<pdfrwt beam="1">  1        2 0.56217486E+00 0.15636636E+04</pdfrwt>
<pdfrwt beam="2">  1       -1 0.25735259E-01 0.15636636E+04</pdfrwt>
<totfact> 0.93431299E+00</totfact>
</mgrwt>
</event>
<event>
12    6  0.1450532E-007  0.1183082E+04  0.7818608E-02  0.9127795E-01
         -1   -1    0    0    0  501 -0.00000000000E+00  0.00000000000E+00  0.59713156932E+03  0.59713156932E+03  0.00000000000E+00 0.  1.
          2   -1    0    0  501    0  0.00000000000E+00 -0.00000000000E+00 -0.58600285586E+03  0.58600285586E+03  0.00000000000E+00 0. -1.
         24    2    1    2    0    0  0.20066850892E+03  0.64739008602E+01  0.13546147145E+03  0.25567201050E+03  0.81906073289E+02 0.  0.
        254    2    1    2    0    0 -0.20066850892E+03 -0.64739008602E+01 -0.12433275799E+03  0.92746241468E+03  0.89689360242E+03 0.  0.
         23    2    4    4    0    0 -0.27923552063E+03 -0.18016931790E+03 -0.43260363269E+03  0.55368305382E+03  0.94792204214E+02 0.  0.
         23    2    4    4    0    0  0.78567011714E+02  0.17369541704E+03  0.30827087469E+03  0.37377936086E+03  0.91308297482E+02 0.  0.
          4    1    3    3  502    0 -0.78447209985E+01  0.20169294581E+01  0.32003306516E+01  0.87091772437E+01  0.00000000000E+00 0. -1.
         -3    1    3    3    0  502  0.20851322992E+03  0.44569714021E+01  0.13226114080E+03  0.24696283326E+03  0.00000000000E+00 0.  1.
         11    1    5    5    0    0  0.70461252717E+00 -0.24609508533E+02 -0.40696651175E+02  0.47564081047E+02  0.00000000000E+00 0. -1.
        -11    1    5    5    0    0 -0.27994013316E+03 -0.15555980936E+03 -0.39190698151E+03  0.50611897277E+03  0.00000000000E+00 0.  1.
          4    1    6    6  503    0 -0.88913549993E+01  0.24899729490E+02  0.83226253871E+01  0.27718564460E+02  0.00000000000E+00 0. -1.
         -4    1    6    6    0  503  0.87458366714E+02  0.14879568755E+03  0.29994824931E+03  0.34606079640E+03  0.00000000000E+00 0.  1.
<mgrwt>
<rscale>  0 0.11830821E+04</rscale>
<asrwt>0</asrwt>
<pdfrwt beam="1">  1        2 0.90154286E-01 0.11830821E+04</pdfrwt>
<pdfrwt beam="2">  1       -1 0.91866395E-01 0.11830821E+04</pdfrwt>
<totfact> 0.66536979E+01</totfact>
</mgrwt>
</event>
<event>
12    6  0.1450532E-007  0.2117098E+04  0.7818608E-02  0.8553749E-01
         -1   -1    0    0    0  501 -0.00000000000E+00  0.00000000000E+00  0.49806302830E+03  0.49806302830E+03  0.00000000000E+00 0.  1.
          2   -1    0    0  501    0  0.00000000000E+00 -0.00000000000E+00 -0.22497674074E+04  0.22497674074E+04  0.00000000000E+00 0. -1.
         24    2    1    2    0    0  0.29419814413E+03  0.13227013337E+03  0.32113402445E+03  0.46211243679E+03  0.79830485278E+02 0.  0.
        254    2    1    2    0    0 -0.29419814413E+03 -0.13227013337E+03 -0.20728384036E+04  0.22857179990E+04  0.90763417031E+03 0.  0.
         23    2    4    4    0    0  0.11386381842E+03  0.30945813134E+03 -0.57434258654E+03  0.66839133388E+03  0.90267736745E+02 0.  0.
         23    2    4    4    0    0 -0.40806196256E+03 -0.44172826471E+03 -0.14984958171E+04  0.16173266651E+04  0.92829966479E+02 0.  0.
          4    1    3    3  502    0  0.37977487202E+02 -0.98413410750E+01  0.34875012051E+02  0.52491980282E+02  0.00000000000E+00 0. -1.
         -3    1    3    3    0  502  0.25622065693E+03  0.14211147445E+03  0.28625901240E+03  0.40962045651E+03  0.00000000000E+00 0.  1.
         11    1    5    5    0    0  0.15356046317E+02  0.93677397786E+02 -0.99036016046E+02  0.13718380185E+03  0.00000000000E+00 0.  1.
        -11    1    5    5    0    0  0.98507772105E+02  0.21578073356E+03 -0.47530657049E+03  0.53120753203E+03  0.00000000000E+00 0. -1.
          4    1    6    6  503    0 -0.38786110725E+03 -0.41346437867E+03 -0.13385663813E+04  0.14536674269E+04  0.00000000000E+00 0. -1.
         -4    1    6    6    0  503 -0.20200855304E+02 -0.28263886046E+02 -0.15992943577E+03  0.16365923816E+03  0.00000000000E+00 0.  1.
<mgrwt>
<rscale>  0 0.21170980E+04</rscale>
<asrwt>0</asrwt>
<pdfrwt beam="1">  1        2 0.34611807E+00 0.21170980E+04</pdfrwt>
<pdfrwt beam="2">  1       -1 0.76625081E-01 0.21170980E+04</pdfrwt>
<totfact> 0.86658215E+00</totfact>
</mgrwt>
</event>
<event>
12    6  0.1450532E-007  0.1956983E+04  0.7818608E-02  0.8627001E-01
         -3   -1    0    0    0  501 -0.00000000000E+00  0.00000000000E+00  0.36783177828E+03  0.36783177828E+03  0.00000000000E+00 0.  1.
          2   -1    0    0  501    0  0.00000000000E+00 -0.00000000000E+00 -0.26029444142E+04  0.26029444142E+04  0.00000000000E+00 0. -1.
         24    2    1    2    0    0  0.47579640321E+02 -0.53687402776E+03 -0.17079936086E+04  0.17927607158E+04  0.79064993826E+02 0.  0.
        254    2    1    2    0    0 -0.47579640321E+02  0.53687402776E+03 -0.52711902728E+03  0.11780154766E+04  0.90518973172E+03 0.  0.
         23    2    4    4    0    0  0.28642784824E+02  0.77801902655E+03 -0.41615773176E+03  0.88762458675E+03  0.92499375706E+02 0.  0.
         23    2    4    4    0    0 -0.76222425145E+02 -0.24114499879E+03 -0.11096129552E+03  0.29039088988E+03  0.89742360608E+02 0.  0.
          4    1    3    3  502    0  0.69111049624E+02 -0.38154381388E+03 -0.11951290357E+04  0.12564574928E+04  0.00000000000E+00 0. -1.
         -3    1    3    3    0  502 -0.21531409304E+02 -0.15533021388E+03 -0.51286457288E+03  0.53630322305E+03  0.00000000000E+00 0.  1.
         11    1    5    5    0    0  0.56483931527E+02  0.31561456438E+03 -0.17879790694E+03  0.36711262481E+03  0.00000000000E+00 0. -1.
        -11    1    5    5    0    0 -0.27841146703E+02  0.46240446218E+03 -0.23735982482E+03  0.52051196195E+03  0.00000000000E+00 0.  1.
          1    1    6    6  503    0 -0.60051068503E+02 -0.71100019961E+02 -0.64952595367E+02  0.11349089528E+03  0.00000000000E+00 0. -1.
         -1    1    6    6    0  503 -0.16171356642E+02 -0.17004497883E+03 -0.46008700154E+02  0.17689999460E+03  0.00000000000E+00 0.  1.
<mgrwt>
<rscale>  0 0.19569831E+04</rscale>
<asrwt>0</asrwt>
<pdfrwt beam="1">  1        2 0.40045298E+00 0.19569831E+04</pdfrwt>
<pdfrwt beam="2">  1       -3 0.56589506E-01 0.19569831E+04</pdfrwt>
<totfact> 0.55890775E+00</totfact>
</mgrwt>
</event>
<event>
12    6  0.1450532E-007  0.1306263E+04  0.7818608E-02  0.9024613E-01
         -1   -1    0    0    0  501 -0.00000000000E+00  0.00000000000E+00  0.17441468088E+03  0.17441468088E+03  0.00000000000E+00 0.  1.
          2   -1    0    0  501    0  0.00000000000E+00 -0.00000000000E+00 -0.24457864888E+04  0.24457864888E+04  0.00000000000E+00 0. -1.
         24    2    1    2    0    0 -0.10705956971E+03  0.32017996920E+03 -0.66933759502E+03  0.75403290369E+03  0.81091550756E+02 0.  0.
        254    2    1    2    0    0  0.10705956971E+03 -0.32017996920E+03 -0.16020342129E+04  0.18661682660E+04  0.89559668017E+03 0.  0.
         23    2    4    4    0    0  0.74718154199E+02 -0.41105128422E+03 -0.16690227127E+04  0.17229531262E+04  0.91568000868E+02 0.  0.
         23    2    4    4    0    0  0.32341415509E+02  0.90871315028E+02  0.66988499787E+02  0.14321513979E+03  0.81972886420E+02 0.  0.
          2    1    3    3  502    0 -0.30965877552E+02  0.86037615469E+02 -0.26830374914E+03  0.28345768405E+03  0.00000000000E+00 0. -1.
         -1    1    3    3    0  502 -0.76093692156E+02  0.23414235373E+03 -0.40103384588E+03  0.47057521964E+03  0.00000000000E+00 0.  1.
         11    1    5    5    0    0  0.69848812550E+01 -0.16385457097E+02 -0.18496466024E+03  0.18582033609E+03  0.00000000000E+00 0. -1.
        -11    1    5    5    0    0  0.67733272944E+02 -0.39466582713E+03 -0.14840580525E+04  0.15371327901E+04  0.00000000000E+00 0.  1.
          4    1    6    6  503    0 -0.25043637488E+02  0.27676469484E+02  0.48654791618E+01  0.37640983372E+02  0.00000000000E+00 0. -1.
         -4    1    6    6    0  503  0.57385052997E+02  0.63194845544E+02  0.62123020625E+02  0.10557415641E+03  0.00000000000E+00 0.  1.
<mgrwt>
<rscale>  0 0.13062635E+04</rscale>
<asrwt>0</asrwt>
<pdfrwt beam="1">  1        2 0.37627483E+00 0.13062635E+04</pdfrwt>
<pdfrwt beam="2">  1       -1 0.26833029E-01 0.13062635E+04</pdfrwt>
<totfact> 0.51979957E+01</totfact>
</mgrwt>
</event>
<event>
12    6  0.1450532E-007  0.1805218E+04  0.7818608E-02  0.8703529E-01
         -1   -1    0    0    0  501 -0.00000000000E+00  0.00000000000E+00  0.69014769439E+03  0.69014769439E+03  0.00000000000E+00 0.  1.
          2   -1    0    0  501    0  0.00000000000E+00 -0.00000000000E+00 -0.11804767009E+04  0.11804767009E+04  0.00000000000E+00 0. -1.
         24    2    1    2    0    0 -0.25002676151E+03 -0.96444861097E+02  0.45119874603E+03  0.53116867526E+03  0.82127099364E+02 0.  0.
        254    2    1    2    0    0  0.25002676151E+03  0.96444861097E+02 -0.94152775252E+03  0.13394557200E+04  0.91424948695E+03 0.  0.
         23    2    4    4    0    0  0.33301826981E+03 -0.20994985611E+03 -0.74580870588E+02  0.41167814129E+03  0.94532934245E+02 0.  0.
         23    2    4    4    0    0 -0.82991508299E+02  0.30639471720E+03 -0.86694688194E+03  0.92777757872E+03  0.91700743127E+02 0.  0.
          4    1    3    3  502    0 -0.61274402990E+02 -0.63691257354E+02  0.13063059538E+03  0.15771962837E+03  0.00000000000E+00 0. -1.
         -3    1    3    3    0  502 -0.18875235852E+03 -0.32753603742E+02  0.32056815065E+03  0.37344904688E+03  0.00000000000E+00 0.  1.
         11    1    5    5    0    0  0.74897226066E+02 -0.46320157561E+01 -0.13043780942E+02  0.76165545122E+02  0.00000000000E+00 0.  1.
        -11    1    5    5    0    0  0.25812104374E+03 -0.20531784035E+03 -0.61537089646E+02  0.33551259617E+03  0.00000000000E+00 0. -1.
          3    1    6    6  503    0 -0.40252038332E+02  0.64478591308E+02 -0.12583544822E+03  0.14701114025E+03  0.00000000000E+00 0. -1.
         -3    1    6    6    0  503 -0.42739469967E+02  0.24191612590E+03 -0.74111143371E+03  0.78076643847E+03  0.00000000000E+00 0.  1.
<mgrwt>
<rscale>  0 0.18052183E+04</rscale>
<asrwt>0</asrwt>
<pdfrwt beam="1">  1        2 0.18161180E+00 0.18052183E+04</pdfrwt>
<pdfrwt beam="2">  1       -1 0.10617657E+00 0.18052183E+04</pdfrwt>
<totfact> 0.17370676E+01</totfact>
</mgrwt>
</event>
<event>
12    6  0.1450532E-007  0.1627338E+04  0.7818608E-02  0.8803927E-01
          2   -1    0    0  501    0  0.00000000000E+00  0.00000000000E+00  0.15451641412E+04  0.15451641412E+04  0.00000000000E+00 0. -1.
         -1   -1    0    0    0  501 -0.00000000000E+00 -0.00000000000E+00 -0.42847031883E+03  0.42847031883E+03  0.00000000000E+00 0.  1.
         24    2    1    2    0    0 -0.16171023894E+03  0.53322988216E+03  0.49935831491E+03  0.75242310411E+03  0.79356740920E+02 0.  0.
        254    2    1    2    0    0  0.16171023894E+03 -0.53322988216E+03  0.61733550741E+03  0.12212113559E+04  0.89429846159E+03 0.  0.
         23    2    4    4    0    0  0.48365500435E+03 -0.47116399876E+03  0.26664034973E+03  0.73183314740E+03  0.92547299144E+02 0.  0.
         23    2    4    4    0    0 -0.32194476541E+03 -0.62065883404E+02  0.35069515768E+03  0.48937820847E+03  0.94885886457E+02 0.  0.
          4    1    3    3  502    0 -0.13914351678E+03  0.51022222267E+03  0.48325720392E+03  0.71639734778E+03  0.00000000000E+00 0. -1.
         -3    1    3    3    0  502 -0.22566722158E+02  0.23007659494E+02  0.16101110985E+02  0.36025756332E+02  0.00000000000E+00 0.  1.
         11    1    5    5    0    0  0.63684607181E+02 -0.62441440012E+02  0.71040202649E+02  0.11402356342E+03  0.00000000000E+00 0.  1.
        -11    1    5    5    0    0  0.41997039717E+03 -0.40872255874E+03  0.19560014708E+03  0.61780958398E+03  0.00000000000E+00 0. -1.
          1    1    6    6  503    0 -0.28958848032E+03 -0.24761714592E+02  0.31391081588E+03  0.42780209300E+03  0.00000000000E+00 0. -1.
         -1    1    6    6    0  503 -0.32356285082E+02 -0.37304168812E+02  0.36784341808E+02  0.61576115477E+02  0.00000000000E+00 0.  1.
<mgrwt>
<rscale>  0 0.16273377E+04</rscale>
<asrwt>0</asrwt>
<pdfrwt beam="1">  1        2 0.23771756E+00 0.16273377E+04</pdfrwt>
<pdfrwt beam="2">  1       -1 0.65918511E-01 0.16273377E+04</pdfrwt>
<totfact> 0.30443841E+01</totfact>
</mgrwt>
</event>
<event>
12    6  0.1450532E-007  0.1673404E+04  0.7818608E-02  0.8776680E-01
          2   -1    0    0  501    0  0.00000000000E+00  0.00000000000E+00  0.10716995039E+04  0.10716995039E+04  0.00000000000E+00 0. -1.
         -1   -1    0    0    0  501 -0.00000000000E+00 -0.00000000000E+00 -0.65323397251E+03  0.65323397251E+03  0.00000000000E+00 0.  1.
         24    2    1    2    0    0  0.37830943712E+03 -0.39002450803E+03 -0.94422268834E+02  0.55766963704E+03  0.82720687561E+02 0.  0.
        254    2    1    2    0    0 -0.37830943712E+03  0.39002450803E+03  0.51288780025E+03  0.11672638394E+04  0.89677969873E+03 0.  0.
         23    2    4    4    0    0 -0.64428586029E+03  0.23878487515E+03  0.48531549673E+03  0.84613675014E+03  0.91070204799E+02 0.  0.
         23    2    4    4    0    0  0.26597642317E+03  0.15123963288E+03  0.27572303520E+02  0.32112708926E+03  0.93517331550E+02 0.  0.
          2    1    3    3  502    0  0.17769531160E+03 -0.21698862524E+03 -0.14040085705E+02  0.28081454958E+03  0.00000000000E+00 0. -1.
         -1    1    3    3    0  502  0.20061412552E+03 -0.17303588279E+03 -0.80382183129E+02  0.27685508747E+03  0.00000000000E+00 0.  1.
         11    1    5    5    0    0 -0.18443878139E+03  0.11010844898E+03  0.16964018358E+03  0.27371395014E+03  0.00000000000E+00 0. -1.
        -11    1    5    5    0    0 -0.45984707890E+03  0.12867642617E+03  0.31567531315E+03  0.57242279999E+03  0.00000000000E+00 0.  1.
          2    1    6    6  503    0  0.12427525590E+03  0.55714134369E+02 -0.32441098641E+02  0.14000296025E+03  0.00000000000E+00 0. -1.
         -2    1    6    6    0  503  0.14170116727E+03  0.95525498514E+02  0.60013402161E+02  0.18112412901E+03  0.00000000000E+00 0.  1.
<mgrwt>
<rscale>  0 0.16734043E+04</rscale>
<asrwt>0</asrwt>
<pdfrwt beam="1">  1        2 0.16487685E+00 0.16734043E+04</pdfrwt>
<pdfrwt beam="2">  1       -1 0.10049753E+00 0.16734043E+04</pdfrwt>
<totfact> 0.23255863E+01</totfact>
</mgrwt>
</event>
<event>
12    6  0.1450532E-007  0.1627975E+04  0.7818608E-02  0.8803544E-01
          2   -1    0    0  501    0  0.00000000000E+00  0.00000000000E+00  0.67158893489E+03  0.67158893489E+03  0.00000000000E+00 0. -1.
         -1   -1    0    0    0  501 -0.00000000000E+00 -0.00000000000E+00 -0.98657931632E+03  0.98657931632E+03  0.00000000000E+00 0.  1.
         24    2    1    2    0    0  0.53411873929E+03 -0.13324049611E+03 -0.21687226209E+03  0.59719626857E+03  0.81079884513E+02 0.  0.
        254    2    1    2    0    0 -0.53411873929E+03  0.13324049611E+03 -0.98118119342E+02  0.10609719826E+04  0.90166430845E+03 0.  0.
         23    2    4    4    0    0 -0.24362165577E+03  0.48057969289E+03  0.10472871717E+03  0.55648998013E+03  0.91676831384E+02 0.  0.
         23    2    4    4    0    0 -0.29049708352E+03 -0.34733919677E+03 -0.20284683651E+03  0.50448200250E+03  0.91225975566E+02 0.  0.
          2    1    3    3  502    0  0.11997634498E+03 -0.37687077762E+02 -0.14934483093E+02  0.12663995409E+03  0.00000000000E+00 0. -1.
         -1    1    3    3    0  502  0.41414239431E+03 -0.95553418351E+02 -0.20193777899E+03  0.47055631449E+03  0.00000000000E+00 0.  1.
         11    1    5    5    0    0 -0.33200744086E+02  0.18116424103E+02  0.49838512051E+00  0.37825158531E+02  0.00000000000E+00 0. -1.
        -11    1    5    5    0    0 -0.21042091168E+03  0.46246326878E+03  0.10423033205E+03  0.51866482160E+03  0.00000000000E+00 0.  1.
          4    1    6    6  503    0 -0.14460309245E+03 -0.14310214933E+03 -0.13608887398E+03  0.24476204998E+03  0.00000000000E+00 0. -1.
         -4    1    6    6    0  503 -0.14589399107E+03 -0.20423704744E+03 -0.66757962538E+02  0.25971995252E+03  0.00000000000E+00 0.  1.
<mgrwt>
<rscale>  0 0.16279751E+04</rscale>
<asrwt>0</asrwt>
<pdfrwt beam="1">  1        2 0.10332137E+00 0.16279751E+04</pdfrwt>
<pdfrwt beam="2">  1       -1 0.15178143E+00 0.16279751E+04</pdfrwt>
<totfact> 0.15944494E+01</totfact>
</mgrwt>
</event>
<event>
12    6  0.1450532E-007  0.2016446E+04  0.7818608E-02  0.8598970E-01
          2   -1    0    0  501    0  0.00000000000E+00  0.00000000000E+00  0.15959426176E+04  0.15959426176E+04  0.00000000000E+00 0. -1.
         -1   -1    0    0    0  501 -0.00000000000E+00 -0.00000000000E+00 -0.63693598718E+03  0.63693598718E+03  0.00000000000E+00 0.  1.
         24    2    1    2    0    0 -0.70455134801E+02  0.81920464785E+03  0.43939010921E+03  0.93573233816E+03  0.80443517513E+02 0.  0.
        254    2    1    2    0    0  0.70455134801E+02 -0.81920464785E+03  0.51961652121E+03  0.12971462666E+04  0.85821146977E+03 0.  0.
         23    2    4    4    0    0  0.39089036766E+03 -0.49209121272E+03  0.53392744468E+03  0.82984632492E+03  0.92829766958E+02 0.  0.
         23    2    4    4    0    0 -0.32043523286E+03 -0.32711343513E+03 -0.14310923472E+02  0.46729994171E+03  0.92100461966E+02 0.  0.
          4    1    3    3  502    0  0.28556252815E+01  0.21216229037E+02  0.27121739590E+02  0.34552448954E+02  0.00000000000E+00 0. -1.
         -3    1    3    3    0  502 -0.73310760082E+02  0.79798841882E+03  0.41226836962E+03  0.90117988920E+03  0.00000000000E+00 0.  1.
         11    1    5    5    0    0  0.24066594047E+03 -0.23716919816E+03  0.31287569360E+03  0.46050029653E+03  0.00000000000E+00 0. -1.
        -11    1    5    5    0    0  0.15022442719E+03 -0.25492201456E+03  0.22105175108E+03  0.36934602839E+03  0.00000000000E+00 0.  1.
          1    1    6    6  503    0 -0.31040866330E+03 -0.31017253962E+03  0.62131226944E+01  0.43886119159E+03  0.00000000000E+00 0. -1.
         -1    1    6    6    0  503 -0.10026569559E+02 -0.16940895511E+02 -0.20524046166E+02  0.28438750128E+02  0.00000000000E+00 0.  1.
<mgrwt>
<rscale>  0 0.20164457E+04</rscale>
<asrwt>0</asrwt>
<pdfrwt beam="1">  1        2 0.24552963E+00 0.20164457E+04</pdfrwt>
<pdfrwt beam="2">  1       -1 0.97990152E-01 0.20164457E+04</pdfrwt>
<totfact> 0.11828396E+01</totfact>
</mgrwt>
</event>
<event>
12    6  0.1450532E-007  0.1766998E+04  0.7818608E-02  0.8724049E-01
          2   -1    0    0  501    0  0.00000000000E+00  0.00000000000E+00  0.17924339511E+04  0.17924339511E+04  0.00000000000E+00 0. -1.
         -1   -1    0    0    0  501 -0.00000000000E+00 -0.00000000000E+00 -0.43548075501E+03  0.43548075501E+03  0.00000000000E+00 0.  1.
         24    2    1    2    0    0  0.61528377876E+03  0.12610658460E+02  0.77446898609E+03  0.99261835612E+03  0.82193876783E+02 0.  0.
        254    2    1    2    0    0 -0.61528377876E+03 -0.12610658460E+02  0.58248421000E+03  0.12352963500E+04  0.89885263545E+03 0.  0.
         23    2    4    4    0    0  0.18270199174E+03  0.32249168662E+02  0.33258421883E+03  0.39169570406E+03  0.91614602000E+02 0.  0.
         23    2    4    4    0    0 -0.79798577050E+03 -0.44859827123E+02  0.24989999117E+03  0.84360064593E+03  0.10207031991E+03 0.  0.
          2    1    3    3  502    0  0.48131172863E+03  0.39113439017E+02  0.57499174301E+03  0.75087039211E+03  0.00000000000E+00 0. -1.
         -1    1    3    3    0  502  0.13397205014E+03 -0.26502780556E+02  0.19947724308E+03  0.24174796401E+03  0.00000000000E+00 0.  1.
         11    1    5    5    0    0  0.14063617894E+03  0.16011925485E+02  0.31101977599E+03  0.34171364860E+03  0.00000000000E+00 0.  1.
        -11    1    5    5    0    0  0.42065812802E+02  0.16237243177E+02  0.21564442836E+02  0.49982055455E+02  0.00000000000E+00 0. -1.
          2    1    6    6  503    0 -0.62972728774E+03 -0.73988086025E+02  0.21317309051E+03  0.66893457103E+03  0.00000000000E+00 0.  1.
         -2    1    6    6    0  503 -0.16825848276E+03  0.29128258903E+02  0.36726900659E+02  0.17466607489E+03  0.00000000000E+00 0. -1.
<mgrwt>
<rscale>  0 0.17669980E+04</rscale>
<asrwt>0</asrwt>
<pdfrwt beam="1">  1        2 0.27575906E+00 0.17669980E+04</pdfrwt>
<pdfrwt beam="2">  1       -1 0.66997041E-01 0.17669980E+04</pdfrwt>
<totfact> 0.21198944E+01</totfact>
</mgrwt>
</event>
<event>
12    6  0.1450532E-007  0.1747514E+04  0.7818608E-02  0.8734720E-01
         -1   -1    0    0    0  501 -0.00000000000E+00  0.00000000000E+00  0.51939123623E+03  0.51939123623E+03  0.00000000000E+00 0.  1.
          2   -1    0    0  501    0  0.00000000000E+00 -0.00000000000E+00 -0.14698962352E+04  0.14698962352E+04  0.00000000000E+00 0. -1.
         24    2    1    2    0    0 -0.23391005845E+03  0.52929871947E+03 -0.66316230928E+03  0.88433285195E+03  0.85961006917E+02 0.  0.
        254    2    1    2    0    0  0.23391005845E+03 -0.52929871947E+03 -0.28734268969E+03  0.11049546195E+04  0.89637483225E+03 0.  0.
         23    2    4    4    0    0  0.36816147534E+03 -0.45007046164E+03  0.17059042350E+03  0.61283812889E+03  0.91450463468E+02 0.  0.
         23    2    4    4    0    0 -0.13425141689E+03 -0.79228257836E+02 -0.45793311319E+03  0.49211649058E+03  0.90417610934E+02 0.  0.
          2    1    3    3  502    0 -0.20239940661E+03  0.37310098064E+03 -0.45607296131E+03  0.62303483658E+03  0.00000000000E+00 0. -1.
         -1    1    3    3    0  502 -0.31510651842E+02  0.15619773884E+03 -0.20708934797E+03  0.26129801538E+03  0.00000000000E+00 0.  1.
         11    1    5    5    0    0  0.28716699368E+03 -0.32106764707E+03  0.16221755035E+03  0.46028670401E+03  0.00000000000E+00 0.  1.
        -11    1    5    5    0    0  0.80994481666E+02 -0.12900281457E+03  0.83728731503E+01  0.15255142488E+03  0.00000000000E+00 0. -1.
          2    1    6    6  503    0 -0.60278418089E+02  0.11988730821E+02 -0.13020557917E+03  0.14398163147E+03  0.00000000000E+00 0. -1.
         -2    1    6    6    0  503 -0.73972998801E+02 -0.91216988657E+02 -0.32772753403E+03  0.34813485911E+03  0.00000000000E+00 0.  1.
<mgrwt>
<rscale>  0 0.17475139E+04</rscale>
<asrwt>0</asrwt>
<pdfrwt beam="1">  1        2 0.22613788E+00 0.17475139E+04</pdfrwt>
<pdfrwt beam="2">  1       -1 0.79906345E-01 0.17475139E+04</pdfrwt>
<totfact> 0.22303305E+01</totfact>
</mgrwt>
</event>
<event>
12    6  0.1450532E-007  0.1313069E+04  0.7818608E-02  0.9019265E-01
          2   -1    0    0  501    0  0.00000000000E+00  0.00000000000E+00  0.31954262096E+03  0.31954262096E+03  0.00000000000E+00 0. -1.
         -1   -1    0    0    0  501 -0.00000000000E+00 -0.00000000000E+00 -0.13489205921E+04  0.13489205921E+04  0.00000000000E+00 0.  1.
         24    2    1    2    0    0 -0.88279249245E+02  0.85298465190E+02 -0.69062122741E+03  0.70602621527E+03  0.80288746917E+02 0.  0.
        254    2    1    2    0    0  0.88279249245E+02 -0.85298465190E+02 -0.33875674373E+03  0.96243699780E+03  0.89244595876E+03 0.  0.
         23    2    4    4    0    0  0.33728806664E+03  0.18922348435E+03  0.69670001233E+02  0.40336507701E+03  0.90998403014E+02 0.  0.
         23    2    4    4    0    0 -0.24900881739E+03 -0.27452194954E+03 -0.40842674496E+03  0.55907192079E+03  0.91549520498E+02 0.  0.
          2    1    3    3  502    0  0.23500449469E+01  0.40483376005E+02 -0.12420294972E+03  0.13065526841E+03  0.00000000000E+00 0. -1.
         -1    1    3    3    0  502 -0.90629294192E+02  0.44815089185E+02 -0.56641827769E+03  0.57537094686E+03  0.00000000000E+00 0.  1.
         11    1    5    5    0    0  0.21730650512E+03  0.16890360920E+03  0.40102182230E+02  0.27813437650E+03  0.00000000000E+00 0.  1.
        -11    1    5    5    0    0  0.11998156152E+03  0.20319875148E+02  0.29567819003E+02  0.12523070051E+03  0.00000000000E+00 0. -1.
          2    1    6    6  503    0 -0.10059458967E+03 -0.68745621634E+02 -0.18196774296E+03  0.21899198945E+03  0.00000000000E+00 0. -1.
         -2    1    6    6    0  503 -0.14841422772E+03 -0.20577632790E+03 -0.22645900200E+03  0.34007993134E+03  0.00000000000E+00 0.  1.
<mgrwt>
<rscale>  0 0.13130691E+04</rscale>
<asrwt>0</asrwt>
<pdfrwt beam="1">  1        2 0.49160402E-01 0.13130691E+04</pdfrwt>
<pdfrwt beam="2">  1       -1 0.20752625E+00 0.13130691E+04</pdfrwt>
<totfact> 0.15338546E+01</totfact>
</mgrwt>
</event>
<event>
12    6  0.1450532E-007  0.2271773E+04  0.7818608E-02  0.8489134E-01
         -1   -1    0    0    0  501 -0.00000000000E+00  0.00000000000E+00  0.77103204192E+03  0.77103204192E+03  0.00000000000E+00 0.  1.
          2   -1    0    0  501    0  0.00000000000E+00 -0.00000000000E+00 -0.16733915947E+04  0.16733915947E+04  0.00000000000E+00 0. -1.
         24    2    1    2    0    0 -0.56135358775E+03 -0.22906031745E+03  0.38506789395E+03  0.72268366532E+03  0.80049470110E+02 0.  0.
        254    2    1    2    0    0  0.56135358775E+03  0.22906031745E+03 -0.12874274468E+04  0.17217399713E+04  0.96919173474E+03 0.  0.
         23    2    4    4    0    0 -0.23330852029E+03  0.22183715977E+03 -0.47259038563E+03  0.58002981851E+03  0.97202503443E+02 0.  0.
         23    2    4    4    0    0  0.79466210804E+03  0.72231576843E+01 -0.81483706113E+03  0.11417101528E+04  0.89457234988E+02 0.  0.
          2    1    3    3  502    0 -0.37644652699E+03 -0.11314747245E+03  0.23800427805E+03  0.45952189782E+03  0.00000000000E+00 0. -1.
         -1    1    3    3    0  502 -0.18490706076E+03 -0.11591284500E+03  0.14706361591E+03  0.26316176751E+03  0.00000000000E+00 0.  1.
         11    1    5    5    0    0 -0.15725906957E+03  0.83404269583E+02 -0.26336410075E+03  0.31787943738E+03  0.00000000000E+00 0.  1.
        -11    1    5    5    0    0 -0.76049450720E+02  0.13843289019E+03 -0.20922628489E+03  0.26215038113E+03  0.00000000000E+00 0. -1.
          4    1    6    6  503    0  0.44872468610E+02 -0.65882591132E+01 -0.78899684046E+02  0.91006064303E+02  0.00000000000E+00 0. -1.
         -4    1    6    6    0  503  0.74978963943E+03  0.13811416797E+02 -0.73593737708E+03  0.10507040885E+04  0.00000000000E+00 0.  1.
<mgrwt>
<rscale>  0 0.22717733E+04</rscale>
<asrwt>0</asrwt>
<pdfrwt beam="1">  1        2 0.25744486E+00 0.22717733E+04</pdfrwt>
<pdfrwt beam="2">  1       -1 0.11862032E+00 0.22717733E+04</pdfrwt>
<totfact> 0.66873567E+00</totfact>
</mgrwt>
</event>
<event>
12    6  0.1450532E-007  0.1840002E+04  0.7818608E-02  0.8685311E-01
          2   -1    0    0  501    0  0.00000000000E+00  0.00000000000E+00  0.19671736845E+04  0.19671736845E+04  0.00000000000E+00 0. -1.
         -1   -1    0    0    0  501 -0.00000000000E+00 -0.00000000000E+00 -0.43026310722E+03  0.43026310722E+03  0.00000000000E+00 0.  1.
         24    2    1    2    0    0  0.25933046190E+03  0.89182567328E+02  0.14177453458E+04  0.14461062093E+04  0.77559553885E+02 0.  0.
        254    2    1    2    0    0 -0.25933046190E+03 -0.89182567328E+02  0.11916523153E+03  0.95133058241E+03  0.90311887692E+03 0.  0.
         23    2    4    4    0    0 -0.13161309502E+03 -0.28587255344E+03  0.43671235367E+03  0.54608234281E+03  0.91886460859E+02 0.  0.
         23    2    4    4    0    0 -0.12771736688E+03  0.19668998611E+03 -0.31754712214E+03  0.40524823960E+03  0.91603954522E+02 0.  0.
          2    1    3    3  502    0  0.21103528877E+03  0.48650034147E+02  0.96579575456E+03  0.98977985353E+03  0.00000000000E+00 0. -1.
         -1    1    3    3    0  502  0.48295173129E+02  0.40532533181E+02  0.45194959122E+03  0.45632635580E+03  0.00000000000E+00 0.  1.
         11    1    5    5    0    0 -0.85781542587E+02 -0.15936077699E+03  0.17472995912E+03  0.25156488011E+03  0.00000000000E+00 0. -1.
        -11    1    5    5    0    0 -0.45831552435E+02 -0.12651177644E+03  0.26198239455E+03  0.29451746270E+03  0.00000000000E+00 0.  1.
          4    1    6    6  503    0 -0.70870526509E+02  0.17529210621E+03 -0.21738654361E+03  0.28810911712E+03  0.00000000000E+00 0. -1.
         -4    1    6    6    0  503 -0.56846840367E+02  0.21397879904E+02 -0.10016057854E+03  0.11713912249E+03  0.00000000000E+00 0.  1.
<mgrwt>
<rscale>  0 0.18400025E+04</rscale>
<asrwt>0</asrwt>
<pdfrwt beam="1">  1        2 0.30264210E+00 0.18400025E+04</pdfrwt>
<pdfrwt beam="2">  1       -1 0.66194325E-01 0.18400025E+04</pdfrwt>
<totfact> 0.17270842E+01</totfact>
</mgrwt>
</event>
<event>
12    6  0.1450532E-007  0.1766421E+04  0.7818608E-02  0.8724363E-01
         -1   -1    0    0    0  501 -0.00000000000E+00  0.00000000000E+00  0.25576968974E+03  0.25576968974E+03  0.00000000000E+00 0.  1.
          2   -1    0    0  501    0  0.00000000000E+00 -0.00000000000E+00 -0.30498577745E+04  0.30498577745E+04  0.00000000000E+00 0. -1.
         24    2    1    2    0    0 -0.29634258863E+03 -0.52652840977E+03 -0.14894021611E+04  0.16092844119E+04  0.80164984874E+02 0.  0.
        254    2    1    2    0    0  0.29634258863E+03  0.52652840977E+03 -0.13046859237E+04  0.16963430523E+04  0.90017959077E+03 0.  0.
         23    2    4    4    0    0 -0.28901775169E+03  0.32373057372E+02 -0.46618442758E+03  0.55682512530E+03  0.90260866472E+02 0.  0.
         23    2    4    4    0    0  0.58536034032E+03  0.49415535240E+03 -0.83850149607E+03  0.11395179270E+04  0.92628865659E+02 0.  0.
          4    1    3    3  502    0 -0.25402283517E+03 -0.41768087023E+03 -0.12679135077E+04  0.13588927747E+04  0.00000000000E+00 0. -1.
         -3    1    3    3    0  502 -0.42319753456E+02 -0.10884753955E+03 -0.22148865343E+03  0.25039163723E+03  0.00000000000E+00 0.  1.
         11    1    5    5    0    0 -0.21851356094E+03  0.57734542524E+02 -0.31047589860E+03  0.38402700077E+03  0.00000000000E+00 0.  1.
        -11    1    5    5    0    0 -0.70504190749E+02 -0.25361485152E+02 -0.15570852899E+03  0.17279812453E+03  0.00000000000E+00 0. -1.
          3    1    6    6  503    0  0.12060489571E+03  0.82121042912E+02 -0.11356211898E+03  0.18489391939E+03  0.00000000000E+00 0. -1.
         -3    1    6    6    0  503  0.46475544461E+03  0.41203430949E+03 -0.72493937709E+03  0.95462400763E+03  0.00000000000E+00 0.  1.
<mgrwt>
<rscale>  0 0.17664214E+04</rscale>
<asrwt>0</asrwt>
<pdfrwt beam="1">  1        2 0.46920888E+00 0.17664214E+04</pdfrwt>
<pdfrwt beam="2">  1       -1 0.39349184E-01 0.17664214E+04</pdfrwt>
<totfact> 0.11005712E+01</totfact>
</mgrwt>
</event>
<event>
12    6  0.1450532E-007  0.1750359E+04  0.7818608E-02  0.8733153E-01
          2   -1    0    0  501    0  0.00000000000E+00  0.00000000000E+00  0.35970379187E+04  0.35970379187E+04  0.00000000000E+00 0. -1.
         -1   -1    0    0    0  501 -0.00000000000E+00 -0.00000000000E+00 -0.21293596686E+03  0.21293596686E+03  0.00000000000E+00 0.  1.
         24    2    1    2    0    0  0.30152041117E+03 -0.36853430683E+03  0.21889613616E+04  0.22417033370E+04  0.83366149342E+02 0.  0.
        254    2    1    2    0    0 -0.30152041117E+03  0.36853430683E+03  0.11951405902E+04  0.15682705485E+04  0.89687200279E+03 0.  0.
         23    2    4    4    0    0 -0.37988917852E+03 -0.92606316569E+01  0.10856905374E+04  0.11542885479E+04  0.96211026051E+02 0.  0.
         23    2    4    4    0    0  0.78368767345E+02  0.37779493849E+03  0.10945005284E+03  0.41398200068E+03  0.10262116535E+03 0.  0.
          2    1    3    3  502    0  0.26121777603E+03 -0.34537038272E+03  0.20478392753E+04  0.20931223388E+04  0.00000000000E+00 0. -1.
         -1    1    3    3    0  502  0.40302635146E+02 -0.23163924106E+02  0.14112208633E+03  0.14858099822E+03  0.00000000000E+00 0.  1.
         11    1    5    5    0    0 -0.31063086559E+03  0.17040880757E+02  0.95068444435E+03  0.10002913771E+04  0.00000000000E+00 0.  1.
        -11    1    5    5    0    0 -0.69258312926E+02 -0.26301512414E+02  0.13500609302E+03  0.15399717081E+03  0.00000000000E+00 0. -1.
          3    1    6    6  503    0  0.22424407841E+02  0.18285996962E+03  0.14970009060E+01  0.18423589109E+03  0.00000000000E+00 0. -1.
         -3    1    6    6    0  503  0.55944359504E+02  0.19493496887E+03  0.10795305193E+03  0.22974610959E+03  0.00000000000E+00 0.  1.
<mgrwt>
<rscale>  0 0.17503585E+04</rscale>
<asrwt>0</asrwt>
<pdfrwt beam="1">  1        2 0.55339041E+00 0.17503585E+04</pdfrwt>
<pdfrwt beam="2">  1       -1 0.32759382E-01 0.17503585E+04</pdfrwt>
<totfact> 0.66054593E+00</totfact>
</mgrwt>
</event>
<event>
12    6  0.1450532E-007  0.1161116E+04  0.7818608E-02  0.9147589E-01
         -1   -1    0    0    0  501 -0.00000000000E+00  0.00000000000E+00  0.19529089894E+03  0.19529089894E+03  0.00000000000E+00 0.  1.
          2   -1    0    0  501    0  0.00000000000E+00 -0.00000000000E+00 -0.17258753228E+04  0.17258753228E+04  0.00000000000E+00 0. -1.
         24    2    1    2    0    0 -0.19494136723E+03  0.87684583381E+02 -0.30659459964E+03  0.38483178550E+03  0.91676233454E+02 0.  0.
        254    2    1    2    0    0  0.19494136723E+03 -0.87684583381E+02 -0.12239898242E+04  0.15363344363E+04  0.90359376238E+03 0.  0.
         23    2    4    4    0    0 -0.28744028940E+03 -0.26411575190E+03 -0.62006734741E+03  0.73820266295E+03  0.89892190349E+02 0.  0.
         23    2    4    4    0    0  0.48238165663E+03  0.17643116852E+03 -0.60392247684E+03  0.79813177333E+03  0.92043194647E+02 0.  0.
          4    1    3    3  502    0 -0.17694126925E+03  0.53859789740E+02 -0.28791531389E+03  0.34220508133E+03  0.00000000000E+00 0. -1.
         -3    1    3    3    0  502 -0.18000097981E+02  0.33824793641E+02 -0.18679285749E+02  0.42626704169E+02  0.00000000000E+00 0.  1.
         11    1    5    5    0    0 -0.92190697910E+02 -0.13941798218E+03 -0.22619855073E+03  0.28125128069E+03  0.00000000000E+00 0. -1.
        -11    1    5    5    0    0 -0.19524959149E+03 -0.12469776972E+03 -0.39386879667E+03  0.45695138226E+03  0.00000000000E+00 0.  1.
          3    1    6    6  503    0  0.26044350157E+02  0.90090663546E+01 -0.74378200710E+02  0.79319532226E+02  0.00000000000E+00 0. -1.
         -3    1    6    6    0  503  0.45633730648E+03  0.16742210217E+03 -0.52954427613E+03  0.71881224110E+03  0.00000000000E+00 0.  1.
<mgrwt>
<rscale>  0 0.11611163E+04</rscale>
<asrwt>0</asrwt>
<pdfrwt beam="1">  1        2 0.26551928E+00 0.11611163E+04</pdfrwt>
<pdfrwt beam="2">  1       -1 0.30044754E-01 0.11611163E+04</pdfrwt>
<totfact> 0.10880910E+02</totfact>
</mgrwt>
</event>
<event>
12    6  0.1450532E-007  0.1976756E+04  0.7818608E-02  0.8617566E-01
          2   -1    0    0  501    0  0.00000000000E+00  0.00000000000E+00  0.21838911703E+04  0.21838911703E+04  0.00000000000E+00 0. -1.
         -3   -1    0    0    0  501 -0.00000000000E+00 -0.00000000000E+00 -0.44731685187E+03  0.44731685187E+03  0.00000000000E+00 0.  1.
         24    2    1    2    0    0 -0.40566646461E+03  0.66918594739E+03  0.72039795548E+03  0.10667668811E+04  0.81506144737E+02 0.  0.
        254    2    1    2    0    0  0.40566646461E+03 -0.66918594739E+03  0.10161763629E+04  0.15644411410E+04  0.89581614774E+03 0.  0.
         23    2    4    4    0    0  0.54807426488E+03 -0.56702111948E+03  0.34501986801E+03  0.86563371833E+03  0.91567872285E+02 0.  0.
         23    2    4    4    0    0 -0.14240780027E+03 -0.10216482792E+03  0.67115649491E+03  0.69880742271E+03  0.84635333857E+02 0.  0.
          4    1    3    3  502    0 -0.20977878259E+01  0.19392681596E+02  0.67667371957E+01  0.20646199299E+02  0.00000000000E+00 0. -1.
         -3    1    3    3    0  502 -0.40356867679E+03  0.64979326580E+03  0.71363121828E+03  0.10461206818E+04  0.00000000000E+00 0.  1.
         11    1    5    5    0    0  0.45242550998E+03 -0.41340448982E+03  0.26096138341E+03  0.66610281332E+03  0.00000000000E+00 0.  1.
        -11    1    5    5    0    0  0.95648754903E+02 -0.15361662966E+03  0.84058484596E+02  0.19953090501E+03  0.00000000000E+00 0. -1.
          4    1    6    6  503    0  0.56661846288E+01 -0.11869284832E+02  0.12704036754E+03  0.12771938207E+03  0.00000000000E+00 0. -1.
         -4    1    6    6    0  503 -0.14807398490E+03 -0.90295543083E+02  0.54411612737E+03  0.57108804064E+03  0.00000000000E+00 0.  1.
<mgrwt>
<rscale>  0 0.19767563E+04</rscale>
<asrwt>0</asrwt>
<pdfrwt beam="1">  1        2 0.33598325E+00 0.19767563E+04</pdfrwt>
<pdfrwt beam="2">  1       -3 0.68817978E-01 0.19767563E+04</pdfrwt>
<totfact> 0.63691937E+00</totfact>
</mgrwt>
</event>
<event>
12    6  0.1450532E-007  0.1354382E+04  0.7818608E-02  0.8987517E-01
         -1   -1    0    0    0  501 -0.00000000000E+00  0.00000000000E+00  0.18016189283E+03  0.18016189283E+03  0.00000000000E+00 0.  1.
          2   -1    0    0  501    0  0.00000000000E+00 -0.00000000000E+00 -0.25454213420E+04  0.25454213420E+04  0.00000000000E+00 0. -1.
         24    2    1    2    0    0 -0.36375634560E+02 -0.25049298945E+01 -0.13966348950E+04  0.13994591012E+04  0.81038783487E+02 0.  0.
        254    2    1    2    0    0  0.36375634560E+02  0.25049298945E+01 -0.96862455416E+03  0.13261241337E+04  0.90500951900E+03 0.  0.
         23    2    4    4    0    0  0.25440707469E+03 -0.24007553107E+03 -0.91495649822E+03  0.98375510595E+03  0.90936761430E+02 0.  0.
         23    2    4    4    0    0 -0.21803144013E+03  0.24258046097E+03 -0.53668055944E+02  0.34236902771E+03  0.89181287151E+02 0.  0.
          4    1    3    3  502    0 -0.90396886190E+01  0.22599115349E+01 -0.12600323557E+04  0.12600668080E+04  0.00000000000E+00 0. -1.
         -3    1    3    3    0  502 -0.27335945941E+02 -0.47648414293E+01 -0.13660253932E+03  0.13939229319E+03  0.00000000000E+00 0.  1.
         11    1    5    5    0    0  0.25448296938E+03 -0.24686054239E+03 -0.90063046929E+03  0.96790337912E+03  0.00000000000E+00 0.  1.
        -11    1    5    5    0    0 -0.75894693667E-01  0.67850113229E+01 -0.14326028929E+02  0.15851726831E+02  0.00000000000E+00 0. -1.
          4    1    6    6  503    0  0.62074199989E+01  0.11491004553E+02 -0.11900811071E+02  0.17669311046E+02  0.00000000000E+00 0. -1.
         -4    1    6    6    0  503 -0.22423886013E+03  0.23108945641E+03 -0.41767244873E+02  0.32469971666E+03  0.00000000000E+00 0.  1.
<mgrwt>
<rscale>  0 0.13543824E+04</rscale>
<asrwt>0</asrwt>
<pdfrwt beam="1">  1        2 0.39160329E+00 0.13543824E+04</pdfrwt>
<pdfrwt beam="2">  1       -1 0.27717214E-01 0.13543824E+04</pdfrwt>
<totfact> 0.42886821E+01</totfact>
</mgrwt>
</event>
<event>
12    6  0.1450532E-007  0.1331541E+04  0.7818608E-02  0.9004920E-01
          2   -1    0    0  501    0  0.00000000000E+00  0.00000000000E+00  0.13792226054E+04  0.13792226054E+04  0.00000000000E+00 0. -1.
         -1   -1    0    0    0  501 -0.00000000000E+00 -0.00000000000E+00 -0.32137717060E+03  0.32137717060E+03  0.00000000000E+00 0.  1.
         24    2    1    2    0    0  0.32430106544E+03  0.15966552710E+03  0.30185699528E+03  0.47752959684E+03  0.79073438445E+02 0.  0.
        254    2    1    2    0    0 -0.32430106544E+03 -0.15966552710E+03  0.75598843949E+03  0.12230701791E+04  0.89090845816E+03 0.  0.
         23    2    4    4    0    0  0.14634355799E+03  0.17795734158E+03  0.54700365423E+03  0.60054649524E+03  0.91421238356E+02 0.  0.
         23    2    4    4    0    0 -0.47064462343E+03 -0.33762286868E+03  0.20898478526E+03  0.62252368388E+03  0.91463290430E+02 0.  0.
          2    1    3    3  502    0 -0.19049344622E+01  0.38559927544E+01  0.16264607444E+02  0.16823641423E+02  0.00000000000E+00 0. -1.
         -1    1    3    3    0  502  0.32620599990E+03  0.15580953435E+03  0.28559238783E+03  0.46070595541E+03  0.00000000000E+00 0.  1.
         11    1    5    5    0    0  0.73473531689E+02  0.15442819853E+03  0.36423539709E+03  0.40238520457E+03  0.00000000000E+00 0.  1.
        -11    1    5    5    0    0  0.72870026302E+02  0.23529143052E+02  0.18276825713E+03  0.19816129067E+03  0.00000000000E+00 0. -1.
          2    1    6    6  503    0 -0.25811732215E+03 -0.13150518390E+03  0.88718515682E+02  0.30296722663E+03  0.00000000000E+00 0. -1.
         -2    1    6    6    0  503 -0.21252730128E+03 -0.20611768479E+03  0.12026626958E+03  0.31955645725E+03  0.00000000000E+00 0.  1.
<mgrwt>
<rscale>  0 0.13315415E+04</rscale>
<asrwt>0</asrwt>
<pdfrwt beam="1">  1        2 0.21218809E+00 0.13315415E+04</pdfrwt>
<pdfrwt beam="2">  1       -1 0.49442642E-01 0.13315415E+04</pdfrwt>
<totfact> 0.67967747E+01</totfact>
</mgrwt>
</event>
<event>
12    6  0.1450532E-007  0.1415960E+04  0.7818608E-02  0.8942346E-01
          2   -1    0    0  501    0  0.00000000000E+00  0.00000000000E+00  0.59602754364E+03  0.59602754364E+03  0.00000000000E+00 0. -1.
         -1   -1    0    0    0  501 -0.00000000000E+00 -0.00000000000E+00 -0.84096053500E+03  0.84096053500E+03  0.00000000000E+00 0.  1.
         24    2    1    2    0    0  0.43225665042E+03 -0.40959142446E+01 -0.10634974828E+03  0.45223590263E+03  0.79652083004E+02 0.  0.
        254    2    1    2    0    0 -0.43225665042E+03  0.40959142446E+01 -0.13858324308E+03  0.98475217601E+03  0.87388153920E+03 0.  0.
         23    2    4    4    0    0 -0.12503853706E+03  0.28147187469E+03 -0.37914867134E+03  0.49719638011E+03  0.92679412081E+02 0.  0.
         23    2    4    4    0    0 -0.30721811336E+03 -0.27737596044E+03  0.24056542826E+03  0.48755579590E+03  0.92295916687E+02 0.  0.
          4    1    3    3  502    0  0.43012421742E+03 -0.12965436397E+02 -0.10266063934E+03  0.44239592202E+03  0.00000000000E+00 0. -1.
         -3    1    3    3    0  502  0.21324330017E+01  0.88695221525E+01 -0.36891089396E+01  0.98399806143E+01  0.00000000000E+00 0.  1.
         11    1    5    5    0    0 -0.81800228468E+02  0.86993385894E+02 -0.17577671554E+03  0.21250077716E+03  0.00000000000E+00 0. -1.
        -11    1    5    5    0    0 -0.43238308593E+02  0.19447848880E+03 -0.20337195580E+03  0.28469560295E+03  0.00000000000E+00 0.  1.
          1    1    6    6  503    0 -0.68680100898E+02 -0.97560658131E+02  0.10727770588E+03  0.16044794936E+03  0.00000000000E+00 0. -1.
         -1    1    6    6    0  503 -0.23853801246E+03 -0.17981530231E+03  0.13328772238E+03  0.32710784655E+03  0.00000000000E+00 0.  1.
<mgrwt>
<rscale>  0 0.14159599E+04</rscale>
<asrwt>0</asrwt>
<pdfrwt beam="1">  1        2 0.91696545E-01 0.14159599E+04</pdfrwt>
<pdfrwt beam="2">  1       -1 0.12937854E+00 0.14159599E+04</pdfrwt>
<totfact> 0.28521141E+01</totfact>
</mgrwt>
</event>
<event>
12    6  0.1450532E-007  0.1865288E+04  0.7818608E-02  0.8672330E-01
         -1   -1    0    0    0  501 -0.00000000000E+00  0.00000000000E+00  0.40803193631E+03  0.40803193631E+03  0.00000000000E+00 0.  1.
          2   -1    0    0  501    0  0.00000000000E+00 -0.00000000000E+00 -0.21317568928E+04  0.21317568928E+04  0.00000000000E+00 0. -1.
         24    2    1    2    0    0 -0.64115105642E+03  0.11887032606E+03 -0.10028147853E+04  0.11988441894E+04  0.79906602798E+02 0.  0.
        254    2    1    2    0    0  0.64115105642E+03 -0.11887032606E+03 -0.72091017117E+03  0.13409446397E+04  0.92369703927E+03 0.  0.
         23    2    4    4    0    0  0.71715211070E+03  0.21401290273E+03 -0.61136764361E+03  0.97084696158E+03  0.93084664307E+02 0.  0.
         23    2    4    4    0    0 -0.76001054283E+02 -0.33288322880E+03 -0.10954252756E+03  0.37009767815E+03  0.91571402530E+02 0.  0.
          2    1    3    3  502    0 -0.36802510108E+03  0.73537639731E+02 -0.64744407550E+03  0.74835425461E+03  0.00000000000E+00 0. -1.
         -1    1    3    3    0  502 -0.27312595534E+03  0.45332686333E+02 -0.35537070979E+03  0.45048993475E+03  0.00000000000E+00 0.  1.
         11    1    5    5    0    0  0.48909667168E+03  0.12576097952E+03 -0.46100538239E+03  0.68378164702E+03  0.00000000000E+00 0. -1.
        -11    1    5    5    0    0  0.22805543902E+03  0.88251923216E+02 -0.15036226122E+03  0.28706531455E+03  0.00000000000E+00 0.  1.
          4    1    6    6  503    0 -0.97230953084E+00 -0.18388755625E+03 -0.34159869604E+02  0.18703602707E+03  0.00000000000E+00 0.  1.
         -4    1    6    6    0  503 -0.75028744752E+02 -0.14899567255E+03 -0.75382657958E+02  0.18306165108E+03  0.00000000000E+00 0. -1.
<mgrwt>
<rscale>  0 0.18652881E+04</rscale>
<asrwt>0</asrwt>
<pdfrwt beam="1">  1        2 0.32796260E+00 0.18652881E+04</pdfrwt>
<pdfrwt beam="2">  1       -1 0.62774143E-01 0.18652881E+04</pdfrwt>
<totfact> 0.15526402E+01</totfact>
</mgrwt>
</event>
<event>
12    6  0.1473317E-007  0.1392629E+04  0.7818608E-02  0.8959171E-01
         -1   -1    0    0    0  501 -0.00000000000E+00  0.00000000000E+00  0.15875700690E+03  0.15875700690E+03  0.00000000000E+00 0.  1.
          2   -1    0    0  501    0  0.00000000000E+00 -0.00000000000E+00 -0.30540635597E+04  0.30540635597E+04  0.00000000000E+00 0. -1.
         24    2    1    2    0    0  0.28571239045E+03 -0.91339880427E+02 -0.24513527143E+03  0.39600802587E+03  0.82198001463E+02 0.  0.
        254    2    1    2    0    0 -0.28571239045E+03  0.91339880427E+02 -0.26501712814E+04  0.28168125407E+04  0.90611838364E+03 0.  0.
         23    2    4    4    0    0 -0.63197140488E+02 -0.24555703211E+03 -0.21533430744E+04  0.21700622997E+04  0.89397170880E+02 0.  0.
         23    2    4    4    0    0 -0.22251524996E+03  0.33689691254E+03 -0.49682820699E+03  0.64675024099E+03  0.91842478285E+02 0.  0.
          2    1    3    3  502    0  0.25465495956E+02 -0.23260733285E+01  0.27760447200E+01  0.25721751995E+02  0.00000000000E+00 0. -1.
         -1    1    3    3    0  502  0.26024689449E+03 -0.89013807098E+02 -0.24791131615E+03  0.37028627387E+03  0.00000000000E+00 0.  1.
         11    1    5    5    0    0 -0.71590363003E+02 -0.18396171569E+03 -0.18439311074E+04  0.18544673148E+04  0.00000000000E+00 0. -1.
        -11    1    5    5    0    0  0.83932225147E+01 -0.61595316427E+02 -0.30941196696E+03  0.31559498489E+03  0.00000000000E+00 0.  1.
          2    1    6    6  503    0 -0.16466769396E+03  0.25787255444E+03 -0.30858564408E+03  0.43455586925E+03  0.00000000000E+00 0. -1.
         -2    1    6    6    0  503 -0.57847556005E+02  0.79024358103E+02 -0.18824256291E+03  0.21219437174E+03  0.00000000000E+00 0.  1.
<mgrwt>
<rscale>  0 0.13926292E+04</rscale>
<asrwt>0</asrwt>
<pdfrwt beam="1">  1        2 0.46985589E+00 0.13926292E+04</pdfrwt>
<pdfrwt beam="2">  1       -1 0.24424157E-01 0.13926292E+04</pdfrwt>
<totfact> 0.26288676E+01</totfact>
</mgrwt>
</event>
<event>
12    6  0.1450532E-007  0.3296024E+04  0.7818608E-02  0.8163908E-01
         -1   -1    0    0    0  501 -0.00000000000E+00  0.00000000000E+00  0.67770007656E+03  0.67770007656E+03  0.00000000000E+00 0.  1.
          2   -1    0    0  501    0  0.00000000000E+00 -0.00000000000E+00 -0.40075903897E+04  0.40075903897E+04  0.00000000000E+00 0. -1.
         24    2    1    2    0    0  0.85563314441E+03  0.10070012923E+04 -0.45835567992E+03  0.14009605670E+04  0.80255220802E+02 0.  0.
        254    2    1    2    0    0 -0.85563314441E+03 -0.10070012923E+04 -0.28715346332E+04  0.32843298992E+04  0.89160083951E+03 0.  0.
         23    2    4    4    0    0  0.14959694683E+03 -0.16268615276E+03 -0.75605983711E+03  0.79299013996E+03  0.91437705437E+02 0.  0.
         23    2    4    4    0    0 -0.10052300912E+04 -0.84431513951E+03 -0.21154747961E+04  0.24913397593E+04  0.90468736121E+02 0.  0.
          2    1    3    3  502    0  0.53093443902E+03  0.67837682288E+03 -0.28116579436E+03  0.90616813908E+03  0.00000000000E+00 0. -1.
         -1    1    3    3    0  502  0.32469870539E+03  0.32862446939E+03 -0.17718988557E+03  0.49479242790E+03  0.00000000000E+00 0.  1.
         11    1    5    5    0    0  0.13673799086E+03 -0.92350255472E+02 -0.46972604257E+03  0.49786383972E+03  0.00000000000E+00 0. -1.
        -11    1    5    5    0    0  0.12858955966E+02 -0.70335897287E+02 -0.28633379455E+03  0.29512630024E+03  0.00000000000E+00 0.  1.
          4    1    6    6  503    0 -0.92082509538E+03 -0.77350058010E+03 -0.19815137778E+04  0.23178910361E+04  0.00000000000E+00 0. -1.
         -4    1    6    6    0  503 -0.84404995859E+02 -0.70814559415E+02 -0.13396101827E+03  0.17344872316E+03  0.00000000000E+00 0.  1.
<mgrwt>
<rscale>  0 0.32960245E+04</rscale>
<asrwt>0</asrwt>
<pdfrwt beam="1">  1        2 0.61655237E+00 0.32960245E+04</pdfrwt>
<pdfrwt beam="2">  1       -1 0.10426155E+00 0.32960245E+04</pdfrwt>
<totfact> 0.27633425E-01</totfact>
</mgrwt>
</event>
<event>
12    6  0.1450532E-007  0.2577960E+04  0.7818608E-02  0.8375726E-01
         -1   -1    0    0    0  501 -0.00000000000E+00  0.00000000000E+00  0.26103802014E+04  0.26103802014E+04  0.00000000000E+00 0.  1.
          2   -1    0    0  501    0  0.00000000000E+00 -0.00000000000E+00 -0.63648559260E+03  0.63648559260E+03  0.00000000000E+00 0. -1.
         24    2    1    2    0    0  0.68578572013E+03 -0.53945986880E+03  0.17827854594E+04  0.19864473854E+04  0.79562660391E+02 0.  0.
        254    2    1    2    0    0 -0.68578572013E+03  0.53945986880E+03  0.19110914946E+03  0.12604184086E+04  0.88927659015E+03 0.  0.
         23    2    4    4    0    0 -0.36674378963E+03 -0.13222327765E+03 -0.16205532465E+03  0.43220612447E+03  0.92499748098E+02 0.  0.
         23    2    4    4    0    0 -0.31904193050E+03  0.67168314645E+03  0.35316447411E+03  0.82821228415E+03  0.90908961083E+02 0.  0.
          2    1    3    3  502    0  0.93434766721E+02 -0.11091956256E+03  0.29087961252E+03  0.32502946631E+03  0.00000000000E+00 0. -1.
         -1    1    3    3    0  502  0.59235095341E+03 -0.42854030624E+03  0.14919058469E+04  0.16614179191E+04  0.00000000000E+00 0.  1.
         11    1    5    5    0    0 -0.35245056103E+03 -0.11903738149E+03 -0.17258296042E+03  0.41009288508E+03  0.00000000000E+00 0. -1.
        -11    1    5    5    0    0 -0.14293228604E+02 -0.13185896158E+02  0.10527635779E+02  0.22113239394E+02  0.00000000000E+00 0.  1.
          3    1    6    6  503    0 -0.19613682643E+03  0.33128821951E+03  0.21399679073E+03  0.44047266148E+03  0.00000000000E+00 0. -1.
         -3    1    6    6    0  503 -0.12290510407E+03  0.34039492693E+03  0.13916768337E+03  0.38773962266E+03  0.00000000000E+00 0.  1.
<mgrwt>
<rscale>  0 0.25779600E+04</rscale>
<asrwt>0</asrwt>
<pdfrwt beam="1">  1        2 0.97920862E-01 0.25779600E+04</pdfrwt>
<pdfrwt beam="2">  1       -1 0.40159695E+00 0.25779600E+04</pdfrwt>
<totfact> 0.32538974E-01</totfact>
</mgrwt>
</event>
<event>
12    6  0.1450532E-007  0.2131983E+04  0.7818608E-02  0.8547284E-01
          2   -1    0    0  501    0  0.00000000000E+00  0.00000000000E+00  0.10033251851E+04  0.10033251851E+04  0.00000000000E+00 0. -1.
         -1   -1    0    0    0  501 -0.00000000000E+00 -0.00000000000E+00 -0.11325714025E+04  0.11325714025E+04  0.00000000000E+00 0.  1.
         24    2    1    2    0    0  0.11462475354E+03 -0.16032012608E+03  0.80925055477E+03  0.83662517572E+03  0.78827960131E+02 0.  0.
        254    2    1    2    0    0 -0.11462475354E+03  0.16032012608E+03 -0.93849677219E+03  0.12992714119E+04  0.87663483467E+03 0.  0.
         23    2    4    4    0    0 -0.14309869554E+03  0.90047682927E+01  0.13088292971E+03  0.21481198394E+03  0.91953926734E+02 0.  0.
         23    2    4    4    0    0  0.28473941995E+02  0.15131535779E+03 -0.10693797019E+04  0.10844594279E+04  0.93660029496E+02 0.  0.
          2    1    3    3  502    0  0.12152383325E+03 -0.13378456774E+03  0.74786491594E+03  0.76939475245E+03  0.00000000000E+00 0. -1.
         -1    1    3    3    0  502 -0.68990797117E+01 -0.26535558341E+02  0.61385638832E+02  0.67230423263E+02  0.00000000000E+00 0.  1.
         11    1    5    5    0    0 -0.65983489927E+02 -0.23798215975E+02  0.14879006066E+02  0.71704678007E+02  0.00000000000E+00 0.  1.
        -11    1    5    5    0    0 -0.77115205609E+02  0.32802984268E+02  0.11600392364E+03  0.14310730594E+03  0.00000000000E+00 0. -1.
          2    1    6    6  503    0 -0.13421497376E+02  0.55160601212E+02 -0.63763639918E+03  0.64015857885E+03  0.00000000000E+00 0. -1.
         -2    1    6    6    0  503  0.41895439371E+02  0.96154756578E+02 -0.43174330272E+03  0.44430084908E+03  0.00000000000E+00 0.  1.
<mgrwt>
<rscale>  0 0.21319826E+04</rscale>
<asrwt>0</asrwt>
<pdfrwt beam="1">  1        2 0.15435772E+00 0.21319826E+04</pdfrwt>
<pdfrwt beam="2">  1       -1 0.17424175E+00 0.21319826E+04</pdfrwt>
<totfact> 0.60194574E+00</totfact>
</mgrwt>
</event>
<event>
12    6  0.1450532E-007  0.1268556E+04  0.7818608E-02  0.9054879E-01
         -1   -1    0    0    0  501 -0.00000000000E+00  0.00000000000E+00  0.41136549556E+03  0.41136549556E+03  0.00000000000E+00 0.  1.
          2   -1    0    0  501    0  0.00000000000E+00 -0.00000000000E+00 -0.97798272913E+03  0.97798272913E+03  0.00000000000E+00 0. -1.
         24    2    1    2    0    0 -0.14575057816E+03  0.14642481963E+03 -0.40656893845E+03  0.46383052887E+03  0.84599048254E+02 0.  0.
        254    2    1    2    0    0  0.14575057816E+03 -0.14642481963E+03 -0.16004829512E+03  0.92551769581E+03  0.88785364202E+03 0.  0.
         23    2    4    4    0    0  0.33777142746E+03 -0.39779535741E+03  0.53210482791E+02  0.53321103214E+03  0.95665906839E+02 0.  0.
         23    2    4    4    0    0 -0.19202084931E+03  0.25137053778E+03 -0.21325877792E+03  0.39230666368E+03  0.91466158641E+02 0.  0.
          4    1    3    3  502    0 -0.14596203749E+03  0.15176524553E+03 -0.40722796503E+03  0.45844544020E+03  0.00000000000E+00 0. -1.
         -3    1    3    3    0  502  0.21145933341E+00 -0.53404259068E+01  0.65902658251E+00  0.53850886671E+01  0.00000000000E+00 0.  1.
         11    1    5    5    0    0  0.30609968531E+03 -0.31081760631E+03  0.27320551580E+02  0.43709382777E+03  0.00000000000E+00 0. -1.
        -11    1    5    5    0    0  0.31671742151E+02 -0.86977751096E+02  0.25889931211E+02  0.96117204364E+02  0.00000000000E+00 0.  1.
          2    1    6    6  503    0 -0.10318927231E+03  0.20019168596E+03 -0.16375283754E+03  0.27845956412E+03  0.00000000000E+00 0.  1.
         -2    1    6    6    0  503 -0.88831576996E+02  0.51178851814E+02 -0.49505940377E+02  0.11384709956E+03  0.00000000000E+00 0. -1.
<mgrwt>
<rscale>  0 0.12685556E+04</rscale>
<asrwt>0</asrwt>
<pdfrwt beam="1">  1        2 0.15045888E+00 0.12685556E+04</pdfrwt>
<pdfrwt beam="2">  1       -1 0.63287000E-01 0.12685556E+04</pdfrwt>
<totfact> 0.73868666E+01</totfact>
</mgrwt>
</event>
<event>
12    6  0.1450532E-007  0.2113644E+04  0.7818608E-02  0.8555257E-01
          2   -1    0    0  501    0  0.00000000000E+00  0.00000000000E+00  0.17339261715E+04  0.17339261715E+04  0.00000000000E+00 0. -1.
         -1   -1    0    0    0  501 -0.00000000000E+00 -0.00000000000E+00 -0.64412933999E+03  0.64412933999E+03  0.00000000000E+00 0.  1.
         24    2    1    2    0    0  0.72421716803E+03  0.46867892489E+03  0.38574386680E+03  0.94824696984E+03  0.78889441215E+02 0.  0.
        254    2    1    2    0    0 -0.72421716803E+03 -0.46867892489E+03  0.70405296474E+03  0.14298085417E+04  0.89694562132E+03 0.  0.
         23    2    4    4    0    0 -0.56506156570E+03 -0.70498003893E+03  0.36716458878E+03  0.97947360557E+03  0.90924586516E+02 0.  0.
         23    2    4    4    0    0 -0.15915560233E+03  0.23630111404E+03  0.33688837596E+03  0.45033493611E+03  0.90216708958E+02 0.  0.
          4    1    3    3  502    0  0.81270375562E+02  0.24932953201E+02  0.39829864514E+02  0.93877282697E+02  0.00000000000E+00 0. -1.
         -3    1    3    3    0  502  0.64294679247E+03  0.44374597169E+03  0.34591400229E+03  0.85436968714E+03  0.00000000000E+00 0.  1.
         11    1    5    5    0    0 -0.26168924672E+03 -0.39487295949E+03  0.17515844222E+03  0.50506078432E+03  0.00000000000E+00 0.  1.
        -11    1    5    5    0    0 -0.30337231898E+03 -0.31010707944E+03  0.19200614656E+03  0.47441282125E+03  0.00000000000E+00 0. -1.
          2    1    6    6  503    0 -0.10306189329E+02  0.17806963560E+02 -0.18277971416E+01  0.20655418952E+02  0.00000000000E+00 0. -1.
         -2    1    6    6    0  503 -0.14884941300E+03  0.21849415048E+03  0.33871617310E+03  0.42967951716E+03  0.00000000000E+00 0.  1.
<mgrwt>
<rscale>  0 0.21136440E+04</rscale>
<asrwt>0</asrwt>
<pdfrwt beam="1">  1        2 0.26675787E+00 0.21136440E+04</pdfrwt>
<pdfrwt beam="2">  1       -1 0.99096822E-01 0.21136440E+04</pdfrwt>
<totfact> 0.95780010E+00</totfact>
</mgrwt>
</event>
<event>
12    6  0.1450532E-007  0.2994129E+04  0.7818608E-02  0.8245409E-01
          2   -1    0    0  501    0  0.00000000000E+00  0.00000000000E+00  0.21486303630E+04  0.21486303630E+04  0.00000000000E+00 0. -1.
         -1   -1    0    0    0  501 -0.00000000000E+00 -0.00000000000E+00 -0.10430843734E+04  0.10430843734E+04  0.00000000000E+00 0.  1.
         24    2    1    2    0    0 -0.11144738261E+04  0.76184737804E+03  0.67419479214E+03  0.15111786366E+04  0.81602190105E+02 0.  0.
        254    2    1    2    0    0  0.11144738261E+04 -0.76184737804E+03  0.43135119744E+03  0.16805360998E+04  0.90314693756E+03 0.  0.
         23    2    4    4    0    0  0.10253037688E+03  0.18309823908E+03  0.32181989353E+01  0.22838204130E+03  0.90058628944E+02 0.  0.
         23    2    4    4    0    0  0.10119434492E+04 -0.94494561712E+03  0.42813299851E+03  0.14521540585E+04  0.92205105922E+02 0.  0.
          2    1    3    3  502    0 -0.32864658342E+03  0.22869181607E+03  0.15895365496E+03  0.43078392259E+03  0.00000000000E+00 0. -1.
         -1    1    3    3    0  502 -0.78582724267E+03  0.53315556197E+03  0.51524113718E+03  0.10803947140E+04  0.00000000000E+00 0.  1.
         11    1    5    5    0    0  0.40049734254E+02  0.15266979043E+03  0.12207468684E+02  0.15830688051E+03  0.00000000000E+00 0. -1.
        -11    1    5    5    0    0  0.62480642621E+02  0.30428448650E+02 -0.89892697487E+01  0.70075160794E+02  0.00000000000E+00 0.  1.
          3    1    6    6  503    0  0.86488902344E+03 -0.78207040949E+03  0.33053632644E+03  0.12119906812E+04  0.00000000000E+00 0. -1.
         -3    1    6    6    0  503  0.14705442577E+03 -0.16287520763E+03  0.97596672063E+02  0.24016337730E+03  0.00000000000E+00 0.  1.
<mgrwt>
<rscale>  0 0.29941294E+04</rscale>
<asrwt>0</asrwt>
<pdfrwt beam="1">  1        2 0.33055852E+00 0.29941294E+04</pdfrwt>
<pdfrwt beam="2">  1       -1 0.16047452E+00 0.29941294E+04</pdfrwt>
<totfact> 0.15577387E+00</totfact>
</mgrwt>
</event>
<event>
12    6  0.1450532E-007  0.2633875E+04  0.7818608E-02  0.8356785E-01
         -1   -1    0    0    0  501 -0.00000000000E+00  0.00000000000E+00  0.49576125920E+03  0.49576125920E+03  0.00000000000E+00 0.  1.
          2   -1    0    0  501    0  0.00000000000E+00 -0.00000000000E+00 -0.34983050512E+04  0.34983050512E+04  0.00000000000E+00 0. -1.
         24    2    1    2    0    0  0.40985890980E+03  0.25946474917E+03  0.27418334901E+03  0.56247378592E+03  0.76772188728E+02 0.  0.
        254    2    1    2    0    0 -0.40985890980E+03 -0.25946474917E+03 -0.32767271410E+04  0.34315925245E+04  0.89642635805E+03 0.  0.
         23    2    4    4    0    0  0.11773504188E+03 -0.17895575625E+03 -0.20031507546E+03  0.30788946045E+03  0.93718128552E+02 0.  0.
         23    2    4    4    0    0 -0.52759395167E+03 -0.80508992927E+02 -0.30764120656E+04  0.31237030641E+04  0.91501690490E+02 0.  0.
          2    1    3    3  502    0  0.67410304419E+02  0.13365999762E+02  0.28313620028E+02  0.74326712362E+02  0.00000000000E+00 0. -1.
         -1    1    3    3    0  502  0.34244860538E+03  0.24609874941E+03  0.24586972899E+03  0.48814707355E+03  0.00000000000E+00 0.  1.
         11    1    5    5    0    0  0.24030626446E+02 -0.66777461232E+02 -0.12431310079E+03  0.14314484750E+03  0.00000000000E+00 0. -1.
        -11    1    5    5    0    0  0.93704415432E+02 -0.11217829501E+03 -0.76001974669E+02  0.16474461295E+03  0.00000000000E+00 0.  1.
          3    1    6    6  503    0 -0.28745543243E+03  0.22158600604E+01 -0.16152280211E+04  0.16406087576E+04  0.00000000000E+00 0. -1.
         -3    1    6    6    0  503 -0.24013851924E+03 -0.82724852987E+02 -0.14611840445E+04  0.14830943064E+04  0.00000000000E+00 0.  1.
<mgrwt>
<rscale>  0 0.26338748E+04</rscale>
<asrwt>0</asrwt>
<pdfrwt beam="1">  1        2 0.53820078E+00 0.26338748E+04</pdfrwt>
<pdfrwt beam="2">  1       -1 0.76270963E-01 0.26338748E+04</pdfrwt>
<totfact> 0.14117392E+00</totfact>
</mgrwt>
</event>
<event>
12    6  0.1450532E-007  0.1332512E+04  0.7818608E-02  0.9004173E-01
          4   -1    0    0  501    0  0.00000000000E+00  0.00000000000E+00  0.30993651783E+03  0.30993651783E+03  0.00000000000E+00 0. -1.
         -1   -1    0    0    0  501 -0.00000000000E+00 -0.00000000000E+00 -0.14322195868E+04  0.14322195868E+04  0.00000000000E+00 0.  1.
         24    2    1    2    0    0 -0.62202275300E+02 -0.18362204034E+03 -0.68893098336E+03  0.71923177807E+03  0.71290069470E+02 0.  0.
        254    2    1    2    0    0  0.62202275300E+02  0.18362204034E+03 -0.43335208564E+03  0.10229243266E+04  0.90608717631E+03 0.  0.
         23    2    4    4    0    0  0.29546720351E+03  0.44798806914E+03 -0.15937254642E+03  0.56731976091E+03  0.91966973038E+02 0.  0.
         23    2    4    4    0    0 -0.23326492821E+03 -0.26436602880E+03 -0.27397953922E+03  0.45560456568E+03  0.90602474823E+02 0.  0.
          2    1    3    3  502    0 -0.67495241758E+02 -0.12862168217E+03 -0.41236509167E+03  0.43720031291E+03  0.00000000000E+00 0. -1.
         -3    1    3    3    0  502  0.52929664585E+01 -0.55000358163E+02 -0.27656589170E+03  0.28203146516E+03  0.00000000000E+00 0.  1.
         11    1    5    5    0    0  0.47509596546E+02  0.13922573958E+03 -0.25504228983E+02  0.14930316146E+03  0.00000000000E+00 0.  1.
        -11    1    5    5    0    0  0.24795760696E+03  0.30876232956E+03 -0.13386831744E+03  0.41801659945E+03  0.00000000000E+00 0. -1.
          2    1    6    6  503    0 -0.15567210957E+03 -0.21015022852E+03 -0.15665724895E+03  0.30485802908E+03  0.00000000000E+00 0. -1.
         -2    1    6    6    0  503 -0.77592818632E+02 -0.54215800282E+02 -0.11732229027E+03  0.15074653660E+03  0.00000000000E+00 0.  1.
<mgrwt>
<rscale>  0 0.13325121E+04</rscale>
<asrwt>0</asrwt>
<pdfrwt beam="1">  1        4 0.47682542E-01 0.13325121E+04</pdfrwt>
<pdfrwt beam="2">  1       -1 0.22034147E+00 0.13325121E+04</pdfrwt>
<totfact> 0.19223889E+00</totfact>
</mgrwt>
</event>
<event>
12    6  0.1450532E-007  0.2357802E+04  0.7818608E-02  0.8455473E-01
          2   -1    0    0  501    0  0.00000000000E+00  0.00000000000E+00  0.87667752026E+03  0.87667752026E+03  0.00000000000E+00 0. -1.
         -1   -1    0    0    0  501 -0.00000000000E+00 -0.00000000000E+00 -0.15853121496E+04  0.15853121496E+04  0.00000000000E+00 0.  1.
         24    2    1    2    0    0  0.58337095469E+03  0.78726499830E+03 -0.71880162228E+02  0.98570026296E+03  0.79563825675E+02 0.  0.
        254    2    1    2    0    0 -0.58337095469E+03 -0.78726499830E+03 -0.63675446715E+03  0.14762894069E+04  0.90214539475E+03 0.  0.
         23    2    4    4    0    0 -0.44756179038E+03 -0.73339645863E+03 -0.51423143635E+02  0.86612200646E+03  0.96649203991E+02 0.  0.
         23    2    4    4    0    0 -0.13580916432E+03 -0.53868539667E+02 -0.58533132352E+03  0.61016740048E+03  0.91353979839E+02 0.  0.
          2    1    3    3  502    0  0.56468113564E+03  0.76122789967E+03 -0.83807757625E+02  0.95150220200E+03  0.00000000000E+00 0. -1.
         -1    1    3    3    0  502  0.18689819054E+02  0.26037098631E+02  0.11927595397E+02  0.34198060959E+02  0.00000000000E+00 0.  1.
         11    1    5    5    0    0  0.49022104476E+01 -0.94901210668E+01 -0.28958229956E+01  0.11067061758E+02  0.00000000000E+00 0.  1.
        -11    1    5    5    0    0 -0.45246400083E+03 -0.72390633757E+03 -0.48527320639E+02  0.85505494470E+03  0.00000000000E+00 0. -1.
          3    1    6    6  503    0 -0.12767367976E+03 -0.48507157500E+02 -0.58466056763E+03  0.60040110941E+03  0.00000000000E+00 0. -1.
         -3    1    6    6    0  503 -0.81354845590E+01 -0.53613821667E+01 -0.67075588359E+00  0.97662910668E+01  0.00000000000E+00 0.  1.
<mgrwt>
<rscale>  0 0.23578020E+04</rscale>
<asrwt>0</asrwt>
<pdfrwt beam="1">  1        2 0.13487347E+00 0.23578020E+04</pdfrwt>
<pdfrwt beam="2">  1       -1 0.24389418E+00 0.23578020E+04</pdfrwt>
<totfact> 0.23926801E+00</totfact>
</mgrwt>
</event>
<event>
12    6  0.1687568E-007  0.1747795E+04  0.7818608E-02  0.8734565E-01
          2   -1    0    0  501    0  0.00000000000E+00  0.00000000000E+00  0.21337311023E+04  0.21337311023E+04  0.00000000000E+00 0. -1.
         -1   -1    0    0    0  501 -0.00000000000E+00 -0.00000000000E+00 -0.35791630609E+03  0.35791630609E+03  0.00000000000E+00 0.  1.
         24    2    1    2    0    0 -0.56292447882E+03  0.23658920483E+03  0.89933664622E+03  0.10900232057E+04  0.80534248157E+02 0.  0.
        254    2    1    2    0    0  0.56292447882E+03 -0.23658920483E+03  0.87647814995E+03  0.14016242026E+04  0.90745690658E+03 0.  0.
         23    2    4    4    0    0  0.41416610982E+03  0.30597826968E+03  0.40001969810E+03  0.65833373426E+03  0.90726395020E+02 0.  0.
         23    2    4    4    0    0  0.14875836900E+03 -0.54256747450E+03  0.47645845185E+03  0.74329046835E+03  0.94654885067E+02 0.  0.
          2    1    3    3  502    0 -0.50375435856E+03  0.23345823807E+03  0.78888339320E+03  0.96468036714E+03  0.00000000000E+00 0. -1.
         -1    1    3    3    0  502 -0.59170120260E+02  0.31309667559E+01  0.11045325302E+03  0.12534283860E+03  0.00000000000E+00 0.  1.
         11    1    5    5    0    0  0.40587306226E+03  0.31254740552E+03  0.39116918792E+03  0.64454026790E+03  0.00000000000E+00 0. -1.
        -11    1    5    5    0    0  0.82930475646E+01 -0.65691358478E+01  0.88505101882E+01  0.13793466362E+02  0.00000000000E+00 0.  1.
          2    1    6    6  503    0  0.15358208613E+03 -0.51330904649E+03  0.42494098264E+03  0.68384828223E+03  0.00000000000E+00 0. -1.
         -2    1    6    6    0  503 -0.48237171309E+01 -0.29258428017E+02  0.51517469206E+02  0.59442186117E+02  0.00000000000E+00 0.  1.
<mgrwt>
<rscale>  0 0.17477954E+04</rscale>
<asrwt>0</asrwt>
<pdfrwt beam="1">  1        2 0.32826632E+00 0.17477954E+04</pdfrwt>
<pdfrwt beam="2">  1       -1 0.55064049E-01 0.17477954E+04</pdfrwt>
<totfact> 0.20251939E+01</totfact>
</mgrwt>
</event>
<event>
12    6  0.1450532E-007  0.1835452E+04  0.7818608E-02  0.8687670E-01
          2   -1    0    0  501    0  0.00000000000E+00  0.00000000000E+00  0.11786759732E+04  0.11786759732E+04  0.00000000000E+00 0. -1.
         -1   -1    0    0    0  501 -0.00000000000E+00 -0.00000000000E+00 -0.71454844675E+03  0.71454844675E+03  0.00000000000E+00 0.  1.
         24    2    1    2    0    0 -0.23922826426E+03  0.39313211405E+03 -0.37507916883E+03  0.59919127687E+03  0.81010998507E+02 0.  0.
        254    2    1    2    0    0  0.23922826426E+03 -0.39313211405E+03  0.83920669525E+03  0.12940331431E+04  0.87090233463E+03 0.  0.
         23    2    4    4    0    0  0.30122451091E+03 -0.27310228526E+03 -0.21592058219E+02  0.41762216327E+03  0.92849286980E+02 0.  0.
         23    2    4    4    0    0 -0.61996246648E+02 -0.12002982879E+03  0.86079875347E+03  0.87641097979E+03  0.94186077089E+02 0.  0.
          2    1    3    3  502    0 -0.51043700641E+02  0.33588912697E+02 -0.57206220600E+02  0.83703202487E+02  0.00000000000E+00 0. -1.
         -1    1    3    3    0  502 -0.18818456362E+03  0.35954320135E+03 -0.31787294823E+03  0.51548807439E+03  0.00000000000E+00 0.  1.
         11    1    5    5    0    0  0.41495377227E+02 -0.60437780729E+02  0.27631382549E+02  0.78345931434E+02  0.00000000000E+00 0.  1.
        -11    1    5    5    0    0  0.25972913368E+03 -0.21266450453E+03 -0.49223440768E+02  0.33927623184E+03  0.00000000000E+00 0. -1.
          2    1    6    6  503    0 -0.41917384753E+02 -0.11914236353E+03  0.83052081855E+03  0.84006952092E+03  0.00000000000E+00 0. -1.
         -2    1    6    6    0  503 -0.20078861894E+02 -0.88746525639E+00  0.30277934917E+02  0.36341458864E+02  0.00000000000E+00 0.  1.
<mgrwt>
<rscale>  0 0.18354521E+04</rscale>
<asrwt>0</asrwt>
<pdfrwt beam="1">  1        2 0.18133476E+00 0.18354521E+04</pdfrwt>
<pdfrwt beam="2">  1       -1 0.10993053E+00 0.18354521E+04</pdfrwt>
<totfact> 0.16007373E+01</totfact>
</mgrwt>
</event>
<event>
12    6  0.1450532E-007  0.1291125E+04  0.7818608E-02  0.9036633E-01
          2   -1    0    0  501    0  0.00000000000E+00  0.00000000000E+00  0.21185409329E+04  0.21185409329E+04  0.00000000000E+00 0. -1.
         -1   -1    0    0    0  501 -0.00000000000E+00 -0.00000000000E+00 -0.19671592700E+03  0.19671592700E+03  0.00000000000E+00 0.  1.
         24    2    1    2    0    0 -0.26564197406E+03  0.19350394165E+03  0.45156265642E+03  0.56394982387E+03  0.78237697760E+02 0.  0.
        254    2    1    2    0    0  0.26564197406E+03 -0.19350394165E+03  0.14702623495E+04  0.17513070360E+04  0.89297005792E+03 0.  0.
         23    2    4    4    0    0 -0.15182020264E+03  0.15101552072E+03  0.10060932997E+04  0.10330979494E+04  0.95982206163E+02 0.  0.
         23    2    4    4    0    0  0.41746217670E+03 -0.34451946238E+03  0.46416904976E+03  0.71820908663E+03  0.86041016002E+02 0.  0.
          2    1    3    3  502    0 -0.21806808085E+03  0.14664496984E+03  0.40406982520E+03  0.48200711478E+03  0.00000000000E+00 0. -1.
         -1    1    3    3    0  502 -0.47573893219E+02  0.46858971815E+02  0.47492831217E+02  0.81942709087E+02  0.00000000000E+00 0.  1.
         11    1    5    5    0    0 -0.10235308275E+03  0.14741918943E+03  0.68137496096E+03  0.70461365895E+03  0.00000000000E+00 0.  1.
        -11    1    5    5    0    0 -0.49467119887E+02  0.35963312980E+01  0.32471833874E+03  0.32848429043E+03  0.00000000000E+00 0. -1.
          3    1    6    6  503    0  0.74067237984E+02 -0.52596000996E+02  0.39883568795E+02  0.99211864831E+02  0.00000000000E+00 0. -1.
         -3    1    6    6    0  503  0.34339493872E+03 -0.29192346138E+03  0.42428548097E+03  0.61899722180E+03  0.00000000000E+00 0.  1.
<mgrwt>
<rscale>  0 0.12911247E+04</rscale>
<asrwt>0</asrwt>
<pdfrwt beam="1">  1        2 0.32592936E+00 0.12911247E+04</pdfrwt>
<pdfrwt beam="2">  1       -1 0.30263990E-01 0.12911247E+04</pdfrwt>
<totfact> 0.64504385E+01</totfact>
</mgrwt>
</event>
<event>
12    6  0.1450532E-007  0.1213234E+04  0.7818608E-02  0.9101351E-01
         -1   -1    0    0    0  501 -0.00000000000E+00  0.00000000000E+00  0.13641931299E+03  0.13641931299E+03  0.00000000000E+00 0.  1.
          2   -1    0    0  501    0  0.00000000000E+00 -0.00000000000E+00 -0.26974476880E+04  0.26974476880E+04  0.00000000000E+00 0. -1.
         24    2    1    2    0    0 -0.28785618502E+03  0.10209111228E+03 -0.58356103105E+03  0.66341029552E+03  0.79284076468E+02 0.  0.
        254    2    1    2    0    0  0.28785618502E+03 -0.10209111228E+03 -0.19774673439E+04  0.21704567054E+04  0.84096458632E+03 0.  0.
         23    2    4    4    0    0 -0.15255405885E+03 -0.34018458337E+03 -0.90876559173E+03  0.98677029313E+03  0.94140421949E+02 0.  0.
         23    2    4    4    0    0  0.44041024387E+03  0.23809347109E+03 -0.10687017522E+04  0.11836864123E+04  0.91325810598E+02 0.  0.
          4    1    3    3  502    0 -0.35156053541E+02 -0.50029387868E+01 -0.11529949274E+03  0.12064389965E+03  0.00000000000E+00 0. -1.
         -3    1    3    3    0  502 -0.25270013148E+03  0.10709405107E+03 -0.46826153831E+03  0.54276639587E+03  0.00000000000E+00 0.  1.
         11    1    5    5    0    0 -0.52255797044E+02 -0.78772485644E+02 -0.33887596378E+03  0.35181343301E+03  0.00000000000E+00 0.  1.
        -11    1    5    5    0    0 -0.10029826180E+03 -0.26141209773E+03 -0.56988962795E+03  0.63495686012E+03  0.00000000000E+00 0. -1.
          2    1    6    6  503    0  0.18598709660E+03  0.12790076917E+03 -0.57048206744E+03  0.61351413686E+03  0.00000000000E+00 0. -1.
         -2    1    6    6    0  503  0.25442314727E+03  0.11019270192E+03 -0.49821968473E+03  0.57017227544E+03  0.00000000000E+00 0.  1.
<mgrwt>
<rscale>  0 0.12132336E+04</rscale>
<asrwt>0</asrwt>
<pdfrwt beam="1">  1        2 0.41499190E+00 0.12132336E+04</pdfrwt>
<pdfrwt beam="2">  1       -1 0.20987589E-01 0.12132336E+04</pdfrwt>
<totfact> 0.56951322E+01</totfact>
</mgrwt>
</event>
<event>
12    6  0.1450532E-007  0.1673928E+04  0.7818608E-02  0.8776375E-01
          2   -1    0    0  501    0  0.00000000000E+00  0.00000000000E+00  0.93597021592E+03  0.93597021592E+03  0.00000000000E+00 0. -1.
         -1   -1    0    0    0  501 -0.00000000000E+00 -0.00000000000E+00 -0.74843090799E+03  0.74843090799E+03  0.00000000000E+00 0.  1.
         24    2    1    2    0    0  0.37299491030E+03  0.39733585704E+03  0.29888150047E+03  0.62668178960E+03  0.79993297800E+02 0.  0.
        254    2    1    2    0    0 -0.37299491030E+03 -0.39733585704E+03 -0.11134219254E+03  0.10577193343E+04  0.89965111012E+03 0.  0.
         23    2    4    4    0    0 -0.53088736081E+03 -0.21955893081E+03  0.23482082835E+03  0.62809074421E+03  0.96486514922E+02 0.  0.
         23    2    4    4    0    0  0.15789245051E+03 -0.17777692623E+03 -0.34616302089E+03  0.42962859011E+03  0.90648921548E+02 0.  0.
          2    1    3    3  502    0  0.37491428055E+03  0.38400237771E+03  0.28637459990E+03  0.60830005369E+03  0.00000000000E+00 0. -1.
         -1    1    3    3    0  502 -0.19193702542E+01  0.13333479324E+02  0.12506900571E+02  0.18381735907E+02  0.00000000000E+00 0.  1.
         11    1    5    5    0    0 -0.49285046849E+03 -0.22403692647E+03  0.20263014213E+03  0.57805977478E+03  0.00000000000E+00 0.  1.
        -11    1    5    5    0    0 -0.38036892320E+02  0.44779956639E+01  0.32190686223E+02  0.50030969429E+02  0.00000000000E+00 0. -1.
          4    1    6    6  503    0  0.24160675223E+02 -0.27577687383E+02 -0.10170909064E+02  0.38048843081E+02  0.00000000000E+00 0. -1.
         -4    1    6    6    0  503  0.13373177529E+03 -0.15019923884E+03 -0.33599211183E+03  0.39157974703E+03  0.00000000000E+00 0.  1.
<mgrwt>
<rscale>  0 0.16739284E+04</rscale>
<asrwt>0</asrwt>
<pdfrwt beam="1">  1        2 0.14399542E+00 0.16739284E+04</pdfrwt>
<pdfrwt beam="2">  1       -1 0.11514322E+00 0.16739284E+04</pdfrwt>
<totfact> 0.20657251E+01</totfact>
</mgrwt>
</event>
<event>
12    6  0.1450532E-007  0.2389746E+04  0.7818608E-02  0.8443353E-01
          2   -1    0    0  501    0  0.00000000000E+00  0.00000000000E+00  0.15160182816E+04  0.15160182816E+04  0.00000000000E+00 0. -1.
         -1   -1    0    0    0  501 -0.00000000000E+00 -0.00000000000E+00 -0.94175716389E+03  0.94175716389E+03  0.00000000000E+00 0.  1.
         24    2    1    2    0    0  0.50739536250E+03 -0.78479576887E+03  0.65979241034E+03  0.11467488969E+04  0.79702917545E+02 0.  0.
        254    2    1    2    0    0 -0.50739536250E+03  0.78479576887E+03 -0.85531292633E+02  0.13110265486E+04  0.91548924425E+03 0.  0.
         23    2    4    4    0    0 -0.52807627898E+03  0.85076475188E+03  0.17954664336E+03  0.10214836216E+04  0.92339442324E+02 0.  0.
         23    2    4    4    0    0  0.20680916481E+02 -0.65968983012E+02 -0.26507793599E+03  0.28954292697E+03  0.93750666032E+02 0.  0.
          2    1    3    3  502    0  0.30315926663E+03 -0.46679498254E+03  0.44032117673E+03  0.70970827482E+03  0.00000000000E+00 0. -1.
         -1    1    3    3    0  502  0.20423609588E+03 -0.31800078634E+03  0.21947123361E+03  0.43704062208E+03  0.00000000000E+00 0.  1.
         11    1    5    5    0    0 -0.86500613539E+02  0.15421444940E+03  0.67131184625E+02  0.18913235708E+03  0.00000000000E+00 0. -1.
        -11    1    5    5    0    0 -0.44157566545E+03  0.69655030249E+03  0.11241545874E+03  0.83235126453E+03  0.00000000000E+00 0.  1.
          1    1    6    6  503    0 -0.48429500955E+01 -0.16723063726E+02 -0.21218803712E+03  0.21290109939E+03  0.00000000000E+00 0. -1.
         -1    1    6    6    0  503  0.25523866576E+02 -0.49245919286E+02 -0.52889898872E+02  0.76641827575E+02  0.00000000000E+00 0.  1.
<mgrwt>
<rscale>  0 0.23897457E+04</rscale>
<asrwt>0</asrwt>
<pdfrwt beam="1">  1        2 0.23323358E+00 0.23897457E+04</pdfrwt>
<pdfrwt beam="2">  1       -1 0.14488572E+00 0.23897457E+04</pdfrwt>
<totfact> 0.48798227E+00</totfact>
</mgrwt>
</event>
<event>
12    6  0.1450532E-007  0.1095718E+04  0.7818608E-02  0.9209375E-01
         -1   -1    0    0    0  501 -0.00000000000E+00  0.00000000000E+00  0.11221488173E+03  0.11221488173E+03  0.00000000000E+00 0.  1.
          2   -1    0    0  501    0  0.00000000000E+00 -0.00000000000E+00 -0.26747745679E+04  0.26747745679E+04  0.00000000000E+00 0. -1.
         24    2    1    2    0    0  0.11051023493E+03 -0.10926913874E+03 -0.47965078768E+03  0.51018201064E+03  0.77900893167E+02 0.  0.
        254    2    1    2    0    0 -0.11051023493E+03  0.10926913874E+03 -0.20829088985E+04  0.22768074390E+04  0.90619555182E+03 0.  0.
         23    2    4    4    0    0  0.15755298353E+03 -0.33642480462E+03 -0.10337217908E+04  0.11022987936E+04  0.92072242504E+02 0.  0.
         23    2    4    4    0    0 -0.26806321847E+03  0.44569394336E+03 -0.10491871077E+04  0.11745086454E+04  0.90421186109E+02 0.  0.
          2    1    3    3  502    0  0.54421376575E+02 -0.53688728844E+02 -0.35102053370E+03  0.35924863383E+03  0.00000000000E+00 0. -1.
         -1    1    3    3    0  502  0.56088858357E+02 -0.55580409892E+02 -0.12863025398E+03  0.15093337681E+03  0.00000000000E+00 0.  1.
         11    1    5    5    0    0  0.10138074657E+03 -0.27236610638E+03 -0.87722709235E+03  0.92411510281E+03  0.00000000000E+00 0.  1.
        -11    1    5    5    0    0  0.56172236963E+02 -0.64058698240E+02 -0.15649469841E+03  0.17818369076E+03  0.00000000000E+00 0. -1.
          3    1    6    6  503    0 -0.24899079300E+02  0.99381719156E+02 -0.16388575928E+03  0.19327501739E+03  0.00000000000E+00 0. -1.
         -3    1    6    6    0  503 -0.24316413916E+03  0.34631222420E+03 -0.88530134842E+03  0.98123362800E+03  0.00000000000E+00 0.  1.
<mgrwt>
<rscale>  0 0.10957181E+04</rscale>
<asrwt>0</asrwt>
<pdfrwt beam="1">  1        2 0.41150374E+00 0.10957181E+04</pdfrwt>
<pdfrwt beam="2">  1       -1 0.17263830E-01 0.10957181E+04</pdfrwt>
<totfact> 0.82231381E+01</totfact>
</mgrwt>
</event>
<event>
12    6  0.1450532E-007  0.1477086E+04  0.7818608E-02  0.8899835E-01
          2   -1    0    0  501    0  0.00000000000E+00  0.00000000000E+00  0.69030043334E+03  0.69030043334E+03  0.00000000000E+00 0. -1.
         -1   -1    0    0    0  501 -0.00000000000E+00 -0.00000000000E+00 -0.79015667900E+03  0.79015667900E+03  0.00000000000E+00 0.  1.
         24    2    1    2    0    0  0.26759461362E+03  0.28093975861E+02 -0.44872873517E+03  0.52922940554E+03  0.79562159346E+02 0.  0.
        254    2    1    2    0    0 -0.26759461362E+03 -0.28093975861E+02  0.34887248951E+03  0.95122770680E+03  0.84304566159E+03 0.  0.
         23    2    4    4    0    0 -0.93594211023E+02 -0.10402527117E+03  0.60033689217E+03  0.62310182876E+03  0.90941583095E+02 0.  0.
         23    2    4    4    0    0 -0.17400040260E+03  0.75931295304E+02 -0.25146440266E+03  0.32812587804E+03  0.91599914421E+02 0.  0.
          2    1    3    3  502    0  0.75179367253E+02  0.20028643054E+02 -0.71413806520E+02  0.10560783856E+03  0.00000000000E+00 0. -1.
         -1    1    3    3    0  502  0.19241524637E+03  0.80653328072E+01 -0.37731492865E+03  0.42362156698E+03  0.00000000000E+00 0.  1.
         11    1    5    5    0    0 -0.30685945615E+02 -0.78295276485E+02  0.45437568640E+03  0.46209202760E+03  0.00000000000E+00 0. -1.
        -11    1    5    5    0    0 -0.62908265408E+02 -0.25729994680E+02  0.14596120576E+03  0.16100980116E+03  0.00000000000E+00 0.  1.
          4    1    6    6  503    0 -0.16609969561E+03  0.91975363080E+02 -0.21078002967E+03  0.28368432668E+03  0.00000000000E+00 0. -1.
         -4    1    6    6    0  503 -0.79007069906E+01 -0.16044067776E+02 -0.40684372990E+02  0.44441551360E+02  0.00000000000E+00 0.  1.
<mgrwt>
<rscale>  0 0.14770856E+04</rscale>
<asrwt>0</asrwt>
<pdfrwt beam="1">  1        2 0.10620007E+00 0.14770856E+04</pdfrwt>
<pdfrwt beam="2">  1       -1 0.12156257E+00 0.14770856E+04</pdfrwt>
<totfact> 0.27655606E+01</totfact>
</mgrwt>
</event>
<event>
12    6  0.1450532E-007  0.2390040E+04  0.7818608E-02  0.8443242E-01
         -1   -1    0    0    0  501 -0.00000000000E+00  0.00000000000E+00  0.71490434382E+03  0.71490434382E+03  0.00000000000E+00 0.  1.
          2   -1    0    0  501    0  0.00000000000E+00 -0.00000000000E+00 -0.19975714040E+04  0.19975714040E+04  0.00000000000E+00 0. -1.
         24    2    1    2    0    0  0.22885492062E+03 -0.47588788262E+03  0.43925470546E+03  0.69095873029E+03  0.75069429052E+02 0.  0.
        254    2    1    2    0    0 -0.22885492062E+03  0.47588788262E+03 -0.17219217656E+04  0.20215170175E+04  0.91797202227E+03 0.  0.
         23    2    4    4    0    0  0.29063883591E+03  0.37900635224E+03 -0.55948604496E+03  0.74124395874E+03  0.91111052524E+02 0.  0.
         23    2    4    4    0    0 -0.51949375653E+03  0.96881530381E+02 -0.11624357207E+04  0.12802730588E+04  0.92641817488E+02 0.  0.
          4    1    3    3  502    0  0.68638828429E+02 -0.18944214302E+03  0.20707985963E+03  0.28893196878E+03  0.00000000000E+00 0. -1.
         -3    1    3    3    0  502  0.16021609219E+03 -0.28644573960E+03  0.23217484583E+03  0.40202676151E+03  0.00000000000E+00 0.  1.
         11    1    5    5    0    0  0.20040449745E+03  0.21487548663E+03 -0.39264151455E+03  0.49040880528E+03  0.00000000000E+00 0.  1.
        -11    1    5    5    0    0  0.90234338462E+02  0.16413086561E+03 -0.16684453041E+03  0.25083515346E+03  0.00000000000E+00 0. -1.
          4    1    6    6  503    0 -0.93702857228E+02  0.42877980304E+02 -0.29461430765E+03  0.31211590302E+03  0.00000000000E+00 0. -1.
         -4    1    6    6    0  503 -0.42579089930E+03  0.54003550077E+02 -0.86782141303E+03  0.96815715577E+03  0.00000000000E+00 0.  1.
<mgrwt>
<rscale>  0 0.23900397E+04</rscale>
<asrwt>0</asrwt>
<pdfrwt beam="1">  1        2 0.30731868E+00 0.23900397E+04</pdfrwt>
<pdfrwt beam="2">  1       -1 0.10998528E+00 0.23900397E+04</pdfrwt>
<totfact> 0.52397907E+00</totfact>
</mgrwt>
</event>
<event>
12    6  0.1450532E-007  0.2875089E+04  0.7818608E-02  0.8280328E-01
          2   -1    0    0  501    0  0.00000000000E+00  0.00000000000E+00  0.19311746723E+04  0.19311746723E+04  0.00000000000E+00 0. -1.
         -1   -1    0    0    0  501 -0.00000000000E+00 -0.00000000000E+00 -0.10700915573E+04  0.10700915573E+04  0.00000000000E+00 0.  1.
         24    2    1    2    0    0  0.60903414698E+03 -0.82431942500E+03  0.12140321129E+04  0.15907775694E+04  0.79209831645E+02 0.  0.
        254    2    1    2    0    0 -0.60903414698E+03  0.82431942500E+03 -0.35294899780E+03  0.14104886603E+04  0.90248554506E+03 0.  0.
         23    2    4    4    0    0 -0.73529508938E+03  0.30778131286E+03 -0.80957169922E+02  0.80629596431E+03  0.90393106413E+02 0.  0.
         23    2    4    4    0    0  0.12626094241E+03  0.51653811215E+03 -0.27199182788E+03  0.60419269594E+03  0.91191076991E+02 0.  0.
          4    1    3    3  502    0  0.33458283005E+03 -0.47378914364E+03  0.74404823941E+03  0.94341380388E+03  0.00000000000E+00 0. -1.
         -3    1    3    3    0  502  0.27445131693E+03 -0.35053028136E+03  0.46998387347E+03  0.64736376547E+03  0.00000000000E+00 0.  1.
         11    1    5    5    0    0 -0.86063439265E+02  0.60869669224E+02 -0.31122741501E+02  0.10991204324E+03  0.00000000000E+00 0.  1.
        -11    1    5    5    0    0 -0.64923165012E+03  0.24691164363E+03 -0.49834428421E+02  0.69638392108E+03  0.00000000000E+00 0. -1.
          1    1    6    6  503    0  0.61725322675E+02  0.34664243287E+03 -0.13702660893E+03  0.37781911450E+03  0.00000000000E+00 0. -1.
         -1    1    6    6    0  503  0.64535619732E+02  0.16989567927E+03 -0.13496521894E+03  0.22637358144E+03  0.00000000000E+00 0.  1.
<mgrwt>
<rscale>  0 0.28750887E+04</rscale>
<asrwt>0</asrwt>
<pdfrwt beam="1">  1        2 0.29710379E+00 0.28750887E+04</pdfrwt>
<pdfrwt beam="2">  1       -1 0.16462947E+00 0.28750887E+04</pdfrwt>
<totfact> 0.19363449E+00</totfact>
</mgrwt>
</event>
<event>
12    6  0.1450532E-007  0.1500615E+04  0.7818608E-02  0.8884044E-01
          2   -1    0    0  501    0  0.00000000000E+00  0.00000000000E+00  0.36692826336E+03  0.36692826336E+03  0.00000000000E+00 0. -1.
         -1   -1    0    0    0  501 -0.00000000000E+00 -0.00000000000E+00 -0.15342546589E+04  0.15342546589E+04  0.00000000000E+00 0.  1.
         24    2    1    2    0    0 -0.16250975111E+03  0.43591679434E+03 -0.22530791981E+03  0.52295355934E+03  0.79271026897E+02 0.  0.
        254    2    1    2    0    0  0.16250975111E+03 -0.43591679434E+03 -0.94201847574E+03  0.13782293629E+04  0.89201148951E+03 0.  0.
         23    2    4    4    0    0  0.39622626040E+03 -0.56311357196E+03 -0.50741273680E+03  0.86010155500E+03  0.90635837843E+02 0.  0.
         23    2    4    4    0    0 -0.23371650930E+03  0.12719677761E+03 -0.43460573895E+03  0.51812780793E+03  0.93658155416E+02 0.  0.
          2    1    3    3  502    0 -0.14821945043E+03  0.41536358771E+03 -0.23014718695E+03  0.49745717719E+03  0.00000000000E+00 0. -1.
         -1    1    3    3    0  502 -0.14290300679E+02  0.20553206633E+02  0.48392671357E+01  0.25496382151E+02  0.00000000000E+00 0.  1.
         11    1    5    5    0    0  0.20188289558E+03 -0.33288429824E+03 -0.24067711879E+03  0.45770529279E+03  0.00000000000E+00 0. -1.
        -11    1    5    5    0    0  0.19434336483E+03 -0.23022927371E+03 -0.26673561801E+03  0.40239626221E+03  0.00000000000E+00 0.  1.
          1    1    6    6  503    0 -0.20163542290E+03  0.10867591385E+03 -0.41981953190E+03  0.47824234169E+03  0.00000000000E+00 0. -1.
         -1    1    6    6    0  503 -0.32081086394E+02  0.18520863760E+02 -0.14786207047E+02  0.39885466244E+02  0.00000000000E+00 0.  1.
<mgrwt>
<rscale>  0 0.15006151E+04</rscale>
<asrwt>0</asrwt>
<pdfrwt beam="1">  1        2 0.56450502E-01 0.15006151E+04</pdfrwt>
<pdfrwt beam="2">  1       -1 0.23603918E+00 0.15006151E+04</pdfrwt>
<totfact> 0.83442740E+00</totfact>
</mgrwt>
</event>
<event>
12    6  0.1450532E-007  0.1422588E+04  0.7818608E-02  0.8937629E-01
          2   -1    0    0  501    0  0.00000000000E+00  0.00000000000E+00  0.14911445370E+04  0.14911445370E+04  0.00000000000E+00 0. -1.
         -1   -1    0    0    0  501 -0.00000000000E+00 -0.00000000000E+00 -0.33929570168E+03  0.33929570168E+03  0.00000000000E+00 0.  1.
         24    2    1    2    0    0  0.32893665199E+01 -0.24470753701E+03 -0.91984109169E+02  0.27150228834E+03  0.73210775387E+02 0.  0.
        254    2    1    2    0    0 -0.32893665199E+01  0.24470753701E+03  0.12438329445E+04  0.15589379503E+04  0.90734477494E+03 0.  0.
         23    2    4    4    0    0  0.87563577311E+02 -0.61848139235E+02 -0.10073848637E+03  0.17393024831E+03  0.92795022726E+02 0.  0.
         23    2    4    4    0    0 -0.90852943831E+02  0.30655567624E+03  0.13445714308E+04  0.13850077020E+04  0.90240578371E+02 0.  0.
          2    1    3    3  502    0 -0.74012888139E+01  0.68974833810E+00 -0.10186877437E+02  0.12610602714E+02  0.00000000000E+00 0. -1.
         -1    1    3    3    0  502  0.10690655334E+02 -0.24539728535E+03 -0.81797231732E+02  0.25889168563E+03  0.00000000000E+00 0.  1.
         11    1    5    5    0    0 -0.36515656896E+00  0.13475784155E+02 -0.41983193194E+02  0.44094428318E+02  0.00000000000E+00 0. -1.
        -11    1    5    5    0    0  0.87928733880E+02 -0.75323923391E+02 -0.58755293172E+02  0.12983581999E+03  0.00000000000E+00 0.  1.
          3    1    6    6  503    0 -0.18135222921E+02  0.80526602888E+02  0.53518071010E+03  0.54150882961E+03  0.00000000000E+00 0. -1.
         -3    1    6    6    0  503 -0.72717720909E+02  0.22602907336E+03  0.80939072073E+03  0.84349887240E+03  0.00000000000E+00 0.  1.
<mgrwt>
<rscale>  0 0.14225877E+04</rscale>
<asrwt>0</asrwt>
<pdfrwt beam="1">  1        2 0.22940685E+00 0.14225877E+04</pdfrwt>
<pdfrwt beam="2">  1       -1 0.52199339E-01 0.14225877E+04</pdfrwt>
<totfact> 0.52550557E+01</totfact>
</mgrwt>
</event>
<event>
12    6  0.1450532E-007  0.1505374E+04  0.7818608E-02  0.8880887E-01
         -1   -1    0    0    0  501 -0.00000000000E+00  0.00000000000E+00  0.27157578449E+03  0.27157578449E+03  0.00000000000E+00 0.  1.
          2   -1    0    0  501    0  0.00000000000E+00 -0.00000000000E+00 -0.20861135097E+04  0.20861135097E+04  0.00000000000E+00 0. -1.
         24    2    1    2    0    0 -0.86280432974E+02  0.39920914696E+03 -0.20898485220E+03  0.46637959489E+03  0.83803352873E+02 0.  0.
        254    2    1    2    0    0  0.86280432974E+02 -0.39920914696E+03 -0.16055528730E+04  0.18913096993E+04  0.91238155095E+03 0.  0.
         23    2    4    4    0    0  0.44298993922E+03 -0.11261420725E+03 -0.46368769185E+03  0.65756375556E+03  0.91987885728E+02 0.  0.
         23    2    4    4    0    0 -0.35670950625E+03 -0.28659493970E+03 -0.11418651812E+04  0.12337459438E+04  0.94311348473E+02 0.  0.
          4    1    3    3  502    0 -0.11211775074E+02  0.12346661120E+01 -0.10304313804E+02  0.15277669446E+02  0.00000000000E+00 0. -1.
         -1    1    3    3    0  502 -0.75068657900E+02  0.39797448085E+03 -0.19868053839E+03  0.45110192545E+03  0.00000000000E+00 0.  1.
         11    1    5    5    0    0  0.14006020164E+03  0.26518458351E+01 -0.11249941663E+03  0.17966638838E+03  0.00000000000E+00 0.  1.
        -11    1    5    5    0    0  0.30292973758E+03 -0.11526605309E+03 -0.35118827522E+03  0.47789736718E+03  0.00000000000E+00 0. -1.
          1    1    6    6  503    0 -0.33710458380E+03 -0.23248975527E+03 -0.10111220974E+04  0.10908981999E+04  0.00000000000E+00 0. -1.
         -1    1    6    6    0  503 -0.19604922450E+02 -0.54105184431E+02 -0.13074308374E+03  0.14284774381E+03  0.00000000000E+00 0.  1.
<mgrwt>
<rscale>  0 0.15053743E+04</rscale>
<asrwt>0</asrwt>
<pdfrwt beam="1">  1        2 0.32094055E+00 0.15053743E+04</pdfrwt>
<pdfrwt beam="2">  1       -1 0.41780889E-01 0.15053743E+04</pdfrwt>
<totfact> 0.37017343E+01</totfact>
</mgrwt>
</event>
<event>
12    6  0.1450532E-007  0.1235108E+04  0.7818608E-02  0.9082670E-01
          2   -1    0    0  501    0  0.00000000000E+00  0.00000000000E+00  0.60857681016E+03  0.60857681016E+03  0.00000000000E+00 0. -1.
         -1   -1    0    0    0  501 -0.00000000000E+00 -0.00000000000E+00 -0.62666372625E+03  0.62666372625E+03  0.00000000000E+00 0.  1.
         24    2    1    2    0    0 -0.86292668727E+02  0.21943133674E+03  0.15301062216E+03  0.29306231787E+03  0.82926084219E+02 0.  0.
        254    2    1    2    0    0  0.86292668727E+02 -0.21943133674E+03 -0.17109753825E+03  0.94217821855E+03  0.89600719399E+03 0.  0.
         23    2    4    4    0    0  0.84581829121E+02 -0.46792985885E+03 -0.37067630063E+03  0.61082708244E+03  0.97961044201E+02 0.  0.
         23    2    4    4    0    0  0.17108396063E+01  0.24849852211E+03  0.19957876238E+03  0.33135113610E+03  0.90594980753E+02 0.  0.
          4    1    3    3  502    0 -0.64225110018E+02  0.20299343225E+03  0.15795382477E+03  0.26510490198E+03  0.00000000000E+00 0. -1.
         -3    1    3    3    0  502 -0.22067558709E+02  0.16437904488E+02 -0.49432026115E+01  0.27957415893E+02  0.00000000000E+00 0.  1.
         11    1    5    5    0    0  0.26092851022E+02 -0.33417962589E+03 -0.29437464248E+03  0.44610905547E+03  0.00000000000E+00 0. -1.
        -11    1    5    5    0    0  0.58488978099E+02 -0.13375023296E+03 -0.76301658151E+02  0.16471802698E+03  0.00000000000E+00 0.  1.
          2    1    6    6  503    0 -0.11470789419E+02  0.22456016089E+03  0.13759841610E+03  0.26361367374E+03  0.00000000000E+00 0.  1.
         -2    1    6    6    0  503  0.13181629025E+02  0.23938361220E+02  0.61980346286E+02  0.67737462363E+02  0.00000000000E+00 0. -1.
<mgrwt>
<rscale>  0 0.12351081E+04</rscale>
<asrwt>0</asrwt>
<pdfrwt beam="1">  1        2 0.93627201E-01 0.12351081E+04</pdfrwt>
<pdfrwt beam="2">  1       -1 0.96409804E-01 0.12351081E+04</pdfrwt>
<totfact> 0.56837622E+01</totfact>
</mgrwt>
</event>
<event>
12    6  0.1450532E-007  0.1185112E+04  0.7818608E-02  0.9125988E-01
          2   -1    0    0  501    0  0.00000000000E+00  0.00000000000E+00  0.35991052905E+04  0.35991052905E+04  0.00000000000E+00 0. -1.
         -1   -1    0    0    0  501 -0.00000000000E+00 -0.00000000000E+00 -0.97558371529E+02  0.97558371529E+02  0.00000000000E+00 0.  1.
         24    2    1    2    0    0  0.17705280070E+02  0.15961604889E+03  0.21441752023E+03  0.28009149536E+03  0.81765596584E+02 0.  0.
        254    2    1    2    0    0 -0.17705280070E+02 -0.15961604889E+03  0.32871293987E+04  0.34165721667E+04  0.91758101878E+03 0.  0.
         23    2    4    4    0    0  0.80304451344E+02 -0.86822133334E+02  0.32581163133E+04  0.32612424016E+04  0.79957505348E+02 0.  0.
         23    2    4    4    0    0 -0.98009731414E+02 -0.72793915553E+02  0.29013085403E+02  0.15532976513E+03  0.91546246328E+02 0.  0.
          2    1    3    3  502    0  0.27269495798E+02  0.50753263709E+02  0.12935552314E+03  0.14160639303E+03  0.00000000000E+00 0. -1.
         -1    1    3    3    0  502 -0.95642157285E+01  0.10886278518E+03  0.85061997089E+02  0.13848510233E+03  0.00000000000E+00 0.  1.
         11    1    5    5    0    0 -0.14127430810E+02  0.49971327808E+00  0.31457865500E+03  0.31489611651E+03  0.00000000000E+00 0. -1.
        -11    1    5    5    0    0  0.94431882154E+02 -0.87321846612E+02  0.29435376583E+04  0.29463462850E+04  0.00000000000E+00 0.  1.
          2    1    6    6  503    0 -0.13857167842E+01  0.93098186643E+01  0.26918325025E+02  0.28516471674E+02  0.00000000000E+00 0. -1.
         -2    1    6    6    0  503 -0.96624014629E+02 -0.82103734217E+02  0.20947603773E+01  0.12681329345E+03  0.00000000000E+00 0.  1.
<mgrwt>
<rscale>  0 0.11851124E+04</rscale>
<asrwt>0</asrwt>
<pdfrwt beam="1">  1        2 0.55370840E+00 0.11851124E+04</pdfrwt>
<pdfrwt beam="2">  1       -1 0.15008983E-01 0.11851124E+04</pdfrwt>
<totfact> 0.26325787E+01</totfact>
</mgrwt>
</event>
<event>
12    6  0.1450532E-007  0.1456448E+04  0.7818608E-02  0.8913942E-01
         -1   -1    0    0    0  501 -0.00000000000E+00  0.00000000000E+00  0.32274878025E+03  0.32274878025E+03  0.00000000000E+00 0.  1.
          2   -1    0    0  501    0  0.00000000000E+00 -0.00000000000E+00 -0.16431052804E+04  0.16431052804E+04  0.00000000000E+00 0. -1.
         24    2    1    2    0    0 -0.44534190717E+03  0.72459851380E+02 -0.48482046625E+03  0.66702149517E+03  0.79290265358E+02 0.  0.
        254    2    1    2    0    0  0.44534190717E+03 -0.72459851380E+02 -0.83553603386E+03  0.12988325654E+04  0.88615220183E+03 0.  0.
         23    2    4    4    0    0  0.46629368153E+03  0.19104772862E+03 -0.11315092192E+03  0.52428837472E+03  0.90255951023E+02 0.  0.
         23    2    4    4    0    0 -0.20951774363E+02 -0.26350758000E+03 -0.72238511194E+03  0.77454419071E+03  0.90571694479E+02 0.  0.
          2    1    3    3  502    0 -0.37682095168E+03  0.89048934130E+02 -0.42005705358E+03  0.57128948052E+03  0.00000000000E+00 0. -1.
         -1    1    3    3    0  502 -0.68520955486E+02 -0.16589082750E+02 -0.64763412675E+02  0.95732014647E+02  0.00000000000E+00 0.  1.
         11    1    5    5    0    0  0.26552190353E+03  0.74546446970E+02 -0.94031181423E+02  0.29137761940E+03  0.00000000000E+00 0.  1.
        -11    1    5    5    0    0  0.20077177800E+03  0.11650128165E+03 -0.19119740495E+02  0.23291075532E+03  0.00000000000E+00 0. -1.
          3    1    6    6  503    0  0.13498714360E+02 -0.22895208890E+03 -0.62178081952E+03  0.66273121386E+03  0.00000000000E+00 0. -1.
         -3    1    6    6    0  503 -0.34450488723E+02 -0.34555491102E+02 -0.10060429242E+03  0.11181297685E+03  0.00000000000E+00 0.  1.
<mgrwt>
<rscale>  0 0.14564480E+04</rscale>
<asrwt>0</asrwt>
<pdfrwt beam="1">  1        2 0.25278542E+00 0.14564480E+04</pdfrwt>
<pdfrwt beam="2">  1       -1 0.49653659E-01 0.14564480E+04</pdfrwt>
<totfact> 0.47385279E+01</totfact>
</mgrwt>
</event>
<event>
12    6  0.1450532E-007  0.1249214E+04  0.7818608E-02  0.9070838E-01
         -1   -1    0    0    0  501 -0.00000000000E+00  0.00000000000E+00  0.72281482059E+03  0.72281482059E+03  0.00000000000E+00 0.  1.
          2   -1    0    0  501    0  0.00000000000E+00 -0.00000000000E+00 -0.53974220203E+03  0.53974220203E+03  0.00000000000E+00 0. -1.
         24    2    1    2    0    0 -0.37667709897E+01  0.10744656254E+03  0.24620427518E+03  0.28032208372E+03  0.80031076058E+02 0.  0.
        254    2    1    2    0    0  0.37667709897E+01 -0.10744656254E+03 -0.63131656629E+02  0.98223493890E+03  0.97428995518E+03 0.  0.
         23    2    4    4    0    0  0.43987957066E+03 -0.22373546621E+03 -0.12693677129E+03  0.51739386922E+03  0.89620736812E+02 0.  0.
         23    2    4    4    0    0 -0.43611279967E+03  0.11628890367E+03  0.63805114661E+02  0.46484106969E+03  0.91041991710E+02 0.  0.
          2    1    3    3  502    0  0.14901871321E+02  0.72440710337E+02  0.77942428207E+02  0.10744647224E+03  0.00000000000E+00 0. -1.
         -1    1    3    3    0  502 -0.18668642310E+02  0.35005852208E+02  0.16826184697E+03  0.17287561147E+03  0.00000000000E+00 0.  1.
         11    1    5    5    0    0  0.63155384550E+01 -0.35439390267E+01  0.98703769829E+01  0.12242135091E+02  0.00000000000E+00 0.  1.
        -11    1    5    5    0    0  0.43356403221E+03 -0.22019152719E+03 -0.13680714827E+03  0.50515173412E+03  0.00000000000E+00 0. -1.
          1    1    6    6  503    0 -0.31682252585E+03  0.63431583478E+02  0.81341916031E+02  0.33319151546E+03  0.00000000000E+00 0. -1.
         -1    1    6    6    0  503 -0.11929027382E+03  0.52857320192E+02 -0.17536801369E+02  0.13164955423E+03  0.00000000000E+00 0.  1.
<mgrwt>
<rscale>  0 0.12492136E+04</rscale>
<asrwt>0</asrwt>
<pdfrwt beam="1">  1        2 0.83037261E-01 0.12492136E+04</pdfrwt>
<pdfrwt beam="2">  1       -1 0.11120228E+00 0.12492136E+04</pdfrwt>
<totfact> 0.47101868E+01</totfact>
</mgrwt>
</event>
<event>
12    6  0.1450532E-007  0.2498322E+04  0.7818608E-02  0.8403584E-01
          2   -1    0    0  501    0  0.00000000000E+00  0.00000000000E+00  0.16941441490E+04  0.16941441490E+04  0.00000000000E+00 0. -1.
         -1   -1    0    0    0  501 -0.00000000000E+00 -0.00000000000E+00 -0.92105700420E+03  0.92105700420E+03  0.00000000000E+00 0.  1.
         24    2    1    2    0    0 -0.34399621158E+03 -0.84455842005E+03 -0.28192992849E+03  0.95788260255E+03  0.80263797814E+02 0.  0.
        254    2    1    2    0    0  0.34399621158E+03  0.84455842005E+03  0.10550170733E+04  0.16573185507E+04  0.89556207767E+03 0.  0.
         23    2    4    4    0    0  0.31585019685E+03 -0.82925422650E+02  0.20663891203E+03  0.39671372540E+03  0.89689282413E+02 0.  0.
         23    2    4    4    0    0  0.28146014722E+02  0.92748384270E+03  0.84837816129E+03  0.12606048253E+04  0.91436012302E+02 0.  0.
          2    1    3    3  502    0 -0.39984007279E+01 -0.16892893215E+02 -0.17961794582E+02  0.24979654004E+02  0.00000000000E+00 0. -1.
         -1    1    3    3    0  502 -0.33999781085E+03 -0.82766552683E+03 -0.26396813390E+03  0.93290294855E+03  0.00000000000E+00 0.  1.
         11    1    5    5    0    0  0.15864948148E+02  0.38671321633E+01  0.38987194204E+02  0.42268813596E+02  0.00000000000E+00 0.  1.
        -11    1    5    5    0    0  0.29998524871E+03 -0.86792554814E+02  0.16765171783E+03  0.35444491180E+03  0.00000000000E+00 0. -1.
          1    1    6    6  503    0  0.27243541687E+02  0.84052550259E+03  0.72928597131E+03  0.11131412125E+04  0.00000000000E+00 0. -1.
         -1    1    6    6    0  503  0.90247303520E+00  0.86958340110E+02  0.11909218998E+03  0.14746361276E+03  0.00000000000E+00 0.  1.
<mgrwt>
<rscale>  0 0.24983221E+04</rscale>
<asrwt>0</asrwt>
<pdfrwt beam="1">  1        2 0.26063756E+00 0.24983221E+04</pdfrwt>
<pdfrwt beam="2">  1       -1 0.14170108E+00 0.24983221E+04</pdfrwt>
<totfact> 0.40749026E+00</totfact>
</mgrwt>
</event>
<event>
12    6  0.1450532E-007  0.1225001E+04  0.7818608E-02  0.9091251E-01
          2   -1    0    0  501    0  0.00000000000E+00  0.00000000000E+00  0.91170570267E+03  0.91170570267E+03  0.00000000000E+00 0. -1.
         -1   -1    0    0    0  501 -0.00000000000E+00 -0.00000000000E+00 -0.41148884020E+03  0.41148884020E+03  0.00000000000E+00 0.  1.
         24    2    1    2    0    0  0.84934934290E+02 -0.20571246348E+03  0.27129072519E+03  0.35988375466E+03  0.79913069030E+02 0.  0.
        254    2    1    2    0    0 -0.84934934290E+02  0.20571246348E+03  0.22892613729E+03  0.96331078821E+03  0.90886134127E+03 0.  0.
         23    2    4    4    0    0 -0.43008108457E+03  0.22766588545E+03  0.32728268728E+03  0.59282253312E+03  0.86735826950E+02 0.  0.
         23    2    4    4    0    0  0.34514615028E+03 -0.21953421969E+02 -0.98356549996E+02  0.37048825509E+03  0.89329269778E+02 0.  0.
          4    1    3    3  502    0  0.82003076454E+02 -0.18892120581E+03  0.27384644259E+03  0.34264792524E+03  0.00000000000E+00 0. -1.
         -3    1    3    3    0  502  0.29318578357E+01 -0.16791257666E+02 -0.25557173986E+01  0.17235829420E+02  0.00000000000E+00 0.  1.
         11    1    5    5    0    0 -0.28673678891E+03  0.19449765815E+03  0.21530391329E+03  0.40792536108E+03  0.00000000000E+00 0.  1.
        -11    1    5    5    0    0 -0.14334429567E+03  0.33168227301E+02  0.11197877400E+03  0.18489717204E+03  0.00000000000E+00 0. -1.
          3    1    6    6  503    0  0.71618534191E+02  0.23852172392E+02 -0.45564917365E+02  0.88172003845E+02  0.00000000000E+00 0. -1.
         -3    1    6    6    0  503  0.27352761609E+03 -0.45805594361E+02 -0.52791632631E+02  0.28231625124E+03  0.00000000000E+00 0.  1.
<mgrwt>
<rscale>  0 0.12250008E+04</rscale>
<asrwt>0</asrwt>
<pdfrwt beam="1">  1        2 0.14026242E+00 0.12250008E+04</pdfrwt>
<pdfrwt beam="2">  1       -1 0.63305976E-01 0.12250008E+04</pdfrwt>
<totfact> 0.81922132E+01</totfact>
</mgrwt>
</event>
<event>
12    6  0.1450532E-007  0.2443758E+04  0.7818608E-02  0.8423301E-01
         -1   -1    0    0    0  501 -0.00000000000E+00  0.00000000000E+00  0.37259104951E+03  0.37259104951E+03  0.00000000000E+00 0.  1.
          2   -1    0    0  501    0  0.00000000000E+00 -0.00000000000E+00 -0.40070432128E+04  0.40070432128E+04  0.00000000000E+00 0. -1.
         24    2    1    2    0    0 -0.61549813986E+03  0.59167634482E+03 -0.26912053518E+04  0.28246312260E+04  0.83883612881E+02 0.  0.
        254    2    1    2    0    0  0.61549813986E+03 -0.59167634482E+03 -0.94324681153E+03  0.15550030363E+04  0.89409229848E+03 0.  0.
         23    2    4    4    0    0  0.35405872946E+03 -0.80115544008E+03 -0.75444049353E+03  0.11594459392E+04  0.89032604575E+02 0.  0.
         23    2    4    4    0    0  0.26143941040E+03  0.20947909527E+03 -0.18880631799E+03  0.39555709703E+03  0.92658160125E+02 0.  0.
          2    1    3    3  502    0 -0.34625791859E+03  0.38056202206E+03 -0.15416067954E+04  0.16251995294E+04  0.00000000000E+00 0. -1.
         -1    1    3    3    0  502 -0.26924022127E+03  0.21111432275E+03 -0.11495985564E+04  0.11994316966E+04  0.00000000000E+00 0.  1.
         11    1    5    5    0    0  0.22458977850E+03 -0.60525302628E+03 -0.55662457723E+03  0.85240994505E+03  0.00000000000E+00 0. -1.
        -11    1    5    5    0    0  0.12946895096E+03 -0.19590241380E+03 -0.19781591630E+03  0.30703599420E+03  0.00000000000E+00 0.  1.
          1    1    6    6  503    0  0.21413291849E+03  0.20575103944E+03 -0.18011329444E+03  0.34731426093E+03  0.00000000000E+00 0.  1.
         -1    1    6    6    0  503  0.47306491904E+02  0.37280558211E+01 -0.86930235569E+01  0.48242836101E+02  0.00000000000E+00 0. -1.
<mgrwt>
<rscale>  0 0.24437581E+04</rscale>
<asrwt>0</asrwt>
<pdfrwt beam="1">  1        2 0.61646816E+00 0.24437581E+04</pdfrwt>
<pdfrwt beam="2">  1       -1 0.57321702E-01 0.24437581E+04</pdfrwt>
<totfact> 0.10649205E+00</totfact>
</mgrwt>
</event>
<event>
12    6  0.1450532E-007  0.2242495E+04  0.7818608E-02  0.8500946E-01
          2   -1    0    0  501    0  0.00000000000E+00  0.00000000000E+00  0.19911212012E+04  0.19911212012E+04  0.00000000000E+00 0. -1.
         -1   -1    0    0    0  501 -0.00000000000E+00 -0.00000000000E+00 -0.63140093157E+03  0.63140093157E+03  0.00000000000E+00 0.  1.
         24    2    1    2    0    0 -0.33183376878E+03 -0.38740570567E+03 -0.34917366258E+03  0.62305228457E+03  0.77942746781E+02 0.  0.
        254    2    1    2    0    0  0.33183376878E+03  0.38740570567E+03  0.17088939323E+04  0.19994698482E+04  0.90408206013E+03 0.  0.
         23    2    4    4    0    0  0.31963450255E+03  0.55321076114E+03  0.62282504248E+03  0.89685201914E+03  0.90687095259E+02 0.  0.
         23    2    4    4    0    0  0.12199266231E+02 -0.16580505547E+03  0.10860688898E+04  0.11026178291E+04  0.92629936795E+02 0.  0.
          4    1    3    3  502    0  0.24976425710E+01 -0.11299405029E+02 -0.21352805247E+01  0.11767505910E+02  0.00000000000E+00 0. -1.
         -3    1    3    3    0  502 -0.33433141135E+03 -0.37610630064E+03 -0.34703838206E+03  0.61128477866E+03  0.00000000000E+00 0.  1.
         11    1    5    5    0    0  0.17392392487E+03  0.38622602118E+03  0.41691822042E+03  0.59434070498E+03  0.00000000000E+00 0.  1.
        -11    1    5    5    0    0  0.14571057768E+03  0.16698473996E+03  0.20590682206E+03  0.30251131416E+03  0.00000000000E+00 0. -1.
          1    1    6    6  503    0  0.18416932368E+02  0.32614509662E+01  0.17295472241E+03  0.17396308937E+03  0.00000000000E+00 0. -1.
         -1    1    6    6    0  503 -0.62176661371E+01 -0.16906650643E+03  0.91311416738E+03  0.92865473973E+03  0.00000000000E+00 0.  1.
<mgrwt>
<rscale>  0 0.22424948E+04</rscale>
<asrwt>0</asrwt>
<pdfrwt beam="1">  1        2 0.30632634E+00 0.22424948E+04</pdfrwt>
<pdfrwt beam="2">  1       -1 0.97138606E-01 0.22424948E+04</pdfrwt>
<totfact> 0.71335424E+00</totfact>
</mgrwt>
</event>
<event>
12    6  0.1450532E-007  0.2206537E+04  0.7818608E-02  0.8515712E-01
         -1   -1    0    0    0  501 -0.00000000000E+00  0.00000000000E+00  0.20913229645E+04  0.20913229645E+04  0.00000000000E+00 0.  1.
          2   -1    0    0  501    0  0.00000000000E+00 -0.00000000000E+00 -0.58202479160E+03  0.58202479160E+03  0.00000000000E+00 0. -1.
         24    2    1    2    0    0 -0.52886157306E+03 -0.30730755786E+03  0.14073383039E+04  0.15365348839E+04  0.78777212469E+02 0.  0.
        254    2    1    2    0    0  0.52886157306E+03  0.30730755786E+03  0.10195986903E+03  0.11368128722E+04  0.95279336323E+03 0.  0.
         23    2    4    4    0    0  0.13345466918E+02 -0.28969025003E+03 -0.94596613555E+02  0.31875930721E+03  0.92522614438E+02 0.  0.
         23    2    4    4    0    0  0.51551610614E+03  0.59699780790E+03  0.19655648259E+03  0.81805356503E+03  0.91727564510E+02 0.  0.
          4    1    3    3  502    0 -0.22229333829E+03 -0.97715491548E+02  0.48964772620E+03  0.54655058440E+03  0.00000000000E+00 0. -1.
         -3    1    3    3    0  502 -0.30656823476E+03 -0.20959206631E+03  0.91769057770E+03  0.98998429949E+03  0.00000000000E+00 0.  1.
         11    1    5    5    0    0  0.42176543476E+02 -0.21017566019E+03 -0.39936380796E+02  0.21805408381E+03  0.00000000000E+00 0.  1.
        -11    1    5    5    0    0 -0.28831076558E+02 -0.79514589841E+02 -0.54660232759E+02  0.10070522339E+03  0.00000000000E+00 0. -1.
          1    1    6    6  503    0  0.19793256404E+03  0.25278451597E+03  0.12378893914E+03  0.34409448248E+03  0.00000000000E+00 0. -1.
         -1    1    6    6    0  503  0.31758354210E+03  0.34421329193E+03  0.72767543449E+02  0.47395908255E+03  0.00000000000E+00 0.  1.
<mgrwt>
<rscale>  0 0.22065374E+04</rscale>
<asrwt>0</asrwt>
<pdfrwt beam="1">  1        2 0.89542277E-01 0.22065374E+04</pdfrwt>
<pdfrwt beam="2">  1       -1 0.32174199E+00 0.22065374E+04</pdfrwt>
<totfact> 0.12801656E+00</totfact>
</mgrwt>
</event>
<event>
12    6  0.1450532E-007  0.1277458E+04  0.7818608E-02  0.9047635E-01
         -1   -1    0    0    0  501 -0.00000000000E+00  0.00000000000E+00  0.72070233436E+03  0.72070233436E+03  0.00000000000E+00 0.  1.
          2   -1    0    0  501    0  0.00000000000E+00 -0.00000000000E+00 -0.56607906499E+03  0.56607906499E+03  0.00000000000E+00 0. -1.
         24    2    1    2    0    0 -0.88254263451E+02  0.20560448277E+03  0.28898550423E+03  0.37411201271E+03  0.79907183964E+02 0.  0.
        254    2    1    2    0    0  0.88254263451E+02 -0.20560448277E+03 -0.13436223486E+03  0.91266938664E+03  0.87455713410E+03 0.  0.
         23    2    4    4    0    0  0.39488922558E+03 -0.93372096427E+02 -0.32075510283E+03  0.52465498612E+03  0.87881565731E+02 0.  0.
         23    2    4    4    0    0 -0.30663496213E+03 -0.11223238634E+03  0.18639286797E+03  0.38801440053E+03  0.95873694228E+02 0.  0.
          2    1    3    3  502    0 -0.80756704625E+02  0.10115006280E+03  0.12780683575E+03  0.18189988404E+03  0.00000000000E+00 0. -1.
         -1    1    3    3    0  502 -0.74975588255E+01  0.10445441997E+03  0.16117866847E+03  0.19221212867E+03  0.00000000000E+00 0.  1.
         11    1    5    5    0    0  0.20663200547E+03 -0.69605123381E+02 -0.12193934022E+03  0.24982165955E+03  0.00000000000E+00 0. -1.
        -11    1    5    5    0    0  0.18825722010E+03 -0.23766973046E+02 -0.19881576261E+03  0.27483332656E+03  0.00000000000E+00 0.  1.
          1    1    6    6  503    0 -0.82249965652E+02 -0.29341855252E+02  0.43836793202E+01  0.87436937068E+02  0.00000000000E+00 0. -1.
         -1    1    6    6    0  503 -0.22438499647E+03 -0.82890531088E+02  0.18200918865E+03  0.30057746346E+03  0.00000000000E+00 0.  1.
<mgrwt>
<rscale>  0 0.12774576E+04</rscale>
<asrwt>0</asrwt>
<pdfrwt beam="1">  1        2 0.87089086E-01 0.12774576E+04</pdfrwt>
<pdfrwt beam="2">  1       -1 0.11087728E+00 0.12774576E+04</pdfrwt>
<totfact> 0.44725879E+01</totfact>
</mgrwt>
</event>
<event>
12    6  0.1450532E-007  0.1289919E+04  0.7818608E-02  0.9037598E-01
          2   -1    0    0  501    0  0.00000000000E+00  0.00000000000E+00  0.15467343046E+04  0.15467343046E+04  0.00000000000E+00 0. -1.
         -1   -1    0    0    0  501 -0.00000000000E+00 -0.00000000000E+00 -0.26893599046E+03  0.26893599046E+03  0.00000000000E+00 0.  1.
         24    2    1    2    0    0 -0.11592843087E+03 -0.30563426500E+03  0.31676876359E+03  0.46250821985E+03  0.81973769084E+02 0.  0.
        254    2    1    2    0    0  0.11592843087E+03  0.30563426500E+03  0.96102955051E+03  0.13531620752E+04  0.89477265251E+03 0.  0.
         23    2    4    4    0    0  0.68969386118E+02 -0.27263822323E+03  0.10227646131E+03  0.31277191027E+03  0.90980307383E+02 0.  0.
         23    2    4    4    0    0  0.46959044747E+02  0.57827248823E+03  0.85875308920E+03  0.10403901649E+04  0.91381641864E+02 0.  0.
          4    1    3    3  502    0 -0.42966216100E+02 -0.48390135058E+02  0.95906274713E+02  0.11569664829E+03  0.00000000000E+00 0. -1.
         -3    1    3    3    0  502 -0.72962214765E+02 -0.25724412995E+03  0.22086248888E+03  0.34681157156E+03  0.00000000000E+00 0.  1.
         11    1    5    5    0    0  0.33244476212E+02 -0.50003135889E+02 -0.10014512934E+02  0.60875276317E+02  0.00000000000E+00 0.  1.
        -11    1    5    5    0    0  0.35724909907E+02 -0.22263508734E+03  0.11229097424E+03  0.25189663395E+03  0.00000000000E+00 0. -1.
          1    1    6    6  503    0  0.53974273085E+02  0.52501653859E+03  0.81566919000E+03  0.97153065596E+03  0.00000000000E+00 0. -1.
         -1    1    6    6    0  503 -0.70152283379E+01  0.53255949641E+02  0.43083899198E+02  0.68859508936E+02  0.00000000000E+00 0.  1.
<mgrwt>
<rscale>  0 0.12899186E+04</rscale>
<asrwt>0</asrwt>
<pdfrwt beam="1">  1        2 0.23795912E+00 0.12899186E+04</pdfrwt>
<pdfrwt beam="2">  1       -1 0.41374769E-01 0.12899186E+04</pdfrwt>
<totfact> 0.76400867E+01</totfact>
</mgrwt>
</event>
<event>
12    6  0.1450532E-007  0.2473376E+04  0.7818608E-02  0.8412532E-01
         -1   -1    0    0    0  501 -0.00000000000E+00  0.00000000000E+00  0.59273102391E+03  0.59273102391E+03  0.00000000000E+00 0.  1.
          2   -1    0    0  501    0  0.00000000000E+00 -0.00000000000E+00 -0.25802550438E+04  0.25802550438E+04  0.00000000000E+00 0. -1.
         24    2    1    2    0    0 -0.37266748608E+03  0.29997594993E+03  0.36890575693E+03  0.60885331148E+03  0.75790973657E+02 0.  0.
        254    2    1    2    0    0  0.37266748608E+03 -0.29997594993E+03 -0.23564297768E+04  0.25641327562E+04  0.89058905942E+03 0.  0.
         23    2    4    4    0    0 -0.17245540233E+03 -0.38894315854E+03 -0.80402459733E+03  0.91384831925E+03  0.87438842252E+02 0.  0.
         23    2    4    4    0    0  0.54512288841E+03  0.88967208610E+02 -0.15524051795E+04  0.16502844370E+04  0.91666536551E+02 0.  0.
          4    1    3    3  502    0  0.15438181331E+01  0.86218996899E+00  0.10266420776E+02  0.10417588086E+02  0.00000000000E+00 0. -1.
         -3    1    3    3    0  502 -0.37421130422E+03  0.29911375996E+03  0.35863933615E+03  0.59843572339E+03  0.00000000000E+00 0.  1.
         11    1    5    5    0    0 -0.98960211211E+02 -0.12099576267E+03 -0.30284903087E+03  0.34080879314E+03  0.00000000000E+00 0. -1.
        -11    1    5    5    0    0 -0.73495191117E+02 -0.26794739587E+03 -0.50117556646E+03  0.57303952611E+03  0.00000000000E+00 0.  1.
          4    1    6    6  503    0  0.52359390097E+02 -0.13468899064E+01 -0.23681592996E+03  0.24253887220E+03  0.00000000000E+00 0. -1.
         -4    1    6    6    0  503  0.49276349831E+03  0.90314098516E+02 -0.13155892495E+04  0.14077455648E+04  0.00000000000E+00 0.  1.
<mgrwt>
<rscale>  0 0.24733760E+04</rscale>
<asrwt>0</asrwt>
<pdfrwt beam="1">  1        2 0.39696231E+00 0.24733760E+04</pdfrwt>
<pdfrwt beam="2">  1       -1 0.91189389E-01 0.24733760E+04</pdfrwt>
<totfact> 0.37277343E+00</totfact>
</mgrwt>
</event>
<event>
12    6  0.1450532E-007  0.1625625E+04  0.7818608E-02  0.8804958E-01
          2   -1    0    0  501    0  0.00000000000E+00  0.00000000000E+00  0.18990998312E+04  0.18990998312E+04  0.00000000000E+00 0. -1.
         -1   -1    0    0    0  501 -0.00000000000E+00 -0.00000000000E+00 -0.34788284387E+03  0.34788284387E+03  0.00000000000E+00 0.  1.
         24    2    1    2    0    0 -0.98812052222E+01 -0.21537904793E+03 -0.17467638596E+03  0.28861863325E+03  0.79392084896E+02 0.  0.
        254    2    1    2    0    0  0.98812052222E+01  0.21537904793E+03  0.17258933733E+04  0.19583640418E+04  0.89999778434E+03 0.  0.
         23    2    4    4    0    0 -0.20635670461E+03 -0.27556207834E+03  0.91046197133E+03  0.97771054500E+03  0.91974779233E+02 0.  0.
         23    2    4    4    0    0  0.21623790983E+03  0.49094112627E+03  0.81543140194E+03  0.98065349680E+03  0.94714763347E+02 0.  0.
          2    1    3    3  502    0  0.31637050552E+02 -0.13820378778E+03 -0.10020377830E+03  0.17361447840E+03  0.00000000000E+00 0. -1.
         -1    1    3    3    0  502 -0.41518255774E+02 -0.77175260155E+02 -0.74472607654E+02  0.11500415485E+03  0.00000000000E+00 0.  1.
         11    1    5    5    0    0 -0.71731048031E+02 -0.33234835722E+02  0.21017182009E+03  0.22454863953E+03  0.00000000000E+00 0.  1.
        -11    1    5    5    0    0 -0.13462565658E+03 -0.24232724262E+03  0.70029015125E+03  0.75316190547E+03  0.00000000000E+00 0. -1.
          3    1    6    6  503    0  0.19475752858E+03  0.42348211676E+03  0.75634577367E+03  0.88844050307E+03  0.00000000000E+00 0. -1.
         -3    1    6    6    0  503  0.21480381250E+02  0.67459009518E+02  0.59085628274E+02  0.92212993728E+02  0.00000000000E+00 0.  1.
<mgrwt>
<rscale>  0 0.16256251E+04</rscale>
<asrwt>0</asrwt>
<pdfrwt beam="1">  1        2 0.29216920E+00 0.16256251E+04</pdfrwt>
<pdfrwt beam="2">  1       -1 0.53520439E-01 0.16256251E+04</pdfrwt>
<totfact> 0.29193695E+01</totfact>
</mgrwt>
</event>
<event>
12    6  0.1450532E-007  0.1381369E+04  0.7818608E-02  0.8967416E-01
         -1   -1    0    0    0  501 -0.00000000000E+00  0.00000000000E+00  0.72658765512E+03  0.72658765512E+03  0.00000000000E+00 0.  1.
          2   -1    0    0  501    0  0.00000000000E+00 -0.00000000000E+00 -0.65655548042E+03  0.65655548042E+03  0.00000000000E+00 0. -1.
         24    2    1    2    0    0 -0.11904275017E+03  0.33677647278E+03  0.18174882181E+03  0.40839641056E+03  0.78520219955E+02 0.  0.
        254    2    1    2    0    0  0.11904275017E+03 -0.33677647278E+03 -0.11171664712E+03  0.97474672498E+03  0.90003388804E+03 0.  0.
         23    2    4    4    0    0 -0.19644167595E+03  0.62282238885E+02 -0.34079709965E+03  0.40881575447E+03  0.92299775953E+02 0.  0.
         23    2    4    4    0    0  0.31548442612E+03 -0.39905871167E+03  0.22908045254E+03  0.56593097051E+03  0.94982794018E+02 0.  0.
          2    1    3    3  502    0 -0.17650158062E+02  0.49171391355E+02 -0.21441621659E+01  0.52287199569E+02  0.00000000000E+00 0. -1.
         -1    1    3    3    0  502 -0.10139259211E+03  0.28760508143E+03  0.18389298398E+03  0.35610921099E+03  0.00000000000E+00 0.  1.
         11    1    5    5    0    0 -0.17790847157E+03  0.57072299886E+02 -0.22984090850E+03  0.29620181447E+03  0.00000000000E+00 0.  1.
        -11    1    5    5    0    0 -0.18533204378E+02  0.52099389988E+01 -0.11095619115E+03  0.11261394000E+03  0.00000000000E+00 0. -1.
          3    1    6    6  503    0  0.27701442861E+01 -0.21359451520E+02 -0.56836378460E+01  0.22275628112E+02  0.00000000000E+00 0. -1.
         -3    1    6    6    0  503  0.31271428184E+03 -0.37769926015E+03  0.23476409038E+03  0.54365534239E+03  0.00000000000E+00 0.  1.
<mgrwt>
<rscale>  0 0.13813690E+04</rscale>
<asrwt>0</asrwt>
<pdfrwt beam="1">  1        2 0.10100854E+00 0.13813690E+04</pdfrwt>
<pdfrwt beam="2">  1       -1 0.11178272E+00 0.13813690E+04</pdfrwt>
<totfact> 0.36336483E+01</totfact>
</mgrwt>
</event>
<event>
12    6  0.1450532E-007  0.1783796E+04  0.7818608E-02  0.8714964E-01
          2   -1    0    0  501    0  0.00000000000E+00  0.00000000000E+00  0.27093116818E+04  0.27093116818E+04  0.00000000000E+00 0. -1.
         -1   -1    0    0    0  501 -0.00000000000E+00 -0.00000000000E+00 -0.29361040257E+03  0.29361040257E+03  0.00000000000E+00 0.  1.
         24    2    1    2    0    0  0.32270421052E+03 -0.18162967256E+03 -0.20911050233E+02  0.37906695630E+03  0.78276049317E+02 0.  0.
        254    2    1    2    0    0 -0.32270421052E+03  0.18162967256E+03  0.24366123295E+04  0.26238551281E+04  0.90022705110E+03 0.  0.
         23    2    4    4    0    0 -0.38560242388E+02 -0.20776853406E+03  0.18237524290E+04  0.18387294810E+04  0.10098775102E+03 0.  0.
         23    2    4    4    0    0 -0.28414396813E+03  0.38939820662E+03  0.61285990049E+03  0.78512564712E+03  0.91957958822E+02 0.  0.
          2    1    3    3  502    0  0.71811207438E+02 -0.57577043515E+01 -0.64615805023E+01  0.72330855765E+02  0.00000000000E+00 0. -1.
         -1    1    3    3    0  502  0.25089300308E+03 -0.17587196821E+03 -0.14449469731E+02  0.30673610054E+03  0.00000000000E+00 0.  1.
         11    1    5    5    0    0 -0.29570092755E+02 -0.21507848305E+03  0.15980284639E+04  0.16127083170E+04  0.00000000000E+00 0. -1.
        -11    1    5    5    0    0 -0.89901496325E+01  0.73099489910E+01  0.22572396512E+03  0.22602116400E+03  0.00000000000E+00 0.  1.
          4    1    6    6  503    0 -0.21732865995E+03  0.22887821224E+03  0.36794060077E+03  0.48476516807E+03  0.00000000000E+00 0. -1.
         -4    1    6    6    0  503 -0.66815308188E+02  0.16051999438E+03  0.24491929972E+03  0.30036047905E+03  0.00000000000E+00 0.  1.
<mgrwt>
<rscale>  0 0.17837961E+04</rscale>
<asrwt>0</asrwt>
<pdfrwt beam="1">  1        2 0.41681717E+00 0.17837961E+04</pdfrwt>
<pdfrwt beam="2">  1       -1 0.45170833E-01 0.17837961E+04</pdfrwt>
<totfact> 0.13751906E+01</totfact>
</mgrwt>
</event>
<event>
12    6  0.1450532E-007  0.1235360E+04  0.7818608E-02  0.9082457E-01
          2   -1    0    0  501    0  0.00000000000E+00  0.00000000000E+00  0.30864603545E+04  0.30864603545E+04  0.00000000000E+00 0. -1.
         -1   -1    0    0    0  501 -0.00000000000E+00 -0.00000000000E+00 -0.12361353634E+03  0.12361353634E+03  0.00000000000E+00 0.  1.
         24    2    1    2    0    0  0.27404252371E+02  0.55766654077E+02 -0.14793567233E+02  0.98503377149E+02  0.74987685144E+02 0.  0.
        254    2    1    2    0    0 -0.27404252371E+02 -0.55766654077E+02  0.29776403854E+04  0.31115705137E+04  0.90092612586E+03 0.  0.
         23    2    4    4    0    0 -0.12607158399E+03  0.93503442309E+02  0.61978869425E+02  0.18897548895E+03  0.85049498273E+02 0.  0.
         23    2    4    4    0    0  0.98667331621E+02 -0.14927009639E+03  0.29156615160E+04  0.29225950248E+04  0.91993472386E+02 0.  0.
          4    1    3    3  502    0  0.21380700321E+02 -0.14708025740E+02  0.12270679035E+01  0.25980108987E+02  0.00000000000E+00 0. -1.
         -1    1    3    3    0  502  0.60235520502E+01  0.70474679817E+02 -0.16020635137E+02  0.72523268161E+02  0.00000000000E+00 0.  1.
         11    1    5    5    0    0 -0.18351234182E+02  0.33586977340E+01  0.43462928333E+02  0.47297724953E+02  0.00000000000E+00 0.  1.
        -11    1    5    5    0    0 -0.10772034981E+03  0.90144744575E+02  0.18515941091E+02  0.14167776400E+03  0.00000000000E+00 0. -1.
          2    1    6    6  503    0 -0.11979363007E+02 -0.15500024313E+02  0.12369600918E+03  0.12523760848E+03  0.00000000000E+00 0.  1.
         -2    1    6    6    0  503  0.11064669463E+03 -0.13377007207E+03  0.27919655068E+04  0.27973574163E+04  0.00000000000E+00 0. -1.
<mgrwt>
<rscale>  0 0.12353595E+04</rscale>
<asrwt>0</asrwt>
<pdfrwt beam="1">  1        2 0.47484000E+00 0.12353595E+04</pdfrwt>
<pdfrwt beam="2">  1       -1 0.19017469E-01 0.12353595E+04</pdfrwt>
<totfact> 0.38877649E+01</totfact>
</mgrwt>
</event>
<event>
12    6  0.1450532E-007  0.2167357E+04  0.7818608E-02  0.8532139E-01
          2   -1    0    0  501    0  0.00000000000E+00  0.00000000000E+00  0.13355691116E+04  0.13355691116E+04  0.00000000000E+00 0. -1.
         -1   -1    0    0    0  501 -0.00000000000E+00 -0.00000000000E+00 -0.87929529029E+03  0.87929529029E+03  0.00000000000E+00 0.  1.
         24    2    1    2    0    0 -0.44281557703E+03  0.24196180989E+03 -0.56767337161E+03  0.76365199773E+03  0.79247486376E+02 0.  0.
        254    2    1    2    0    0  0.44281557703E+03 -0.24196180989E+03  0.10239471929E+04  0.14512124041E+04  0.89605716077E+03 0.  0.
         23    2    4    4    0    0 -0.80942194466E+02  0.26159914823E+03  0.21374795257E+03  0.35906175110E+03  0.90837220772E+02 0.  0.
         23    2    4    4    0    0  0.52375777149E+03 -0.50356095812E+03  0.81019924033E+03  0.10921506530E+04  0.92056494341E+02 0.  0.
          4    1    3    3  502    0 -0.27799427765E+03  0.13822441954E+03 -0.29259869076E+03  0.42661552058E+03  0.00000000000E+00 0. -1.
         -3    1    3    3    0  502 -0.16482129937E+03  0.10373739035E+03 -0.27507468085E+03  0.33703647715E+03  0.00000000000E+00 0.  1.
         11    1    5    5    0    0 -0.84645687871E+01  0.11462762149E+03  0.13484547040E+03  0.17718476634E+03  0.00000000000E+00 0. -1.
        -11    1    5    5    0    0 -0.72477625679E+02  0.14697152673E+03  0.78902482166E+02  0.18187698476E+03  0.00000000000E+00 0.  1.
          1    1    6    6  503    0  0.84605203699E+02 -0.47590222636E+02  0.13863095596E+03  0.16923773732E+03  0.00000000000E+00 0. -1.
         -1    1    6    6    0  503  0.43915256779E+03 -0.45597073549E+03  0.67156828437E+03  0.92291291572E+03  0.00000000000E+00 0.  1.
<mgrwt>
<rscale>  0 0.21673575E+04</rscale>
<asrwt>0</asrwt>
<pdfrwt beam="1">  1        2 0.20547217E+00 0.21673575E+04</pdfrwt>
<pdfrwt beam="2">  1       -1 0.13527620E+00 0.21673575E+04</pdfrwt>
<totfact> 0.75445635E+00</totfact>
</mgrwt>
</event>
<event>
12    6  0.1450532E-007  0.1359424E+04  0.7818608E-02  0.8983725E-01
          2   -1    0    0  501    0  0.00000000000E+00  0.00000000000E+00  0.10493221645E+04  0.10493221645E+04  0.00000000000E+00 0. -1.
         -1   -1    0    0    0  501 -0.00000000000E+00 -0.00000000000E+00 -0.44029204442E+03  0.44029204442E+03  0.00000000000E+00 0.  1.
         24    2    1    2    0    0  0.84569420051E+02 -0.38066532292E+03  0.27519995300E+03  0.48399061890E+03  0.80335734102E+02 0.  0.
        254    2    1    2    0    0 -0.84569420051E+02  0.38066532292E+03  0.33383016704E+03  0.10056235900E+04  0.86474166629E+03 0.  0.
         23    2    4    4    0    0  0.57113482480E+02 -0.19243625141E+03  0.34434820333E+03  0.40806522342E+03  0.87452162288E+02 0.  0.
         23    2    4    4    0    0 -0.14168290253E+03  0.57310157433E+03 -0.10518036292E+02  0.59755836656E+03  0.91901648488E+02 0.  0.
          4    1    3    3  502    0  0.70741425833E+02 -0.17186203593E+03  0.15928425932E+03  0.24477006351E+03  0.00000000000E+00 0. -1.
         -3    1    3    3    0  502  0.13827994218E+02 -0.20880328699E+03  0.11591569368E+03  0.23922055540E+03  0.00000000000E+00 0.  1.
         11    1    5    5    0    0  0.26151767972E+02 -0.74889619895E+02  0.62055863774E+02  0.10071395318E+03  0.00000000000E+00 0. -1.
        -11    1    5    5    0    0  0.30961714508E+02 -0.11754663151E+03  0.28229233956E+03  0.30735127024E+03  0.00000000000E+00 0.  1.
          3    1    6    6  503    0 -0.55072713497E+02  0.23502172150E+03  0.40787446200E+02  0.24480978150E+03  0.00000000000E+00 0. -1.
         -3    1    6    6    0  503 -0.86610189033E+02  0.33807985283E+03 -0.51305482491E+02  0.35274858506E+03  0.00000000000E+00 0.  1.
<mgrwt>
<rscale>  0 0.13594237E+04</rscale>
<asrwt>0</asrwt>
<pdfrwt beam="1">  1        2 0.16143418E+00 0.13594237E+04</pdfrwt>
<pdfrwt beam="2">  1       -1 0.67737238E-01 0.13594237E+04</pdfrwt>
<totfact> 0.57584938E+01</totfact>
</mgrwt>
</event>
<event>
12    6  0.1450532E-007  0.1297069E+04  0.7818608E-02  0.9031893E-01
          2   -1    0    0  501    0  0.00000000000E+00  0.00000000000E+00  0.18376439027E+04  0.18376439027E+04  0.00000000000E+00 0. -1.
         -1   -1    0    0    0  501 -0.00000000000E+00 -0.00000000000E+00 -0.22887838398E+03  0.22887838398E+03  0.00000000000E+00 0.  1.
         24    2    1    2    0    0  0.16356596627E+03 -0.12997064651E+03  0.10825414669E+02  0.22573590944E+03  0.84813424244E+02 0.  0.
        254    2    1    2    0    0 -0.16356596627E+03  0.12997064651E+03  0.15979401041E+04  0.18407863773E+04  0.88962672859E+03 0.  0.
         23    2    4    4    0    0 -0.11078358384E+03 -0.37156228211E+03  0.62624460130E+03  0.74223372334E+03  0.91635514265E+02 0.  0.
         23    2    4    4    0    0 -0.52782382423E+02  0.50153292862E+03  0.97169550279E+03  0.10985526539E+04  0.91129166224E+02 0.  0.
          4    1    3    3  502    0  0.14464652070E+03 -0.14183759279E+03  0.14498379415E+02  0.20310273678E+03  0.00000000000E+00 0. -1.
         -3    1    3    3    0  502  0.18919445562E+02  0.11866946285E+02 -0.36729647465E+01  0.22633172657E+02  0.00000000000E+00 0.  1.
         11    1    5    5    0    0  0.50050411794E+01 -0.32821826336E+02  0.10323561434E+03  0.10844314082E+03  0.00000000000E+00 0.  1.
        -11    1    5    5    0    0 -0.11578862502E+03 -0.33874045577E+03  0.52300898696E+03  0.63379058253E+03  0.00000000000E+00 0. -1.
          4    1    6    6  503    0 -0.10797574003E+02  0.33488737276E+03  0.56243848035E+03  0.65467792403E+03  0.00000000000E+00 0. -1.
         -4    1    6    6    0  503 -0.41984808420E+02  0.16664555585E+03  0.40925702244E+03  0.44387472990E+03  0.00000000000E+00 0.  1.
<mgrwt>
<rscale>  0 0.12970690E+04</rscale>
<asrwt>0</asrwt>
<pdfrwt beam="1">  1        2 0.28271444E+00 0.12970690E+04</pdfrwt>
<pdfrwt beam="2">  1       -1 0.35212060E-01 0.12970690E+04</pdfrwt>
<totfact> 0.70516032E+01</totfact>
</mgrwt>
</event>
<event>
12    6  0.1450532E-007  0.2742568E+04  0.7818608E-02  0.8321324E-01
         -1   -1    0    0    0  501 -0.00000000000E+00  0.00000000000E+00  0.13725165747E+04  0.13725165747E+04  0.00000000000E+00 0.  1.
          2   -1    0    0  501    0  0.00000000000E+00 -0.00000000000E+00 -0.13700527826E+04  0.13700527826E+04  0.00000000000E+00 0. -1.
         24    2    1    2    0    0  0.11911109903E+04  0.19187101418E+03  0.16647560407E+03  0.12205401101E+04  0.80275501554E+02 0.  0.
        254    2    1    2    0    0 -0.11911109903E+04 -0.19187101418E+03 -0.16401181199E+03  0.15220292472E+04  0.91329802233E+03 0.  0.
         23    2    4    4    0    0 -0.47455916200E+03 -0.38841052406E+03 -0.39935691867E+03  0.73737649340E+03  0.90382581789E+02 0.  0.
         23    2    4    4    0    0 -0.71655182833E+03  0.19653950988E+03  0.23534510668E+03  0.78465275384E+03  0.90654968086E+02 0.  0.
          2    1    3    3  502    0  0.72168192184E+03  0.13155538923E+03  0.64613852475E+02  0.73641467033E+03  0.00000000000E+00 0. -1.
         -1    1    3    3    0  502  0.46942906849E+03  0.60315624949E+02  0.10186175159E+03  0.48412543973E+03  0.00000000000E+00 0.  1.
         11    1    5    5    0    0 -0.38689656163E+03 -0.35753702928E+03 -0.34471658767E+03  0.62956429578E+03  0.00000000000E+00 0. -1.
        -11    1    5    5    0    0 -0.87662600372E+02 -0.30873494778E+02 -0.54640331002E+02  0.10781219762E+03  0.00000000000E+00 0.  1.
          3    1    6    6  503    0 -0.49074140933E+03  0.13535139331E+03  0.11642031273E+03  0.52220764043E+03  0.00000000000E+00 0. -1.
         -3    1    6    6    0  503 -0.22581041900E+03  0.61188116566E+02  0.11892479394E+03  0.26244511341E+03  0.00000000000E+00 0.  1.
<mgrwt>
<rscale>  0 0.27425683E+04</rscale>
<asrwt>0</asrwt>
<pdfrwt beam="1">  1        2 0.21077735E+00 0.27425683E+04</pdfrwt>
<pdfrwt beam="2">  1       -1 0.21115640E+00 0.27425683E+04</pdfrwt>
<totfact> 0.18929944E+00</totfact>
</mgrwt>
</event>
<event>
12    6  0.1450532E-007  0.1658603E+04  0.7818608E-02  0.8785333E-01
         -1   -1    0    0    0  501 -0.00000000000E+00  0.00000000000E+00  0.63111154971E+03  0.63111154971E+03  0.00000000000E+00 0.  1.
          2   -1    0    0  501    0  0.00000000000E+00 -0.00000000000E+00 -0.10897296818E+04  0.10897296818E+04  0.00000000000E+00 0. -1.
         24    2    1    2    0    0  0.30713088954E+03 -0.38231606314E+03  0.17212750096E+03  0.52578584916E+03  0.79548269233E+02 0.  0.
        254    2    1    2    0    0 -0.30713088954E+03  0.38231606314E+03 -0.63074563310E+03  0.11950553824E+04  0.88871950461E+03 0.  0.
         23    2    4    4    0    0  0.85932039915E+02  0.34017099879E+03 -0.69533008470E+03  0.78412941904E+03  0.90963702704E+02 0.  0.
         23    2    4    4    0    0 -0.39306292946E+03  0.42145064350E+02  0.64584451601E+02  0.41092596336E+03  0.91729619029E+02 0.  0.
          2    1    3    3  502    0  0.19126477313E+03 -0.22330705291E+03  0.62611281083E+02  0.30061341593E+03  0.00000000000E+00 0. -1.
         -1    1    3    3    0  502  0.11586611642E+03 -0.15900901023E+03  0.10951621988E+03  0.22517243323E+03  0.00000000000E+00 0.  1.
         11    1    5    5    0    0  0.96544061246E+02  0.33152145020E+03 -0.68454839984E+03  0.76670316253E+03  0.00000000000E+00 0. -1.
        -11    1    5    5    0    0 -0.10612021331E+02  0.86495485883E+01 -0.10781684858E+02  0.17426256508E+02  0.00000000000E+00 0.  1.
          4    1    6    6  503    0 -0.15600279148E+03  0.25402818857E+02  0.70809144059E+02  0.17319384815E+03  0.00000000000E+00 0. -1.
         -4    1    6    6    0  503 -0.23706013798E+03  0.16742245493E+02 -0.62246924575E+01  0.23773211521E+03  0.00000000000E+00 0.  1.
<mgrwt>
<rscale>  0 0.16586030E+04</rscale>
<asrwt>0</asrwt>
<pdfrwt beam="1">  1        2 0.16765072E+00 0.16586030E+04</pdfrwt>
<pdfrwt beam="2">  1       -1 0.97094087E-01 0.16586030E+04</pdfrwt>
<totfact> 0.24541535E+01</totfact>
</mgrwt>
</event>
<event>
12    6  0.1450532E-007  0.1775629E+04  0.7818608E-02  0.8719368E-01
         -1   -1    0    0    0  501 -0.00000000000E+00  0.00000000000E+00  0.27565475743E+03  0.27565475743E+03  0.00000000000E+00 0.  1.
          2   -1    0    0  501    0  0.00000000000E+00 -0.00000000000E+00 -0.28594270877E+04  0.28594270877E+04  0.00000000000E+00 0. -1.
         24    2    1    2    0    0 -0.36488837911E+03 -0.15205728801E+03 -0.36471659174E+02  0.40521094912E+03  0.81245204870E+02 0.  0.
        254    2    1    2    0    0  0.36488837911E+03  0.15205728801E+03 -0.25473006711E+04  0.27298708960E+04  0.89843722754E+03 0.  0.
         23    2    4    4    0    0  0.75095473060E+01 -0.34435772526E+03 -0.10907376933E+04  0.11474555505E+04  0.91142133787E+02 0.  0.
         23    2    4    4    0    0  0.35737883181E+03  0.49641501328E+03 -0.14565629779E+04  0.15824153455E+04  0.91187293772E+02 0.  0.
          4    1    3    3  502    0 -0.19630987664E+03 -0.10728014476E+03 -0.53313167376E+02  0.22997584860E+03  0.00000000000E+00 0. -1.
         -3    1    3    3    0  502 -0.16857850248E+03 -0.44777143257E+02  0.16841508202E+02  0.17523510052E+03  0.00000000000E+00 0.  1.
         11    1    5    5    0    0  0.14124334047E+02 -0.55293288163E+01 -0.26170075862E+02  0.30248027374E+02  0.00000000000E+00 0. -1.
        -11    1    5    5    0    0 -0.66147867413E+01 -0.33882839645E+03 -0.10645676174E+04  0.11172075231E+04  0.00000000000E+00 0.  1.
          2    1    6    6  503    0  0.47500461651E+02  0.70379217848E+02 -0.13219448116E+03  0.15711431829E+03  0.00000000000E+00 0. -1.
         -2    1    6    6    0  503  0.30987837016E+03  0.42603579543E+03 -0.13243684967E+04  0.14253010273E+04  0.00000000000E+00 0.  1.
<mgrwt>
<rscale>  0 0.17756291E+04</rscale>
<asrwt>0</asrwt>
<pdfrwt beam="1">  1        2 0.43991186E+00 0.17756291E+04</pdfrwt>
<pdfrwt beam="2">  1       -1 0.42408424E-01 0.17756291E+04</pdfrwt>
<totfact> 0.12570575E+01</totfact>
</mgrwt>
</event>
<event>
12    6  0.1450532E-007  0.1303634E+04  0.7818608E-02  0.9026688E-01
         -1   -1    0    0    0  501 -0.00000000000E+00  0.00000000000E+00  0.39032999038E+03  0.39032999038E+03  0.00000000000E+00 0.  1.
          2   -1    0    0  501    0  0.00000000000E+00 -0.00000000000E+00 -0.10884779461E+04  0.10884779461E+04  0.00000000000E+00 0. -1.
         24    2    1    2    0    0  0.21623050806E+03  0.19462771796E+03  0.11349878845E+02  0.30162190100E+03  0.78812246488E+02 0.  0.
        254    2    1    2    0    0 -0.21623050806E+03 -0.19462771796E+03 -0.70949783453E+03  0.11771860355E+04  0.89316527230E+03 0.  0.
         23    2    4    4    0    0 -0.96615069924E+02  0.27623802017E+03 -0.59565548810E+03  0.67013587342E+03  0.92923155494E+02 0.  0.
         23    2    4    4    0    0 -0.11961543813E+03 -0.47086573813E+03 -0.11384234644E+03  0.50705016203E+03  0.90096562564E+02 0.  0.
          2    1    3    3  502    0  0.79370237778E+01  0.31284603438E+02 -0.15039498349E+02  0.35607713621E+02  0.00000000000E+00 0. -1.
         -1    1    3    3    0  502  0.20829348428E+03  0.16334311452E+03  0.26389377194E+02  0.26601418737E+03  0.00000000000E+00 0.  1.
         11    1    5    5    0    0 -0.71908216779E+02  0.27204537973E+03 -0.53448651872E+03  0.60403254793E+03  0.00000000000E+00 0. -1.
        -11    1    5    5    0    0 -0.24706853145E+02  0.41926404436E+01 -0.61168969380E+02  0.66103325493E+02  0.00000000000E+00 0.  1.
          1    1    6    6  503    0 -0.74718940106E+02 -0.27630060369E+03 -0.11201604275E+03  0.30736385188E+03  0.00000000000E+00 0. -1.
         -1    1    6    6    0  503 -0.44896498029E+02 -0.19456513444E+03 -0.18263036861E+01  0.19968631015E+03  0.00000000000E+00 0.  1.
<mgrwt>
<rscale>  0 0.13036343E+04</rscale>
<asrwt>0</asrwt>
<pdfrwt beam="1">  1        2 0.16745814E+00 0.13036343E+04</pdfrwt>
<pdfrwt beam="2">  1       -1 0.60050768E-01 0.13036343E+04</pdfrwt>
<totfact> 0.69595813E+01</totfact>
</mgrwt>
</event>
<event>
12    6  0.1450532E-007  0.1879878E+04  0.7818608E-02  0.8664938E-01
          2   -1    0    0  501    0  0.00000000000E+00  0.00000000000E+00  0.21065485319E+04  0.21065485319E+04  0.00000000000E+00 0. -1.
         -1   -1    0    0    0  501 -0.00000000000E+00 -0.00000000000E+00 -0.41939945764E+03  0.41939945764E+03  0.00000000000E+00 0.  1.
         24    2    1    2    0    0  0.12118288193E+03 -0.15478787291E+03  0.15880213636E+04  0.16022024905E+04  0.81218180051E+02 0.  0.
        254    2    1    2    0    0 -0.12118288193E+03  0.15478787291E+03  0.99127710662E+02  0.92374549906E+03  0.89712589280E+03 0.  0.
         23    2    4    4    0    0 -0.76167777791E+02 -0.21676396838E+03 -0.28646045863E+03  0.37850004040E+03  0.91730790141E+02 0.  0.
         23    2    4    4    0    0 -0.45015104142E+02  0.37155184129E+03  0.38558816930E+03  0.54524545866E+03  0.92397205139E+02 0.  0.
          2    1    3    3  502    0  0.60409894708E+02 -0.56808581142E+02  0.96851024083E+03  0.97205383434E+03  0.00000000000E+00 0. -1.
         -1    1    3    3    0  502  0.60772987225E+02 -0.97979291772E+02  0.61951112275E+03  0.63014865611E+03  0.00000000000E+00 0.  1.
         11    1    5    5    0    0 -0.62070714152E+02 -0.22324333148E+03 -0.27167722164E+03  0.35706984102E+03  0.00000000000E+00 0.  1.
        -11    1    5    5    0    0 -0.14097063639E+02  0.64793631035E+01 -0.14783236994E+02  0.21430199381E+02  0.00000000000E+00 0. -1.
          3    1    6    6  503    0  0.67215269717E+01  0.52029974787E+02  0.18015479641E+02  0.55469403348E+02  0.00000000000E+00 0. -1.
         -3    1    6    6    0  503 -0.51736631114E+02  0.31952186650E+03  0.36757268966E+03  0.48977605531E+03  0.00000000000E+00 0.  1.
<mgrwt>
<rscale>  0 0.18798780E+04</rscale>
<asrwt>0</asrwt>
<pdfrwt beam="1">  1        2 0.32408438E+00 0.18798780E+04</pdfrwt>
<pdfrwt beam="2">  1       -1 0.64522995E-01 0.18798780E+04</pdfrwt>
<totfact> 0.15159151E+01</totfact>
</mgrwt>
</event>
<event>
12    6  0.1450532E-007  0.1396016E+04  0.7818608E-02  0.8956707E-01
         -1   -1    0    0    0  501 -0.00000000000E+00  0.00000000000E+00  0.40788850190E+03  0.40788850190E+03  0.00000000000E+00 0.  1.
          2   -1    0    0  501    0  0.00000000000E+00 -0.00000000000E+00 -0.11944819400E+04  0.11944819400E+04  0.00000000000E+00 0. -1.
         24    2    1    2    0    0  0.48809677601E+02  0.40923129944E+03 -0.27257815041E+03  0.50002237456E+03  0.76621706471E+02 0.  0.
        254    2    1    2    0    0 -0.48809677601E+02 -0.40923129944E+03 -0.51401528764E+03  0.11023480673E+04  0.88380252573E+03 0.  0.
         23    2    4    4    0    0 -0.38520951416E+03 -0.47585465054E+03 -0.35241482280E+03  0.71204568807E+03  0.89380290501E+02 0.  0.
         23    2    4    4    0    0  0.33639983656E+03  0.66623351098E+02 -0.16160046484E+03  0.39030237923E+03  0.92831654333E+02 0.  0.
          4    1    3    3  502    0  0.33659767762E+02  0.26289229668E+03 -0.21775063724E+03  0.34301702529E+03  0.00000000000E+00 0. -1.
         -3    1    3    3    0  502  0.15149909839E+02  0.14633900276E+03 -0.54827513173E+02  0.15700534927E+03  0.00000000000E+00 0.  1.
         11    1    5    5    0    0 -0.29621292607E+03 -0.32807964670E+03 -0.28970973262E+03  0.52849794827E+03  0.00000000000E+00 0. -1.
        -11    1    5    5    0    0 -0.88996588089E+02 -0.14777500384E+03 -0.62705090179E+02  0.18354773980E+03  0.00000000000E+00 0.  1.
          1    1    6    6  503    0  0.33447908411E+03  0.49812361632E+02 -0.15111156587E+03  0.37039470085E+03  0.00000000000E+00 0. -1.
         -1    1    6    6    0  503  0.19207524504E+01  0.16810989467E+02 -0.10488898974E+02  0.19907678380E+02  0.00000000000E+00 0.  1.
<mgrwt>
<rscale>  0 0.13960164E+04</rscale>
<asrwt>0</asrwt>
<pdfrwt beam="1">  1        2 0.18376645E+00 0.13960164E+04</pdfrwt>
<pdfrwt beam="2">  1       -1 0.62752078E-01 0.13960164E+04</pdfrwt>
<totfact> 0.54572337E+01</totfact>
</mgrwt>
</event>
<event>
12    6  0.1450532E-007  0.2158928E+04  0.7818608E-02  0.8535720E-01
         -1   -1    0    0    0  501 -0.00000000000E+00  0.00000000000E+00  0.30101525465E+03  0.30101525465E+03  0.00000000000E+00 0.  1.
          2   -1    0    0  501    0  0.00000000000E+00 -0.00000000000E+00 -0.38710404962E+04  0.38710404962E+04  0.00000000000E+00 0. -1.
         24    2    1    2    0    0  0.22679671644E+03  0.54884480797E+02  0.18098389985E+03  0.30684586184E+03  0.83367584250E+02 0.  0.
        254    2    1    2    0    0 -0.22679671644E+03 -0.54884480797E+02 -0.37510091414E+04  0.38652098890E+04  0.90295561927E+03 0.  0.
         23    2    4    4    0    0 -0.55880983486E+03  0.84366551431E+00 -0.26656676783E+04  0.27251546358E+04  0.91730445826E+02 0.  0.
         23    2    4    4    0    0  0.33201311843E+03 -0.55728146312E+02 -0.10853414631E+04  0.11400552532E+04  0.91769012701E+02 0.  0.
          2    1    3    3  502    0  0.11762921042E+03 -0.14374154061E+02  0.86210840745E+02  0.14654540768E+03  0.00000000000E+00 0. -1.
         -1    1    3    3    0  502  0.10916750601E+03  0.69258634859E+02  0.94773059110E+02  0.16030045416E+03  0.00000000000E+00 0.  1.
         11    1    5    5    0    0 -0.41222836872E+03 -0.11936119750E+02 -0.17643948154E+04  0.18119502652E+04  0.00000000000E+00 0.  1.
        -11    1    5    5    0    0 -0.14658146614E+03  0.12779785264E+02 -0.90127286292E+03  0.91320437065E+03  0.00000000000E+00 0. -1.
          2    1    6    6  503    0  0.81896291443E+02 -0.44083219255E+02 -0.21145694621E+03  0.23100730047E+03  0.00000000000E+00 0. -1.
         -2    1    6    6    0  503  0.25011682698E+03 -0.11644927056E+02 -0.87388451692E+03  0.90904795274E+03  0.00000000000E+00 0.  1.
<mgrwt>
<rscale>  0 0.21589277E+04</rscale>
<asrwt>0</asrwt>
<pdfrwt beam="1">  1        2 0.59554469E+00 0.21589277E+04</pdfrwt>
<pdfrwt beam="2">  1       -1 0.46310039E-01 0.21589277E+04</pdfrwt>
<totfact> 0.21114854E+00</totfact>
</mgrwt>
</event>
<event>
12    6  0.1450532E-007  0.2060506E+04  0.7818608E-02  0.8578843E-01
         -1   -1    0    0    0  501 -0.00000000000E+00  0.00000000000E+00  0.77173015520E+03  0.77173015520E+03  0.00000000000E+00 0.  1.
          2   -1    0    0  501    0  0.00000000000E+00 -0.00000000000E+00 -0.13753784724E+04  0.13753784724E+04  0.00000000000E+00 0. -1.
         24    2    1    2    0    0  0.71280051790E+03  0.27687319416E+03 -0.60124830884E+03  0.97611628919E+03  0.80994673723E+02 0.  0.
        254    2    1    2    0    0 -0.71280051790E+03 -0.27687319416E+03 -0.24000083163E+01  0.11709923384E+04  0.88683366677E+03 0.  0.
         23    2    4    4    0    0 -0.32019648036E+03 -0.19907762765E+03  0.42686619882E+03  0.57703611272E+03  0.92726672676E+02 0.  0.
         23    2    4    4    0    0 -0.39260403754E+03 -0.77795566511E+02 -0.42926620714E+03  0.59395622565E+03  0.91238374222E+02 0.  0.
          2    1    3    3  502    0  0.69487283140E+03  0.27692866674E+03 -0.59848226496E+03  0.95797638789E+03  0.00000000000E+00 0. -1.
         -1    1    3    3    0  502  0.17927686497E+02 -0.55472582742E-01 -0.27660438831E+01  0.18139901298E+02  0.00000000000E+00 0.  1.
         11    1    5    5    0    0 -0.52264354502E+02 -0.61076580875E+01  0.29275422878E+02  0.60215584556E+02  0.00000000000E+00 0.  1.
        -11    1    5    5    0    0 -0.26793212586E+03 -0.19296996956E+03  0.39759077594E+03  0.51682052817E+03  0.00000000000E+00 0. -1.
          2    1    6    6  503    0 -0.11500662247E+03 -0.11797272035E+02 -0.18597623872E+03  0.21898141521E+03  0.00000000000E+00 0.  1.
         -2    1    6    6    0  503 -0.27759741507E+03 -0.65998294476E+02 -0.24328996842E+03  0.37497481044E+03  0.00000000000E+00 0. -1.
<mgrwt>
<rscale>  0 0.20605058E+04</rscale>
<asrwt>0</asrwt>
<pdfrwt beam="1">  1        2 0.21159669E+00 0.20605058E+04</pdfrwt>
<pdfrwt beam="2">  1       -1 0.11872772E+00 0.20605058E+04</pdfrwt>
<totfact> 0.10009721E+01</totfact>
</mgrwt>
</event>
<event>
12    6  0.1450532E-007  0.1666313E+04  0.7818608E-02  0.8780814E-01
         -1   -1    0    0    0  501 -0.00000000000E+00  0.00000000000E+00  0.24403264302E+03  0.24403264302E+03  0.00000000000E+00 0.  1.
          2   -1    0    0  501    0  0.00000000000E+00 -0.00000000000E+00 -0.28444958049E+04  0.28444958049E+04  0.00000000000E+00 0. -1.
         24    2    1    2    0    0  0.19844424932E+03 -0.65087373426E+01 -0.19393913903E+04  0.19511593771E+04  0.79758799419E+02 0.  0.
        254    2    1    2    0    0 -0.19844424932E+03  0.65087373426E+01 -0.66107177149E+03  0.11373690708E+04  0.90397457508E+03 0.  0.
         23    2    4    4    0    0  0.32529773072E+03  0.59943717210E+02 -0.44527735318E+03  0.56136736695E+03  0.86310697930E+02 0.  0.
         23    2    4    4    0    0 -0.52374198004E+03 -0.53434979867E+02 -0.21579441832E+03  0.57600170385E+03  0.89720527952E+02 0.  0.
          2    1    3    3  502    0  0.76164732003E+02  0.35258917098E+02 -0.84893481149E+03  0.85307360280E+03  0.00000000000E+00 0. -1.
         -1    1    3    3    0  502  0.12227951731E+03 -0.41767654441E+02 -0.10904565788E+04  0.10980857743E+04  0.00000000000E+00 0.  1.
         11    1    5    5    0    0  0.16444340782E+02  0.18193063434E+02 -0.66341768276E+02  0.70729301699E+02  0.00000000000E+00 0. -1.
        -11    1    5    5    0    0  0.30885338994E+03  0.41750653776E+02 -0.37893558490E+03  0.49063806525E+03  0.00000000000E+00 0.  1.
          4    1    6    6  503    0 -0.15290176222E+03 -0.51093504982E+02 -0.42849800126E+02  0.16681007317E+03  0.00000000000E+00 0. -1.
         -4    1    6    6    0  503 -0.37084021781E+03 -0.23414748852E+01 -0.17294461819E+03  0.40919163068E+03  0.00000000000E+00 0.  1.
<mgrwt>
<rscale>  0 0.16663131E+04</rscale>
<asrwt>0</asrwt>
<pdfrwt beam="1">  1        2 0.43761476E+00 0.16663131E+04</pdfrwt>
<pdfrwt beam="2">  1       -1 0.37543481E-01 0.16663131E+04</pdfrwt>
<totfact> 0.16201995E+01</totfact>
</mgrwt>
</event>
<event>
12    6  0.1450532E-007  0.1524175E+04  0.7818608E-02  0.8868534E-01
         -1   -1    0    0    0  501 -0.00000000000E+00  0.00000000000E+00  0.30408320367E+03  0.30408320367E+03  0.00000000000E+00 0.  1.
          2   -1    0    0  501    0  0.00000000000E+00 -0.00000000000E+00 -0.19099298197E+04  0.19099298197E+04  0.00000000000E+00 0. -1.
         24    2    1    2    0    0  0.16791069409E+03 -0.45863155790E+03 -0.60546539910E+03  0.78205285671E+03  0.80507230105E+02 0.  0.
        254    2    1    2    0    0 -0.16791069409E+03  0.45863155790E+03 -0.10003812170E+04  0.14319601667E+04  0.90067221153E+03 0.  0.
         23    2    4    4    0    0 -0.22079828220E+03  0.21600650733E+03 -0.11027619230E+04  0.11481020539E+04  0.81509353248E+02 0.  0.
         23    2    4    4    0    0  0.52887588112E+02  0.24262505056E+03  0.10238070603E+03  0.28385811281E+03  0.91812891800E+02 0.  0.
          2    1    3    3  502    0  0.47315236972E+02 -0.14115022969E+03 -0.24593616839E+03  0.28748342198E+03  0.00000000000E+00 0. -1.
         -1    1    3    3    0  502  0.12059545712E+03 -0.31748132821E+03 -0.35952923070E+03  0.49456943473E+03  0.00000000000E+00 0.  1.
         11    1    5    5    0    0 -0.38471551073E+02  0.59718741033E+02 -0.15691839076E+03  0.17224914987E+03  0.00000000000E+00 0. -1.
        -11    1    5    5    0    0 -0.18232673113E+03  0.15628776630E+03 -0.94584353224E+03  0.97585290401E+03  0.00000000000E+00 0.  1.
          4    1    6    6  503    0  0.60103705144E+02  0.80663543728E+02  0.22297211235E+02  0.10303508280E+03  0.00000000000E+00 0. -1.
         -4    1    6    6    0  503 -0.72161170323E+01  0.16196150684E+03  0.80083494795E+02  0.18082303001E+03  0.00000000000E+00 0.  1.
<mgrwt>
<rscale>  0 0.15241753E+04</rscale>
<asrwt>0</asrwt>
<pdfrwt beam="1">  1        2 0.29383535E+00 0.15241753E+04</pdfrwt>
<pdfrwt beam="2">  1       -1 0.46782032E-01 0.15241753E+04</pdfrwt>
<totfact> 0.37509907E+01</totfact>
</mgrwt>
</event>
<event>
12    6  0.1450532E-007  0.1689251E+04  0.7818608E-02  0.8767519E-01
          2   -1    0    0  501    0  0.00000000000E+00  0.00000000000E+00  0.12250293896E+04  0.12250293896E+04  0.00000000000E+00 0. -1.
         -1   -1    0    0    0  501 -0.00000000000E+00 -0.00000000000E+00 -0.58234732502E+03  0.58234732502E+03  0.00000000000E+00 0.  1.
         24    2    1    2    0    0  0.43850661480E+03  0.25899001578E+03  0.64676747386E+03  0.82705592236E+03  0.79683461050E+02 0.  0.
        254    2    1    2    0    0 -0.43850661480E+03 -0.25899001578E+03 -0.40854092401E+01  0.98032079230E+03  0.83764448649E+03 0.  0.
         23    2    4    4    0    0  0.10459526345E+02 -0.32014034437E+03  0.28207895995E+03  0.43656328212E+03  0.91759020619E+02 0.  0.
         23    2    4    4    0    0 -0.44896614115E+03  0.61150328582E+02 -0.28616436919E+03  0.54375751018E+03  0.92044690810E+02 0.  0.
          2    1    3    3  502    0  0.16215246260E+03  0.97334647498E+02  0.30394910073E+03  0.35798395295E+03  0.00000000000E+00 0. -1.
         -1    1    3    3    0  502  0.27635415220E+03  0.16165536828E+03  0.34281837312E+03  0.46907196941E+03  0.00000000000E+00 0.  1.
         11    1    5    5    0    0 -0.11977554062E+02 -0.22364236753E+03  0.24188587663E+03  0.32964852141E+03  0.00000000000E+00 0. -1.
        -11    1    5    5    0    0  0.22437080407E+02 -0.96497976833E+02  0.40193083325E+02  0.10691476071E+03  0.00000000000E+00 0.  1.
          1    1    6    6  503    0 -0.43112048045E+03  0.72152525394E+02 -0.28676230660E+03  0.52278434949E+03  0.00000000000E+00 0. -1.
         -1    1    6    6    0  503 -0.17845660691E+02 -0.11002196811E+02  0.59793741166E+00  0.20973160690E+02  0.00000000000E+00 0.  1.
<mgrwt>
<rscale>  0 0.16892514E+04</rscale>
<asrwt>0</asrwt>
<pdfrwt beam="1">  1        2 0.18846606E+00 0.16892514E+04</pdfrwt>
<pdfrwt beam="2">  1       -1 0.89591896E-01 0.16892514E+04</pdfrwt>
<totfact> 0.24249354E+01</totfact>
</mgrwt>
</event>
<event>
12    6  0.1450532E-007  0.1165351E+04  0.7818608E-02  0.9143737E-01
         -1   -1    0    0    0  501 -0.00000000000E+00  0.00000000000E+00  0.81577441202E+03  0.81577441202E+03  0.00000000000E+00 0.  1.
          2   -1    0    0  501    0  0.00000000000E+00 -0.00000000000E+00 -0.41618210539E+03  0.41618210539E+03  0.00000000000E+00 0. -1.
         24    2    1    2    0    0 -0.12907259442E+03 -0.94808772529E+02 -0.82982218380E+02  0.19694167474E+03  0.79066659874E+02 0.  0.
        254    2    1    2    0    0  0.12907259442E+03  0.94808772529E+02  0.48257452501E+03  0.10350148427E+04  0.90151489971E+03 0.  0.
         23    2    4    4    0    0 -0.32845950785E+03  0.11436790273E+03 -0.28374264390E+01  0.36150459838E+03  0.98548760453E+02 0.  0.
         23    2    4    4    0    0  0.45753210227E+03 -0.19559130203E+02  0.48541195145E+03  0.67351024430E+03  0.90956596169E+02 0.  0.
          4    1    3    3  502    0 -0.37629620922E+02 -0.11310199093E+02 -0.58881979433E+02  0.70788392242E+02  0.00000000000E+00 0. -1.
         -3    1    3    3    0  502 -0.91442973494E+02 -0.83498573436E+02 -0.24100238947E+02  0.12615328250E+03  0.00000000000E+00 0.  1.
         11    1    5    5    0    0 -0.22881938623E+03  0.30996534193E+02  0.87097076060E+01  0.23107348540E+03  0.00000000000E+00 0.  1.
        -11    1    5    5    0    0 -0.99640121616E+02  0.83371368540E+02 -0.11547134045E+02  0.13043111298E+03  0.00000000000E+00 0. -1.
          1    1    6    6  503    0  0.12443561369E+03  0.32185567224E+02  0.11235154869E+03  0.17071321913E+03  0.00000000000E+00 0. -1.
         -1    1    6    6    0  503  0.33309648857E+03 -0.51744697427E+02  0.37306040276E+03  0.50279702517E+03  0.00000000000E+00 0.  1.
<mgrwt>
<rscale>  0 0.11653510E+04</rscale>
<asrwt>0</asrwt>
<pdfrwt beam="1">  1        2 0.64028016E-01 0.11653510E+04</pdfrwt>
<pdfrwt beam="2">  1       -1 0.12550376E+00 0.11653510E+04</pdfrwt>
<totfact> 0.47686930E+01</totfact>
</mgrwt>
</event>
<event>
12    6  0.1450532E-007  0.2811458E+04  0.7818608E-02  0.8299720E-01
         -1   -1    0    0    0  501 -0.00000000000E+00  0.00000000000E+00  0.24466866457E+04  0.24466866457E+04  0.00000000000E+00 0.  1.
          2   -1    0    0  501    0  0.00000000000E+00 -0.00000000000E+00 -0.80765299001E+03  0.80765299001E+03  0.00000000000E+00 0. -1.
         24    2    1    2    0    0 -0.31164853822E+02  0.93826862700E+03 -0.24605516205E+03  0.97390088205E+03  0.81366582550E+02 0.  0.
        254    2    1    2    0    0  0.31164853822E+02 -0.93826862700E+03  0.18850888178E+04  0.22804387537E+04  0.87494102308E+03 0.  0.
         23    2    4    4    0    0 -0.26019028293E+03 -0.35981020173E+02  0.19284352015E+03  0.33853640885E+03  0.91785945037E+02 0.  0.
         23    2    4    4    0    0  0.29135513675E+03 -0.90228760683E+03  0.16922452976E+04  0.19419023448E+04  0.90993562381E+02 0.  0.
          2    1    3    3  502    0 -0.54492295504E+02  0.69759135360E+03 -0.16540579324E+03  0.71900082290E+03  0.00000000000E+00 0. -1.
         -1    1    3    3    0  502  0.23327441682E+02  0.24067727340E+03 -0.80649368805E+02  0.25490005915E+03  0.00000000000E+00 0.  1.
         11    1    5    5    0    0 -0.17988730470E+03  0.66620458528E+01  0.89973167735E+02  0.20124362390E+03  0.00000000000E+00 0.  1.
        -11    1    5    5    0    0 -0.80302978232E+02 -0.42643066026E+02  0.10287035242E+03  0.13729278495E+03  0.00000000000E+00 0. -1.
          2    1    6    6  503    0  0.17605081522E+02 -0.16328201143E+03  0.27664458140E+03  0.32171909886E+03  0.00000000000E+00 0. -1.
         -2    1    6    6    0  503  0.27375005523E+03 -0.73900559540E+03  0.14156007162E+04  0.16201832460E+04  0.00000000000E+00 0.  1.
<mgrwt>
<rscale>  0 0.28114578E+04</rscale>
<asrwt>0</asrwt>
<pdfrwt beam="1">  1        2 0.12425431E+00 0.28114578E+04</pdfrwt>
<pdfrwt beam="2">  1       -1 0.37641333E+00 0.28114578E+04</pdfrwt>
<totfact> 0.34865672E-01</totfact>
</mgrwt>
</event>
<event>
12    6  0.1450532E-007  0.2220898E+04  0.7818608E-02  0.8509780E-01
          2   -1    0    0  501    0  0.00000000000E+00  0.00000000000E+00  0.17289651406E+04  0.17289651406E+04  0.00000000000E+00 0. -1.
         -1   -1    0    0    0  501 -0.00000000000E+00 -0.00000000000E+00 -0.71319969205E+03  0.71319969205E+03  0.00000000000E+00 0.  1.
         24    2    1    2    0    0  0.83794754162E+03 -0.20693704206E+03  0.79538385795E+03  0.11769107695E+04  0.86628263872E+02 0.  0.
        254    2    1    2    0    0 -0.83794754162E+03  0.20693704206E+03  0.22038159064E+03  0.12652540632E+04  0.89851030988E+03 0.  0.
         23    2    4    4    0    0 -0.16119772533E+03  0.17312945635E+03  0.47318790037E+03  0.53645722458E+03  0.89000277708E+02 0.  0.
         23    2    4    4    0    0 -0.67674981629E+03  0.33807585708E+02 -0.25280630973E+03  0.72879683858E+03  0.90002972088E+02 0.  0.
          2    1    3    3  502    0  0.49842230600E+03 -0.84864221649E+02  0.49265413832E+03  0.70592834710E+03  0.00000000000E+00 0. -1.
         -1    1    3    3    0  502  0.33952523562E+03 -0.12207282041E+03  0.30272971963E+03  0.47098242244E+03  0.00000000000E+00 0.  1.
         11    1    5    5    0    0 -0.41911492911E+02  0.38543119841E+02  0.46835649772E+02  0.73727358657E+02  0.00000000000E+00 0. -1.
        -11    1    5    5    0    0 -0.11928623242E+03  0.13458633651E+03  0.42635225060E+03  0.46272986592E+03  0.00000000000E+00 0.  1.
          3    1    6    6  503    0 -0.16559496970E+03 -0.30158645994E+02 -0.57338827684E+02  0.17781726317E+03  0.00000000000E+00 0. -1.
         -3    1    6    6    0  503 -0.51115484658E+03  0.63966231702E+02 -0.19546748205E+03  0.55097957541E+03  0.00000000000E+00 0.  1.
<mgrwt>
<rscale>  0 0.22208984E+04</rscale>
<asrwt>0</asrwt>
<pdfrwt beam="1">  1        2 0.26599464E+00 0.22208984E+04</pdfrwt>
<pdfrwt beam="2">  1       -1 0.10972303E+00 0.22208984E+04</pdfrwt>
<totfact> 0.75378043E+00</totfact>
</mgrwt>
</event>
<event>
12    6  0.1450532E-007  0.1124444E+04  0.7818608E-02  0.9181689E-01
         -1   -1    0    0    0  501 -0.00000000000E+00  0.00000000000E+00  0.46736425628E+03  0.46736425628E+03  0.00000000000E+00 0.  1.
          2   -1    0    0  501    0  0.00000000000E+00 -0.00000000000E+00 -0.67633293071E+03  0.67633293071E+03  0.00000000000E+00 0. -1.
         24    2    1    2    0    0 -0.15849605747E+03 -0.45342631962E+02 -0.15809950026E+03  0.24326695063E+03  0.83704257844E+02 0.  0.
        254    2    1    2    0    0  0.15849605747E+03  0.45342631962E+02 -0.50869174173E+02  0.90043023636E+03  0.88374769203E+03 0.  0.
         23    2    4    4    0    0  0.46252734916E+03  0.47158344501E+02 -0.24108236931E+03  0.53016337283E+03  0.82444132176E+02 0.  0.
         23    2    4    4    0    0 -0.30403129169E+03 -0.18157125385E+01  0.19021319513E+03  0.37026686353E+03  0.92076965014E+02 0.  0.
          4    1    3    3  502    0 -0.13710910500E+03 -0.44936499885E+02 -0.16647037271E+03  0.22029657439E+03  0.00000000000E+00 0. -1.
         -3    1    3    3    0  502 -0.21386952467E+02 -0.40613207774E+00  0.83708724544E+01  0.22970376243E+02  0.00000000000E+00 0.  1.
         11    1    5    5    0    0  0.59353073404E+02  0.33757380983E+02 -0.26488128223E+02  0.73239122265E+02  0.00000000000E+00 0.  1.
        -11    1    5    5    0    0  0.40317427575E+03  0.13400963517E+02 -0.21459424108E+03  0.45692425057E+03  0.00000000000E+00 0. -1.
          2    1    6    6  503    0 -0.18952285272E+03 -0.38259658388E+02  0.87670331902E+02  0.21229413619E+03  0.00000000000E+00 0. -1.
         -2    1    6    6    0  503 -0.11450843897E+03  0.36443945849E+02  0.10254286323E+03  0.15797272734E+03  0.00000000000E+00 0.  1.
<mgrwt>
<rscale>  0 0.11244445E+04</rscale>
<asrwt>0</asrwt>
<pdfrwt beam="1">  1        2 0.10405122E+00 0.11244445E+04</pdfrwt>
<pdfrwt beam="2">  1       -1 0.71902193E-01 0.11244445E+04</pdfrwt>
<totfact> 0.94636980E+01</totfact>
</mgrwt>
</event>
<event>
12    6  0.1450532E-007  0.1762333E+04  0.7818608E-02  0.8726591E-01
         -1   -1    0    0    0  501 -0.00000000000E+00  0.00000000000E+00  0.12693118352E+04  0.12693118352E+04  0.00000000000E+00 0.  1.
          2   -1    0    0  501    0  0.00000000000E+00 -0.00000000000E+00 -0.61171285973E+03  0.61171285973E+03  0.00000000000E+00 0. -1.
         24    2    1    2    0    0  0.17304836398E+03 -0.59404952200E+03  0.25364432222E+02  0.62460068026E+03  0.81498984616E+02 0.  0.
        254    2    1    2    0    0 -0.17304836398E+03  0.59404952200E+03  0.63223454329E+03  0.12564240147E+04  0.89221085857E+03 0.  0.
         23    2    4    4    0    0 -0.18604721622E+03 -0.12546139650E+03  0.44556015057E+03  0.50739539869E+03  0.92585712487E+02 0.  0.
         23    2    4    4    0    0  0.12998852242E+02  0.71951091850E+03  0.18667439272E+03  0.74902861603E+03  0.91277635425E+02 0.  0.
          2    1    3    3  502    0  0.11022035518E+03 -0.37371788424E+03  0.55305758222E+02  0.39353819458E+03  0.00000000000E+00 0. -1.
         -1    1    3    3    0  502  0.62828008797E+02 -0.22033163776E+03 -0.29941326001E+02  0.23106248568E+03  0.00000000000E+00 0.  1.
         11    1    5    5    0    0 -0.62144998335E+02 -0.20661572296E+02  0.58973250621E+02  0.88129142039E+02  0.00000000000E+00 0.  1.
        -11    1    5    5    0    0 -0.12390221788E+03 -0.10479982420E+03  0.38658689995E+03  0.41926625665E+03  0.00000000000E+00 0. -1.
          2    1    6    6  503    0 -0.10815333077E+02  0.18138168299E+03  0.93818926855E+01  0.18194588828E+03  0.00000000000E+00 0. -1.
         -2    1    6    6    0  503  0.23814185319E+02  0.53812923551E+03  0.17729250004E+03  0.56708272774E+03  0.00000000000E+00 0.  1.
<mgrwt>
<rscale>  0 0.17623330E+04</rscale>
<asrwt>0</asrwt>
<pdfrwt beam="1">  1        2 0.94109671E-01 0.17623330E+04</pdfrwt>
<pdfrwt beam="2">  1       -1 0.19527874E+00 0.17623330E+04</pdfrwt>
<totfact> 0.85023050E+00</totfact>
</mgrwt>
</event>
<event>
12    6  0.1450532E-007  0.1212198E+04  0.7818608E-02  0.9102246E-01
         -1   -1    0    0    0  501 -0.00000000000E+00  0.00000000000E+00  0.88259482553E+03  0.88259482553E+03  0.00000000000E+00 0.  1.
          2   -1    0    0  501    0  0.00000000000E+00 -0.00000000000E+00 -0.41622287470E+03  0.41622287470E+03  0.00000000000E+00 0. -1.
         24    2    1    2    0    0  0.18819952234E+03 -0.49589721819E+01  0.30904731013E+03  0.37035080089E+03  0.78777053851E+02 0.  0.
        254    2    1    2    0    0 -0.18819952234E+03  0.49589721819E+01  0.15732464070E+03  0.92846689933E+03  0.89546417514E+03 0.  0.
         23    2    4    4    0    0 -0.25349255857E+03 -0.10812886603E+02  0.49893375916E+03  0.56820292738E+03  0.97694804783E+02 0.  0.
         23    2    4    4    0    0  0.65293036231E+02  0.15771858785E+02 -0.34160911846E+03  0.36026397195E+03  0.92635887031E+02 0.  0.
          4    1    3    3  502    0  0.17550557809E+03 -0.17666435350E+02  0.23315545303E+03  0.29236240552E+03  0.00000000000E+00 0. -1.
         -3    1    3    3    0  502  0.12693944245E+02  0.12707463168E+02  0.75891857094E+02  0.77988395380E+02  0.00000000000E+00 0.  1.
         11    1    5    5    0    0 -0.25046055316E+03 -0.18425675209E+02  0.42378777326E+03  0.49261148075E+03  0.00000000000E+00 0. -1.
        -11    1    5    5    0    0 -0.30320054117E+01  0.76127886060E+01  0.75145985896E+02  0.75591446629E+02  0.00000000000E+00 0.  1.
          1    1    6    6  503    0  0.85688734903E+02  0.12414467808E+02 -0.21171464724E+03  0.22873515287E+03  0.00000000000E+00 0. -1.
         -1    1    6    6    0  503 -0.20395698672E+02  0.33573909776E+01 -0.12989447122E+03  0.13152881909E+03  0.00000000000E+00 0.  1.
<mgrwt>
<rscale>  0 0.12121983E+04</rscale>
<asrwt>0</asrwt>
<pdfrwt beam="1">  1        2 0.64034289E-01 0.12121983E+04</pdfrwt>
<pdfrwt beam="2">  1       -1 0.13578382E+00 0.12121983E+04</pdfrwt>
<totfact> 0.38934461E+01</totfact>
</mgrwt>
</event>
<event>
12    6  0.1450532E-007  0.1195677E+04  0.7818608E-02  0.9116649E-01
         -1   -1    0    0    0  501 -0.00000000000E+00  0.00000000000E+00  0.20509085380E+03  0.20509085380E+03  0.00000000000E+00 0.  1.
          2   -1    0    0  501    0  0.00000000000E+00 -0.00000000000E+00 -0.17426954570E+04  0.17426954570E+04  0.00000000000E+00 0. -1.
         24    2    1    2    0    0  0.11375730402E+03 -0.22851003975E+03 -0.35278198025E+03  0.44180037495E+03  0.74665140683E+02 0.  0.
        254    2    1    2    0    0 -0.11375730402E+03  0.22851003975E+03 -0.11848226229E+04  0.15059859358E+04  0.89388557914E+03 0.  0.
         23    2    4    4    0    0  0.15050804195E+03  0.20823463960E+03  0.15608107993E+02  0.27324726506E+03  0.91684889727E+02 0.  0.
         23    2    4    4    0    0 -0.26426534597E+03  0.20275400151E+02 -0.12004307309E+04  0.12327386707E+04  0.91451767233E+02 0.  0.
          2    1    3    3  502    0  0.29158536216E+02 -0.92114128833E+02 -0.19024036427E+03  0.21336970067E+03  0.00000000000E+00 0. -1.
         -1    1    3    3    0  502  0.84598767800E+02 -0.13639591092E+03 -0.16254161598E+03  0.22843067428E+03  0.00000000000E+00 0.  1.
         11    1    5    5    0    0  0.13209608803E+02  0.40101041849E+02  0.35642612826E+02  0.55253806848E+02  0.00000000000E+00 0. -1.
        -11    1    5    5    0    0  0.13729843315E+03  0.16813359775E+03 -0.20034504833E+02  0.21799345821E+03  0.00000000000E+00 0.  1.
          3    1    6    6  503    0 -0.12018067089E+03  0.44511647693E+02 -0.69032195943E+03  0.70211757428E+03  0.00000000000E+00 0. -1.
         -3    1    6    6    0  503 -0.14408467508E+03 -0.24236247542E+02 -0.51010877146E+03  0.53062109646E+03  0.00000000000E+00 0.  1.
<mgrwt>
<rscale>  0 0.11956770E+04</rscale>
<asrwt>0</asrwt>
<pdfrwt beam="1">  1        2 0.26810699E+00 0.11956770E+04</pdfrwt>
<pdfrwt beam="2">  1       -1 0.31552439E-01 0.11956770E+04</pdfrwt>
<totfact> 0.97467283E+01</totfact>
</mgrwt>
</event>
<event>
12    6  0.1450532E-007  0.1726786E+04  0.7818608E-02  0.8746233E-01
         -1   -1    0    0    0  501 -0.00000000000E+00  0.00000000000E+00  0.74069121580E+03  0.74069121580E+03  0.00000000000E+00 0.  1.
          2   -1    0    0  501    0  0.00000000000E+00 -0.00000000000E+00 -0.10064218741E+04  0.10064218741E+04  0.00000000000E+00 0. -1.
         24    2    1    2    0    0 -0.13482254298E+03  0.51759063323E+01  0.45611569554E+03  0.48250660976E+03  0.81038217169E+02 0.  0.
        254    2    1    2    0    0  0.13482254298E+03 -0.51759063323E+01 -0.72184635388E+03  0.12646064802E+04  0.10295452797E+04 0.  0.
         23    2    4    4    0    0  0.24962113382E+03  0.38850089293E+03 -0.50948556498E+02  0.47297465200E+03  0.88688284291E+02 0.  0.
         23    2    4    4    0    0 -0.11479859085E+03 -0.39367679926E+03 -0.67089779738E+03  0.79163182817E+03  0.91743981324E+02 0.  0.
          2    1    3    3  502    0  0.31108103153E+01 -0.81152464107E+01  0.10004912393E+03  0.10042590086E+03  0.00000000000E+00 0. -1.
         -1    1    3    3    0  502 -0.13793335329E+03  0.13291152743E+02  0.35606657161E+03  0.38208070890E+03  0.00000000000E+00 0.  1.
         11    1    5    5    0    0  0.15207228001E+03  0.26117765510E+03 -0.73411953175E+02  0.31101295912E+03  0.00000000000E+00 0. -1.
        -11    1    5    5    0    0  0.97548853816E+02  0.12732323783E+03  0.22463396677E+02  0.16196169288E+03  0.00000000000E+00 0.  1.
          1    1    6    6  503    0  0.14982176120E+02 -0.67806315577E+02 -0.10929579788E+03  0.12949028329E+03  0.00000000000E+00 0. -1.
         -1    1    6    6    0  503 -0.12978076697E+03 -0.32587048368E+03 -0.56160199951E+03  0.66214154488E+03  0.00000000000E+00 0.  1.
<mgrwt>
<rscale>  0 0.17267864E+04</rscale>
<asrwt>0</asrwt>
<pdfrwt beam="1">  1        2 0.15483413E+00 0.17267864E+04</pdfrwt>
<pdfrwt beam="2">  1       -1 0.11395250E+00 0.17267864E+04</pdfrwt>
<totfact> 0.18967919E+01</totfact>
</mgrwt>
</event>
<event>
12    6  0.1450532E-007  0.1229146E+04  0.7818608E-02  0.9087721E-01
         -1   -1    0    0    0  501 -0.00000000000E+00  0.00000000000E+00  0.43267882615E+03  0.43267882615E+03  0.00000000000E+00 0.  1.
          2   -1    0    0  501    0  0.00000000000E+00 -0.00000000000E+00 -0.87293367735E+03  0.87293367735E+03  0.00000000000E+00 0. -1.
         24    2    1    2    0    0  0.42710708787E+01 -0.48048125144E+02 -0.39659988584E+03  0.40716424379E+03  0.78513614094E+02 0.  0.
        254    2    1    2    0    0 -0.42710708787E+01  0.48048125144E+02 -0.43654965355E+02  0.89844825970E+03  0.89608964674E+03 0.  0.
         23    2    4    4    0    0 -0.15789387151E+03  0.41375206914E+03  0.10658884906E+03  0.46464153563E+03  0.91702369152E+02 0.  0.
         23    2    4    4    0    0  0.15362280063E+03 -0.36570394400E+03 -0.15024381442E+03  0.43380672407E+03  0.90971042374E+02 0.  0.
          2    1    3    3  502    0 -0.11159791896E+01 -0.69099386646E+02 -0.26947052149E+03  0.27819117994E+03  0.00000000000E+00 0. -1.
         -1    1    3    3    0  502  0.53870500683E+01  0.21051261502E+02 -0.12712936435E+03  0.12897306385E+03  0.00000000000E+00 0.  1.
         11    1    5    5    0    0 -0.88943111536E+02  0.21649508643E+03  0.95497533934E+01  0.23424815331E+03  0.00000000000E+00 0.  1.
        -11    1    5    5    0    0 -0.68950759972E+02  0.19725698272E+03  0.97039095670E+02  0.23039338233E+03  0.00000000000E+00 0. -1.
          2    1    6    6  503    0  0.39892814121E+02 -0.10879557905E+03 -0.89352686044E+02  0.14632777297E+03  0.00000000000E+00 0. -1.
         -2    1    6    6    0  503  0.11372998651E+03 -0.25690836495E+03 -0.60891128374E+02  0.28747895111E+03  0.00000000000E+00 0.  1.
<mgrwt>
<rscale>  0 0.12291459E+04</rscale>
<asrwt>0</asrwt>
<pdfrwt beam="1">  1        2 0.13429749E+00 0.12291459E+04</pdfrwt>
<pdfrwt beam="2">  1       -1 0.66565974E-01 0.12291459E+04</pdfrwt>
<totfact> 0.78659384E+01</totfact>
</mgrwt>
</event>
<event>
12    6  0.1450532E-007  0.1791305E+04  0.7818608E-02  0.8710937E-01
          2   -1    0    0  501    0  0.00000000000E+00  0.00000000000E+00  0.43326971934E+03  0.43326971934E+03  0.00000000000E+00 0. -1.
         -1   -1    0    0    0  501 -0.00000000000E+00 -0.00000000000E+00 -0.18514868870E+04  0.18514868870E+04  0.00000000000E+00 0.  1.
         24    2    1    2    0    0 -0.63284225463E+03  0.19778248827E+03 -0.57982937533E+03  0.88442495246E+03  0.79988500011E+02 0.  0.
        254    2    1    2    0    0  0.63284225463E+03 -0.19778248827E+03 -0.83838779234E+03  0.14003316539E+04  0.90466978428E+03 0.  0.
         23    2    4    4    0    0  0.23538898933E+03  0.80562772834E+02  0.14358989092E+03  0.30119417080E+03  0.90562327064E+02 0.  0.
         23    2    4    4    0    0  0.39745326530E+03 -0.27834526111E+03 -0.98197768325E+03  0.10991374831E+04  0.91530616860E+02 0.  0.
          2    1    3    3  502    0 -0.47929288874E+03  0.14230070496E+03 -0.39033105125E+03  0.63429448476E+03  0.00000000000E+00 0. -1.
         -3    1    3    3    0  502 -0.15354936589E+03  0.55481783311E+02 -0.18949832407E+03  0.25013046770E+03  0.00000000000E+00 0.  1.
         11    1    5    5    0    0  0.21614425349E+03  0.77199852823E+02  0.15648375086E+03  0.27778646453E+03  0.00000000000E+00 0.  1.
        -11    1    5    5    0    0  0.19244735842E+02  0.33629200109E+01 -0.12893859940E+02  0.23407706269E+02  0.00000000000E+00 0. -1.
          3    1    6    6  503    0  0.17485292142E+03 -0.78890120412E+02 -0.44494513657E+03  0.48453417814E+03  0.00000000000E+00 0. -1.
         -3    1    6    6    0  503  0.22260034388E+03 -0.19945514070E+03 -0.53703254668E+03  0.61460330494E+03  0.00000000000E+00 0.  1.
<mgrwt>
<rscale>  0 0.17913048E+04</rscale>
<asrwt>0</asrwt>
<pdfrwt beam="1">  1        2 0.66656880E-01 0.17913048E+04</pdfrwt>
<pdfrwt beam="2">  1       -1 0.28484413E+00 0.17913048E+04</pdfrwt>
<totfact> 0.32502688E+00</totfact>
</mgrwt>
</event>
<event>
12    6  0.1450532E-007  0.3015962E+04  0.7818608E-02  0.8239188E-01
          2   -1    0    0  501    0  0.00000000000E+00  0.00000000000E+00  0.24226305931E+04  0.24226305931E+04  0.00000000000E+00 0. -1.
         -1   -1    0    0    0  501 -0.00000000000E+00 -0.00000000000E+00 -0.93865156420E+03  0.93865156420E+03  0.00000000000E+00 0.  1.
         24    2    1    2    0    0 -0.61782193388E+03 -0.12254766401E+04  0.74374823917E+03  0.15625771908E+04  0.70633535887E+02 0.  0.
        254    2    1    2    0    0  0.61782193388E+03  0.12254766401E+04  0.74023078972E+03  0.17987049665E+04  0.89660526276E+03 0.  0.
         23    2    4    4    0    0  0.54112015550E+03  0.30290610556E+03  0.29596863347E+02  0.62770289071E+03  0.92584087185E+02 0.  0.
         23    2    4    4    0    0  0.76701778374E+02  0.92257053454E+03  0.71063392638E+03  0.11710020758E+04  0.96050665277E+02 0.  0.
          2    1    3    3  502    0 -0.19889638149E+03 -0.43083051381E+03  0.29068285109E+03  0.55648110671E+03  0.00000000000E+00 0. -1.
         -3    1    3    3    0  502 -0.41892555238E+03 -0.79464612629E+03  0.45306538808E+03  0.10060960841E+04  0.00000000000E+00 0.  1.
         11    1    5    5    0    0 -0.79618406524E+00 -0.39444748422E+01  0.15466724658E+01  0.43110308005E+01  0.00000000000E+00 0. -1.
        -11    1    5    5    0    0  0.54191633957E+03  0.30685058040E+03  0.28050190881E+02  0.62339185991E+03  0.00000000000E+00 0.  1.
          4    1    6    6  503    0  0.25187832742E+02  0.15446774927E+03  0.79568475665E+02  0.17557293300E+03  0.00000000000E+00 0. -1.
         -4    1    6    6    0  503  0.51513945633E+02  0.76810278527E+03  0.63106545071E+03  0.99542914284E+03  0.00000000000E+00 0.  1.
<mgrwt>
<rscale>  0 0.30159615E+04</rscale>
<asrwt>0</asrwt>
<pdfrwt beam="1">  1        2 0.37271240E+00 0.30159615E+04</pdfrwt>
<pdfrwt beam="2">  1       -1 0.14440793E+00 0.30159615E+04</pdfrwt>
<totfact> 0.14479778E+00</totfact>
</mgrwt>
</event>
<event>
12    6  0.1450532E-007  0.1722522E+04  0.7818608E-02  0.8748623E-01
          2   -1    0    0  501    0  0.00000000000E+00  0.00000000000E+00  0.23282229748E+04  0.23282229748E+04  0.00000000000E+00 0. -1.
         -1   -1    0    0    0  501 -0.00000000000E+00 -0.00000000000E+00 -0.31859930776E+03  0.31859930776E+03  0.00000000000E+00 0.  1.
         24    2    1    2    0    0 -0.34645079420E+03 -0.25953579269E+03  0.45119248018E+02  0.44262468862E+03  0.80584663174E+02 0.  0.
        254    2    1    2    0    0  0.34645079420E+03  0.25953579269E+03  0.19645044190E+04  0.22041975939E+04  0.90101189798E+03 0.  0.
         23    2    4    4    0    0  0.12799648402E+03  0.21719422284E+03  0.19452332438E+04  0.19636511898E+04  0.91854190957E+02 0.  0.
         23    2    4    4    0    0  0.21845431018E+03  0.42341569851E+02  0.19271175224E+02  0.24054640406E+03  0.89309014873E+02 0.  0.
          4    1    3    3  502    0 -0.16027233568E+03 -0.16102909766E+03  0.46897443594E+02  0.23198483160E+03  0.00000000000E+00 0. -1.
         -3    1    3    3    0  502 -0.18617845852E+03 -0.98506695033E+02 -0.17781955758E+01  0.21063985701E+03  0.00000000000E+00 0.  1.
         11    1    5    5    0    0  0.29155072402E+02  0.25752277509E+02  0.13053718860E+03  0.13620996899E+03  0.00000000000E+00 0. -1.
        -11    1    5    5    0    0  0.98841411616E+02  0.19144194533E+03  0.18146960552E+04  0.18274412209E+04  0.00000000000E+00 0.  1.
          1    1    6    6  503    0  0.12731858461E+02  0.30732294337E+02  0.78583950423E+01  0.34180820758E+02  0.00000000000E+00 0. -1.
         -1    1    6    6    0  503  0.20572245172E+03  0.11609275514E+02  0.11412780181E+02  0.20636558330E+03  0.00000000000E+00 0.  1.
<mgrwt>
<rscale>  0 0.17225217E+04</rscale>
<asrwt>0</asrwt>
<pdfrwt beam="1">  1        2 0.35818814E+00 0.17225217E+04</pdfrwt>
<pdfrwt beam="2">  1       -1 0.49015280E-01 0.17225217E+04</pdfrwt>
<totfact> 0.19718165E+01</totfact>
</mgrwt>
</event>
<event>
12    6  0.1450532E-007  0.2222498E+04  0.7818608E-02  0.8509122E-01
          2   -1    0    0  501    0  0.00000000000E+00  0.00000000000E+00  0.11328322638E+04  0.11328322638E+04  0.00000000000E+00 0. -1.
         -3   -1    0    0    0  501 -0.00000000000E+00 -0.00000000000E+00 -0.10900772010E+04  0.10900772010E+04  0.00000000000E+00 0.  1.
         24    2    1    2    0    0 -0.46594740786E+03  0.36283281640E+03 -0.70163085428E+03  0.92055179497E+03  0.79844298435E+02 0.  0.
        254    2    1    2    0    0  0.46594740786E+03 -0.36283281640E+03  0.74438591711E+03  0.13023576699E+04  0.89065732308E+03 0.  0.
         23    2    4    4    0    0 -0.22429210065E+03  0.69015887141E+01  0.42338846264E+02  0.24663895877E+03  0.93185941752E+02 0.  0.
         23    2    4    4    0    0  0.69023950851E+03 -0.36973440511E+03  0.70204707085E+03  0.10557187111E+04  0.92400204929E+02 0.  0.
          4    1    3    3  502    0 -0.45676123496E+02  0.11128744939E+02 -0.42651478631E+02  0.63476813490E+02  0.00000000000E+00 0. -1.
         -3    1    3    3    0  502 -0.42027128437E+03  0.35170407146E+03 -0.65897937565E+03  0.85707498148E+03  0.00000000000E+00 0.  1.
         11    1    5    5    0    0 -0.89816269588E+02  0.46963802701E+02  0.30404297996E+02  0.10581579458E+03  0.00000000000E+00 0. -1.
        -11    1    5    5    0    0 -0.13447583106E+03 -0.40062213987E+02  0.11934548267E+02  0.14082316419E+03  0.00000000000E+00 0.  1.
          3    1    6    6  503    0  0.25822248928E+03 -0.18611484060E+03  0.26140276445E+03  0.41188468426E+03  0.00000000000E+00 0. -1.
         -3    1    6    6    0  503  0.43201701923E+03 -0.18361956451E+03  0.44064430640E+03  0.64383402685E+03  0.00000000000E+00 0.  1.
<mgrwt>
<rscale>  0 0.22224983E+04</rscale>
<asrwt>0</asrwt>
<pdfrwt beam="1">  1        2 0.17428189E+00 0.22224983E+04</pdfrwt>
<pdfrwt beam="2">  1       -3 0.16770418E+00 0.22224983E+04</pdfrwt>
<totfact> 0.28750775E+00</totfact>
</mgrwt>
</event>
<event>
12    6  0.1450532E-007  0.2499829E+04  0.7818608E-02  0.8403046E-01
          2   -1    0    0  501    0  0.00000000000E+00  0.00000000000E+00  0.19554288224E+04  0.19554288224E+04  0.00000000000E+00 0. -1.
         -1   -1    0    0    0  501 -0.00000000000E+00 -0.00000000000E+00 -0.79894840602E+03  0.79894840602E+03  0.00000000000E+00 0.  1.
         24    2    1    2    0    0  0.95494462282E+03 -0.18532590634E+03  0.10030574846E+04  0.13996047754E+04  0.80649152511E+02 0.  0.
        254    2    1    2    0    0 -0.95494462282E+03  0.18532590634E+03  0.15342293181E+03  0.13547724530E+04  0.93037889014E+03 0.  0.
         23    2    4    4    0    0 -0.25416768359E+03  0.40341361891E+03 -0.21194890903E+03  0.52994903365E+03  0.92627635888E+02 0.  0.
         23    2    4    4    0    0 -0.70077693923E+03 -0.21808771256E+03  0.36537184084E+03  0.82482341936E+03  0.90479401630E+02 0.  0.
          4    1    3    3  502    0  0.17148379354E+03 -0.29589604988E+01  0.18674398551E+03  0.25355228853E+03  0.00000000000E+00 0. -1.
         -3    1    3    3    0  502  0.78346082929E+03 -0.18236694585E+03  0.81631349909E+03  0.11460524869E+04  0.00000000000E+00 0.  1.
         11    1    5    5    0    0 -0.88577022945E+02  0.14558871805E+03 -0.28421330480E+02  0.17277076096E+03  0.00000000000E+00 0.  1.
        -11    1    5    5    0    0 -0.16559066065E+03  0.25782490086E+03 -0.18352757855E+03  0.35717827269E+03  0.00000000000E+00 0. -1.
          3    1    6    6  503    0 -0.60790777381E+03 -0.15681415135E+03  0.30033788017E+03  0.69594926668E+03  0.00000000000E+00 0. -1.
         -3    1    6    6    0  503 -0.92869165421E+02 -0.61273561215E+02  0.65033960672E+02  0.12887415269E+03  0.00000000000E+00 0.  1.
<mgrwt>
<rscale>  0 0.24998294E+04</rscale>
<asrwt>0</asrwt>
<pdfrwt beam="1">  1        2 0.30083520E+00 0.24998294E+04</pdfrwt>
<pdfrwt beam="2">  1       -1 0.12291514E+00 0.24998294E+04</pdfrwt>
<totfact> 0.41890854E+00</totfact>
</mgrwt>
</event>
<event>
12    6  0.1450532E-007  0.2952806E+04  0.7818608E-02  0.8257337E-01
          2   -1    0    0  501    0  0.00000000000E+00  0.00000000000E+00  0.28616126645E+04  0.28616126645E+04  0.00000000000E+00 0. -1.
         -1   -1    0    0    0  501 -0.00000000000E+00 -0.00000000000E+00 -0.76172619199E+03  0.76172619199E+03  0.00000000000E+00 0.  1.
         24    2    1    2    0    0  0.39314348164E+03  0.12665680263E+04  0.11776464714E+04  0.17754082791E+04  0.80417558623E+02 0.  0.
        254    2    1    2    0    0 -0.39314348164E+03 -0.12665680263E+04  0.92224000115E+03  0.18479305774E+04  0.89753241546E+03 0.  0.
         23    2    4    4    0    0 -0.49567913455E+03 -0.42103401616E+03  0.70642456005E+03  0.96433798558E+03  0.89132733691E+02 0.  0.
         23    2    4    4    0    0  0.10253565291E+03 -0.84553401010E+03  0.21581544110E+03  0.88359259179E+03  0.93371522979E+02 0.  0.
          2    1    3    3  502    0  0.31190608618E+03  0.91405378658E+03  0.82476865721E+03  0.12700484515E+04  0.00000000000E+00 0. -1.
         -1    1    3    3    0  502  0.81237395451E+02  0.35251423968E+03  0.35287781416E+03  0.50535982757E+03  0.00000000000E+00 0.  1.
         11    1    5    5    0    0 -0.39555305802E+03 -0.37250610240E+03  0.55798103363E+03  0.77882337659E+03  0.00000000000E+00 0.  1.
        -11    1    5    5    0    0 -0.10012607653E+03 -0.48527913754E+02  0.14844352641E+03  0.18551460899E+03  0.00000000000E+00 0. -1.
          4    1    6    6  503    0 -0.15764268810E+02 -0.17482505396E+03  0.52610413574E+02  0.18324892163E+03  0.00000000000E+00 0. -1.
         -4    1    6    6    0  503  0.11829992172E+03 -0.67070895614E+03  0.16320502753E+03  0.70034367016E+03  0.00000000000E+00 0.  1.
<mgrwt>
<rscale>  0 0.29528057E+04</rscale>
<asrwt>0</asrwt>
<pdfrwt beam="1">  1        2 0.44024810E+00 0.29528057E+04</pdfrwt>
<pdfrwt beam="2">  1       -1 0.11718865E+00 0.29528057E+04</pdfrwt>
<totfact> 0.13578981E+00</totfact>
</mgrwt>
</event>
<event>
12    6  0.1450532E-007  0.1700051E+04  0.7818608E-02  0.8761335E-01
          2   -1    0    0  501    0  0.00000000000E+00  0.00000000000E+00  0.11990809638E+04  0.11990809638E+04  0.00000000000E+00 0. -1.
         -1   -1    0    0    0  501 -0.00000000000E+00 -0.00000000000E+00 -0.60258103913E+03  0.60258103913E+03  0.00000000000E+00 0.  1.
         24    2    1    2    0    0 -0.56846205657E+03 -0.36754357204E+02 -0.87351511611E+01  0.57539546990E+03  0.80645219180E+02 0.  0.
        254    2    1    2    0    0  0.56846205657E+03  0.36754357204E+02  0.60523507579E+03  0.12262665330E+04  0.90162082963E+03 0.  0.
         23    2    4    4    0    0  0.18400677463E+03  0.35696328498E+02 -0.22474622674E+03  0.30696729115E+03  0.92657058167E+02 0.  0.
         23    2    4    4    0    0  0.38445528195E+03  0.10580287064E+01  0.82998130252E+03  0.91929924183E+03  0.91843074024E+02 0.  0.
          4    1    3    3  502    0 -0.38980884165E+03  0.97412785355E+01  0.81917168274E+01  0.39001657626E+03  0.00000000000E+00 0. -1.
         -3    1    3    3    0  502 -0.17865321493E+03 -0.46495635740E+02 -0.16926867989E+02  0.18537889364E+03  0.00000000000E+00 0.  1.
         11    1    5    5    0    0  0.11816066620E+03 -0.15570711997E+02 -0.16827194633E+03  0.20620338996E+03  0.00000000000E+00 0.  1.
        -11    1    5    5    0    0  0.65846108433E+02  0.51267040495E+02 -0.56474280406E+02  0.10076390120E+03  0.00000000000E+00 0. -1.
          2    1    6    6  503    0  0.10966099864E+03 -0.41004134120E+02  0.23266026298E+03  0.26045665975E+03  0.00000000000E+00 0. -1.
         -2    1    6    6    0  503  0.27479428331E+03  0.42062162826E+02  0.59732103955E+03  0.65884258208E+03  0.00000000000E+00 0.  1.
<mgrwt>
<rscale>  0 0.17000511E+04</rscale>
<asrwt>0</asrwt>
<pdfrwt beam="1">  1        2 0.18447399E+00 0.17000511E+04</pdfrwt>
<pdfrwt beam="2">  1       -1 0.92704776E-01 0.17000511E+04</pdfrwt>
<totfact> 0.23277147E+01</totfact>
</mgrwt>
</event>
<event>
12    6  0.1450532E-007  0.2727083E+04  0.7818608E-02  0.8326271E-01
         -1   -1    0    0    0  501 -0.00000000000E+00  0.00000000000E+00  0.57766493522E+03  0.57766493522E+03  0.00000000000E+00 0.  1.
          2   -1    0    0  501    0  0.00000000000E+00 -0.00000000000E+00 -0.32185535643E+04  0.32185535643E+04  0.00000000000E+00 0. -1.
         24    2    1    2    0    0  0.92685888230E+03  0.74595558526E+03 -0.15339219490E+04  0.19428175651E+04  0.78143602992E+02 0.  0.
        254    2    1    2    0    0 -0.92685888230E+03 -0.74595558526E+03 -0.11069666801E+04  0.18534009344E+04  0.89118049245E+03 0.  0.
         23    2    4    4    0    0 -0.87739221342E+03 -0.57027338067E+03 -0.12279010695E+04  0.16158964844E+04  0.91387017386E+02 0.  0.
         23    2    4    4    0    0 -0.49466668883E+02 -0.17568220459E+03  0.12093438939E+03  0.23750445007E+03  0.92043733777E+02 0.  0.
          4    1    3    3  502    0  0.78825726494E+03  0.62210455373E+03 -0.13359115346E+04  0.16712340410E+04  0.00000000000E+00 0. -1.
         -3    1    3    3    0  502  0.13860161736E+03  0.12385103152E+03 -0.19801041442E+03  0.27158352410E+03  0.00000000000E+00 0.  1.
         11    1    5    5    0    0 -0.43321263419E+03 -0.33319388667E+03 -0.66144150932E+03  0.85801877764E+03  0.00000000000E+00 0. -1.
        -11    1    5    5    0    0 -0.44417957922E+03 -0.23707949400E+03 -0.56645956014E+03  0.75787770672E+03  0.00000000000E+00 0.  1.
          3    1    6    6  503    0 -0.57537732732E+02 -0.44397219485E+02  0.48119327928E+02  0.87161766310E+02  0.00000000000E+00 0. -1.
         -3    1    6    6    0  503  0.80710638491E+01 -0.13128498510E+03  0.72815061461E+02  0.15034268376E+03  0.00000000000E+00 0.  1.
<mgrwt>
<rscale>  0 0.27270831E+04</rscale>
<asrwt>0</asrwt>
<pdfrwt beam="1">  1        2 0.49516210E+00 0.27270831E+04</pdfrwt>
<pdfrwt beam="2">  1       -1 0.88871525E-01 0.27270831E+04</pdfrwt>
<totfact> 0.15580689E+00</totfact>
</mgrwt>
</event>
<event>
12    6  0.1450532E-007  0.2480691E+04  0.7818608E-02  0.8409897E-01
          2   -1    0    0  501    0  0.00000000000E+00  0.00000000000E+00  0.16579016959E+04  0.16579016959E+04  0.00000000000E+00 0. -1.
         -1   -1    0    0    0  501 -0.00000000000E+00 -0.00000000000E+00 -0.92795422268E+03  0.92795422268E+03  0.00000000000E+00 0.  1.
         24    2    1    2    0    0  0.63081479336E+03 -0.71563418860E+03  0.83554536675E+03  0.12707093931E+04  0.80664158728E+02 0.  0.
        254    2    1    2    0    0 -0.63081479336E+03  0.71563418860E+03 -0.10559789357E+03  0.13151465254E+04  0.89911060095E+03 0.  0.
         23    2    4    4    0    0  0.48451520436E+01  0.24831656559E+03  0.31891329648E+03  0.41469887348E+03  0.92654588388E+02 0.  0.
         23    2    4    4    0    0 -0.63565994540E+03  0.46731762301E+03 -0.42451119005E+03  0.90044765192E+03  0.90260159602E+02 0.  0.
          4    1    3    3  502    0  0.53317670831E+03 -0.58398195896E+03  0.72659134486E+03  0.10738935297E+04  0.00000000000E+00 0. -1.
         -3    1    3    3    0  502  0.97638085053E+02 -0.13165222964E+03  0.10895402188E+03  0.19681586345E+03  0.00000000000E+00 0.  1.
         11    1    5    5    0    0  0.94018039510E+01  0.24560411948E+03  0.32444818639E+03  0.40703366332E+03  0.00000000000E+00 0. -1.
        -11    1    5    5    0    0 -0.45566519074E+01  0.27124461061E+01 -0.55348899092E+01  0.76652101596E+01  0.00000000000E+00 0.  1.
          1    1    6    6  503    0 -0.56482439867E+03  0.40116819579E+03 -0.33940439318E+03  0.77146475276E+03  0.00000000000E+00 0. -1.
         -1    1    6    6    0  503 -0.70835546734E+02  0.66149427226E+02 -0.85106796867E+02  0.12898289916E+03  0.00000000000E+00 0.  1.
<mgrwt>
<rscale>  0 0.24806909E+04</rscale>
<asrwt>0</asrwt>
<pdfrwt beam="1">  1        2 0.25506180E+00 0.24806909E+04</pdfrwt>
<pdfrwt beam="2">  1       -1 0.14276219E+00 0.24806909E+04</pdfrwt>
<totfact> 0.41921807E+00</totfact>
</mgrwt>
</event>
<event>
12    6  0.1450532E-007  0.1172673E+04  0.7818608E-02  0.9137118E-01
         -1   -1    0    0    0  501 -0.00000000000E+00  0.00000000000E+00  0.54955781899E+03  0.54955781899E+03  0.00000000000E+00 0.  1.
          2   -1    0    0  501    0  0.00000000000E+00 -0.00000000000E+00 -0.62557680546E+03  0.62557680546E+03  0.00000000000E+00 0. -1.
         24    2    1    2    0    0  0.23670619277E+03  0.11918259524E+02 -0.22305589599E+02  0.25034899110E+03  0.77493299127E+02 0.  0.
        254    2    1    2    0    0 -0.23670619277E+03 -0.11918259524E+02 -0.53713396869E+02  0.92478563335E+03  0.89228441208E+03 0.  0.
         23    2    4    4    0    0 -0.11070549498E+02  0.31860731364E+03  0.24905041489E+03  0.41466204418E+03  0.91023757109E+02 0.  0.
         23    2    4    4    0    0 -0.22563564328E+03 -0.33052557316E+03 -0.30276381176E+03  0.51012358917E+03  0.91659983033E+02 0.  0.
          4    1    3    3  502    0  0.20217463897E+02  0.27152272570E+01  0.21112733816E+02  0.29357551578E+02  0.00000000000E+00 0. -1.
         -3    1    3    3    0  502  0.21648872888E+03  0.92030322668E+01 -0.43418323415E+02  0.22099143952E+03  0.00000000000E+00 0.  1.
         11    1    5    5    0    0 -0.11170647574E+02  0.87516084147E+02  0.22511896462E+02  0.91052917767E+02  0.00000000000E+00 0. -1.
        -11    1    5    5    0    0  0.10009807630E+00  0.23109122949E+03  0.22653851843E+03  0.32360912641E+03  0.00000000000E+00 0.  1.
          4    1    6    6  503    0 -0.14529858909E+02 -0.66525008601E+02 -0.24738295158E+02  0.72447752323E+02  0.00000000000E+00 0. -1.
         -4    1    6    6    0  503 -0.21110578437E+03 -0.26400056456E+03 -0.27802551660E+03  0.43767583685E+03  0.00000000000E+00 0.  1.
<mgrwt>
<rscale>  0 0.11726732E+04</rscale>
<asrwt>0</asrwt>
<pdfrwt beam="1">  1        2 0.96242585E-01 0.11726732E+04</pdfrwt>
<pdfrwt beam="2">  1       -1 0.84547357E-01 0.11726732E+04</pdfrwt>
<totfact> 0.73778779E+01</totfact>
</mgrwt>
</event>
<event>
12    6  0.1450532E-007  0.1252528E+04  0.7818608E-02  0.9068082E-01
         -1   -1    0    0    0  501 -0.00000000000E+00  0.00000000000E+00  0.15043449105E+03  0.15043449105E+03  0.00000000000E+00 0.  1.
          2   -1    0    0  501    0  0.00000000000E+00 -0.00000000000E+00 -0.26071570590E+04  0.26071570590E+04  0.00000000000E+00 0. -1.
         24    2    1    2    0    0  0.15726250018E+02  0.17158221585E+03 -0.68504861841E+02  0.20146141805E+03  0.78778265614E+02 0.  0.
        254    2    1    2    0    0 -0.15726250018E+02 -0.17158221585E+03 -0.23882177061E+04  0.25561301320E+04  0.89472323555E+03 0.  0.
         23    2    4    4    0    0 -0.30063023687E+03  0.24400947768E+03 -0.98090106545E+03  0.10584233442E+04  0.90409683705E+02 0.  0.
         23    2    4    4    0    0  0.28490398685E+03 -0.41559169353E+03 -0.14073166407E+04  0.14977067878E+04  0.93267130228E+02 0.  0.
          4    1    3    3  502    0  0.87098771557E+00 -0.81168104398E+01 -0.75655352886E+01  0.11130074372E+02  0.00000000000E+00 0. -1.
         -3    1    3    3    0  502  0.14855262302E+02  0.17969902629E+03 -0.60939326553E+02  0.19033134368E+03  0.00000000000E+00 0.  1.
         11    1    5    5    0    0 -0.24599351439E+03  0.18546529833E+03 -0.85898661604E+03  0.91256133632E+03  0.00000000000E+00 0. -1.
        -11    1    5    5    0    0 -0.54636722486E+02  0.58544179351E+02 -0.12191444941E+03  0.14586200792E+03  0.00000000000E+00 0.  1.
          1    1    6    6  503    0  0.28264472045E+03 -0.37258301732E+03 -0.12506117260E+04  0.13351913091E+04  0.00000000000E+00 0. -1.
         -1    1    6    6    0  503  0.22592664091E+01 -0.43008676212E+02 -0.15670491470E+03  0.16251547866E+03  0.00000000000E+00 0.  1.
<mgrwt>
<rscale>  0 0.12525276E+04</rscale>
<asrwt>0</asrwt>
<pdfrwt beam="1">  1        2 0.40110104E+00 0.12525276E+04</pdfrwt>
<pdfrwt beam="2">  1       -1 0.23143770E-01 0.12525276E+04</pdfrwt>
<totfact> 0.54318565E+01</totfact>
</mgrwt>
</event>
<event>
12    6  0.1450532E-007  0.1420365E+04  0.7818608E-02  0.8939208E-01
         -1   -1    0    0    0  501 -0.00000000000E+00  0.00000000000E+00  0.38112467467E+03  0.38112467467E+03  0.00000000000E+00 0.  1.
          2   -1    0    0  501    0  0.00000000000E+00 -0.00000000000E+00 -0.13233451122E+04  0.13233451122E+04  0.00000000000E+00 0. -1.
         24    2    1    2    0    0 -0.28897484130E+02  0.32782905266E+03 -0.60660217170E+03  0.69427222131E+03  0.75767870537E+02 0.  0.
        254    2    1    2    0    0  0.28897484130E+02 -0.32782905266E+03 -0.33561826584E+03  0.10101975656E+04  0.89417702317E+03 0.  0.
         23    2    4    4    0    0  0.11083701664E+03  0.16686010552E+03  0.18010302344E+03  0.28460314877E+03  0.91840699947E+02 0.  0.
         23    2    4    4    0    0 -0.81939532507E+02 -0.49468915818E+03 -0.51572128928E+03  0.72559441680E+03  0.95327641679E+02 0.  0.
          2    1    3    3  502    0 -0.32098344653E+02  0.18314131096E+03 -0.40958894936E+03  0.44981568553E+03  0.00000000000E+00 0. -1.
         -1    1    3    3    0  502  0.32008605231E+01  0.14468774170E+03 -0.19701322234E+03  0.24445653578E+03  0.00000000000E+00 0.  1.
         11    1    5    5    0    0  0.35384302730E+01 -0.98652124001E+01  0.10846435742E+00  0.10481157809E+02  0.00000000000E+00 0.  1.
        -11    1    5    5    0    0  0.10729858636E+03  0.17672531792E+03  0.17999455908E+03  0.27412199096E+03  0.00000000000E+00 0. -1.
          2    1    6    6  503    0 -0.96271861146E+02 -0.38878341171E+03 -0.43753797544E+03  0.59317812875E+03  0.00000000000E+00 0. -1.
         -2    1    6    6    0  503  0.14332328639E+02 -0.10590574646E+03 -0.78183313834E+02  0.13241628805E+03  0.00000000000E+00 0.  1.
<mgrwt>
<rscale>  0 0.14203654E+04</rscale>
<asrwt>0</asrwt>
<pdfrwt beam="1">  1        2 0.20359155E+00 0.14203654E+04</pdfrwt>
<pdfrwt beam="2">  1       -1 0.58634566E-01 0.14203654E+04</pdfrwt>
<totfact> 0.52316285E+01</totfact>
</mgrwt>
</event>
<event>
12    6  0.1450532E-007  0.1714481E+04  0.7818608E-02  0.8753148E-01
          2   -1    0    0  501    0  0.00000000000E+00  0.00000000000E+00  0.13136065648E+04  0.13136065648E+04  0.00000000000E+00 0. -1.
         -1   -1    0    0    0  501 -0.00000000000E+00 -0.00000000000E+00 -0.55942268866E+03  0.55942268866E+03  0.00000000000E+00 0.  1.
         24    2    1    2    0    0  0.50266507975E+03 -0.23759446339E+03  0.56892451080E+03  0.79977701303E+03  0.82733669916E+02 0.  0.
        254    2    1    2    0    0 -0.50266507975E+03  0.23759446339E+03  0.18525936529E+03  0.10732522404E+04  0.89912514571E+03 0.  0.
         23    2    4    4    0    0 -0.57769152187E+03  0.44160895455E+03 -0.57324979711E+02  0.73507593478E+03  0.91129103028E+02 0.  0.
         23    2    4    4    0    0  0.75026442124E+02 -0.20401449115E+03  0.24258434500E+03  0.33817630561E+03  0.90912978278E+02 0.  0.
          2    1    3    3  502    0  0.36597445961E+02 -0.77905635345E+01  0.70100600315E+02  0.79461689483E+02  0.00000000000E+00 0. -1.
         -1    1    3    3    0  502  0.46606763379E+03 -0.22980389986E+03  0.49882391049E+03  0.72031532354E+03  0.00000000000E+00 0.  1.
         11    1    5    5    0    0 -0.32686817803E+03  0.22097857947E+03 -0.70314881268E+02  0.40077240539E+03  0.00000000000E+00 0.  1.
        -11    1    5    5    0    0 -0.25082334384E+03  0.22063037508E+03  0.12989901557E+02  0.33430352939E+03  0.00000000000E+00 0. -1.
          1    1    6    6  503    0  0.84174411907E+01 -0.13441093040E+03  0.10782030357E+03  0.17251773645E+03  0.00000000000E+00 0. -1.
         -1    1    6    6    0  503  0.66609000933E+02 -0.69603560754E+02  0.13476404143E+03  0.16565856916E+03  0.00000000000E+00 0.  1.
<mgrwt>
<rscale>  0 0.17144810E+04</rscale>
<asrwt>0</asrwt>
<pdfrwt beam="1">  1        2 0.20209332E+00 0.17144810E+04</pdfrwt>
<pdfrwt beam="2">  1       -1 0.86065029E-01 0.17144810E+04</pdfrwt>
<totfact> 0.23436686E+01</totfact>
</mgrwt>
</event>
<event>
12    6  0.1972740E-007  0.2172620E+04  0.7818608E-02  0.8529911E-01
          2   -1    0    0  501    0  0.00000000000E+00  0.00000000000E+00  0.20935924785E+04  0.20935924785E+04  0.00000000000E+00 0. -1.
         -1   -1    0    0    0  501 -0.00000000000E+00 -0.00000000000E+00 -0.56365778050E+03  0.56365778050E+03  0.00000000000E+00 0.  1.
         24    2    1    2    0    0  0.58107294407E+03  0.19020441137E+02  0.14604720897E+04  0.15739627725E+04  0.79828195444E+02 0.  0.
        254    2    1    2    0    0 -0.58107294407E+03 -0.19020441137E+02  0.69462608256E+02  0.10832874865E+04  0.91141603066E+03 0.  0.
         23    2    4    4    0    0  0.13379846019E+03 -0.24593346228E+03 -0.96226003042E+02  0.30974908857E+03  0.91103009784E+02 0.  0.
         23    2    4    4    0    0 -0.71487140426E+03  0.22691302114E+03  0.16568861130E+03  0.77353839793E+03  0.91533017920E+02 0.  0.
          2    1    3    3  502    0  0.57930971048E+03  0.22238282136E+02  0.14590864023E+04  0.15700405763E+04  0.00000000000E+00 0. -1.
         -1    1    3    3    0  502  0.17632335916E+01 -0.32178409995E+01  0.13856874518E+01  0.39221962101E+01  0.00000000000E+00 0.  1.
         11    1    5    5    0    0  0.14427032244E+03 -0.24343102731E+03 -0.96516944524E+02  0.29897844668E+03  0.00000000000E+00 0. -1.
        -11    1    5    5    0    0 -0.10471862255E+02 -0.25024349634E+01  0.29094148219E+00  0.10770641893E+02  0.00000000000E+00 0.  1.
          3    1    6    6  503    0 -0.45053513048E+03  0.17991502472E+03  0.13329655979E+03  0.50310962301E+03  0.00000000000E+00 0. -1.
         -3    1    6    6    0  503 -0.26433627378E+03  0.46997996421E+02  0.32392051511E+02  0.27042877492E+03  0.00000000000E+00 0.  1.
<mgrwt>
<rscale>  0 0.21726203E+04</rscale>
<asrwt>0</asrwt>
<pdfrwt beam="1">  1        2 0.32209115E+00 0.21726203E+04</pdfrwt>
<pdfrwt beam="2">  1       -1 0.86716583E-01 0.21726203E+04</pdfrwt>
<totfact> 0.80964763E+00</totfact>
</mgrwt>
</event>
<event>
12    6  0.1450532E-007  0.1927307E+04  0.7818608E-02  0.8641382E-01
         -1   -1    0    0    0  501 -0.00000000000E+00  0.00000000000E+00  0.35990738509E+03  0.35990738509E+03  0.00000000000E+00 0.  1.
          2   -1    0    0  501    0  0.00000000000E+00 -0.00000000000E+00 -0.25801858977E+04  0.25801858977E+04  0.00000000000E+00 0. -1.
         24    2    1    2    0    0  0.33907146429E+03  0.52994983885E+03 -0.14974914174E+04  0.16261061441E+04  0.76969845378E+02 0.  0.
        254    2    1    2    0    0 -0.33907146429E+03 -0.52994983885E+03 -0.72278709527E+03  0.13139871387E+04  0.89906881054E+03 0.  0.
         23    2    4    4    0    0 -0.47859171878E+03 -0.18044712324E+03 -0.76446563176E+03  0.92458121317E+03  0.93976167321E+02 0.  0.
         23    2    4    4    0    0  0.13952025449E+03 -0.34950271562E+03  0.41678536491E+02  0.38940592558E+03  0.91004531957E+02 0.  0.
          4    1    3    3  502    0  0.29089351871E+03  0.46149713533E+03 -0.13572848967E+04  0.14628126798E+04  0.00000000000E+00 0. -1.
         -3    1    3    3    0  502  0.48177945583E+02  0.68452703525E+02 -0.14020652062E+03  0.16329346430E+03  0.00000000000E+00 0.  1.
         11    1    5    5    0    0 -0.36356365751E+03 -0.11584444202E+03 -0.49930512354E+03  0.62841393540E+03  0.00000000000E+00 0. -1.
        -11    1    5    5    0    0 -0.11502806127E+03 -0.64602681217E+02 -0.26516050822E+03  0.29616727777E+03  0.00000000000E+00 0.  1.
          3    1    6    6  503    0  0.48980945950E+02 -0.19825669020E+03 -0.13592002326E+02  0.20466946720E+03  0.00000000000E+00 0. -1.
         -3    1    6    6    0  503  0.90539308537E+02 -0.15124602542E+03  0.55270538816E+02  0.18473645838E+03  0.00000000000E+00 0.  1.
<mgrwt>
<rscale>  0 0.19273069E+04</rscale>
<asrwt>0</asrwt>
<pdfrwt beam="1">  1        2 0.39695170E+00 0.19273069E+04</pdfrwt>
<pdfrwt beam="2">  1       -1 0.55370364E-01 0.19273069E+04</pdfrwt>
<totfact> 0.10977472E+01</totfact>
</mgrwt>
</event>
<event>
12    6  0.1450532E-007  0.2787834E+04  0.7818608E-02  0.8307056E-01
         -1   -1    0    0    0  501 -0.00000000000E+00  0.00000000000E+00  0.76141203286E+03  0.76141203286E+03  0.00000000000E+00 0.  1.
          2   -1    0    0  501    0  0.00000000000E+00 -0.00000000000E+00 -0.25518431096E+04  0.25518431096E+04  0.00000000000E+00 0. -1.
         24    2    1    2    0    0  0.41483390838E+03 -0.80673972994E+03 -0.18278470529E+04  0.20421289532E+04  0.79684686086E+02 0.  0.
        254    2    1    2    0    0 -0.41483390838E+03  0.80673972994E+03  0.37415976173E+02  0.12711261893E+04  0.88963232313E+03 0.  0.
         23    2    4    4    0    0 -0.41472106744E+03  0.67416485103E+03 -0.33682781619E+03  0.86606324826E+03  0.10060199845E+03 0.  0.
         23    2    4    4    0    0 -0.11284094066E+00  0.13257487891E+03  0.37424379236E+03  0.40506294100E+03  0.80258699212E+02 0.  0.
          2    1    3    3  502    0  0.37091469325E+03 -0.65761588403E+03 -0.15004103177E+04  0.16796629073E+04  0.00000000000E+00 0. -1.
         -1    1    3    3    0  502  0.43919215132E+02 -0.14912384591E+03 -0.32743673513E+03  0.36246604585E+03  0.00000000000E+00 0.  1.
         11    1    5    5    0    0 -0.15353968253E+03  0.25663207941E+03 -0.75088920770E+02  0.30833878172E+03  0.00000000000E+00 0.  1.
        -11    1    5    5    0    0 -0.26118138492E+03  0.41753277162E+03 -0.26173889542E+03  0.55772446654E+03  0.00000000000E+00 0. -1.
          2    1    6    6  503    0 -0.18893089276E+02  0.12601080775E+03  0.35582572434E+03  0.37795187338E+03  0.00000000000E+00 0. -1.
         -2    1    6    6    0  503  0.18780248336E+02  0.65640711657E+01  0.18418068028E+02  0.27111067624E+02  0.00000000000E+00 0.  1.
<mgrwt>
<rscale>  0 0.27878336E+04</rscale>
<asrwt>0</asrwt>
<pdfrwt beam="1">  1        2 0.39259125E+00 0.27878336E+04</pdfrwt>
<pdfrwt beam="2">  1       -1 0.11714031E+00 0.27878336E+04</pdfrwt>
<totfact> 0.21107093E+00</totfact>
</mgrwt>
</event>
<event>
12    6  0.1450532E-007  0.2266537E+04  0.7818608E-02  0.8491233E-01
         -1   -1    0    0    0  501 -0.00000000000E+00  0.00000000000E+00  0.11591591385E+04  0.11591591385E+04  0.00000000000E+00 0.  1.
          2   -1    0    0  501    0  0.00000000000E+00 -0.00000000000E+00 -0.11079560373E+04  0.11079560373E+04  0.00000000000E+00 0. -1.
         24    2    1    2    0    0  0.35315269611E+02  0.28236686964E+03 -0.88772746955E+03  0.93570186666E+03  0.80620752579E+02 0.  0.
        254    2    1    2    0    0 -0.35315269611E+02 -0.28236686964E+03  0.93893057078E+03  0.13314133092E+04  0.90005142398E+03 0.  0.
         23    2    4    4    0    0  0.26427092007E+03 -0.44030729427E+03  0.29778460786E+03  0.60069221794E+03  0.91901226513E+02 0.  0.
         23    2    4    4    0    0 -0.29958618968E+03  0.15794042463E+03  0.64114596292E+03  0.73072109125E+03  0.90488146414E+02 0.  0.
          2    1    3    3  502    0  0.70901562114E+01  0.23128688916E+03 -0.62215310424E+03  0.66379091627E+03  0.00000000000E+00 0. -1.
         -1    1    3    3    0  502  0.28225113400E+02  0.51079980482E+02 -0.26557436531E+03  0.27191095039E+03  0.00000000000E+00 0.  1.
         11    1    5    5    0    0  0.24298582080E+02 -0.12167520695E+02  0.11282603301E+01  0.27198209910E+02  0.00000000000E+00 0.  1.
        -11    1    5    5    0    0  0.23997233799E+03 -0.42813977358E+03  0.29665634753E+03  0.57349400803E+03  0.00000000000E+00 0. -1.
          1    1    6    6  503    0 -0.26876685396E+03  0.15704349004E+03  0.61866270660E+03  0.69256178359E+03  0.00000000000E+00 0. -1.
         -1    1    6    6    0  503 -0.30819335723E+02  0.89693458946E+00  0.22483256322E+02  0.38159307657E+02  0.00000000000E+00 0.  1.
<mgrwt>
<rscale>  0 0.22665369E+04</rscale>
<asrwt>0</asrwt>
<pdfrwt beam="1">  1        2 0.17045477E+00 0.22665369E+04</pdfrwt>
<pdfrwt beam="2">  1       -1 0.17833218E+00 0.22665369E+04</pdfrwt>
<totfact> 0.47769758E+00</totfact>
</mgrwt>
</event>
<event>
12    6  0.1450532E-007  0.1154005E+04  0.7818608E-02  0.9154097E-01
         -1   -1    0    0    0  501 -0.00000000000E+00  0.00000000000E+00  0.16126769196E+03  0.16126769196E+03  0.00000000000E+00 0.  1.
          2   -1    0    0  501    0  0.00000000000E+00 -0.00000000000E+00 -0.20644670329E+04  0.20644670329E+04  0.00000000000E+00 0. -1.
         24    2    1    2    0    0  0.48307950082E+02 -0.27188727062E+02 -0.76235089173E+03  0.76965668879E+03  0.90109109151E+02 0.  0.
        254    2    1    2    0    0 -0.48307950082E+02  0.27188727062E+02 -0.11408484492E+04  0.14560780361E+04  0.90308093665E+03 0.  0.
         23    2    4    4    0    0  0.19719540792E+03  0.19067334377E+03 -0.15919123588E+02  0.28949573010E+03  0.91170205209E+02 0.  0.
         23    2    4    4    0    0 -0.24550335801E+03 -0.16348461671E+03 -0.11249293256E+04  0.11665823060E+04  0.91919368408E+02 0.  0.
          4    1    3    3  502    0  0.56924353404E+02  0.17888669507E+02 -0.40542791601E+03  0.40979529229E+03  0.00000000000E+00 0. -1.
         -3    1    3    3    0  502 -0.86164033224E+01 -0.45077396570E+02 -0.35692297572E+03  0.35986139649E+03  0.00000000000E+00 0.  1.
         11    1    5    5    0    0  0.10372575943E+03  0.11363660961E+03 -0.53147311990E+02  0.16277883457E+03  0.00000000000E+00 0. -1.
        -11    1    5    5    0    0  0.93469648497E+02  0.77036734160E+02  0.37228188402E+02  0.12671689553E+03  0.00000000000E+00 0.  1.
          2    1    6    6  503    0 -0.14912535413E+03 -0.14955079674E+03 -0.74286501980E+03  0.77230321099E+03  0.00000000000E+00 0. -1.
         -2    1    6    6    0  503 -0.96378003871E+02 -0.13933819970E+02 -0.38206430579E+03  0.39427909497E+03  0.00000000000E+00 0.  1.
<mgrwt>
<rscale>  0 0.11540049E+04</rscale>
<asrwt>0</asrwt>
<pdfrwt beam="1">  1        2 0.31761034E+00 0.11540049E+04</pdfrwt>
<pdfrwt beam="2">  1       -1 0.24810412E-01 0.11540049E+04</pdfrwt>
<totfact> 0.98620044E+01</totfact>
</mgrwt>
</event>
<event>
12    6  0.1450532E-007  0.1799709E+04  0.7818608E-02  0.8706454E-01
          2   -1    0    0  501    0  0.00000000000E+00  0.00000000000E+00  0.27907831993E+04  0.27907831993E+04  0.00000000000E+00 0. -1.
         -1   -1    0    0    0  501 -0.00000000000E+00 -0.00000000000E+00 -0.29014722438E+03  0.29014722438E+03  0.00000000000E+00 0.  1.
         24    2    1    2    0    0  0.42875737348E+03  0.52737685671E+03  0.77935805697E+03  0.10372610430E+04  0.80946007185E+02 0.  0.
        254    2    1    2    0    0 -0.42875737348E+03 -0.52737685671E+03  0.17212779180E+04  0.20436693807E+04  0.86707994576E+03 0.  0.
         23    2    4    4    0    0 -0.57112215340E+02 -0.52036992681E+03  0.39100795135E+03  0.65943116068E+03  0.88969499212E+02 0.  0.
         23    2    4    4    0    0 -0.37164515814E+03 -0.70069299035E+01  0.13302699666E+04  0.13842382200E+04  0.91258122839E+02 0.  0.
          2    1    3    3  502    0  0.40610722122E+03  0.50296210696E+03  0.70928484977E+03  0.95967648417E+03  0.00000000000E+00 0. -1.
         -1    1    3    3    0  502  0.22650152259E+02  0.24414749752E+02  0.70073207197E+02  0.77584558836E+02  0.00000000000E+00 0.  1.
         11    1    5    5    0    0 -0.21525569842E+02 -0.12405039844E+03  0.50291348480E+02  0.13557680938E+03  0.00000000000E+00 0.  1.
        -11    1    5    5    0    0 -0.35586645498E+02 -0.39631952837E+03  0.34071660287E+03  0.52385435130E+03  0.00000000000E+00 0. -1.
          2    1    6    6  503    0 -0.61126580892E+02  0.33155643145E+02  0.22948908141E+03  0.23979364890E+03  0.00000000000E+00 0.  1.
         -2    1    6    6    0  503 -0.31051857725E+03 -0.40162573049E+02  0.11007808852E+04  0.11444445711E+04  0.00000000000E+00 0. -1.
<mgrwt>
<rscale>  0 0.17997089E+04</rscale>
<asrwt>0</asrwt>
<pdfrwt beam="1">  1        2 0.42935124E+00 0.17997089E+04</pdfrwt>
<pdfrwt beam="2">  1       -1 0.44638036E-01 0.17997089E+04</pdfrwt>
<totfact> 0.12549600E+01</totfact>
</mgrwt>
</event>
<event>
12    6  0.1450532E-007  0.1348529E+04  0.7818608E-02  0.8991942E-01
          2   -1    0    0  501    0  0.00000000000E+00  0.00000000000E+00  0.36019575627E+04  0.36019575627E+04  0.00000000000E+00 0. -1.
         -1   -1    0    0    0  501 -0.00000000000E+00 -0.00000000000E+00 -0.12621826571E+03  0.12621826571E+03  0.00000000000E+00 0.  1.
         24    2    1    2    0    0 -0.18211769543E+03 -0.29096440303E+03  0.56469741163E+03  0.66550748593E+03  0.78675970292E+02 0.  0.
        254    2    1    2    0    0  0.18211769543E+03  0.29096440303E+03  0.29110418854E+04  0.30626683425E+04  0.88766287462E+03 0.  0.
         23    2    4    4    0    0 -0.15391690720E+03  0.19282815696E+02  0.79501812673E+02  0.19690203876E+03  0.91584023415E+02 0.  0.
         23    2    4    4    0    0  0.33603460263E+03  0.27168158734E+03  0.28315400727E+04  0.28657663038E+04  0.90924063446E+02 0.  0.
          2    1    3    3  502    0 -0.10470061290E+02 -0.42275590892E-01  0.45971447939E+01  0.11434933795E+02  0.00000000000E+00 0. -1.
         -1    1    3    3    0  502 -0.17164763413E+03 -0.29092212744E+03  0.56010026684E+03  0.65407255213E+03  0.00000000000E+00 0.  1.
         11    1    5    5    0    0 -0.12591820072E+03  0.18156567822E+02  0.16929572698E+02  0.12834198323E+03  0.00000000000E+00 0. -1.
        -11    1    5    5    0    0 -0.27998706489E+02  0.11262478739E+01  0.62572239975E+02  0.68560055534E+02  0.00000000000E+00 0.  1.
          3    1    6    6  503    0  0.31073433180E+03  0.27631577722E+03  0.26758102852E+04  0.27079266822E+04  0.00000000000E+00 0. -1.
         -3    1    6    6    0  503  0.25300270835E+02 -0.46341898816E+01  0.15572978751E+03  0.15783962157E+03  0.00000000000E+00 0.  1.
<mgrwt>
<rscale>  0 0.13485293E+04</rscale>
<asrwt>0</asrwt>
<pdfrwt beam="1">  1        2 0.55414724E+00 0.13485293E+04</pdfrwt>
<pdfrwt beam="2">  1       -1 0.19418197E-01 0.13485293E+04</pdfrwt>
<totfact> 0.16805408E+01</totfact>
</mgrwt>
</event>
<event>
12    6  0.1450532E-007  0.3943421E+04  0.7818608E-02  0.8016059E-01
         -1   -1    0    0    0  501 -0.00000000000E+00  0.00000000000E+00  0.14112518422E+04  0.14112518422E+04  0.00000000000E+00 0.  1.
          2   -1    0    0  501    0  0.00000000000E+00 -0.00000000000E+00 -0.27547476795E+04  0.27547476795E+04  0.00000000000E+00 0. -1.
         24    2    1    2    0    0  0.15106462365E+04 -0.90188893859E+03 -0.13045769731E+04  0.21915946741E+04  0.75567370484E+02 0.  0.
        254    2    1    2    0    0 -0.15106462365E+04  0.90188893859E+03 -0.38918864172E+02  0.19744048476E+04  0.89515591657E+03 0.  0.
         23    2    4    4    0    0 -0.79206795646E+03  0.94241940099E+03 -0.13820160339E+03  0.12420587396E+04  0.89912482518E+02 0.  0.
         23    2    4    4    0    0 -0.71857828000E+03 -0.40530462396E+02  0.99282739216E+02  0.73234610797E+03  0.92066805552E+02 0.  0.
          4    1    3    3  502    0  0.86132620396E+03 -0.47102592506E+03 -0.73437304554E+03  0.12259902209E+04  0.00000000000E+00 0. -1.
         -3    1    3    3    0  502  0.64932003250E+03 -0.43086301353E+03 -0.57020392756E+03  0.96560445320E+03  0.00000000000E+00 0.  1.
         11    1    5    5    0    0 -0.39871200218E+03  0.54301383487E+03 -0.82887613492E+02  0.67875300516E+03  0.00000000000E+00 0.  1.
        -11    1    5    5    0    0 -0.39335595428E+03  0.39940556612E+03 -0.55313989895E+02  0.56330573448E+03  0.00000000000E+00 0. -1.
          4    1    6    6  503    0 -0.52556340328E+02 -0.20744958711E+01 -0.16748804876E+02  0.55199591543E+02  0.00000000000E+00 0. -1.
         -4    1    6    6    0  503 -0.66602193968E+03 -0.38455966525E+02  0.11603154409E+03  0.67714651643E+03  0.00000000000E+00 0.  1.
<mgrwt>
<rscale>  0 0.39434212E+04</rscale>
<asrwt>0</asrwt>
<pdfrwt beam="1">  1        2 0.42380733E+00 0.39434212E+04</pdfrwt>
<pdfrwt beam="2">  1       -1 0.21711567E+00 0.39434212E+04</pdfrwt>
<totfact> 0.25505463E-01</totfact>
</mgrwt>
</event>
<event>
12    6  0.1450532E-007  0.1746342E+04  0.7818608E-02  0.8735366E-01
          2   -1    0    0  501    0  0.00000000000E+00  0.00000000000E+00  0.29608625508E+04  0.29608625508E+04  0.00000000000E+00 0. -1.
         -1   -1    0    0    0  501 -0.00000000000E+00 -0.00000000000E+00 -0.25750185674E+03  0.25750185674E+03  0.00000000000E+00 0.  1.
         24    2    1    2    0    0  0.21871442198E+03 -0.59613994299E+03  0.11956532974E+04  0.13566012390E+04  0.86955643840E+02 0.  0.
        254    2    1    2    0    0 -0.21871442198E+03  0.59613994299E+03  0.15077073967E+04  0.18617631686E+04  0.88868536155E+03 0.  0.
         23    2    4    4    0    0 -0.55602691520E+03  0.39527050040E+03  0.98659748548E+03  0.12029034429E+04  0.90539470598E+02 0.  0.
         23    2    4    4    0    0  0.33731249322E+03  0.20086944259E+03  0.52110991119E+03  0.65885972563E+03  0.91718850189E+02 0.  0.
          4    1    3    3  502    0  0.17441847262E+03 -0.48378048939E+03  0.88910431876E+03  0.10271182284E+04  0.00000000000E+00 0. -1.
         -3    1    3    3    0  502  0.44295949363E+02 -0.11235945360E+03  0.30654897862E+03  0.32948301054E+03  0.00000000000E+00 0.  1.
         11    1    5    5    0    0 -0.38363378404E+03  0.23538942806E+03  0.59365404551E+03  0.74498871726E+03  0.00000000000E+00 0. -1.
        -11    1    5    5    0    0 -0.17239313116E+03  0.15988107234E+03  0.39294343997E+03  0.45791472567E+03  0.00000000000E+00 0.  1.
          4    1    6    6  503    0  0.58384633019E+02  0.70316957736E+02  0.15996062058E+03  0.18422985658E+03  0.00000000000E+00 0. -1.
         -4    1    6    6    0  503  0.27892786020E+03  0.13055248485E+03  0.36114929061E+03  0.47462986906E+03  0.00000000000E+00 0.  1.
<mgrwt>
<rscale>  0 0.17463420E+04</rscale>
<asrwt>0</asrwt>
<pdfrwt beam="1">  1        2 0.45551729E+00 0.17463420E+04</pdfrwt>
<pdfrwt beam="2">  1       -1 0.39615672E-01 0.17463420E+04</pdfrwt>
<totfact> 0.12377769E+01</totfact>
</mgrwt>
</event>
<event>
12    6  0.1450532E-007  0.1464548E+04  0.7818608E-02  0.8908376E-01
          2   -1    0    0  501    0  0.00000000000E+00  0.00000000000E+00  0.10706613135E+04  0.10706613135E+04  0.00000000000E+00 0. -1.
         -1   -1    0    0    0  501 -0.00000000000E+00 -0.00000000000E+00 -0.50083558951E+03  0.50083558951E+03  0.00000000000E+00 0.  1.
         24    2    1    2    0    0  0.16383116128E+03  0.23951354989E+03  0.54329614637E+03  0.62111433986E+03  0.80030809868E+02 0.  0.
        254    2    1    2    0    0 -0.16383116128E+03 -0.23951354989E+03  0.26529577630E+02  0.95038256316E+03  0.90460809629E+03 0.  0.
         23    2    4    4    0    0 -0.30615714440E+03  0.52785672617E+02  0.35445350201E+03  0.47987112420E+03  0.90113741796E+02 0.  0.
         23    2    4    4    0    0  0.14232598311E+03 -0.29229922251E+03 -0.32792392438E+03  0.47051143896E+03  0.90285065534E+02 0.  0.
          4    1    3    3  502    0  0.12626146757E+03  0.11440416414E+03  0.30968822106E+03  0.35346437618E+03  0.00000000000E+00 0. -1.
         -3    1    3    3    0  502  0.37569693715E+02  0.12510938576E+03  0.23360792531E+03  0.26764996368E+03  0.00000000000E+00 0.  1.
         11    1    5    5    0    0 -0.29359992429E+03  0.46348853395E+02  0.35801154215E+03  0.46531859630E+03  0.00000000000E+00 0.  1.
        -11    1    5    5    0    0 -0.12557220111E+02  0.64368192224E+01 -0.35580401447E+01  0.14552527901E+02  0.00000000000E+00 0. -1.
          2    1    6    6  503    0  0.85312813534E+02 -0.12330710805E+03 -0.96400224605E+02  0.17825802184E+03  0.00000000000E+00 0. -1.
         -2    1    6    6    0  503  0.57013169580E+02 -0.16899211447E+03 -0.23152369977E+03  0.29225341711E+03  0.00000000000E+00 0.  1.
<mgrwt>
<rscale>  0 0.14645481E+04</rscale>
<asrwt>0</asrwt>
<pdfrwt beam="1">  1        2 0.16471712E+00 0.14645481E+04</pdfrwt>
<pdfrwt beam="2">  1       -1 0.77051630E-01 0.14645481E+04</pdfrwt>
<totfact> 0.42417922E+01</totfact>
</mgrwt>
</event>
<event>
12    6  0.1450532E-007  0.2308306E+04  0.7818608E-02  0.8474653E-01
          2   -1    0    0  501    0  0.00000000000E+00  0.00000000000E+00  0.18434113115E+04  0.18434113115E+04  0.00000000000E+00 0. -1.
         -1   -1    0    0    0  501 -0.00000000000E+00 -0.00000000000E+00 -0.72261096236E+03  0.72261096236E+03  0.00000000000E+00 0.  1.
         24    2    1    2    0    0  0.61771911616E+03 -0.71753550161E+03  0.22031180106E+03  0.97541317288E+03  0.80370800690E+02 0.  0.
        254    2    1    2    0    0 -0.61771911616E+03  0.71753550161E+03  0.90048854806E+03  0.15906091010E+04  0.90704111502E+03 0.  0.
         23    2    4    4    0    0 -0.54991441623E+03  0.64966652838E+03  0.10736593189E+04  0.13731816050E+04  0.91711089702E+02 0.  0.
         23    2    4    4    0    0 -0.67804699936E+02  0.67868973225E+02 -0.17317077088E+03  0.21742749593E+03  0.89905090167E+02 0.  0.
          4    1    3    3  502    0  0.46750858455E+01 -0.22769370802E+02  0.98560253300E+01  0.25247611960E+02  0.00000000000E+00 0. -1.
         -3    1    3    3    0  502  0.61304403032E+03 -0.69476613081E+03  0.21045577573E+03  0.95016556092E+03  0.00000000000E+00 0.  1.
         11    1    5    5    0    0 -0.54333035711E+03  0.62191637578E+03  0.10198500794E+04  0.13122812351E+04  0.00000000000E+00 0.  1.
        -11    1    5    5    0    0 -0.65840591210E+01  0.27750152602E+02  0.53809239525E+02  0.60900369968E+02  0.00000000000E+00 0. -1.
          2    1    6    6  503    0  0.12321863221E+01  0.73477507462E+00  0.10204766381E+02  0.10305116906E+02  0.00000000000E+00 0. -1.
         -2    1    6    6    0  503 -0.69036886258E+02  0.67134198150E+02 -0.18337553726E+03  0.20712237902E+03  0.00000000000E+00 0.  1.
<mgrwt>
<rscale>  0 0.23083061E+04</rscale>
<asrwt>0</asrwt>
<pdfrwt beam="1">  1        2 0.28360174E+00 0.23083061E+04</pdfrwt>
<pdfrwt beam="2">  1       -1 0.11117092E+00 0.23083061E+04</pdfrwt>
<totfact> 0.62656204E+00</totfact>
</mgrwt>
</event>
<event>
12    6  0.1450532E-007  0.1739322E+04  0.7818608E-02  0.8739250E-01
         -1   -1    0    0    0  501 -0.00000000000E+00  0.00000000000E+00  0.42307308202E+03  0.42307308202E+03  0.00000000000E+00 0.  1.
          2   -1    0    0  501    0  0.00000000000E+00 -0.00000000000E+00 -0.17876586307E+04  0.17876586307E+04  0.00000000000E+00 0. -1.
         24    2    1    2    0    0 -0.94805579882E+02 -0.21650389806E+03 -0.12452139233E+04  0.12701777668E+04  0.83257484605E+02 0.  0.
        254    2    1    2    0    0  0.94805579882E+02  0.21650389806E+03 -0.11937162538E+03  0.94055394589E+03  0.90251321560E+03 0.  0.
         23    2    4    4    0    0  0.25957178090E+03  0.38095745089E+03 -0.36098873526E+03  0.59291999161E+03  0.93462081289E+02 0.  0.
         23    2    4    4    0    0 -0.16476620101E+03 -0.16445355283E+03  0.24161710988E+03  0.34763395428E+03  0.90981681397E+02 0.  0.
          2    1    3    3  502    0 -0.93080555139E+02 -0.12798388842E+03 -0.89899635484E+03  0.91281888206E+03  0.00000000000E+00 0. -1.
         -1    1    3    3    0  502 -0.17250247429E+01 -0.88520009635E+02 -0.34621756844E+03  0.35735888475E+03  0.00000000000E+00 0.  1.
         11    1    5    5    0    0  0.19088998711E+03  0.19921419654E+03 -0.21957974290E+03  0.35261954962E+03  0.00000000000E+00 0.  1.
        -11    1    5    5    0    0  0.68681793782E+02  0.18174325435E+03 -0.14140899235E+03  0.24030044198E+03  0.00000000000E+00 0. -1.
          2    1    6    6  503    0 -0.10481209562E+03 -0.49196741555E+02  0.82265558159E+02  0.14203350600E+03  0.00000000000E+00 0.  1.
         -2    1    6    6    0  503 -0.59954105397E+02 -0.11525681127E+03  0.15935155172E+03  0.20560044828E+03  0.00000000000E+00 0. -1.
<mgrwt>
<rscale>  0 0.17393220E+04</rscale>
<asrwt>0</asrwt>
<pdfrwt beam="1">  1        2 0.27502440E+00 0.17393220E+04</pdfrwt>
<pdfrwt beam="2">  1       -1 0.65088167E-01 0.17393220E+04</pdfrwt>
<totfact> 0.22666461E+01</totfact>
</mgrwt>
</event>
<event>
12    6  0.1450532E-007  0.1907390E+04  0.7818608E-02  0.8651187E-01
          2   -1    0    0  501    0  0.00000000000E+00  0.00000000000E+00  0.65944432853E+03  0.65944432853E+03  0.00000000000E+00 0. -1.
         -1   -1    0    0    0  501 -0.00000000000E+00 -0.00000000000E+00 -0.13792435618E+04  0.13792435618E+04  0.00000000000E+00 0.  1.
         24    2    1    2    0    0  0.22252387502E+03  0.59863237044E+02  0.47374509978E+03  0.53330781199E+03  0.82959753271E+02 0.  0.
        254    2    1    2    0    0 -0.22252387502E+03 -0.59863237044E+02 -0.11935443331E+04  0.15053800784E+04  0.88798683729E+03 0.  0.
         23    2    4    4    0    0 -0.58796032077E+02  0.36477432082E+03 -0.83870983992E+03  0.92110011852E+03  0.92054083285E+02 0.  0.
         23    2    4    4    0    0 -0.16372784295E+03 -0.42463755786E+03 -0.35483449318E+03  0.58427995985E+03  0.91387591229E+02 0.  0.
          4    1    3    3  502    0  0.13963499330E+03  0.49383301490E+02  0.37940817783E+03  0.40729253274E+03  0.00000000000E+00 0. -1.
         -3    1    3    3    0  502  0.82888881725E+02  0.10479935554E+02  0.94336921947E+02  0.12601527925E+03  0.00000000000E+00 0.  1.
         11    1    5    5    0    0 -0.14872862824E+02  0.30054410001E+03 -0.70243539727E+03  0.76417500969E+03  0.00000000000E+00 0. -1.
        -11    1    5    5    0    0 -0.43923169252E+02  0.64230220815E+02 -0.13627444264E+03  0.15692510883E+03  0.00000000000E+00 0.  1.
          4    1    6    6  503    0 -0.16811105018E+03 -0.35870987081E+03 -0.32194780845E+03  0.51047476723E+03  0.00000000000E+00 0. -1.
         -4    1    6    6    0  503  0.43832072350E+01 -0.65927687054E+02 -0.32886684729E+02  0.73805192625E+02  0.00000000000E+00 0.  1.
<mgrwt>
<rscale>  0 0.19073902E+04</rscale>
<asrwt>0</asrwt>
<pdfrwt beam="1">  1        2 0.10145298E+00 0.19073902E+04</pdfrwt>
<pdfrwt beam="2">  1       -1 0.21219131E+00 0.19073902E+04</pdfrwt>
<totfact> 0.58630471E+00</totfact>
</mgrwt>
</event>
<event>
12    6  0.1450532E-007  0.1369621E+04  0.7818608E-02  0.8976107E-01
         -1   -1    0    0    0  501 -0.00000000000E+00  0.00000000000E+00  0.23667998271E+03  0.23667998271E+03  0.00000000000E+00 0.  1.
          2   -1    0    0  501    0  0.00000000000E+00 -0.00000000000E+00 -0.19814330490E+04  0.19814330490E+04  0.00000000000E+00 0. -1.
         24    2    1    2    0    0 -0.24559332993E+03 -0.24317441657E+03 -0.86626778655E+03  0.93593152714E+03  0.78090107491E+02 0.  0.
        254    2    1    2    0    0  0.24559332993E+03  0.24317441657E+03 -0.87848527973E+03  0.12821815046E+04  0.86764228999E+03 0.  0.
         23    2    4    4    0    0 -0.11893125111E+03  0.11523842587E+03 -0.86480601572E+03  0.88510386409E+03  0.89971484989E+02 0.  0.
         23    2    4    4    0    0  0.36452458104E+03  0.12793599070E+03 -0.13679264010E+02  0.39707764048E+03  0.90762009714E+02 0.  0.
          4    1    3    3  502    0 -0.17509777667E+03 -0.20393374671E+03 -0.72536002844E+03  0.77356019500E+03  0.00000000000E+00 0. -1.
         -3    1    3    3    0  502 -0.70495553265E+02 -0.39240669857E+02 -0.14090775812E+03  0.16237133213E+03  0.00000000000E+00 0.  1.
         11    1    5    5    0    0 -0.12795808513E+03  0.12214073192E+03 -0.82170844392E+03  0.84053340014E+03  0.00000000000E+00 0.  1.
        -11    1    5    5    0    0  0.90268340251E+01 -0.69023060495E+01 -0.43097571796E+02  0.44570463942E+02  0.00000000000E+00 0. -1.
          1    1    6    6  503    0  0.54487996769E+02  0.27447057990E+02  0.30452261530E+02  0.68188144251E+02  0.00000000000E+00 0. -1.
         -1    1    6    6    0  503  0.31003658427E+03  0.10048893271E+03 -0.44131525539E+02  0.32888949623E+03  0.00000000000E+00 0.  1.
<mgrwt>
<rscale>  0 0.13696212E+04</rscale>
<asrwt>0</asrwt>
<pdfrwt beam="1">  1        2 0.30483584E+00 0.13696212E+04</pdfrwt>
<pdfrwt beam="2">  1       -1 0.36412307E-01 0.13696212E+04</pdfrwt>
<totfact> 0.54971797E+01</totfact>
</mgrwt>
</event>
<event>
12    6  0.1450532E-007  0.2277858E+04  0.7818608E-02  0.8486703E-01
          2   -1    0    0  501    0  0.00000000000E+00  0.00000000000E+00  0.74430629947E+03  0.74430629947E+03  0.00000000000E+00 0. -1.
         -1   -1    0    0    0  501 -0.00000000000E+00 -0.00000000000E+00 -0.17427759386E+04  0.17427759386E+04  0.00000000000E+00 0.  1.
         24    2    1    2    0    0  0.85299607277E+03 -0.19520899053E+03  0.80986191802E+01  0.87887390634E+03  0.81516289600E+02 0.  0.
        254    2    1    2    0    0 -0.85299607277E+03  0.19520899053E+03 -0.10065682584E+04  0.16082083318E+04  0.89857972909E+03 0.  0.
         23    2    4    4    0    0 -0.10756637113E+03  0.39704067614E+03 -0.59384148559E+03  0.72781543274E+03  0.88632789740E+02 0.  0.
         23    2    4    4    0    0 -0.74542970164E+03 -0.20183168561E+03 -0.41272677276E+03  0.88039289904E+03  0.91360813970E+02 0.  0.
          4    1    3    3  502    0  0.25211521386E+03 -0.54822652085E+02  0.39499043667E+02  0.26101298568E+03  0.00000000000E+00 0. -1.
         -3    1    3    3    0  502  0.60088085891E+03 -0.14038633845E+03 -0.31400424487E+02  0.61786092066E+03  0.00000000000E+00 0.  1.
         11    1    5    5    0    0 -0.90126079581E+02  0.17815014815E+03 -0.31417442078E+03  0.37224421040E+03  0.00000000000E+00 0.  1.
        -11    1    5    5    0    0 -0.17440291549E+02  0.21889052799E+03 -0.27966706481E+03  0.35557122234E+03  0.00000000000E+00 0. -1.
          2    1    6    6  503    0 -0.29999972074E+02 -0.25680587985E+02 -0.10090652329E+02  0.40759197589E+02  0.00000000000E+00 0.  1.
         -2    1    6    6    0  503 -0.71542972956E+03 -0.17615109762E+03 -0.40263612043E+03  0.83963370145E+03  0.00000000000E+00 0. -1.
<mgrwt>
<rscale>  0 0.22778579E+04</rscale>
<asrwt>0</asrwt>
<pdfrwt beam="1">  1        2 0.11450866E+00 0.22778579E+04</pdfrwt>
<pdfrwt beam="2">  1       -1 0.26811937E+00 0.22778579E+04</pdfrwt>
<totfact> 0.20857753E+00</totfact>
</mgrwt>
</event>
<event>
12    6  0.1450532E-007  0.1591863E+04  0.7818608E-02  0.8825563E-01
         -1   -1    0    0    0  501 -0.00000000000E+00  0.00000000000E+00  0.13337759391E+04  0.13337759391E+04  0.00000000000E+00 0.  1.
          2   -1    0    0  501    0  0.00000000000E+00 -0.00000000000E+00 -0.47497226779E+03  0.47497226779E+03  0.00000000000E+00 0. -1.
         24    2    1    2    0    0 -0.21980630364E+03 -0.20555853310E+03  0.79102584243E+03  0.85013105785E+03  0.80198569018E+02 0.  0.
        254    2    1    2    0    0  0.21980630364E+03  0.20555853310E+03  0.67777828831E+02  0.95861714900E+03  0.90762540876E+03 0.  0.
         23    2    4    4    0    0  0.51621011445E+03  0.18554919644E+03  0.23759778945E+03  0.60470113316E+03  0.91155714808E+02 0.  0.
         23    2    4    4    0    0 -0.29640381081E+03  0.20009336658E+02 -0.16981996061E+03  0.35391601584E+03  0.90344532922E+02 0.  0.
          4    1    3    3  502    0 -0.10345008718E+02 -0.86836533038E+01  0.73071976914E+01  0.15356437678E+02  0.00000000000E+00 0. -1.
         -3    1    3    3    0  502 -0.20946129492E+03 -0.19687487979E+03  0.78371864474E+03  0.83477462017E+03  0.00000000000E+00 0.  1.
         11    1    5    5    0    0  0.21099981259E+03  0.28957103571E+02  0.95059878189E+02  0.23322910453E+03  0.00000000000E+00 0. -1.
        -11    1    5    5    0    0  0.30521030186E+03  0.15659209287E+03  0.14253791126E+03  0.37147202863E+03  0.00000000000E+00 0.  1.
          3    1    6    6  503    0 -0.14413168700E+02 -0.33145087206E+01  0.10724749032E+02  0.18268706627E+02  0.00000000000E+00 0. -1.
         -3    1    6    6    0  503 -0.28199064211E+03  0.23323845379E+02 -0.18054470965E+03  0.33564730921E+03  0.00000000000E+00 0.  1.
<mgrwt>
<rscale>  0 0.15918625E+04</rscale>
<asrwt>0</asrwt>
<pdfrwt beam="1">  1        2 0.73072657E-01 0.15918625E+04</pdfrwt>
<pdfrwt beam="2">  1       -1 0.20519630E+00 0.15918625E+04</pdfrwt>
<totfact> 0.99377700E+00</totfact>
</mgrwt>
</event>
<event>
12    6  0.1450532E-007  0.1598585E+04  0.7818608E-02  0.8821418E-01
         -1   -1    0    0    0  501 -0.00000000000E+00  0.00000000000E+00  0.78592257461E+03  0.78592257461E+03  0.00000000000E+00 0.  1.
          2   -1    0    0  501    0  0.00000000000E+00 -0.00000000000E+00 -0.81288995383E+03  0.81288995383E+03  0.00000000000E+00 0. -1.
         24    2    1    2    0    0 -0.18185591912E+03  0.46994949028E+03 -0.20573295265E+03  0.55009846231E+03  0.79738144546E+02 0.  0.
        254    2    1    2    0    0  0.18185591912E+03 -0.46994949028E+03  0.17876557343E+03  0.10487140661E+04  0.90217512909E+03 0.  0.
         23    2    4    4    0    0  0.36521589423E+03 -0.22684697330E+02 -0.20145177460E+03  0.42726025371E+03  0.89840202714E+02 0.  0.
         23    2    4    4    0    0 -0.18335997511E+03 -0.44726479295E+03  0.38021734803E+03  0.62145381243E+03  0.89291285983E+02 0.  0.
          2    1    3    3  502    0 -0.10852421467E+03  0.29176604785E+03 -0.84913689823E+02  0.32266897367E+03  0.00000000000E+00 0. -1.
         -1    1    3    3    0  502 -0.73331704447E+02  0.17818344242E+03 -0.12081926283E+03  0.22742948864E+03  0.00000000000E+00 0.  1.
         11    1    5    5    0    0  0.10352523179E+02  0.14254465887E+02 -0.21095278334E+02  0.27484091797E+02  0.00000000000E+00 0. -1.
        -11    1    5    5    0    0  0.35486337105E+03 -0.36939163217E+02 -0.18035649626E+03  0.39977616192E+03  0.00000000000E+00 0.  1.
          1    1    6    6  503    0 -0.13652808081E+02 -0.11955037265E+03  0.11962949822E+03  0.16967588990E+03  0.00000000000E+00 0. -1.
         -1    1    6    6    0  503 -0.16970716703E+03 -0.32771442030E+03  0.26058784981E+03  0.45177792253E+03  0.00000000000E+00 0.  1.
<mgrwt>
<rscale>  0 0.15985851E+04</rscale>
<asrwt>0</asrwt>
<pdfrwt beam="1">  1        2 0.12505999E+00 0.15985851E+04</pdfrwt>
<pdfrwt beam="2">  1       -1 0.12091117E+00 0.15985851E+04</pdfrwt>
<totfact> 0.22438296E+01</totfact>
</mgrwt>
</event>
<event>
12    6  0.1450532E-007  0.1217596E+04  0.7818608E-02  0.9097593E-01
          2   -1    0    0  501    0  0.00000000000E+00  0.00000000000E+00  0.54326791995E+03  0.54326791995E+03  0.00000000000E+00 0. -1.
         -1   -1    0    0    0  501 -0.00000000000E+00 -0.00000000000E+00 -0.68223213624E+03  0.68223213624E+03  0.00000000000E+00 0.  1.
         24    2    1    2    0    0  0.27089679896E+03  0.43068837543E+02 -0.37601862706E+02  0.28377488168E+03  0.62243738169E+02 0.  0.
        254    2    1    2    0    0 -0.27089679896E+03 -0.43068837543E+02 -0.10136235359E+03  0.94172517451E+03  0.89517147918E+03 0.  0.
         23    2    4    4    0    0 -0.44301817674E+03  0.29739118003E+03 -0.18553824045E+02  0.54124842467E+03  0.88876284470E+02 0.  0.
         23    2    4    4    0    0  0.17212137779E+03 -0.34046001757E+03 -0.82808529541E+02  0.40047674984E+03  0.89362085618E+02 0.  0.
          2    1    3    3  502    0  0.16421202047E+03 -0.90146826508E+00 -0.68528818296E+01  0.16435742241E+03  0.00000000000E+00 0. -1.
         -1    1    3    3    0  502  0.10668477849E+03  0.43970305808E+02 -0.30748980876E+02  0.11941745927E+03  0.00000000000E+00 0.  1.
         11    1    5    5    0    0 -0.31317653287E+03  0.15966613061E+03 -0.66044030543E+01  0.35159128565E+03  0.00000000000E+00 0. -1.
        -11    1    5    5    0    0 -0.12984164387E+03  0.13772504941E+03 -0.11949420991E+02  0.18965713902E+03  0.00000000000E+00 0.  1.
          3    1    6    6  503    0  0.15989931419E+03 -0.34377024112E+03 -0.80866313158E+02  0.38766626105E+03  0.00000000000E+00 0. -1.
         -3    1    6    6    0  503  0.12222063597E+02  0.33102235494E+01 -0.19422163831E+01  0.12810488788E+02  0.00000000000E+00 0.  1.
<mgrwt>
<rscale>  0 0.12175957E+04</rscale>
<asrwt>0</asrwt>
<pdfrwt beam="1">  1        2 0.83579680E-01 0.12175957E+04</pdfrwt>
<pdfrwt beam="2">  1       -1 0.10495879E+00 0.12175957E+04</pdfrwt>
<totfact> 0.53666278E+01</totfact>
</mgrwt>
</event>
<event>
12    6  0.1450532E-007  0.2151759E+04  0.7818608E-02  0.8538780E-01
          2   -1    0    0  501    0  0.00000000000E+00  0.00000000000E+00  0.13388108204E+04  0.13388108204E+04  0.00000000000E+00 0. -1.
         -1   -1    0    0    0  501 -0.00000000000E+00 -0.00000000000E+00 -0.86458576860E+03  0.86458576860E+03  0.00000000000E+00 0.  1.
         24    2    1    2    0    0  0.17843719451E+03 -0.35673942224E+03  0.10102750575E+04  0.10894963163E+04  0.85109832999E+02 0.  0.
        254    2    1    2    0    0 -0.17843719451E+03  0.35673942224E+03 -0.53605000566E+03  0.11139002727E+04  0.89124708204E+03 0.  0.
         23    2    4    4    0    0 -0.16746419909E+03 -0.21874547973E+03  0.41991876724E+02  0.29312322317E+03  0.90906893977E+02 0.  0.
         23    2    4    4    0    0 -0.10972995426E+02  0.57548490197E+03 -0.57804188238E+03  0.82077704956E+03  0.90770415192E+02 0.  0.
          4    1    3    3  502    0  0.15377276176E+03 -0.34845074366E+03  0.92514388762E+03  0.10004774839E+04  0.00000000000E+00 0. -1.
         -3    1    3    3    0  502  0.24664432759E+02 -0.82886785837E+01  0.85131169875E+02  0.89018832391E+02  0.00000000000E+00 0.  1.
         11    1    5    5    0    0 -0.17436870359E+03 -0.20739286346E+03  0.52732171230E+02  0.27603790771E+03  0.00000000000E+00 0.  1.
        -11    1    5    5    0    0  0.69045045012E+01 -0.11352616263E+02 -0.10740294506E+02  0.17085315464E+02  0.00000000000E+00 0. -1.
          1    1    6    6  503    0 -0.18083913746E+02  0.27591223530E+03 -0.33893781505E+03  0.43741677151E+03  0.00000000000E+00 0. -1.
         -1    1    6    6    0  503  0.71109183203E+01  0.29957266667E+03 -0.23910406733E+03  0.38336027805E+03  0.00000000000E+00 0.  1.
<mgrwt>
<rscale>  0 0.21517591E+04</rscale>
<asrwt>0</asrwt>
<pdfrwt beam="1">  1        2 0.20597090E+00 0.21517591E+04</pdfrwt>
<pdfrwt beam="2">  1       -1 0.13301319E+00 0.21517591E+04</pdfrwt>
<totfact> 0.78537045E+00</totfact>
</mgrwt>
</event>
<event>
12    6  0.1450532E-007  0.2400564E+04  0.7818608E-02  0.8439293E-01
         -1   -1    0    0    0  501 -0.00000000000E+00  0.00000000000E+00  0.12866223520E+04  0.12866223520E+04  0.00000000000E+00 0.  1.
          2   -1    0    0  501    0  0.00000000000E+00 -0.00000000000E+00 -0.11197351740E+04  0.11197351740E+04  0.00000000000E+00 0. -1.
         24    2    1    2    0    0 -0.62184064240E+03 -0.50460607822E+03 -0.56921009841E+03  0.98583660979E+03  0.80997570023E+02 0.  0.
        254    2    1    2    0    0  0.62184064240E+03  0.50460607822E+03  0.73609727640E+03  0.14205209162E+04  0.91363416882E+03 0.  0.
         23    2    4    4    0    0 -0.11983070716E+03  0.43314395090E+03  0.20969085684E+03  0.50408348770E+03  0.90315151305E+02 0.  0.
         23    2    4    4    0    0  0.74167134956E+03  0.71462127317E+02  0.52640641956E+03  0.91643742853E+03  0.87009283765E+02 0.  0.
          4    1    3    3  502    0 -0.47035092087E+03 -0.40981361336E+03 -0.47297983504E+03  0.78287106909E+03  0.00000000000E+00 0. -1.
         -3    1    3    3    0  502 -0.15148972153E+03 -0.94792464860E+02 -0.96230263363E+02  0.20296554070E+03  0.00000000000E+00 0.  1.
         11    1    5    5    0    0 -0.64562482329E+02  0.35814988421E+03  0.15118990930E+03  0.39407872610E+03  0.00000000000E+00 0. -1.
        -11    1    5    5    0    0 -0.55268224829E+02  0.74994066686E+02  0.58500947535E+02  0.11000476161E+03  0.00000000000E+00 0.  1.
          4    1    6    6  503    0  0.38949964076E+03  0.37926176218E+02  0.22322026526E+03  0.45052819204E+03  0.00000000000E+00 0.  1.
         -4    1    6    6    0  503  0.35217170880E+03  0.33535951099E+02  0.30318615429E+03  0.46590923649E+03  0.00000000000E+00 0. -1.
<mgrwt>
<rscale>  0 0.24005635E+04</rscale>
<asrwt>0</asrwt>
<pdfrwt beam="1">  1        2 0.17226695E+00 0.24005635E+04</pdfrwt>
<pdfrwt beam="2">  1       -1 0.19794190E+00 0.24005635E+04</pdfrwt>
<totfact> 0.33771766E+00</totfact>
</mgrwt>
</event>
<event>
12    6  0.1450532E-007  0.1453626E+04  0.7818608E-02  0.8915891E-01
          2   -1    0    0  501    0  0.00000000000E+00  0.00000000000E+00  0.19113280853E+04  0.19113280853E+04  0.00000000000E+00 0. -1.
         -1   -1    0    0    0  501 -0.00000000000E+00 -0.00000000000E+00 -0.27638223052E+03  0.27638223052E+03  0.00000000000E+00 0.  1.
         24    2    1    2    0    0  0.13672688453E+03 -0.20629571981E+03  0.10540833128E+04  0.10857234384E+04  0.80321786606E+02 0.  0.
        254    2    1    2    0    0 -0.13672688453E+03  0.20629571981E+03  0.58086254197E+03  0.11019868774E+04  0.90317308439E+03 0.  0.
         23    2    4    4    0    0 -0.34352119721E+03 -0.15007895066E+03  0.55941004365E+03  0.67970386159E+03  0.92343046064E+02 0.  0.
         23    2    4    4    0    0  0.20679431269E+03  0.35637467046E+03  0.21452498316E+02  0.42228301582E+03  0.89977454161E+02 0.  0.
          4    1    3    3  502    0  0.13797879417E+03 -0.15439605626E+03  0.88196375728E+03  0.90594500881E+03  0.00000000000E+00 0. -1.
         -3    1    3    3    0  502 -0.12519096478E+01 -0.51899663542E+02  0.17211955557E+03  0.17977842963E+03  0.00000000000E+00 0.  1.
         11    1    5    5    0    0 -0.24573874643E+03 -0.72091799324E+02  0.32259134688E+03  0.41188582897E+03  0.00000000000E+00 0. -1.
        -11    1    5    5    0    0 -0.97782450785E+02 -0.77987151334E+02  0.23681869677E+03  0.26781803262E+03  0.00000000000E+00 0.  1.
          4    1    6    6  503    0  0.15197223723E+03  0.18703818951E+03  0.36132038653E+02  0.24368908355E+03  0.00000000000E+00 0. -1.
         -4    1    6    6    0  503  0.54822075457E+02  0.16933648095E+03 -0.14679540336E+02  0.17859393227E+03  0.00000000000E+00 0.  1.
<mgrwt>
<rscale>  0 0.14536260E+04</rscale>
<asrwt>0</asrwt>
<pdfrwt beam="1">  1        2 0.29405047E+00 0.14536260E+04</pdfrwt>
<pdfrwt beam="2">  1       -1 0.42520344E-01 0.14536260E+04</pdfrwt>
<totfact> 0.44996071E+01</totfact>
</mgrwt>
</event>
<event>
12    6  0.1450532E-007  0.2653494E+04  0.7818608E-02  0.8350254E-01
          2   -1    0    0  501    0  0.00000000000E+00  0.00000000000E+00  0.20925500919E+04  0.20925500919E+04  0.00000000000E+00 0. -1.
         -1   -1    0    0    0  501 -0.00000000000E+00 -0.00000000000E+00 -0.84120188461E+03  0.84120188461E+03  0.00000000000E+00 0.  1.
         24    2    1    2    0    0  0.51462625133E+03  0.87940484811E+03  0.11727462169E+04  0.15556283083E+04  0.80328568717E+02 0.  0.
        254    2    1    2    0    0 -0.51462625133E+03 -0.87940484811E+03  0.78601990419E+02  0.13781236682E+04  0.92458288248E+03 0.  0.
         23    2    4    4    0    0 -0.17875924050E+03  0.15270280467E+03  0.13715929190E+03  0.28716483807E+03  0.91531198240E+02 0.  0.
         23    2    4    4    0    0 -0.33586701083E+03 -0.10321076528E+04 -0.58557301481E+02  0.10909588302E+04  0.93323928499E+02 0.  0.
          4    1    3    3  502    0  0.25327949589E+03  0.50790192653E+03  0.63243721131E+03  0.84975978738E+03  0.00000000000E+00 0. -1.
         -3    1    3    3    0  502  0.26134675544E+03  0.37150292158E+03  0.54030900555E+03  0.70586852090E+03  0.00000000000E+00 0.  1.
         11    1    5    5    0    0 -0.18482943131E+03  0.13392503041E+03  0.10941929240E+03  0.25312134244E+03  0.00000000000E+00 0. -1.
        -11    1    5    5    0    0  0.60701908096E+01  0.18777774261E+02  0.27739999499E+02  0.34043495632E+02  0.00000000000E+00 0.  1.
          1    1    6    6  503    0 -0.14898044478E+03 -0.53531155068E+03  0.10125793560E+02  0.55574828917E+03  0.00000000000E+00 0. -1.
         -1    1    6    6    0  503 -0.18688656605E+03 -0.49679610210E+03 -0.68683095041E+02  0.53521054098E+03  0.00000000000E+00 0.  1.
<mgrwt>
<rscale>  0 0.26534936E+04</rscale>
<asrwt>0</asrwt>
<pdfrwt beam="1">  1        2 0.32193078E+00 0.26534936E+04</pdfrwt>
<pdfrwt beam="2">  1       -1 0.12941567E+00 0.26534936E+04</pdfrwt>
<totfact> 0.30483610E+00</totfact>
</mgrwt>
</event>
<event>
12    6  0.1450532E-007  0.2025402E+04  0.7818608E-02  0.8594835E-01
          2   -1    0    0  501    0  0.00000000000E+00  0.00000000000E+00  0.19138933158E+04  0.19138933158E+04  0.00000000000E+00 0. -1.
         -1   -1    0    0    0  501 -0.00000000000E+00 -0.00000000000E+00 -0.53585207770E+03  0.53585207770E+03  0.00000000000E+00 0.  1.
         24    2    1    2    0    0  0.29689707110E+03 -0.68177741113E+02  0.14563779001E+04  0.14900413970E+04  0.79941862790E+02 0.  0.
        254    2    1    2    0    0 -0.29689707110E+03  0.68177741113E+02 -0.78336662011E+02  0.95970399656E+03  0.90669678129E+03 0.  0.
         23    2    4    4    0    0 -0.44513929847E+03 -0.16128746632E+03  0.23350497306E+03  0.53603619113E+03  0.92992386351E+02 0.  0.
         23    2    4    4    0    0  0.14824222737E+03  0.22946520744E+03 -0.31184163507E+03  0.42366780544E+03  0.87287826175E+02 0.  0.
          4    1    3    3  502    0  0.29041044567E+03 -0.52759538212E+02  0.14140684495E+04  0.14445453872E+04  0.00000000000E+00 0. -1.
         -3    1    3    3    0  502  0.64866254258E+01 -0.15418202901E+02  0.42309450669E+02  0.45496009781E+02  0.00000000000E+00 0.  1.
         11    1    5    5    0    0 -0.94108155817E+02  0.40417693983E+01  0.38292052038E+02  0.10168068716E+03  0.00000000000E+00 0. -1.
        -11    1    5    5    0    0 -0.35103114265E+03 -0.16532923572E+03  0.19521292103E+03  0.43435550397E+03  0.00000000000E+00 0.  1.
          1    1    6    6  503    0  0.50554735533E+02  0.11687199525E+03 -0.20087569488E+03  0.23783584539E+03  0.00000000000E+00 0. -1.
         -1    1    6    6    0  503  0.97687491837E+02  0.11259321219E+03 -0.11096594020E+03  0.18583196005E+03  0.00000000000E+00 0.  1.
<mgrwt>
<rscale>  0 0.20254024E+04</rscale>
<asrwt>0</asrwt>
<pdfrwt beam="1">  1        2 0.29444512E+00 0.20254024E+04</pdfrwt>
<pdfrwt beam="2">  1       -1 0.82438782E-01 0.20254024E+04</pdfrwt>
<totfact> 0.11518125E+01</totfact>
</mgrwt>
</event>
<event>
12    6  0.1450532E-007  0.2065980E+04  0.7818608E-02  0.8576379E-01
          2   -1    0    0  501    0  0.00000000000E+00  0.00000000000E+00  0.11655398652E+04  0.11655398652E+04  0.00000000000E+00 0. -1.
         -1   -1    0    0    0  501 -0.00000000000E+00 -0.00000000000E+00 -0.91551409492E+03  0.91551409492E+03  0.00000000000E+00 0.  1.
         24    2    1    2    0    0  0.10286544096E+03 -0.38015980450E+03  0.83888327679E+03  0.93018140714E+03  0.80059491719E+02 0.  0.
        254    2    1    2    0    0 -0.10286544096E+03  0.38015980450E+03 -0.58885750648E+03  0.11508725530E+04  0.90700148536E+03 0.  0.
         23    2    4    4    0    0  0.16515824111E+03  0.17950355128E+03  0.17403165948E+03  0.31302117471E+03  0.90534345904E+02 0.  0.
         23    2    4    4    0    0 -0.26802368207E+03  0.20065625322E+03 -0.76288916596E+03  0.83785137830E+03  0.88856212419E+02 0.  0.
          2    1    3    3  502    0  0.11604062802E+03 -0.35349144297E+03  0.77146338152E+03  0.85649131731E+03  0.00000000000E+00 0. -1.
         -1    1    3    3    0  502 -0.13175187065E+02 -0.26668361526E+02  0.67419895275E+02  0.73690089833E+02  0.00000000000E+00 0.  1.
         11    1    5    5    0    0  0.40858308209E+02  0.10526864417E+03  0.97871113010E+02  0.14943106624E+03  0.00000000000E+00 0.  1.
        -11    1    5    5    0    0  0.12429993290E+03  0.74234907116E+02  0.76160546472E+02  0.16359010848E+03  0.00000000000E+00 0. -1.
          4    1    6    6  503    0 -0.28722734749E+02  0.59634411097E+02 -0.11074200756E+03  0.12901569949E+03  0.00000000000E+00 0.  1.
         -4    1    6    6    0  503 -0.23930094732E+03  0.14102184212E+03 -0.65214715840E+03  0.70883567881E+03  0.00000000000E+00 0. -1.
<mgrwt>
<rscale>  0 0.20659798E+04</rscale>
<asrwt>0</asrwt>
<pdfrwt beam="1">  1        2 0.17931382E+00 0.20659798E+04</pdfrwt>
<pdfrwt beam="2">  1       -1 0.14084832E+00 0.20659798E+04</pdfrwt>
<totfact> 0.86369856E+00</totfact>
</mgrwt>
</event>
<event>
12    6  0.1450532E-007  0.1569611E+04  0.7818608E-02  0.8839438E-01
          2   -1    0    0  501    0  0.00000000000E+00  0.00000000000E+00  0.82606299723E+03  0.82606299723E+03  0.00000000000E+00 0. -1.
         -1   -1    0    0    0  501 -0.00000000000E+00 -0.00000000000E+00 -0.74560815573E+03  0.74560815573E+03  0.00000000000E+00 0.  1.
         24    2    1    2    0    0 -0.28231789223E+03  0.24846953436E+03 -0.31222496772E+03  0.49539949670E+03  0.80596086046E+02 0.  0.
        254    2    1    2    0    0  0.28231789223E+03 -0.24846953436E+03  0.39267980922E+03  0.10762716563E+04  0.92882869451E+03 0.  0.
         23    2    4    4    0    0 -0.33035934809E+03 -0.73591375954E+02  0.20695975397E+03  0.40672770880E+03  0.89677755661E+02 0.  0.
         23    2    4    4    0    0  0.61267724032E+03 -0.17487815841E+03  0.18572005525E+03  0.66954394747E+03  0.88551609693E+02 0.  0.
          2    1    3    3  502    0  0.56208275042E+01  0.47291879229E+01 -0.51600557282E+01  0.89769201489E+01  0.00000000000E+00 0. -1.
         -1    1    3    3    0  502 -0.28793871973E+03  0.24374034644E+03 -0.30706491199E+03  0.48642257655E+03  0.00000000000E+00 0.  1.
         11    1    5    5    0    0 -0.13355037200E+03 -0.17197502326E+02  0.34404103011E+02  0.13897876906E+03  0.00000000000E+00 0.  1.
        -11    1    5    5    0    0 -0.19680897609E+03 -0.56393873628E+02  0.17255565096E+03  0.26774893974E+03  0.00000000000E+00 0. -1.
          1    1    6    6  503    0  0.68389168053E+02  0.11972723900E+01  0.10224102406E+01  0.68407288287E+02  0.00000000000E+00 0. -1.
         -1    1    6    6    0  503  0.54428807226E+03 -0.17607543080E+03  0.18469764501E+03  0.60113665918E+03  0.00000000000E+00 0.  1.
<mgrwt>
<rscale>  0 0.15696105E+04</rscale>
<asrwt>0</asrwt>
<pdfrwt beam="1">  1        2 0.12708662E+00 0.15696105E+04</pdfrwt>
<pdfrwt beam="2">  1       -1 0.11470895E+00 0.15696105E+04</pdfrwt>
<totfact> 0.25008904E+01</totfact>
</mgrwt>
</event>
<event>
12    6  0.1450532E-007  0.2371410E+04  0.7818608E-02  0.8450285E-01
          2   -1    0    0  501    0  0.00000000000E+00  0.00000000000E+00  0.17140964662E+04  0.17140964662E+04  0.00000000000E+00 0. -1.
         -1   -1    0    0    0  501 -0.00000000000E+00 -0.00000000000E+00 -0.82019702543E+03  0.82019702543E+03  0.00000000000E+00 0.  1.
         24    2    1    2    0    0 -0.18315647753E+03 -0.70186054684E+03  0.11418848056E+04  0.13551338473E+04  0.79575828627E+02 0.  0.
        254    2    1    2    0    0  0.18315647753E+03  0.70186054684E+03 -0.24798536487E+03  0.11791596443E+04  0.89597221105E+03 0.  0.
         23    2    4    4    0    0 -0.35641669466E+02 -0.16251161039E+03  0.10330656301E+03  0.21638298227E+03  0.92027153279E+02 0.  0.
         23    2    4    4    0    0  0.21879814699E+03  0.86437215723E+03 -0.35129192788E+03  0.96277666198E+03  0.92309408812E+02 0.  0.
          2    1    3    3  502    0 -0.84850034661E+02 -0.46589091429E+03  0.71658898176E+03  0.85892586478E+03  0.00000000000E+00 0. -1.
         -1    1    3    3    0  502 -0.98306442867E+02 -0.23596963255E+03  0.42529582384E+03  0.49620798257E+03  0.00000000000E+00 0.  1.
         11    1    5    5    0    0  0.72994948566E+01 -0.13759548142E+03  0.59178019572E+02  0.14995945163E+03  0.00000000000E+00 0.  1.
        -11    1    5    5    0    0 -0.42941164323E+02 -0.24916128963E+02  0.44128543440E+02  0.66423530635E+02  0.00000000000E+00 0. -1.
          2    1    6    6  503    0  0.38969404227E+02  0.90836178804E+02 -0.66327964591E+02  0.11903455268E+03  0.00000000000E+00 0. -1.
         -2    1    6    6    0  503  0.17982874277E+03  0.77353597842E+03 -0.28496396329E+03  0.84374210930E+03  0.00000000000E+00 0.  1.
<mgrwt>
<rscale>  0 0.23714104E+04</rscale>
<asrwt>0</asrwt>
<pdfrwt beam="1">  1        2 0.26370715E+00 0.23714104E+04</pdfrwt>
<pdfrwt beam="2">  1       -1 0.12618416E+00 0.23714104E+04</pdfrwt>
<totfact> 0.54027716E+00</totfact>
</mgrwt>
</event>
<event>
12    6  0.1450532E-007  0.1377071E+04  0.7818608E-02  0.8970585E-01
         -1   -1    0    0    0  501 -0.00000000000E+00  0.00000000000E+00  0.57681162666E+03  0.57681162666E+03  0.00000000000E+00 0.  1.
          2   -1    0    0  501    0  0.00000000000E+00 -0.00000000000E+00 -0.82189933923E+03  0.82189933923E+03  0.00000000000E+00 0. -1.
         24    2    1    2    0    0  0.36312413111E+03 -0.31797865484E+02 -0.19723773621E+03  0.42230577093E+03  0.81050606030E+02 0.  0.
        254    2    1    2    0    0 -0.36312413111E+03  0.31797865484E+02 -0.47849976363E+02  0.97640519495E+03  0.90454808919E+03 0.  0.
         23    2    4    4    0    0  0.19834021556E+03 -0.23835143165E+03 -0.11572164161E+03  0.34335060406E+03  0.91366804096E+02 0.  0.
         23    2    4    4    0    0 -0.56146434667E+03  0.27014929714E+03  0.67871665247E+02  0.63305459090E+03  0.89043229892E+02 0.  0.
          4    1    3    3  502    0  0.32752766453E+03 -0.45377725651E+02 -0.15425108522E+03  0.36486560034E+03  0.00000000000E+00 0. -1.
         -3    1    3    3    0  502  0.35596466574E+02  0.13579860167E+02 -0.42986650988E+02  0.57440170594E+02  0.00000000000E+00 0.  1.
         11    1    5    5    0    0  0.42331948707E+02 -0.66329974035E+02 -0.72781393060E+02  0.10718577570E+03  0.00000000000E+00 0. -1.
        -11    1    5    5    0    0  0.15600826685E+03 -0.17202145762E+03 -0.42940248550E+02  0.23616482836E+03  0.00000000000E+00 0.  1.
          4    1    6    6  503    0 -0.19738504755E+03  0.53449163031E+02  0.36551197281E+01  0.20452635509E+03  0.00000000000E+00 0.  1.
         -4    1    6    6    0  503 -0.36407929912E+03  0.21670013411E+03  0.64216545519E+02  0.42852823581E+03  0.00000000000E+00 0. -1.
<mgrwt>
<rscale>  0 0.13770709E+04</rscale>
<asrwt>0</asrwt>
<pdfrwt beam="1">  1        2 0.12644605E+00 0.13770709E+04</pdfrwt>
<pdfrwt beam="2">  1       -1 0.88740250E-01 0.13770709E+04</pdfrwt>
<totfact> 0.46091928E+01</totfact>
</mgrwt>
</event>
<event>
12    6  0.1450532E-007  0.1331313E+04  0.7818608E-02  0.9005096E-01
         -1   -1    0    0    0  501 -0.00000000000E+00  0.00000000000E+00  0.23272186420E+03  0.23272186420E+03  0.00000000000E+00 0.  1.
          2   -1    0    0  501    0  0.00000000000E+00 -0.00000000000E+00 -0.19039828725E+04  0.19039828725E+04  0.00000000000E+00 0. -1.
         24    2    1    2    0    0 -0.35989588550E+02 -0.52524366329E+02 -0.82284129455E+03  0.82915613871E+03  0.79862674644E+02 0.  0.
        254    2    1    2    0    0  0.35989588550E+02  0.52524366329E+02 -0.84841971375E+03  0.13075485980E+04  0.99288129496E+03 0.  0.
         23    2    4    4    0    0  0.17508431677E+03 -0.22795013774E+02  0.17756551104E+03  0.26545386718E+03  0.88102861802E+02 0.  0.
         23    2    4    4    0    0 -0.13909472822E+03  0.75319380103E+02 -0.10259852248E+04  0.10420947308E+04  0.91079053884E+02 0.  0.
          4    1    3    3  502    0 -0.41505533152E+02  0.68061927340E+01 -0.30114627149E+03  0.30406925260E+03  0.00000000000E+00 0. -1.
         -3    1    3    3    0  502  0.55159446021E+01 -0.59330559063E+02 -0.52169502305E+03  0.52508688611E+03  0.00000000000E+00 0.  1.
         11    1    5    5    0    0  0.62199551186E+02  0.68108099382E+00  0.12312894502E+03  0.13794921218E+03  0.00000000000E+00 0. -1.
        -11    1    5    5    0    0  0.11288476558E+03 -0.23476094768E+02  0.54436566018E+02  0.12750465500E+03  0.00000000000E+00 0.  1.
          1    1    6    6  503    0  0.29360096429E+01 -0.55841843954E+01 -0.19956023192E+03  0.19965993447E+03  0.00000000000E+00 0. -1.
         -1    1    6    6    0  503 -0.14203073786E+03  0.80903564498E+02 -0.82642499287E+03  0.84243479634E+03  0.00000000000E+00 0.  1.
<mgrwt>
<rscale>  0 0.13313128E+04</rscale>
<asrwt>0</asrwt>
<pdfrwt beam="1">  1        2 0.29292044E+00 0.13313128E+04</pdfrwt>
<pdfrwt beam="2">  1       -1 0.35803364E-01 0.13313128E+04</pdfrwt>
<totfact> 0.62731770E+01</totfact>
</mgrwt>
</event>
<event>
12    6  0.1450532E-007  0.1415616E+04  0.7818608E-02  0.8942592E-01
          2   -1    0    0  501    0  0.00000000000E+00  0.00000000000E+00  0.26695833404E+04  0.26695833404E+04  0.00000000000E+00 0. -1.
         -1   -1    0    0    0  501 -0.00000000000E+00 -0.00000000000E+00 -0.18766681489E+03  0.18766681489E+03  0.00000000000E+00 0.  1.
         24    2    1    2    0    0 -0.10236797331E+03 -0.10135672656E+03 -0.47532158869E+02  0.17154698877E+03  0.80104152515E+02 0.  0.
        254    2    1    2    0    0  0.10236797331E+03  0.10135672656E+03  0.25294486844E+04  0.26857031665E+04  0.89114446851E+03 0.  0.
         23    2    4    4    0    0 -0.29978841135E+03  0.23176178529E+03  0.65757180217E+03  0.76437389479E+03  0.90995380797E+02 0.  0.
         23    2    4    4    0    0  0.40215638466E+03 -0.13040505873E+03  0.18718768822E+04  0.19213292718E+04  0.94063123433E+02 0.  0.
          4    1    3    3  502    0 -0.18302590909E+02  0.81992398207E+01  0.94374801196E+01  0.22164800893E+02  0.00000000000E+00 0. -1.
         -3    1    3    3    0  502 -0.84065382404E+02 -0.10955596638E+03 -0.56969638988E+02  0.14938218788E+03  0.00000000000E+00 0.  1.
         11    1    5    5    0    0 -0.75066452347E+02  0.78212572439E+02  0.26845091996E+03  0.28951351468E+03  0.00000000000E+00 0. -1.
        -11    1    5    5    0    0 -0.22472195900E+03  0.15354921285E+03  0.38912088221E+03  0.47486038010E+03  0.00000000000E+00 0.  1.
          2    1    6    6  503    0  0.36878006636E+03 -0.13411127276E+03  0.16014757899E+04  0.16488508957E+04  0.00000000000E+00 0. -1.
         -2    1    6    6    0  503  0.33376318296E+02  0.37062140375E+01  0.27040109236E+03  0.27247837601E+03  0.00000000000E+00 0.  1.
<mgrwt>
<rscale>  0 0.14156161E+04</rscale>
<asrwt>0</asrwt>
<pdfrwt beam="1">  1        2 0.41070510E+00 0.14156161E+04</pdfrwt>
<pdfrwt beam="2">  1       -1 0.28871820E-01 0.14156161E+04</pdfrwt>
<totfact> 0.33622518E+01</totfact>
</mgrwt>
</event>
<event>
12    6  0.1450532E-007  0.3039439E+04  0.7818608E-02  0.8232558E-01
         -1   -1    0    0    0  501 -0.00000000000E+00  0.00000000000E+00  0.24391770104E+04  0.24391770104E+04  0.00000000000E+00 0.  1.
          2   -1    0    0  501    0  0.00000000000E+00 -0.00000000000E+00 -0.94685524274E+03  0.94685524274E+03  0.00000000000E+00 0. -1.
         24    2    1    2    0    0  0.85022543920E+03 -0.34695576595E+03 -0.47339649062E+03  0.10365210312E+04  0.83725801578E+02 0.  0.
        254    2    1    2    0    0 -0.85022543920E+03  0.34695576595E+03  0.19657182582E+04  0.23495112219E+04  0.90160585069E+03 0.  0.
         23    2    4    4    0    0  0.12979855315E+03  0.86054294328E+02  0.62096630054E+02  0.19066494357E+03  0.90797154514E+02 0.  0.
         23    2    4    4    0    0 -0.98002399235E+03  0.26090147162E+03  0.19036216282E+04  0.21588462783E+04  0.91243337461E+02 0.  0.
          2    1    3    3  502    0  0.81290001498E+03 -0.34518305178E+03 -0.46552193724E+03  0.99833283410E+03  0.00000000000E+00 0. -1.
         -1    1    3    3    0  502  0.37325424217E+02 -0.17727141740E+01 -0.78745533776E+01  0.38188197122E+02  0.00000000000E+00 0.  1.
         11    1    5    5    0    0 -0.34535651769E+01  0.36922374244E+02  0.21888524565E+02  0.43061541309E+02  0.00000000000E+00 0. -1.
        -11    1    5    5    0    0  0.13325211833E+03  0.49131920084E+02  0.40208105489E+02  0.14760340226E+03  0.00000000000E+00 0.  1.
          2    1    6    6  503    0 -0.76191933238E+01 -0.56380664169E+01  0.12050705080E+02  0.15331646772E+02  0.00000000000E+00 0. -1.
         -2    1    6    6    0  503 -0.97240479903E+03  0.26653953804E+03  0.18915709231E+04  0.21435146315E+04  0.00000000000E+00 0.  1.
<mgrwt>
<rscale>  0 0.30394391E+04</rscale>
<asrwt>0</asrwt>
<pdfrwt beam="1">  1        2 0.14567004E+00 0.30394391E+04</pdfrwt>
<pdfrwt beam="2">  1       -1 0.37525800E+00 0.30394391E+04</pdfrwt>
<totfact> 0.27927887E-01</totfact>
</mgrwt>
</event>
<event>
12    6  0.1819270E-007  0.1666471E+04  0.7818608E-02  0.8780721E-01
         -1   -1    0    0    0  501 -0.00000000000E+00  0.00000000000E+00  0.61653903623E+03  0.61653903623E+03  0.00000000000E+00 0.  1.
          2   -1    0    0  501    0  0.00000000000E+00 -0.00000000000E+00 -0.11260952141E+04  0.11260952141E+04  0.00000000000E+00 0. -1.
         24    2    1    2    0    0  0.24780307852E+03  0.35538530970E+03  0.22603599727E+03  0.49757065593E+03  0.93697393266E+02 0.  0.
        254    2    1    2    0    0 -0.24780307852E+03 -0.35538530970E+03 -0.73559217512E+03  0.12450635944E+04  0.90630150717E+03 0.  0.
         23    2    4    4    0    0 -0.14592878876E+03 -0.57693501465E+03 -0.17524438841E+03  0.62716946756E+03  0.92096269454E+02 0.  0.
         23    2    4    4    0    0 -0.10187428976E+03  0.22154970495E+03 -0.56034778671E+03  0.61789412683E+03  0.91328348421E+02 0.  0.
          2    1    3    3  502    0  0.86078092877E+01  0.35223111450E+02  0.47755086740E+02  0.59960906185E+02  0.00000000000E+00 0. -1.
         -1    1    3    3    0  502  0.23919526923E+03  0.32016219825E+03  0.17828091053E+03  0.43760974975E+03  0.00000000000E+00 0.  1.
         11    1    5    5    0    0 -0.73066976177E+02 -0.13116109208E+03 -0.34397611518E+02  0.15402990217E+03  0.00000000000E+00 0. -1.
        -11    1    5    5    0    0 -0.72861812582E+02 -0.44577392257E+03 -0.14084677690E+03  0.47313956539E+03  0.00000000000E+00 0.  1.
          3    1    6    6  503    0 -0.22227597445E+01  0.10576078135E+03 -0.26604846394E+03  0.28630764694E+03  0.00000000000E+00 0. -1.
         -3    1    6    6    0  503 -0.99651530016E+02  0.11578892360E+03 -0.29429932277E+03  0.33158647989E+03  0.00000000000E+00 0.  1.
<mgrwt>
<rscale>  0 0.16664713E+04</rscale>
<asrwt>0</asrwt>
<pdfrwt beam="1">  1        2 0.17324541E+00 0.16664713E+04</pdfrwt>
<pdfrwt beam="2">  1       -1 0.94852161E-01 0.16664713E+04</pdfrwt>
<totfact> 0.24551116E+01</totfact>
</mgrwt>
</event>
<event>
12    6  0.1450532E-007  0.1421736E+04  0.7818608E-02  0.8938233E-01
         -1   -1    0    0    0  501 -0.00000000000E+00  0.00000000000E+00  0.11691706560E+04  0.11691706560E+04  0.00000000000E+00 0.  1.
          2   -1    0    0  501    0  0.00000000000E+00 -0.00000000000E+00 -0.43221538103E+03  0.43221538103E+03  0.00000000000E+00 0. -1.
         24    2    1    2    0    0 -0.34893671658E+03 -0.19987014471E+03  0.36045346452E+03  0.54500701074E+03  0.73491732460E+02 0.  0.
        254    2    1    2    0    0  0.34893671658E+03  0.19987014471E+03  0.37650181047E+03  0.10563790263E+04  0.90137568584E+03 0.  0.
         23    2    4    4    0    0  0.64635179788E+03  0.95231679285E+02  0.25605207411E+03  0.70780342822E+03  0.92646149301E+02 0.  0.
         23    2    4    4    0    0 -0.29741508130E+03  0.10463846542E+03  0.12044973636E+03  0.34857559810E+03  0.87131335175E+02 0.  0.
          4    1    3    3  502    0 -0.30989677566E+03 -0.17373524537E+03  0.28211675232E+03  0.45366265990E+03  0.00000000000E+00 0. -1.
         -3    1    3    3    0  502 -0.39039940922E+02 -0.26134899332E+02  0.78336712205E+02  0.91344350834E+02  0.00000000000E+00 0.  1.
         11    1    5    5    0    0  0.56582953210E+03  0.10715025513E+03  0.20288527112E+03  0.61057896279E+03  0.00000000000E+00 0.  1.
        -11    1    5    5    0    0  0.80522265781E+02 -0.11918575847E+02  0.53166802993E+02  0.97224465425E+02  0.00000000000E+00 0. -1.
          3    1    6    6  503    0 -0.55131906183E+02  0.51471142365E+02  0.67971344211E+01  0.75729826436E+02  0.00000000000E+00 0. -1.
         -3    1    6    6    0  503 -0.24228317512E+03  0.53167323056E+02  0.11365260194E+03  0.27284577166E+03  0.00000000000E+00 0.  1.
<mgrwt>
<rscale>  0 0.14217363E+04</rscale>
<asrwt>0</asrwt>
<pdfrwt beam="1">  1        2 0.66494674E-01 0.14217363E+04</pdfrwt>
<pdfrwt beam="2">  1       -1 0.17987241E+00 0.14217363E+04</pdfrwt>
<totfact> 0.16881817E+01</totfact>
</mgrwt>
</event>
<event>
12    6  0.1450532E-007  0.5043810E+04  0.7818608E-02  0.7821784E-01
         -3   -1    0    0    0  501 -0.00000000000E+00  0.00000000000E+00  0.38932427666E+04  0.38932427666E+04  0.00000000000E+00 0.  1.
          2   -1    0    0  501    0  0.00000000000E+00 -0.00000000000E+00 -0.16336008131E+04  0.16336008131E+04  0.00000000000E+00 0. -1.
         24    2    1    2    0    0  0.21705952479E+03 -0.11880845391E+04 -0.12302606228E+04  0.17258509161E+04  0.79752588926E+02 0.  0.
        254    2    1    2    0    0 -0.21705952479E+03  0.11880845391E+04  0.34899025762E+04  0.38009926636E+04  0.89970302178E+03 0.  0.
         23    2    4    4    0    0 -0.29803570664E+03  0.59218278121E+03  0.28085945550E+04  0.28872508693E+04  0.92241417761E+02 0.  0.
         23    2    4    4    0    0  0.80976181854E+02  0.59590175789E+03  0.68130802126E+03  0.91374179426E+03  0.95327853594E+02 0.  0.
          4    1    3    3  502    0  0.16518136902E+03 -0.71312007277E+03 -0.71791826169E+03  0.10252959345E+04  0.00000000000E+00 0. -1.
         -3    1    3    3    0  502  0.51878155773E+02 -0.47496446633E+03 -0.51234236108E+03  0.70055498163E+03  0.00000000000E+00 0.  1.
         11    1    5    5    0    0 -0.82247030190E+01  0.81997395603E+02  0.36823064958E+03  0.37733940944E+03  0.00000000000E+00 0. -1.
        -11    1    5    5    0    0 -0.28981100363E+03  0.51018538561E+03  0.24403639054E+04  0.25099114599E+04  0.00000000000E+00 0.  1.
          3    1    6    6  503    0  0.26079309653E+02  0.41936195503E+03  0.51869407284E+03  0.66752387292E+03  0.00000000000E+00 0. -1.
         -3    1    6    6    0  503  0.54896872201E+02  0.17653980286E+03  0.16261394842E+03  0.24621792134E+03  0.00000000000E+00 0.  1.
<mgrwt>
<rscale>  0 0.50438099E+04</rscale>
<asrwt>0</asrwt>
<pdfrwt beam="1">  1        2 0.25132320E+00 0.50438099E+04</pdfrwt>
<pdfrwt beam="2">  1       -3 0.59896042E+00 0.50438099E+04</pdfrwt>
<totfact> 0.44283795E-03</totfact>
</mgrwt>
</event>
<event>
12    6  0.1450532E-007  0.1372545E+04  0.7818608E-02  0.8973935E-01
         -1   -1    0    0    0  501 -0.00000000000E+00  0.00000000000E+00  0.38347966505E+03  0.38347966505E+03  0.00000000000E+00 0.  1.
          2   -1    0    0  501    0  0.00000000000E+00 -0.00000000000E+00 -0.12281484323E+04  0.12281484323E+04  0.00000000000E+00 0. -1.
         24    2    1    2    0    0 -0.26490595718E+03  0.19364152212E+03 -0.51957718837E+01  0.33786049168E+03  0.80315070554E+02 0.  0.
        254    2    1    2    0    0  0.26490595718E+03 -0.19364152212E+03 -0.83947299536E+03  0.12737676057E+04  0.90005377510E+03 0.  0.
         23    2    4    4    0    0  0.73909202852E+02 -0.11665696861E+03  0.16921269226E+03  0.24060483409E+03  0.10092736186E+03 0.  0.
         23    2    4    4    0    0  0.19099675433E+03 -0.76984553505E+02 -0.10086856876E+04  0.10331627716E+04  0.87017897744E+02 0.  0.
          2    1    3    3  502    0 -0.18538846477E+02  0.95654629044E+01  0.20501527233E+02  0.29248923538E+02  0.00000000000E+00 0. -1.
         -1    1    3    3    0  502 -0.24636711070E+03  0.18407605921E+03 -0.25697299116E+02  0.30861156814E+03  0.00000000000E+00 0.  1.
         11    1    5    5    0    0  0.34137502728E+02 -0.10755777256E+03  0.16456919028E+03  0.19954213069E+03  0.00000000000E+00 0.  1.
        -11    1    5    5    0    0  0.39771700124E+02 -0.90991960529E+01  0.46435019746E+01  0.41062703396E+02  0.00000000000E+00 0. -1.
          3    1    6    6  503    0  0.54434910881E+02 -0.62777748076E+02 -0.29970988393E+03  0.31101482232E+03  0.00000000000E+00 0. -1.
         -3    1    6    6    0  503  0.13656184345E+03 -0.14206805429E+02 -0.70897580368E+03  0.72214794926E+03  0.00000000000E+00 0.  1.
<mgrwt>
<rscale>  0 0.13725450E+04</rscale>
<asrwt>0</asrwt>
<pdfrwt beam="1">  1        2 0.18894591E+00 0.13725450E+04</pdfrwt>
<pdfrwt beam="2">  1       -1 0.58996871E-01 0.13725450E+04</pdfrwt>
<totfact> 0.58998901E+01</totfact>
</mgrwt>
</event>
<event>
12    6  0.1450532E-007  0.2796193E+04  0.7818608E-02  0.8304451E-01
         -1   -1    0    0    0  501 -0.00000000000E+00  0.00000000000E+00  0.71829226658E+03  0.71829226658E+03  0.00000000000E+00 0.  1.
          2   -1    0    0  501    0  0.00000000000E+00 -0.00000000000E+00 -0.27212784826E+04  0.27212784826E+04  0.00000000000E+00 0. -1.
         24    2    1    2    0    0  0.53860608867E+03  0.10437076156E+04 -0.33499619670E+03  0.12238905400E+04  0.79142255404E+02 0.  0.
        254    2    1    2    0    0 -0.53860608867E+03 -0.10437076156E+04 -0.16679900193E+04  0.22156802091E+04  0.86465367585E+03 0.  0.
         23    2    4    4    0    0 -0.61545905664E+03 -0.79538185210E+03 -0.16565682811E+04  0.19400866514E+04  0.91080205886E+02 0.  0.
         23    2    4    4    0    0  0.76852967970E+02 -0.24832576347E+03 -0.11421738137E+02  0.27559355770E+03  0.90825599132E+02 0.  0.
          4    1    3    3  502    0  0.17330583856E+03  0.40814903435E+03 -0.14633120588E+03  0.46694043489E+03  0.00000000000E+00 0. -1.
         -1    1    3    3    0  502  0.36530025011E+03  0.63555858122E+03 -0.18866499081E+03  0.75695010513E+03  0.00000000000E+00 0.  1.
         11    1    5    5    0    0 -0.25713423913E+03 -0.30592868944E+03 -0.73895034542E+03  0.84009403816E+03  0.00000000000E+00 0. -1.
        -11    1    5    5    0    0 -0.35832481751E+03 -0.48945316265E+03 -0.91761793572E+03  0.10999926133E+04  0.00000000000E+00 0.  1.
          3    1    6    6  503    0  0.84480426338E+02 -0.14347144737E+03  0.15066715048E+02  0.16717656698E+03  0.00000000000E+00 0. -1.
         -3    1    6    6    0  503 -0.76274583677E+01 -0.10485431609E+03 -0.26488453186E+02  0.10841699072E+03  0.00000000000E+00 0.  1.
<mgrwt>
<rscale>  0 0.27961926E+04</rscale>
<asrwt>0</asrwt>
<pdfrwt beam="1">  1        2 0.41865823E+00 0.27961926E+04</pdfrwt>
<pdfrwt beam="2">  1       -1 0.11050650E+00 0.27961926E+04</pdfrwt>
<totfact> 0.19255780E+00</totfact>
</mgrwt>
</event>
<event>
12    6  0.1450532E-007  0.1786636E+04  0.7818608E-02  0.8713439E-01
         -1   -1    0    0    0  501 -0.00000000000E+00  0.00000000000E+00  0.23757066559E+03  0.23757066559E+03  0.00000000000E+00 0.  1.
          2   -1    0    0  501    0  0.00000000000E+00 -0.00000000000E+00 -0.33590727783E+04  0.33590727783E+04  0.00000000000E+00 0. -1.
         24    2    1    2    0    0  0.93338887440E+02  0.25556205725E+03  0.45668044979E+02  0.29262150485E+03  0.97558504258E+02 0.  0.
        254    2    1    2    0    0 -0.93338887440E+02 -0.25556205725E+03 -0.31671701577E+04  0.33040219391E+04  0.90087182936E+03 0.  0.
         23    2    4    4    0    0 -0.41228025556E+03  0.42954122111E+02 -0.92235308646E+03  0.10152923538E+04  0.90902595625E+02 0.  0.
         23    2    4    4    0    0  0.31894136812E+03 -0.29851617936E+03 -0.22448170713E+04  0.22887295852E+04  0.90796064746E+02 0.  0.
          2    1    3    3  502    0  0.18336189212E+01  0.56301848798E+02 -0.25858847412E+02  0.61983387499E+02  0.00000000000E+00 0. -1.
         -1    1    3    3    0  502  0.91505268519E+02  0.19926020845E+03  0.71526892392E+02  0.23063811735E+03  0.00000000000E+00 0.  1.
         11    1    5    5    0    0 -0.27933040735E+03  0.64849652194E+01 -0.69957852423E+03  0.75331111953E+03  0.00000000000E+00 0.  1.
        -11    1    5    5    0    0 -0.13294984821E+03  0.36469156891E+02 -0.22277456224E+03  0.26198123429E+03  0.00000000000E+00 0. -1.
          3    1    6    6  503    0  0.22779845076E+03 -0.24134457090E+03 -0.18491671527E+04  0.18787119244E+04  0.00000000000E+00 0. -1.
         -3    1    6    6    0  503  0.91142917357E+02 -0.57171608460E+02 -0.39564991853E+03  0.41001766088E+03  0.00000000000E+00 0.  1.
<mgrwt>
<rscale>  0 0.17866361E+04</rscale>
<asrwt>0</asrwt>
<pdfrwt beam="1">  1        2 0.51678045E+00 0.17866361E+04</pdfrwt>
<pdfrwt beam="2">  1       -1 0.36549332E-01 0.17866361E+04</pdfrwt>
<totfact> 0.79052638E+00</totfact>
</mgrwt>
</event>
<event>
12    6  0.1450532E-007  0.2403609E+04  0.7818608E-02  0.8438154E-01
         -1   -1    0    0    0  501 -0.00000000000E+00  0.00000000000E+00  0.13859893780E+04  0.13859893780E+04  0.00000000000E+00 0.  1.
          2   -1    0    0  501    0  0.00000000000E+00 -0.00000000000E+00 -0.10420959039E+04  0.10420959039E+04  0.00000000000E+00 0. -1.
         24    2    1    2    0    0  0.63448153085E+03 -0.80021850899E+03  0.31722819053E+03  0.10723755789E+04  0.80244515454E+02 0.  0.
        254    2    1    2    0    0 -0.63448153085E+03  0.80021850899E+03  0.26665283598E+02  0.13557097030E+04  0.89124703999E+03 0.  0.
         23    2    4    4    0    0 -0.68099815407E+03  0.57798684169E+03  0.33756958503E+03  0.95930310477E+03  0.92097486755E+02 0.  0.
         23    2    4    4    0    0  0.46516623221E+02  0.22223166730E+03 -0.31090430143E+03  0.39640659821E+03  0.94477490824E+02 0.  0.
          4    1    3    3  502    0  0.45572369074E+02 -0.61610557637E+02  0.46757917833E+02  0.89771958403E+02  0.00000000000E+00 0. -1.
         -3    1    3    3    0  502  0.58890916178E+03 -0.73860795136E+03  0.27047027270E+03  0.98260362051E+03  0.00000000000E+00 0.  1.
         11    1    5    5    0    0 -0.56408443344E+03  0.50436165667E+03  0.31350289838E+03  0.81905799310E+03  0.00000000000E+00 0. -1.
        -11    1    5    5    0    0 -0.11691372063E+03  0.73625185023E+02  0.24066686652E+02  0.14024511167E+03  0.00000000000E+00 0.  1.
          1    1    6    6  503    0  0.12336970293E+02  0.20372548973E+03 -0.28132679601E+03  0.34756444317E+03  0.00000000000E+00 0. -1.
         -1    1    6    6    0  503  0.34179652928E+02  0.18506177572E+02 -0.29577505417E+02  0.48842155043E+02  0.00000000000E+00 0.  1.
<mgrwt>
<rscale>  0 0.24036088E+04</rscale>
<asrwt>0</asrwt>
<pdfrwt beam="1">  1        2 0.16032245E+00 0.24036088E+04</pdfrwt>
<pdfrwt beam="2">  1       -1 0.21322913E+00 0.24036088E+04</pdfrwt>
<totfact> 0.29664775E+00</totfact>
</mgrwt>
</event>
<event>
12    6  0.1450532E-007  0.2055089E+04  0.7818608E-02  0.8581289E-01
         -1   -1    0    0    0  501 -0.00000000000E+00  0.00000000000E+00  0.11361424209E+04  0.11361424209E+04  0.00000000000E+00 0.  1.
          2   -1    0    0  501    0  0.00000000000E+00 -0.00000000000E+00 -0.92932644442E+03  0.92932644442E+03  0.00000000000E+00 0. -1.
         24    2    1    2    0    0 -0.71276037822E+03 -0.37804161468E+02  0.51260731023E+03  0.88239338490E+03  0.79970743647E+02 0.  0.
        254    2    1    2    0    0  0.71276037822E+03  0.37804161468E+02 -0.30579133373E+03  0.11830754804E+04  0.89258206414E+03 0.  0.
         23    2    4    4    0    0  0.20512618553E+02  0.34231693163E+03  0.18489426309E+02  0.35522141433E+03  0.90767533374E+02 0.  0.
         23    2    4    4    0    0  0.69224775967E+03 -0.30451277016E+03 -0.32428076004E+03  0.82785406611E+03  0.90825962594E+02 0.  0.
          2    1    3    3  502    0 -0.68338117104E+03 -0.33650138969E+02  0.50842045836E+03  0.85242801412E+03  0.00000000000E+00 0. -1.
         -1    1    3    3    0  502 -0.29379207185E+02 -0.41540224980E+01  0.41868518699E+01  0.29965370786E+02  0.00000000000E+00 0.  1.
         11    1    5    5    0    0 -0.99268060787E+01  0.80150174057E+02 -0.31341067920E+02  0.86630562844E+02  0.00000000000E+00 0. -1.
        -11    1    5    5    0    0  0.30439424631E+02  0.26216675757E+03  0.49830494229E+02  0.26859085148E+03  0.00000000000E+00 0.  1.
          2    1    6    6  503    0  0.57019396702E+03 -0.21416194370E+03 -0.27411142280E+03  0.66792482381E+03  0.00000000000E+00 0.  1.
         -2    1    6    6    0  503  0.12205379265E+03 -0.90350826457E+02 -0.50169337236E+02  0.15992924229E+03  0.00000000000E+00 0. -1.
<mgrwt>
<rscale>  0 0.20550885E+04</rscale>
<asrwt>0</asrwt>
<pdfrwt beam="1">  1        2 0.14297330E+00 0.20550885E+04</pdfrwt>
<pdfrwt beam="2">  1       -1 0.17479114E+00 0.20550885E+04</pdfrwt>
<totfact> 0.67109860E+00</totfact>
</mgrwt>
</event>
<event>
12    6  0.1450532E-007  0.1484080E+04  0.7818608E-02  0.8895109E-01
         -1   -1    0    0    0  501 -0.00000000000E+00  0.00000000000E+00  0.25986174583E+03  0.25986174583E+03  0.00000000000E+00 0.  1.
          2   -1    0    0  501    0  0.00000000000E+00 -0.00000000000E+00 -0.21189100217E+04  0.21189100217E+04  0.00000000000E+00 0. -1.
         24    2    1    2    0    0 -0.15950372601E+03 -0.17038846055E+03  0.53421260338E+02  0.25258147798E+03  0.80435725041E+02 0.  0.
        254    2    1    2    0    0  0.15950372601E+03  0.17038846055E+03 -0.19124695362E+04  0.21261902895E+04  0.89926178299E+03 0.  0.
         23    2    4    4    0    0 -0.33677416495E+03 -0.88635445287E+02 -0.68324477930E+03  0.77239980286E+03  0.92222267836E+02 0.  0.
         23    2    4    4    0    0  0.49627789096E+03  0.25902390584E+03 -0.12292247569E+04  0.13537904867E+04  0.91487977314E+02 0.  0.
          2    1    3    3  502    0 -0.10227852641E+03 -0.14859243871E+03  0.16657436431E+02  0.18115761093E+03  0.00000000000E+00 0. -1.
         -1    1    3    3    0  502 -0.57225199600E+02 -0.21796021840E+02  0.36763823908E+02  0.71423867059E+02  0.00000000000E+00 0.  1.
         11    1    5    5    0    0 -0.61080129421E+02 -0.49709927215E+02 -0.19573576540E+03  0.21098423858E+03  0.00000000000E+00 0.  1.
        -11    1    5    5    0    0 -0.27569403553E+03 -0.38925518072E+02 -0.48750901390E+03  0.56141556428E+03  0.00000000000E+00 0. -1.
          2    1    6    6  503    0  0.45878455094E+03  0.22824033996E+03 -0.11695812078E+04  0.12769092053E+04  0.00000000000E+00 0. -1.
         -2    1    6    6    0  503  0.37493340025E+02  0.30783565881E+02 -0.59643549036E+02  0.76881281312E+02  0.00000000000E+00 0.  1.
<mgrwt>
<rscale>  0 0.14840804E+04</rscale>
<asrwt>0</asrwt>
<pdfrwt beam="1">  1        2 0.32598617E+00 0.14840804E+04</pdfrwt>
<pdfrwt beam="2">  1       -1 0.39978728E-01 0.14840804E+04</pdfrwt>
<totfact> 0.38553439E+01</totfact>
</mgrwt>
</event>
<event>
12    6  0.1450532E-007  0.1924538E+04  0.7818608E-02  0.8642738E-01
         -1   -1    0    0    0  501 -0.00000000000E+00  0.00000000000E+00  0.44451723579E+03  0.44451723579E+03  0.00000000000E+00 0.  1.
          2   -1    0    0  501    0  0.00000000000E+00 -0.00000000000E+00 -0.20830725423E+04  0.20830725423E+04  0.00000000000E+00 0. -1.
         24    2    1    2    0    0 -0.12417279584E+03  0.67959705230E+03 -0.94681001909E+03  0.11746885906E+04  0.78568670638E+02 0.  0.
        254    2    1    2    0    0  0.12417279584E+03 -0.67959705230E+03 -0.69174528744E+03  0.13529011875E+04  0.93517861590E+03 0.  0.
         23    2    4    4    0    0 -0.15492584260E+03  0.10999264010E+03 -0.41614014484E+03  0.46645693407E+03  0.91154010406E+02 0.  0.
         23    2    4    4    0    0  0.27909863844E+03 -0.78958969240E+03 -0.27560514261E+03  0.88644425340E+03  0.92072186011E+02 0.  0.
          2    1    3    3  502    0 -0.12602506036E+03  0.67252886019E+03 -0.91787831765E+03  0.11448484571E+04  0.00000000000E+00 0. -1.
         -1    1    3    3    0  502  0.18522645238E+01  0.70681921102E+01 -0.28931701442E+02  0.29840133577E+02  0.00000000000E+00 0.  1.
         11    1    5    5    0    0 -0.23908830894E+02 -0.13313360052E+02 -0.30905671449E+02  0.41279998526E+02  0.00000000000E+00 0. -1.
        -11    1    5    5    0    0 -0.13101701171E+03  0.12330600015E+03 -0.38523447339E+03  0.42517693554E+03  0.00000000000E+00 0.  1.
          1    1    6    6  503    0 -0.13002224122E+01  0.13011666688E+01  0.18785612058E+01  0.26291833760E+01  0.00000000000E+00 0. -1.
         -1    1    6    6    0  503  0.28039886085E+03 -0.79089085907E+03 -0.27748370381E+03  0.88381507002E+03  0.00000000000E+00 0.  1.
<mgrwt>
<rscale>  0 0.19245380E+04</rscale>
<asrwt>0</asrwt>
<pdfrwt beam="1">  1        2 0.32047270E+00 0.19245380E+04</pdfrwt>
<pdfrwt beam="2">  1       -1 0.68387267E-01 0.19245380E+04</pdfrwt>
<totfact> 0.13832831E+01</totfact>
</mgrwt>
</event>
<event>
12    6  0.1450532E-007  0.2395105E+04  0.7818608E-02  0.8441338E-01
          2   -1    0    0  501    0  0.00000000000E+00  0.00000000000E+00  0.12142915762E+04  0.12142915762E+04  0.00000000000E+00 0. -1.
         -1   -1    0    0    0  501 -0.00000000000E+00 -0.00000000000E+00 -0.11810444806E+04  0.11810444806E+04  0.00000000000E+00 0.  1.
         24    2    1    2    0    0  0.59693769839E+03  0.76018360649E+03 -0.33603148690E+03  0.10263439814E+04  0.79063750914E+02 0.  0.
        254    2    1    2    0    0 -0.59693769839E+03 -0.76018360649E+03  0.36927858244E+03  0.13689920754E+04  0.89641446863E+03 0.  0.
         23    2    4    4    0    0 -0.20191241991E+03  0.55728035876E+02 -0.19123876419E+03  0.29925543250E+03  0.95432225473E+02 0.  0.
         23    2    4    4    0    0 -0.39502527849E+03 -0.81591164237E+03  0.56051734663E+03  0.10697366428E+04  0.91651570535E+02 0.  0.
          4    1    3    3  502    0  0.38647289825E+03  0.49266677565E+03 -0.17738456197E+03  0.65080499056E+03  0.00000000000E+00 0. -1.
         -3    1    3    3    0  502  0.21046480015E+03  0.26751683085E+03 -0.15864692493E+03  0.37553899089E+03  0.00000000000E+00 0.  1.
         11    1    5    5    0    0 -0.25006613540E+01 -0.28482920164E+01  0.95473637720E+01  0.10272206657E+02  0.00000000000E+00 0.  1.
        -11    1    5    5    0    0 -0.19941175855E+03  0.58576327893E+02 -0.20078612796E+03  0.28898322584E+03  0.00000000000E+00 0. -1.
          2    1    6    6  503    0 -0.35977872966E+03 -0.77292686575E+03  0.54555821319E+03  0.10121711506E+04  0.00000000000E+00 0. -1.
         -2    1    6    6    0  503 -0.35246548831E+02 -0.42984776624E+02  0.14959133441E+02  0.57565492261E+02  0.00000000000E+00 0.  1.
<mgrwt>
<rscale>  0 0.23951053E+04</rscale>
<asrwt>0</asrwt>
<pdfrwt beam="1">  1        2 0.18681409E+00 0.23951053E+04</pdfrwt>
<pdfrwt beam="2">  1       -1 0.18169915E+00 0.23951053E+04</pdfrwt>
<totfact> 0.38533179E+00</totfact>
</mgrwt>
</event>
<event>
12    6  0.1450532E-007  0.1694601E+04  0.7818608E-02  0.8764449E-01
         -1   -1    0    0    0  501 -0.00000000000E+00  0.00000000000E+00  0.52773954875E+03  0.52773954875E+03  0.00000000000E+00 0.  1.
          2   -1    0    0  501    0  0.00000000000E+00 -0.00000000000E+00 -0.13603649683E+04  0.13603649683E+04  0.00000000000E+00 0. -1.
         24    2    1    2    0    0  0.22217445007E+03  0.29368696837E+03  0.23493457964E+03  0.44413636900E+03  0.80307757404E+02 0.  0.
        254    2    1    2    0    0 -0.22217445007E+03 -0.29368696837E+03 -0.10675599992E+04  0.14439681480E+04  0.89985895507E+03 0.  0.
         23    2    4    4    0    0 -0.30371757102E+03  0.94674379147E+02 -0.97075448454E+03  0.10253437281E+04  0.88078888039E+02 0.  0.
         23    2    4    4    0    0  0.81543120952E+02 -0.38836134752E+03 -0.96805514627E+02  0.41862441991E+03  0.91658499115E+02 0.  0.
          4    1    3    3  502    0  0.56195527342E+02  0.39903447620E+02  0.17834390870E+02  0.71191909111E+02  0.00000000000E+00 0. -1.
         -3    1    3    3    0  502  0.16597892273E+03  0.25378352075E+03  0.21710018877E+03  0.37294445989E+03  0.00000000000E+00 0.  1.
         11    1    5    5    0    0 -0.27718844945E+03  0.55350691502E+02 -0.83270096928E+03  0.87936797747E+03  0.00000000000E+00 0. -1.
        -11    1    5    5    0    0 -0.26529121573E+02  0.39323687645E+02 -0.13805351526E+03  0.14597575065E+03  0.00000000000E+00 0.  1.
          1    1    6    6  503    0  0.69366922524E+02 -0.38404490159E+03 -0.81648320597E+02  0.39870879678E+03  0.00000000000E+00 0. -1.
         -1    1    6    6    0  503  0.12176198428E+02 -0.43164459322E+01 -0.15157194030E+02  0.19915623126E+02  0.00000000000E+00 0.  1.
<mgrwt>
<rscale>  0 0.16946013E+04</rscale>
<asrwt>0</asrwt>
<pdfrwt beam="1">  1        2 0.20928692E+00 0.16946013E+04</pdfrwt>
<pdfrwt beam="2">  1       -1 0.81190701E-01 0.16946013E+04</pdfrwt>
<totfact> 0.25011015E+01</totfact>
</mgrwt>
</event>
<event>
12    6  0.1450532E-007  0.1223021E+04  0.7818608E-02  0.9092942E-01
          2   -1    0    0  501    0  0.00000000000E+00  0.00000000000E+00  0.25790147379E+03  0.25790147379E+03  0.00000000000E+00 0. -1.
         -1   -1    0    0    0  501 -0.00000000000E+00 -0.00000000000E+00 -0.14499525702E+04  0.14499525702E+04  0.00000000000E+00 0.  1.
         24    2    1    2    0    0  0.64563762569E+02 -0.16817860920E+03  0.47716967983E+01  0.19683663411E+03  0.79179337005E+02 0.  0.
        254    2    1    2    0    0 -0.64563762569E+02  0.16817860920E+03 -0.11968227932E+04  0.15110174099E+04  0.90461941753E+03 0.  0.
         23    2    4    4    0    0 -0.34277469345E+02 -0.21088153682E+03 -0.10774252557E+04  0.11022147049E+04  0.91575687719E+02 0.  0.
         23    2    4    4    0    0 -0.30286293224E+02  0.37906014602E+03 -0.11939753748E+03  0.40880270495E+03  0.90884683860E+02 0.  0.
          2    1    3    3  502    0  0.67905316968E+02 -0.17217546530E+03 -0.56679937121E+01  0.18516924441E+03  0.00000000000E+00 0. -1.
         -1    1    3    3    0  502 -0.33415543994E+01  0.39968560980E+01  0.10439690510E+02  0.11667389701E+02  0.00000000000E+00 0.  1.
         11    1    5    5    0    0 -0.33283693648E+01 -0.11406509260E+03 -0.36076720918E+03  0.37838459616E+03  0.00000000000E+00 0. -1.
        -11    1    5    5    0    0 -0.30949099980E+02 -0.96816444221E+02 -0.71665804655E+03  0.72383010876E+03  0.00000000000E+00 0.  1.
          1    1    6    6  503    0 -0.23189239240E+02  0.16801940134E+02 -0.78494414199E+01  0.29692755672E+02  0.00000000000E+00 0. -1.
         -1    1    6    6    0  503 -0.70970539838E+01  0.36225820589E+03 -0.11154809606E+03  0.37910994928E+03  0.00000000000E+00 0.  1.
<mgrwt>
<rscale>  0 0.12230207E+04</rscale>
<asrwt>0</asrwt>
<pdfrwt beam="1">  1        2 0.39677149E-01 0.12230207E+04</pdfrwt>
<pdfrwt beam="2">  1       -1 0.22306963E+00 0.12230207E+04</pdfrwt>
<totfact> 0.15424480E+01</totfact>
</mgrwt>
</event>
<event>
12    6  0.1450532E-007  0.1207038E+04  0.7818608E-02  0.9106718E-01
          2   -1    0    0  501    0  0.00000000000E+00  0.00000000000E+00  0.39229739329E+04  0.39229739329E+04  0.00000000000E+00 0. -1.
         -1   -1    0    0    0  501 -0.00000000000E+00 -0.00000000000E+00 -0.92846739027E+02  0.92846739027E+02  0.00000000000E+00 0.  1.
         24    2    1    2    0    0  0.20157405738E+03 -0.11709480472E+03  0.46027211721E+03  0.52340944833E+03  0.88112058287E+02 0.  0.
        254    2    1    2    0    0 -0.20157405738E+03  0.11709480472E+03  0.33698550767E+04  0.34924112236E+04  0.88694397970E+03 0.  0.
         23    2    4    4    0    0  0.78403188932E+02  0.82300846834E+02  0.30643798574E+04  0.30676259775E+04  0.83574746656E+02 0.  0.
         23    2    4    4    0    0 -0.27997724631E+03  0.34793957891E+02  0.30547521930E+03  0.42478524609E+03  0.86772793730E+02 0.  0.
          4    1    3    3  502    0  0.11678777746E+02 -0.38085765850E+02  0.11280412429E+03  0.11963147524E+03  0.00000000000E+00 0. -1.
         -3    1    3    3    0  502  0.18989527963E+03 -0.79009038875E+02  0.34746799292E+03  0.40377797309E+03  0.00000000000E+00 0.  1.
         11    1    5    5    0    0 -0.11945293887E+02  0.47155079954E+01  0.95627967789E+02  0.96486446121E+02  0.00000000000E+00 0. -1.
        -11    1    5    5    0    0  0.90348482819E+02  0.77585338838E+02  0.29687518896E+04  0.29711395314E+04  0.00000000000E+00 0.  1.
          3    1    6    6  503    0 -0.15202914062E+03  0.51121084862E+02  0.12703312293E+03  0.20460605865E+03  0.00000000000E+00 0. -1.
         -3    1    6    6    0  503 -0.12794810569E+03 -0.16327126971E+02  0.17844209637E+03  0.22017918744E+03  0.00000000000E+00 0.  1.
<mgrwt>
<rscale>  0 0.12070383E+04</rscale>
<asrwt>0</asrwt>
<pdfrwt beam="1">  1        2 0.60353432E+00 0.12070383E+04</pdfrwt>
<pdfrwt beam="2">  1       -1 0.14284117E-01 0.12070383E+04</pdfrwt>
<totfact> 0.16379665E+01</totfact>
</mgrwt>
</event>
<event>
12    6  0.1450532E-007  0.1407175E+04  0.7818608E-02  0.8948641E-01
          2   -1    0    0  501    0  0.00000000000E+00  0.00000000000E+00  0.21069941672E+04  0.21069941672E+04  0.00000000000E+00 0. -1.
         -1   -1    0    0    0  501 -0.00000000000E+00 -0.00000000000E+00 -0.23494876746E+03  0.23494876746E+03  0.00000000000E+00 0.  1.
         24    2    1    2    0    0 -0.14963163505E+03  0.91330029066E+02 -0.50668356734E+02  0.19913905735E+03  0.79738832279E+02 0.  0.
        254    2    1    2    0    0  0.14963163505E+03 -0.91330029066E+02  0.19227137565E+04  0.21428038773E+04  0.92954261164E+03 0.  0.
         23    2    4    4    0    0 -0.14235773303E+03  0.35037157292E+03  0.60144211797E+03  0.71613210661E+03  0.89925578008E+02 0.  0.
         23    2    4    4    0    0  0.29198936807E+03 -0.44170160199E+03  0.13212716385E+04  0.14266717707E+04  0.96309409341E+02 0.  0.
          2    1    3    3  502    0 -0.23665545921E+02  0.17476647570E+02 -0.44048312156E+02  0.52969284286E+02  0.00000000000E+00 0. -1.
         -1    1    3    3    0  502 -0.12596608912E+03  0.73853381496E+02 -0.66200445780E+01  0.14616977307E+03  0.00000000000E+00 0.  1.
         11    1    5    5    0    0 -0.15091435708E+03  0.28940533138E+03  0.52175467251E+03  0.61543360917E+03  0.00000000000E+00 0. -1.
        -11    1    5    5    0    0  0.85566240562E+01  0.60966241537E+02  0.79687445461E+02  0.10069849744E+03  0.00000000000E+00 0.  1.
          4    1    6    6  503    0  0.25999046785E+03 -0.32158110105E+03  0.10366329437E+04  0.11160722682E+04  0.00000000000E+00 0. -1.
         -4    1    6    6    0  503  0.31998900224E+02 -0.12012050094E+03  0.28463869488E+03  0.31059950255E+03  0.00000000000E+00 0.  1.
<mgrwt>
<rscale>  0 0.14071754E+04</rscale>
<asrwt>0</asrwt>
<pdfrwt beam="1">  1        2 0.32415294E+00 0.14071754E+04</pdfrwt>
<pdfrwt beam="2">  1       -1 0.36145966E-01 0.14071754E+04</pdfrwt>
<totfact> 0.47299080E+01</totfact>
</mgrwt>
</event>
<event>
12    6  0.1450532E-007  0.1333867E+04  0.7818608E-02  0.9003132E-01
         -1   -1    0    0    0  501 -0.00000000000E+00  0.00000000000E+00  0.93361998244E+03  0.93361998244E+03  0.00000000000E+00 0.  1.
          2   -1    0    0  501    0  0.00000000000E+00 -0.00000000000E+00 -0.47642506574E+03  0.47642506574E+03  0.00000000000E+00 0. -1.
         24    2    1    2    0    0 -0.65996393258E+02 -0.33581812056E+03  0.10709205726E+02  0.35115632730E+03  0.77889313103E+02 0.  0.
        254    2    1    2    0    0  0.65996393258E+02  0.33581812056E+03  0.44648571098E+03  0.10588887209E+04  0.89708778783E+03 0.  0.
         23    2    4    4    0    0 -0.40902229070E+02 -0.24979906015E+03 -0.55105520437E+02  0.27513503589E+03  0.92682829035E+02 0.  0.
         23    2    4    4    0    0  0.10689862233E+03  0.58561718071E+03  0.50159123142E+03  0.78375368499E+03  0.91111346694E+02 0.  0.
          2    1    3    3  502    0 -0.38852687822E+02 -0.24282868039E+03 -0.26595964661E+02  0.24735125775E+03  0.00000000000E+00 0. -1.
         -1    1    3    3    0  502 -0.27143705436E+02 -0.92989440169E+02  0.37305170387E+02  0.10380506955E+03  0.00000000000E+00 0.  1.
         11    1    5    5    0    0 -0.18873735131E+02 -0.24479878252E+03 -0.58216989051E+02  0.25233287462E+03  0.00000000000E+00 0.  1.
        -11    1    5    5    0    0 -0.22028493939E+02 -0.50002776291E+01  0.31114686143E+01  0.22802161269E+02  0.00000000000E+00 0. -1.
          1    1    6    6  503    0  0.58338927894E+02  0.21760058741E+03  0.13826416502E+03  0.26433014485E+03  0.00000000000E+00 0. -1.
         -1    1    6    6    0  503  0.48559694434E+02  0.36801659330E+03  0.36332706640E+03  0.51942354014E+03  0.00000000000E+00 0.  1.
<mgrwt>
<rscale>  0 0.13338665E+04</rscale>
<asrwt>0</asrwt>
<pdfrwt beam="1">  1        2 0.73296164E-01 0.13338665E+04</pdfrwt>
<pdfrwt beam="2">  1       -1 0.14363384E+00 0.13338665E+04</pdfrwt>
<totfact> 0.28542619E+01</totfact>
</mgrwt>
</event>
<event>
12    6  0.1450532E-007  0.1298708E+04  0.7818608E-02  0.9030591E-01
         -1   -1    0    0    0  501 -0.00000000000E+00  0.00000000000E+00  0.18391051669E+03  0.18391051669E+03  0.00000000000E+00 0.  1.
          2   -1    0    0  501    0  0.00000000000E+00 -0.00000000000E+00 -0.22927480933E+04  0.22927480933E+04  0.00000000000E+00 0. -1.
         24    2    1    2    0    0  0.24199018270E+03  0.48053272904E+02 -0.97009267910E+03  0.10038553729E+04  0.76009460045E+02 0.  0.
        254    2    1    2    0    0 -0.24199018270E+03 -0.48053272904E+02 -0.11387448975E+04  0.14728032371E+04  0.90085574214E+03 0.  0.
         23    2    4    4    0    0 -0.14475338026E+03 -0.40832870554E+03 -0.94209649503E+03  0.10410846617E+04  0.92874076066E+02 0.  0.
         23    2    4    4    0    0 -0.97236802447E+02  0.36027543264E+03 -0.19664840249E+03  0.43171857544E+03  0.91961682610E+02 0.  0.
          4    1    3    3  502    0  0.23530438452E+03  0.51685789478E+02 -0.84887702571E+03  0.88240114403E+03  0.00000000000E+00 0. -1.
         -3    1    3    3    0  502  0.66857981844E+01 -0.36325165745E+01 -0.12121565339E+03  0.12145422883E+03  0.00000000000E+00 0.  1.
         11    1    5    5    0    0 -0.42226756054E+02 -0.23862230684E+03 -0.46302951952E+03  0.52260887880E+03  0.00000000000E+00 0. -1.
        -11    1    5    5    0    0 -0.10252662420E+03 -0.16970639871E+03 -0.47906697551E+03  0.51847578290E+03  0.00000000000E+00 0.  1.
          2    1    6    6  503    0 -0.54120363784E+02  0.83924378405E+02 -0.22909823404E+02  0.10245572251E+03  0.00000000000E+00 0.  1.
         -2    1    6    6    0  503 -0.43116438663E+02  0.27635105424E+03 -0.17373857908E+03  0.32926285293E+03  0.00000000000E+00 0. -1.
<mgrwt>
<rscale>  0 0.12987078E+04</rscale>
<asrwt>0</asrwt>
<pdfrwt beam="1">  1        2 0.35273050E+00 0.12987078E+04</pdfrwt>
<pdfrwt beam="2">  1       -1 0.28293924E-01 0.12987078E+04</pdfrwt>
<totfact> 0.57937998E+01</totfact>
</mgrwt>
</event>
<event>
12    6  0.1450532E-007  0.1945883E+04  0.7818608E-02  0.8632348E-01
          2   -1    0    0  501    0  0.00000000000E+00  0.00000000000E+00  0.19655660253E+04  0.19655660253E+04  0.00000000000E+00 0. -1.
         -1   -1    0    0    0  501 -0.00000000000E+00 -0.00000000000E+00 -0.48159943671E+03  0.48159943671E+03  0.00000000000E+00 0.  1.
         24    2    1    2    0    0  0.82082298527E+01 -0.38683103651E+02  0.15523565377E+04  0.15548991964E+04  0.79604858434E+02 0.  0.
        254    2    1    2    0    0 -0.82082298527E+01  0.38683103651E+02 -0.68389949063E+02  0.89226626560E+03  0.88876214256E+03 0.  0.
         23    2    4    4    0    0  0.37791560770E+03 -0.13247480272E+03 -0.17636499021E+03  0.44746180754E+03  0.93529030437E+02 0.  0.
         23    2    4    4    0    0 -0.38612383756E+03  0.17115790637E+03  0.10797504115E+03  0.44480445805E+03  0.88350153076E+02 0.  0.
          4    1    3    3  502    0 -0.23963039802E+02  0.24087479813E+01  0.94434761721E+03  0.94465467314E+03  0.00000000000E+00 0. -1.
         -3    1    3    3    0  502  0.32171269654E+02 -0.41091851632E+02  0.60800892044E+03  0.61024452328E+03  0.00000000000E+00 0.  1.
         11    1    5    5    0    0  0.96725792223E+02 -0.69902784471E+02 -0.24556881699E+02  0.12184136652E+03  0.00000000000E+00 0.  1.
        -11    1    5    5    0    0  0.28118981548E+03 -0.62572018253E+02 -0.15180810852E+03  0.32562044102E+03  0.00000000000E+00 0. -1.
          1    1    6    6  503    0 -0.20904503364E+03  0.47230102492E+02  0.69262671859E+02  0.22522838716E+03  0.00000000000E+00 0. -1.
         -1    1    6    6    0  503 -0.17707880392E+03  0.12392780388E+03  0.38712369293E+02  0.21957607089E+03  0.00000000000E+00 0.  1.
<mgrwt>
<rscale>  0 0.19458833E+04</rscale>
<asrwt>0</asrwt>
<pdfrwt beam="1">  1        2 0.30239477E+00 0.19458833E+04</pdfrwt>
<pdfrwt beam="2">  1       -1 0.74092222E-01 0.19458833E+04</pdfrwt>
<totfact> 0.13606035E+01</totfact>
</mgrwt>
</event>
<event>
12    6  0.1450532E-007  0.3321077E+04  0.7818608E-02  0.8157553E-01
          2   -1    0    0  501    0  0.00000000000E+00  0.00000000000E+00  0.19653705911E+04  0.19653705911E+04  0.00000000000E+00 0. -1.
         -1   -1    0    0    0  501 -0.00000000000E+00 -0.00000000000E+00 -0.14029864047E+04  0.14029864047E+04  0.00000000000E+00 0.  1.
         24    2    1    2    0    0  0.50275990900E+03 -0.12482814499E+04  0.10070060668E+04  0.16826756466E+04  0.79762201775E+02 0.  0.
        254    2    1    2    0    0 -0.50275990900E+03  0.12482814499E+04 -0.44462188035E+03  0.16856813493E+04  0.91261102916E+03 0.  0.
         23    2    4    4    0    0 -0.45263541874E+03  0.13103362711E+04 -0.18846509189E+03  0.14020877916E+04  0.92038681475E+02 0.  0.
         23    2    4    4    0    0 -0.50124490258E+02 -0.62054821237E+02 -0.25615678845E+03  0.28359355762E+03  0.91900708865E+02 0.  0.
          4    1    3    3  502    0  0.97641881280E+02 -0.30970175518E+03  0.21438502030E+03  0.38911444470E+03  0.00000000000E+00 0. -1.
         -3    1    3    3    0  502  0.40511802772E+03 -0.93857969471E+03  0.79262104647E+03  0.12935612019E+04  0.00000000000E+00 0.  1.
         11    1    5    5    0    0 -0.51021699178E+02  0.13906763398E+03 -0.49111788947E+02  0.15606084845E+03  0.00000000000E+00 0. -1.
        -11    1    5    5    0    0 -0.40161371957E+03  0.11712686372E+04 -0.13935330295E+03  0.12460269432E+04  0.00000000000E+00 0.  1.
          3    1    6    6  503    0  0.19668403046E+02  0.77318691145E+01 -0.28657051703E+02  0.35606944417E+02  0.00000000000E+00 0. -1.
         -3    1    6    6    0  503 -0.69792893304E+02 -0.69786690351E+02 -0.22749973675E+03  0.24798661320E+03  0.00000000000E+00 0.  1.
<mgrwt>
<rscale>  0 0.33210771E+04</rscale>
<asrwt>0</asrwt>
<pdfrwt beam="1">  1        2 0.30236471E+00 0.33210771E+04</pdfrwt>
<pdfrwt beam="2">  1       -1 0.21584406E+00 0.33210771E+04</pdfrwt>
<totfact> 0.77746155E-01</totfact>
</mgrwt>
</event>
<event>
12    6  0.1450532E-007  0.1152167E+04  0.7818608E-02  0.9155786E-01
         -1   -1    0    0    0  501 -0.00000000000E+00  0.00000000000E+00  0.73257923572E+03  0.73257923572E+03  0.00000000000E+00 0.  1.
          2   -1    0    0  501    0  0.00000000000E+00 -0.00000000000E+00 -0.45301918326E+03  0.45301918326E+03  0.00000000000E+00 0. -1.
         24    2    1    2    0    0  0.19375377206E+03  0.23586556196E+02  0.14859362245E+03  0.25707026622E+03  0.76864864043E+02 0.  0.
        254    2    1    2    0    0 -0.19375377206E+03 -0.23586556196E+02  0.13096643001E+03  0.92852815276E+03  0.89828474041E+03 0.  0.
         23    2    4    4    0    0 -0.37721381090E+03  0.28554365816E+03 -0.99479605026E+02  0.49225942071E+03  0.92723813595E+02 0.  0.
         23    2    4    4    0    0  0.18346003884E+03 -0.30913021436E+03  0.23044603503E+03  0.43626873205E+03  0.89476009192E+02 0.  0.
          2    1    3    3  502    0  0.10255392253E+03  0.39607766676E+02  0.46861998815E+02  0.11950786225E+03  0.00000000000E+00 0. -1.
         -1    1    3    3    0  502  0.91199849527E+02 -0.16021210481E+02  0.10173162363E+03  0.13756240397E+03  0.00000000000E+00 0.  1.
         11    1    5    5    0    0 -0.29914822791E+03  0.25952335594E+03 -0.58493490825E+02  0.40032926824E+03  0.00000000000E+00 0.  1.
        -11    1    5    5    0    0 -0.78065582987E+02  0.26020302220E+02 -0.40986114200E+02  0.91930152463E+02  0.00000000000E+00 0. -1.
          1    1    6    6  503    0  0.98159376058E+02 -0.17580148335E+03  0.18018406530E+03  0.27019941163E+03  0.00000000000E+00 0. -1.
         -1    1    6    6    0  503  0.85300662785E+02 -0.13332873101E+03  0.50261969731E+02  0.16606932042E+03  0.00000000000E+00 0.  1.
<mgrwt>
<rscale>  0 0.11521674E+04</rscale>
<asrwt>0</asrwt>
<pdfrwt beam="1">  1        2 0.69695259E-01 0.11521674E+04</pdfrwt>
<pdfrwt beam="2">  1       -1 0.11270450E+00 0.11521674E+04</pdfrwt>
<totfact> 0.56322105E+01</totfact>
</mgrwt>
</event>
<event>
12    6  0.1577573E-007  0.1662481E+04  0.7818608E-02  0.8783057E-01
         -1   -1    0    0    0  501 -0.00000000000E+00  0.00000000000E+00  0.23303323673E+03  0.23303323673E+03  0.00000000000E+00 0.  1.
          2   -1    0    0  501    0  0.00000000000E+00 -0.00000000000E+00 -0.29650735789E+04  0.29650735789E+04  0.00000000000E+00 0. -1.
         24    2    1    2    0    0 -0.26085687635E+03 -0.27017182517E+03 -0.18166946200E+04  0.18567418651E+04  0.77922308972E+02 0.  0.
        254    2    1    2    0    0  0.26085687635E+03  0.27017182517E+03 -0.91534572223E+03  0.13413649506E+04  0.90573893281E+03 0.  0.
         23    2    4    4    0    0  0.53576106598E+03  0.15231071693E+03 -0.85302463812E+03  0.10228066748E+04  0.90796401426E+02 0.  0.
         23    2    4    4    0    0 -0.27490418963E+03  0.11786110824E+03 -0.62321084114E+02  0.31855827577E+03  0.90177065976E+02 0.  0.
          4    1    3    3  502    0 -0.25180951415E+03 -0.27209797574E+03 -0.17142757008E+04  0.17539060745E+04  0.00000000000E+00 0. -1.
         -3    1    3    3    0  502 -0.90473621940E+01  0.19261505664E+01 -0.10241891919E+03  0.10283579059E+03  0.00000000000E+00 0.  1.
         11    1    5    5    0    0  0.22707959594E+03  0.21117021823E+02 -0.31750191603E+03  0.39092011740E+03  0.00000000000E+00 0.  1.
        -11    1    5    5    0    0  0.30868147004E+03  0.13119369511E+03 -0.53552272208E+03  0.63188655742E+03  0.00000000000E+00 0. -1.
          4    1    6    6  503    0 -0.38085694391E+02 -0.14217073909E+02 -0.16070530997E+01  0.40684492468E+02  0.00000000000E+00 0. -1.
         -4    1    6    6    0  503 -0.23681849524E+03  0.13207818215E+03 -0.60714031014E+02  0.27787378330E+03  0.00000000000E+00 0.  1.
<mgrwt>
<rscale>  0 0.16624809E+04</rscale>
<asrwt>0</asrwt>
<pdfrwt beam="1">  1        2 0.45616517E+00 0.16624809E+04</pdfrwt>
<pdfrwt beam="2">  1       -1 0.35851267E-01 0.16624809E+04</pdfrwt>
<totfact> 0.14859037E+01</totfact>
</mgrwt>
</event>
<event>
12    6  0.1450532E-007  0.3154823E+04  0.7818608E-02  0.8200851E-01
         -1   -1    0    0    0  501 -0.00000000000E+00  0.00000000000E+00  0.12969109177E+04  0.12969109177E+04  0.00000000000E+00 0.  1.
          2   -1    0    0  501    0  0.00000000000E+00 -0.00000000000E+00 -0.19185799241E+04  0.19185799241E+04  0.00000000000E+00 0. -1.
         24    2    1    2    0    0 -0.13744915028E+03 -0.14042443299E+03  0.11749125118E+04  0.11947093772E+04  0.91103212944E+02 0.  0.
        254    2    1    2    0    0  0.13744915028E+03  0.14042443299E+03 -0.17965815181E+04  0.20207814646E+04  0.90401398565E+03 0.  0.
         23    2    4    4    0    0  0.37253108317E+02 -0.33349347326E+03 -0.11852566410E+04  0.12352239159E+04  0.91318818475E+02 0.  0.
         23    2    4    4    0    0  0.10019604196E+03  0.47391790625E+03 -0.61132487705E+03  0.78555754866E+03  0.93515390502E+02 0.  0.
          4    1    3    3  502    0 -0.10224092136E+02  0.86943570233E+01  0.26676293790E+02  0.29862159239E+02  0.00000000000E+00 0. -1.
         -3    1    3    3    0  502 -0.12722505815E+03 -0.14911879002E+03  0.11482362180E+04  0.11648472180E+04  0.00000000000E+00 0.  1.
         11    1    5    5    0    0 -0.25104051368E+01 -0.22875773512E+03 -0.90346739056E+03  0.93198161426E+03  0.00000000000E+00 0. -1.
        -11    1    5    5    0    0  0.39763513454E+02 -0.10473573814E+03 -0.28178925048E+03  0.30324230169E+03  0.00000000000E+00 0.  1.
          2    1    6    6  503    0  0.51701956910E+02  0.37693232488E+03 -0.42881153382E+03  0.57326294266E+03  0.00000000000E+00 0. -1.
         -2    1    6    6    0  503  0.48494085055E+02  0.96985581370E+02 -0.18251334323E+03  0.21229460600E+03  0.00000000000E+00 0.  1.
<mgrwt>
<rscale>  0 0.31548231E+04</rscale>
<asrwt>0</asrwt>
<pdfrwt beam="1">  1        2 0.29516614E+00 0.31548231E+04</pdfrwt>
<pdfrwt beam="2">  1       -1 0.19952476E+00 0.31548231E+04</pdfrwt>
<totfact> 0.10812670E+00</totfact>
</mgrwt>
</event>
<event>
12    6  0.1450532E-007  0.2336851E+04  0.7818608E-02  0.8463531E-01
         -1   -1    0    0    0  501 -0.00000000000E+00  0.00000000000E+00  0.15400083317E+04  0.15400083317E+04  0.00000000000E+00 0.  1.
          2   -1    0    0  501    0  0.00000000000E+00 -0.00000000000E+00 -0.88650053894E+03  0.88650053894E+03  0.00000000000E+00 0. -1.
         24    2    1    2    0    0 -0.16717843905E+03 -0.16001749571E+03  0.12821910020E+04  0.13050679953E+04  0.75063157029E+02 0.  0.
        254    2    1    2    0    0  0.16717843905E+03  0.16001749571E+03 -0.62868320916E+03  0.11214408753E+04  0.89935133845E+03 0.  0.
         23    2    4    4    0    0 -0.11997240395E+02 -0.36023779279E+03 -0.24998447330E+03  0.44742368011E+03  0.88207207744E+02 0.  0.
         23    2    4    4    0    0  0.17917567945E+03  0.52025528851E+03 -0.37869873586E+03  0.67401719523E+03  0.90094159609E+02 0.  0.
          4    1    3    3  502    0 -0.66353746319E+02 -0.25913056231E+02  0.50294296304E+03  0.50796252834E+03  0.00000000000E+00 0. -1.
         -3    1    3    3    0  502 -0.10082469273E+03 -0.13410443948E+03  0.77924803893E+03  0.79710546700E+03  0.00000000000E+00 0.  1.
         11    1    5    5    0    0  0.73533122257E+01 -0.32616710835E+03 -0.24484224703E+03  0.40790535630E+03  0.00000000000E+00 0. -1.
        -11    1    5    5    0    0 -0.19350552621E+02 -0.34070684448E+02 -0.51422262623E+01  0.39518323805E+02  0.00000000000E+00 0.  1.
          3    1    6    6  503    0  0.14151725865E+03  0.34554152535E+03 -0.29885057323E+03  0.47826535036E+03  0.00000000000E+00 0. -1.
         -3    1    6    6    0  503  0.37658420800E+02  0.17471376316E+03 -0.79848162638E+02  0.19575184487E+03  0.00000000000E+00 0.  1.
<mgrwt>
<rscale>  0 0.23368511E+04</rscale>
<asrwt>0</asrwt>
<pdfrwt beam="1">  1        2 0.13638470E+00 0.23368511E+04</pdfrwt>
<pdfrwt beam="2">  1       -1 0.23692436E+00 0.23368511E+04</pdfrwt>
<totfact> 0.26224753E+00</totfact>
</mgrwt>
</event>
<event>
12    6  0.1450532E-007  0.1654170E+04  0.7818608E-02  0.8787943E-01
         -1   -1    0    0    0  501 -0.00000000000E+00  0.00000000000E+00  0.12773744181E+04  0.12773744181E+04  0.00000000000E+00 0.  1.
          2   -1    0    0  501    0  0.00000000000E+00 -0.00000000000E+00 -0.53552818216E+03  0.53552818216E+03  0.00000000000E+00 0. -1.
         24    2    1    2    0    0 -0.29587187638E+02 -0.99116738035E+02  0.89015251252E+03  0.89970930139E+03  0.80036254564E+02 0.  0.
        254    2    1    2    0    0  0.29587187638E+02  0.99116738035E+02 -0.14830627658E+03  0.91319329886E+03  0.89511324422E+03 0.  0.
         23    2    4    4    0    0  0.39000239478E+03  0.77781982075E+02  0.15059410731E+03  0.43561637531E+03  0.94504690963E+02 0.  0.
         23    2    4    4    0    0 -0.36041520714E+03  0.21334755961E+02 -0.29890038389E+03  0.47757692355E+03  0.91564103562E+02 0.  0.
          4    1    3    3  502    0 -0.37009036910E+02 -0.64500924163E+01  0.23139250273E+03  0.23442218927E+03  0.00000000000E+00 0. -1.
         -3    1    3    3    0  502  0.74218492724E+01 -0.92666645619E+02  0.65876000979E+03  0.66528711212E+03  0.00000000000E+00 0.  1.
         11    1    5    5    0    0  0.72616951911E+02  0.49959785700E+02  0.15225450266E+02  0.89448399806E+02  0.00000000000E+00 0.  1.
        -11    1    5    5    0    0  0.31738544287E+03  0.27822196375E+02  0.13536865704E+03  0.34616797551E+03  0.00000000000E+00 0. -1.
          3    1    6    6  503    0 -0.29116699562E+02  0.17123731493E+02 -0.60863862253E+02  0.69609008770E+02  0.00000000000E+00 0. -1.
         -3    1    6    6    0  503 -0.33129850758E+03  0.42110244674E+01 -0.23803652164E+03  0.40796791477E+03  0.00000000000E+00 0.  1.
<mgrwt>
<rscale>  0 0.16541705E+04</rscale>
<asrwt>0</asrwt>
<pdfrwt beam="1">  1        2 0.82388952E-01 0.16541705E+04</pdfrwt>
<pdfrwt beam="2">  1       -1 0.19651914E+00 0.16541705E+04</pdfrwt>
<totfact> 0.98633110E+00</totfact>
</mgrwt>
</event>
<event>
12    6  0.1450532E-007  0.1383585E+04  0.7818608E-02  0.8965787E-01
         -1   -1    0    0    0  501 -0.00000000000E+00  0.00000000000E+00  0.52753855524E+03  0.52753855524E+03  0.00000000000E+00 0.  1.
          2   -1    0    0  501    0  0.00000000000E+00 -0.00000000000E+00 -0.90718900523E+03  0.90718900523E+03  0.00000000000E+00 0. -1.
         24    2    1    2    0    0  0.25839575918E+03  0.14050125872E+02 -0.40743957810E+03  0.48929329332E+03  0.80219341152E+02 0.  0.
        254    2    1    2    0    0 -0.25839575918E+03 -0.14050125872E+02  0.27789128104E+02  0.94543426714E+03  0.90890480439E+03 0.  0.
         23    2    4    4    0    0 -0.39488445657E+03 -0.35867512834E+03  0.10949727463E+03  0.55430303022E+03  0.10334705813E+03 0.  0.
         23    2    4    4    0    0  0.13648869740E+03  0.34462500247E+03 -0.81708146530E+02  0.39113123692E+03  0.94402682400E+02 0.  0.
          2    1    3    3  502    0  0.20014808141E+03 -0.77171145716E+01 -0.25218926699E+03  0.32205315514E+03  0.00000000000E+00 0. -1.
         -1    1    3    3    0  502  0.58247677764E+02  0.21767240444E+02 -0.15525031111E+03  0.16724013818E+03  0.00000000000E+00 0.  1.
         11    1    5    5    0    0 -0.11506159090E+03 -0.51177354588E+02  0.44120674097E+02  0.13343509736E+03  0.00000000000E+00 0.  1.
        -11    1    5    5    0    0 -0.27982286567E+03 -0.30749777375E+03  0.65376600536E+02  0.42086793286E+03  0.00000000000E+00 0. -1.
          1    1    6    6  503    0  0.61896543139E+02  0.20661362114E+03 -0.32124654208E+01  0.21570973651E+03  0.00000000000E+00 0. -1.
         -1    1    6    6    0  503  0.74592154259E+02  0.13801138133E+03 -0.78495681109E+02  0.17542150041E+03  0.00000000000E+00 0.  1.
<mgrwt>
<rscale>  0 0.13835855E+04</rscale>
<asrwt>0</asrwt>
<pdfrwt beam="1">  1        2 0.13956754E+00 0.13835855E+04</pdfrwt>
<pdfrwt beam="2">  1       -1 0.81159779E-01 0.13835855E+04</pdfrwt>
<totfact> 0.48791094E+01</totfact>
</mgrwt>
</event>
<event>
12    6  0.1450532E-007  0.1553975E+04  0.7818608E-02  0.8849333E-01
         -1   -1    0    0    0  501 -0.00000000000E+00  0.00000000000E+00  0.14190710117E+04  0.14190710117E+04  0.00000000000E+00 0.  1.
          2   -1    0    0  501    0  0.00000000000E+00 -0.00000000000E+00 -0.42542576045E+03  0.42542576045E+03  0.00000000000E+00 0. -1.
         24    2    1    2    0    0 -0.43981289171E+03 -0.31586291338E+01  0.16134123515E+02  0.44778009619E+03  0.82470285232E+02 0.  0.
        254    2    1    2    0    0  0.43981289171E+03  0.31586291338E+01  0.97751112768E+03  0.13967166759E+04  0.89545748721E+03 0.  0.
         23    2    4    4    0    0  0.65834356142E+03  0.18065335034E+03  0.78358823727E+03  0.10433096523E+04  0.91829337336E+02 0.  0.
         23    2    4    4    0    0 -0.21853066971E+03 -0.17749472121E+03  0.19392289041E+03  0.35340702359E+03  0.89612539505E+02 0.  0.
          4    1    3    3  502    0 -0.22882491652E+03  0.37489774254E+02 -0.45379133212E+01  0.23192006867E+03  0.00000000000E+00 0. -1.
         -3    1    3    3    0  502 -0.21098797519E+03 -0.40648403387E+02  0.20672036836E+02  0.21586002752E+03  0.00000000000E+00 0.  1.
         11    1    5    5    0    0  0.32900752147E+03  0.13408035301E+03  0.43184109641E+03  0.55920499175E+03  0.00000000000E+00 0. -1.
        -11    1    5    5    0    0  0.32933603995E+03  0.46572997332E+02  0.35174714086E+03  0.48410466058E+03  0.00000000000E+00 0.  1.
          4    1    6    6  503    0 -0.27935786790E+02 -0.69853856207E+02  0.35411918611E+02  0.83150306015E+02  0.00000000000E+00 0. -1.
         -4    1    6    6    0  503 -0.19059488292E+03 -0.10764086500E+03  0.15851097180E+03  0.27025671757E+03  0.00000000000E+00 0.  1.
<mgrwt>
<rscale>  0 0.15539747E+04</rscale>
<asrwt>0</asrwt>
<pdfrwt beam="1">  1        2 0.65450117E-01 0.15539747E+04</pdfrwt>
<pdfrwt beam="2">  1       -1 0.21831862E+00 0.15539747E+04</pdfrwt>
<totfact> 0.92173332E+00</totfact>
</mgrwt>
</event>
<event>
12    6  0.1450532E-007  0.3292872E+04  0.7818608E-02  0.8164712E-01
          2   -1    0    0  501    0  0.00000000000E+00  0.00000000000E+00  0.22193743996E+04  0.22193743996E+04  0.00000000000E+00 0. -1.
         -1   -1    0    0    0  501 -0.00000000000E+00 -0.00000000000E+00 -0.12214030885E+04  0.12214030885E+04  0.00000000000E+00 0.  1.
         24    2    1    2    0    0  0.34387357333E+03 -0.78462398086E+03 -0.85339091347E+03  0.12118086158E+04  0.79499964415E+02 0.  0.
        254    2    1    2    0    0 -0.34387357333E+03  0.78462398086E+03  0.18513622246E+04  0.22289688723E+04  0.89826294665E+03 0.  0.
         23    2    4    4    0    0 -0.47931300361E+03  0.81920247152E+03  0.18211803189E+04  0.20556416771E+04  0.90173752368E+02 0.  0.
         23    2    4    4    0    0  0.13543943028E+03 -0.34578490661E+02  0.30181905674E+02  0.17332719527E+03  0.97938030909E+02 0.  0.
          2    1    3    3  502    0  0.13964708388E+03 -0.36534116005E+03 -0.34037043340E+03  0.51848577917E+03  0.00000000000E+00 0. -1.
         -1    1    3    3    0  502  0.20422648945E+03 -0.41928282080E+03 -0.51302048006E+03  0.69332283662E+03  0.00000000000E+00 0.  1.
         11    1    5    5    0    0 -0.19133549280E+03  0.29485092186E+03  0.58872089427E+03  0.68566655765E+03  0.00000000000E+00 0.  1.
        -11    1    5    5    0    0 -0.28797751082E+03  0.52435154966E+03  0.12324594247E+04  0.13699751194E+04  0.00000000000E+00 0. -1.
          1    1    6    6  503    0  0.12813732671E+03 -0.61959318230E+02  0.24461177214E+02  0.14441773023E+03  0.00000000000E+00 0. -1.
         -1    1    6    6    0  503  0.73021035657E+01  0.27380827569E+02  0.57207284607E+01  0.28909465041E+02  0.00000000000E+00 0.  1.
<mgrwt>
<rscale>  0 0.32928715E+04</rscale>
<asrwt>0</asrwt>
<pdfrwt beam="1">  1        2 0.34144221E+00 0.32928715E+04</pdfrwt>
<pdfrwt beam="2">  1       -1 0.18790817E+00 0.32928715E+04</pdfrwt>
<totfact> 0.87458349E-01</totfact>
</mgrwt>
</event>
<event>
12    6  0.1450532E-007  0.1036770E+04  0.7818608E-02  0.9269111E-01
         -1   -1    0    0    0  501 -0.00000000000E+00  0.00000000000E+00  0.23586225890E+03  0.23586225890E+03  0.00000000000E+00 0.  1.
          2   -1    0    0  501    0  0.00000000000E+00 -0.00000000000E+00 -0.11393208525E+04  0.11393208525E+04  0.00000000000E+00 0. -1.
         24    2    1    2    0    0  0.80045486936E+02 -0.61621659332E+02 -0.10730872373E+03  0.16742207238E+03  0.79438525007E+02 0.  0.
        254    2    1    2    0    0 -0.80045486936E+02  0.61621659332E+02 -0.79614986993E+03  0.12077610391E+04  0.90256722920E+03 0.  0.
         23    2    4    4    0    0  0.16405889114E+03  0.40815641986E+03 -0.26328707596E+03  0.52109979707E+03  0.93369862939E+02 0.  0.
         23    2    4    4    0    0 -0.24410437808E+03 -0.34653476053E+03 -0.53286279396E+03  0.68666124199E+03  0.88812253725E+02 0.  0.
          4    1    3    3  502    0  0.14191646438E+02 -0.29620320242E+02 -0.84618447890E+02  0.90769201402E+02  0.00000000000E+00 0. -1.
         -3    1    3    3    0  502  0.65853840499E+02 -0.32001339090E+02 -0.22690275837E+02  0.76652870981E+02  0.00000000000E+00 0.  1.
         11    1    5    5    0    0  0.11148973552E+03  0.24971027632E+03 -0.11100832452E+03  0.29514069753E+03  0.00000000000E+00 0. -1.
        -11    1    5    5    0    0  0.52569155616E+02  0.15844614354E+03 -0.15227875144E+03  0.22595909954E+03  0.00000000000E+00 0.  1.
          4    1    6    6  503    0 -0.22223055913E+03 -0.30726708724E+03 -0.51192034355E+03  0.63707293339E+03  0.00000000000E+00 0. -1.
         -4    1    6    6    0  503 -0.21873818949E+02 -0.39267673292E+02 -0.20942450410E+02  0.49588308605E+02  0.00000000000E+00 0.  1.
<mgrwt>
<rscale>  0 0.10367696E+04</rscale>
<asrwt>0</asrwt>
<pdfrwt beam="1">  1        2 0.17528013E+00 0.10367696E+04</pdfrwt>
<pdfrwt beam="2">  1       -1 0.36286501E-01 0.10367696E+04</pdfrwt>
<totfact> 0.17002184E+02</totfact>
</mgrwt>
</event>
<event>
12    6  0.1450532E-007  0.1066779E+04  0.7818608E-02  0.9238190E-01
         -1   -1    0    0    0  501 -0.00000000000E+00  0.00000000000E+00  0.13799493081E+03  0.13799493081E+03  0.00000000000E+00 0.  1.
          2   -1    0    0  501    0  0.00000000000E+00 -0.00000000000E+00 -0.20617032747E+04  0.20617032747E+04  0.00000000000E+00 0. -1.
         24    2    1    2    0    0  0.12708719491E+03  0.59051276182E+02 -0.39209108059E+03  0.42052031344E+03  0.58853293901E+02 0.  0.
        254    2    1    2    0    0 -0.12708719491E+03 -0.59051276182E+02 -0.15316172633E+04  0.17791778921E+04  0.89441842675E+03 0.  0.
         23    2    4    4    0    0 -0.44395001187E+03 -0.17932068723E+03 -0.12107139683E+04  0.13051334299E+04  0.91090256847E+02 0.  0.
         23    2    4    4    0    0  0.31686281696E+03  0.12026941105E+03 -0.32090329496E+03  0.47404446215E+03  0.82900249553E+02 0.  0.
          4    1    3    3  502    0  0.13189229523E+03  0.48736526062E+02 -0.36365024266E+03  0.38988758059E+03  0.00000000000E+00 0. -1.
         -3    1    3    3    0  502 -0.48051003200E+01  0.10314750120E+02 -0.28440837931E+02  0.30632732841E+02  0.00000000000E+00 0.  1.
         11    1    5    5    0    0 -0.19437295378E+03 -0.30628333119E+02 -0.50198494034E+03  0.53917327482E+03  0.00000000000E+00 0.  1.
        -11    1    5    5    0    0 -0.24957705809E+03 -0.14869235411E+03 -0.70872902798E+03  0.76596015510E+03  0.00000000000E+00 0. -1.
          1    1    6    6  503    0  0.60582012397E+02  0.51077564584E+02 -0.10690968712E+03  0.13307433648E+03  0.00000000000E+00 0. -1.
         -1    1    6    6    0  503  0.25628080456E+03  0.69191846463E+02 -0.21399360784E+03  0.34097012567E+03  0.00000000000E+00 0.  1.
<mgrwt>
<rscale>  0 0.10667795E+04</rscale>
<asrwt>0</asrwt>
<pdfrwt beam="1">  1        2 0.31718510E+00 0.10667795E+04</pdfrwt>
<pdfrwt beam="2">  1       -1 0.21229991E-01 0.10667795E+04</pdfrwt>
<totfact> 0.12983555E+02</totfact>
</mgrwt>
</event>
<event>
12    6  0.1450532E-007  0.1111986E+04  0.7818608E-02  0.9193587E-01
          2   -1    0    0  501    0  0.00000000000E+00  0.00000000000E+00  0.17887631352E+04  0.17887631352E+04  0.00000000000E+00 0. -1.
         -1   -1    0    0    0  501 -0.00000000000E+00 -0.00000000000E+00 -0.17281681658E+03  0.17281681658E+03  0.00000000000E+00 0.  1.
         24    2    1    2    0    0 -0.41046244202E+02  0.32034820746E+02  0.62138654112E+03  0.63024093596E+03  0.91495245628E+02 0.  0.
        254    2    1    2    0    0  0.41046244202E+02 -0.32034820746E+02  0.99455977754E+03  0.13313390159E+04  0.88351762865E+03 0.  0.
         23    2    4    4    0    0 -0.93636836222E+02 -0.43114683385E+03  0.56339968324E+03  0.72130736120E+03  0.90607156480E+02 0.  0.
         23    2    4    4    0    0  0.13468308042E+03  0.39911201311E+03  0.43116009431E+03  0.61003165466E+03  0.93859797590E+02 0.  0.
          2    1    3    3  502    0 -0.55584915534E+02  0.17068843311E+02  0.58801822092E+03  0.59088616195E+03  0.00000000000E+00 0. -1.
         -3    1    3    3    0  502  0.14538671332E+02  0.14965977435E+02  0.33368320198E+02  0.39354774012E+02  0.00000000000E+00 0.  1.
         11    1    5    5    0    0  0.42367195190E+01 -0.18381526378E+03  0.21289841664E+03  0.28130363808E+03  0.00000000000E+00 0. -1.
        -11    1    5    5    0    0 -0.97873555741E+02 -0.24733157008E+03  0.35050126659E+03  0.44000372312E+03  0.00000000000E+00 0.  1.
          1    1    6    6  503    0  0.73323042815E+02  0.97688778106E+02  0.14848319781E+03  0.19226706948E+03  0.00000000000E+00 0. -1.
         -1    1    6    6    0  503  0.61360037609E+02  0.30142323500E+03  0.28267689649E+03  0.41776458517E+03  0.00000000000E+00 0.  1.
<mgrwt>
<rscale>  0 0.11119862E+04</rscale>
<asrwt>0</asrwt>
<pdfrwt beam="1">  1        2 0.27519432E+00 0.11119862E+04</pdfrwt>
<pdfrwt beam="2">  1       -1 0.26587204E-01 0.11119862E+04</pdfrwt>
<totfact> 0.12469085E+02</totfact>
</mgrwt>
</event>
<event>
12    6  0.1450532E-007  0.1425793E+04  0.7818608E-02  0.8935357E-01
         -1   -1    0    0    0  501 -0.00000000000E+00  0.00000000000E+00  0.19888079484E+04  0.19888079484E+04  0.00000000000E+00 0.  1.
          2   -1    0    0  501    0  0.00000000000E+00 -0.00000000000E+00 -0.25554077372E+03  0.25554077372E+03  0.00000000000E+00 0. -1.
         24    2    1    2    0    0 -0.96015238859E+02 -0.29087874491E+03  0.78773453053E+02  0.32590611517E+03  0.78614048811E+02 0.  0.
        254    2    1    2    0    0  0.96015238859E+02  0.29087874491E+03  0.16544937216E+04  0.19184426070E+04  0.92154391698E+03 0.  0.
         23    2    4    4    0    0  0.41997319965E+03  0.50821928727E+01  0.12384542866E+04  0.13115463304E+04  0.99907155302E+02 0.  0.
         23    2    4    4    0    0 -0.32395796080E+03  0.28579655203E+03  0.41603943504E+03  0.60689627656E+03  0.92767717858E+02 0.  0.
          4    1    3    3  502    0 -0.78356175624E+02 -0.28685025279E+03  0.79416502891E+02  0.30778196620E+03  0.00000000000E+00 0. -1.
         -3    1    3    3    0  502 -0.17659063234E+02 -0.40284921155E+01 -0.64304983839E+00  0.18124148977E+02  0.00000000000E+00 0.  1.
         11    1    5    5    0    0  0.23781560126E+03  0.37826892437E+02  0.80468027706E+03  0.83993897533E+03  0.00000000000E+00 0.  1.
        -11    1    5    5    0    0  0.18215759840E+03 -0.32744699564E+02  0.43377400954E+03  0.47160735507E+03  0.00000000000E+00 0. -1.
          1    1    6    6  503    0 -0.10882992635E+02  0.40008921179E+02  0.22547321061E+02  0.47196768848E+02  0.00000000000E+00 0. -1.
         -1    1    6    6    0  503 -0.31307496816E+03  0.24578763085E+03  0.39349211398E+03  0.55969950771E+03  0.00000000000E+00 0.  1.
<mgrwt>
<rscale>  0 0.14257931E+04</rscale>
<asrwt>0</asrwt>
<pdfrwt beam="1">  1        2 0.39313966E-01 0.14257931E+04</pdfrwt>
<pdfrwt beam="2">  1       -1 0.30597044E+00 0.14257931E+04</pdfrwt>
<totfact> 0.44315025E+00</totfact>
</mgrwt>
</event>
<event>
12    6  0.1450532E-007  0.2311010E+04  0.7818608E-02  0.8473593E-01
         -1   -1    0    0    0  501 -0.00000000000E+00  0.00000000000E+00  0.40332420256E+03  0.40332420256E+03  0.00000000000E+00 0.  1.
          2   -1    0    0  501    0  0.00000000000E+00 -0.00000000000E+00 -0.33104683772E+04  0.33104683772E+04  0.00000000000E+00 0. -1.
         24    2    1    2    0    0 -0.87209259830E+03  0.12855644977E+02 -0.19591564439E+04  0.21459726789E+04  0.78701964323E+02 0.  0.
        254    2    1    2    0    0  0.87209259830E+03 -0.12855644977E+02 -0.94798773073E+03  0.15678199009E+04  0.89368212263E+03 0.  0.
         23    2    4    4    0    0  0.77368436900E+03  0.32133365453E+03 -0.84823416521E+03  0.11957192892E+04  0.91654783030E+02 0.  0.
         23    2    4    4    0    0  0.98408229306E+02 -0.33418929951E+03 -0.99753565522E+02  0.37210061163E+03  0.84506945511E+02 0.  0.
          2    1    3    3  502    0 -0.43871206089E+03  0.34326548783E+02 -0.91832717517E+03  0.10183179194E+04  0.00000000000E+00 0. -1.
         -1    1    3    3    0  502 -0.43338053742E+03 -0.21470903806E+02 -0.10408292687E+04  0.11276547595E+04  0.00000000000E+00 0.  1.
         11    1    5    5    0    0  0.33015417689E+03  0.98591280523E+02 -0.30866478215E+03  0.46259698319E+03  0.00000000000E+00 0. -1.
        -11    1    5    5    0    0  0.44353019211E+03  0.22274237401E+03 -0.53956938306E+03  0.73312230605E+03  0.00000000000E+00 0.  1.
          3    1    6    6  503    0  0.51870606095E+02 -0.28467376187E+03 -0.92378602985E+02  0.30374910167E+03  0.00000000000E+00 0. -1.
         -3    1    6    6    0  503  0.46537623211E+02 -0.49515537638E+02 -0.73749625368E+01  0.68351509963E+02  0.00000000000E+00 0.  1.
<mgrwt>
<rscale>  0 0.23110102E+04</rscale>
<asrwt>0</asrwt>
<pdfrwt beam="1">  1        2 0.50930282E+00 0.23110102E+04</pdfrwt>
<pdfrwt beam="2">  1       -1 0.62049878E-01 0.23110102E+04</pdfrwt>
<totfact> 0.29806691E+00</totfact>
</mgrwt>
</event>
<event>
12    6  0.1450532E-007  0.1781358E+04  0.7818608E-02  0.8716276E-01
         -1   -1    0    0    0  501 -0.00000000000E+00  0.00000000000E+00  0.24078810693E+03  0.24078810693E+03  0.00000000000E+00 0.  1.
          2   -1    0    0  501    0  0.00000000000E+00 -0.00000000000E+00 -0.32946361897E+04  0.32946361897E+04  0.00000000000E+00 0. -1.
         24    2    1    2    0    0 -0.10793171611E+03 -0.58117136626E+03 -0.17153402659E+04  0.18161876728E+04  0.82073277918E+02 0.  0.
        254    2    1    2    0    0  0.10793171611E+03  0.58117136626E+03 -0.13385078169E+04  0.17192366238E+04  0.90264166777E+03 0.  0.
         23    2    4    4    0    0 -0.55069478451E+02  0.17303104210E+03  0.89909857179E+02  0.22199768445E+03  0.90701711640E+02 0.  0.
         23    2    4    4    0    0  0.16300119456E+03  0.40814032416E+03 -0.14284176741E+04  0.14972389393E+04  0.90550959450E+02 0.  0.
          4    1    3    3  502    0 -0.83180672582E+02 -0.43769715319E+03 -0.13924634166E+04  0.14620028006E+04  0.00000000000E+00 0. -1.
         -3    1    3    3    0  502 -0.24751043529E+02 -0.14347421307E+03 -0.32287684922E+03  0.35418487226E+03  0.00000000000E+00 0.  1.
         11    1    5    5    0    0  0.22941835765E+02  0.57402429275E+02  0.14748583451E+02  0.63552241729E+02  0.00000000000E+00 0. -1.
        -11    1    5    5    0    0 -0.78011314216E+02  0.11562861283E+03  0.75161273727E+02  0.15844544272E+03  0.00000000000E+00 0.  1.
          1    1    6    6  503    0  0.20490899878E+02  0.15064570242E+03 -0.41587490186E+03  0.44279333626E+03  0.00000000000E+00 0. -1.
         -1    1    6    6    0  503  0.14251029468E+03  0.25749462174E+03 -0.10125427722E+04  0.10544456031E+04  0.00000000000E+00 0.  1.
<mgrwt>
<rscale>  0 0.17813581E+04</rscale>
<asrwt>0</asrwt>
<pdfrwt beam="1">  1        2 0.50686715E+00 0.17813581E+04</pdfrwt>
<pdfrwt beam="2">  1       -1 0.37044321E-01 0.17813581E+04</pdfrwt>
<totfact> 0.85230183E+00</totfact>
</mgrwt>
</event>
<event>
12    6  0.1450532E-007  0.2719737E+04  0.7818608E-02  0.8328629E-01
         -1   -1    0    0    0  501 -0.00000000000E+00  0.00000000000E+00  0.89183100211E+03  0.89183100211E+03  0.00000000000E+00 0.  1.
          2   -1    0    0  501    0  0.00000000000E+00 -0.00000000000E+00 -0.20735345783E+04  0.20735345783E+04  0.00000000000E+00 0. -1.
         24    2    1    2    0    0  0.12823585335E+03 -0.20958513400E+03 -0.18453828791E+04  0.18630875247E+04  0.72710327977E+02 0.  0.
        254    2    1    2    0    0 -0.12823585335E+03  0.20958513400E+03  0.66367930298E+03  0.11022780556E+04  0.84508954095E+03 0.  0.
         23    2    4    4    0    0  0.11804622136E+03  0.32438653161E+03  0.72583884165E+03  0.80893352123E+03  0.91487078067E+02 0.  0.
         23    2    4    4    0    0 -0.24628207471E+03 -0.11480139761E+03 -0.62159538667E+02  0.29334453440E+03  0.91394673792E+02 0.  0.
          2    1    3    3  502    0  0.11406445478E+03 -0.17649468626E+03 -0.17149888243E+04  0.17278158876E+04  0.00000000000E+00 0. -1.
         -1    1    3    3    0  502  0.14171398567E+02 -0.33090447741E+02 -0.13039405487E+03  0.13527163714E+03  0.00000000000E+00 0.  1.
         11    1    5    5    0    0  0.32047081330E+01  0.13815180812E+03  0.29165649999E+03  0.32273782894E+03  0.00000000000E+00 0. -1.
        -11    1    5    5    0    0  0.11484151323E+03  0.18623472349E+03  0.43418234166E+03  0.48619569229E+03  0.00000000000E+00 0.  1.
          3    1    6    6  503    0 -0.82458829015E+02 -0.16177000305E+02  0.18111243395E+02  0.85960287102E+02  0.00000000000E+00 0. -1.
         -3    1    6    6    0  503 -0.16382324569E+03 -0.98624397305E+02 -0.80270782062E+02  0.20738424729E+03  0.00000000000E+00 0.  1.
<mgrwt>
<rscale>  0 0.27197371E+04</rscale>
<asrwt>0</asrwt>
<pdfrwt beam="1">  1        2 0.31900532E+00 0.27197371E+04</pdfrwt>
<pdfrwt beam="2">  1       -1 0.13720477E+00 0.27197371E+04</pdfrwt>
<totfact> 0.26759304E+00</totfact>
</mgrwt>
</event>
<event>
12    6  0.1450532E-007  0.3366910E+04  0.7818608E-02  0.8146076E-01
         -1   -1    0    0    0  501 -0.00000000000E+00  0.00000000000E+00  0.12862239802E+04  0.12862239802E+04  0.00000000000E+00 0.  1.
          2   -1    0    0  501    0  0.00000000000E+00 -0.00000000000E+00 -0.22033654291E+04  0.22033654291E+04  0.00000000000E+00 0. -1.
         24    2    1    2    0    0 -0.12354216023E+04 -0.92948181579E+03 -0.19186212890E+03  0.15599582066E+04  0.80346428478E+02 0.  0.
        254    2    1    2    0    0  0.12354216023E+04  0.92948181579E+03 -0.72527931998E+03  0.19296312027E+04  0.89846730883E+03 0.  0.
         23    2    4    4    0    0 -0.55666404967E+02  0.35721880061E+03 -0.14397081557E+03  0.39955234052E+03  0.90611571716E+02 0.  0.
         23    2    4    4    0    0  0.12910880073E+04  0.57226301518E+03 -0.58130850440E+03  0.15300788622E+04  0.93960342902E+02 0.  0.
          4    1    3    3  502    0 -0.31406905138E+03 -0.21801665342E+03 -0.79229084853E+02  0.39044574282E+03  0.00000000000E+00 0. -1.
         -3    1    3    3    0  502 -0.92135255096E+03 -0.71146516237E+03 -0.11263304405E+03  0.11695124638E+04  0.00000000000E+00 0.  1.
         11    1    5    5    0    0 -0.19193239846E+01  0.76746132240E+02  0.59781964534E+01  0.77002541849E+02  0.00000000000E+00 0.  1.
        -11    1    5    5    0    0 -0.53747080982E+02  0.28047266837E+03 -0.14994901202E+03  0.32254979867E+03  0.00000000000E+00 0. -1.
          2    1    6    6  503    0  0.74489329586E+03  0.28250035347E+03 -0.30941401514E+03  0.85463998543E+03  0.00000000000E+00 0. -1.
         -2    1    6    6    0  503  0.54619471144E+03  0.28976266171E+03 -0.27189448926E+03  0.67543887675E+03  0.00000000000E+00 0.  1.
<mgrwt>
<rscale>  0 0.33669104E+04</rscale>
<asrwt>0</asrwt>
<pdfrwt beam="1">  1        2 0.33897929E+00 0.33669104E+04</pdfrwt>
<pdfrwt beam="2">  1       -1 0.19788061E+00 0.33669104E+04</pdfrwt>
<totfact> 0.75591226E-01</totfact>
</mgrwt>
</event>
<event>
12    6  0.1450532E-007  0.3176426E+04  0.7818608E-02  0.8195071E-01
          2   -1    0    0  501    0  0.00000000000E+00  0.00000000000E+00  0.25136263869E+04  0.25136263869E+04  0.00000000000E+00 0. -1.
         -1   -1    0    0    0  501 -0.00000000000E+00 -0.00000000000E+00 -0.10034987528E+04  0.10034987528E+04  0.00000000000E+00 0.  1.
         24    2    1    2    0    0 -0.99063903454E+03  0.68117581224E+03 -0.22326251759E+03  0.12250237005E+04  0.73964390413E+02 0.  0.
        254    2    1    2    0    0  0.99063903454E+03 -0.68117581224E+03  0.17333901517E+04  0.22921014392E+04  0.89650510630E+03 0.  0.
         23    2    4    4    0    0 -0.12010369802E+03 -0.25065668008E+03  0.46975122784E+03  0.55301436278E+03  0.88910066026E+02 0.  0.
         23    2    4    4    0    0  0.11107427326E+04 -0.43051913216E+03  0.12636389239E+04  0.17390870764E+04  0.92435860833E+02 0.  0.
          4    1    3    3  502    0 -0.30730086483E+02  0.71797531488E+01 -0.76168216256E+01  0.32463872878E+02  0.00000000000E+00 0. -1.
         -3    1    3    3    0  502 -0.95990894806E+03  0.67399605909E+03 -0.21564569597E+03  0.11925598276E+04  0.00000000000E+00 0.  1.
         11    1    5    5    0    0 -0.90434482488E+02 -0.94625881007E+02  0.17957690390E+03  0.22221682518E+03  0.00000000000E+00 0.  1.
        -11    1    5    5    0    0 -0.29669215530E+02 -0.15603079907E+03  0.29017432393E+03  0.33079753760E+03  0.00000000000E+00 0. -1.
          4    1    6    6  503    0  0.20119340550E+03 -0.43201354626E+02  0.19947690238E+03  0.28659409980E+03  0.00000000000E+00 0. -1.
         -4    1    6    6    0  503  0.90954932706E+03 -0.38731777754E+03  0.10641620215E+04  0.14524929766E+04  0.00000000000E+00 0.  1.
<mgrwt>
<rscale>  0 0.31764263E+04</rscale>
<asrwt>0</asrwt>
<pdfrwt beam="1">  1        2 0.38671175E+00 0.31764263E+04</pdfrwt>
<pdfrwt beam="2">  1       -1 0.15438442E+00 0.31764263E+04</pdfrwt>
<totfact> 0.10571816E+00</totfact>
</mgrwt>
</event>
<event>
12    6  0.1450532E-007  0.1953680E+04  0.7818608E-02  0.8628588E-01
          2   -1    0    0  501    0  0.00000000000E+00  0.00000000000E+00  0.26857829588E+04  0.26857829588E+04  0.00000000000E+00 0. -1.
         -1   -1    0    0    0  501 -0.00000000000E+00 -0.00000000000E+00 -0.35528433094E+03  0.35528433094E+03  0.00000000000E+00 0.  1.
         24    2    1    2    0    0  0.14097070182E+03  0.57956020120E+03  0.17163366212E+04  0.18188016684E+04  0.80407374960E+02 0.  0.
        254    2    1    2    0    0 -0.14097070182E+03 -0.57956020120E+03  0.61416200658E+03  0.12222656213E+04  0.87233910443E+03 0.  0.
         23    2    4    4    0    0  0.28932203522E+03 -0.11522075298E+03 -0.15368472709E+02  0.32485043877E+03  0.91151278865E+02 0.  0.
         23    2    4    4    0    0 -0.43029273703E+03 -0.46433944822E+03  0.62953047929E+03  0.89741518254E+03  0.91007817129E+02 0.  0.
          2    1    3    3  502    0  0.15152632463E+03  0.54801689633E+03  0.16188569779E+04  0.17158032115E+04  0.00000000000E+00 0. -1.
         -1    1    3    3    0  502 -0.10555622812E+02  0.31543304873E+02  0.97479643366E+02  0.10299845691E+03  0.00000000000E+00 0.  1.
         11    1    5    5    0    0  0.66660209255E+02 -0.37976633015E+02 -0.42349087737E+02  0.87631349329E+02  0.00000000000E+00 0. -1.
        -11    1    5    5    0    0  0.22266182596E+03 -0.77244119969E+02  0.26980615028E+02  0.23721908944E+03  0.00000000000E+00 0.  1.
          4    1    6    6  503    0 -0.10389218170E+03 -0.13293952211E+03  0.11722190148E+03  0.20544458169E+03  0.00000000000E+00 0.  1.
         -4    1    6    6    0  503 -0.32640055533E+03 -0.33139992611E+03  0.51230857781E+03  0.69197060085E+03  0.00000000000E+00 0. -1.
<mgrwt>
<rscale>  0 0.19536802E+04</rscale>
<asrwt>0</asrwt>
<pdfrwt beam="1">  1        2 0.41319736E+00 0.19536802E+04</pdfrwt>
<pdfrwt beam="2">  1       -1 0.54659130E-01 0.19536802E+04</pdfrwt>
<totfact> 0.97328234E+00</totfact>
</mgrwt>
</event>
<event>
12    6  0.1450532E-007  0.1990338E+04  0.7818608E-02  0.8611151E-01
         -1   -1    0    0    0  501 -0.00000000000E+00  0.00000000000E+00  0.65056746308E+03  0.65056746308E+03  0.00000000000E+00 0.  1.
          2   -1    0    0  501    0  0.00000000000E+00 -0.00000000000E+00 -0.15223038411E+04  0.15223038411E+04  0.00000000000E+00 0. -1.
         24    2    1    2    0    0 -0.27760946160E+03  0.45425987480E+03  0.27332081787E+03  0.60340623594E+03  0.77303098710E+02 0.  0.
        254    2    1    2    0    0  0.27760946160E+03 -0.45425987480E+03 -0.11450571959E+04  0.15694650683E+04  0.93201157265E+03 0.  0.
         23    2    4    4    0    0  0.16587799754E+03 -0.45074295405E+03 -0.12809434519E+04  0.13710605198E+04  0.91137814498E+02 0.  0.
         23    2    4    4    0    0  0.11173146406E+03 -0.35169207515E+01  0.13588625597E+03  0.19840454850E+03  0.91667887035E+02 0.  0.
          2    1    3    3  502    0 -0.27003445449E+02  0.14977209668E+02  0.63430857683E+01  0.31523604055E+02  0.00000000000E+00 0. -1.
         -1    1    3    3    0  502 -0.25060601615E+03  0.43928266513E+03  0.26697773210E+03  0.57188263189E+03  0.00000000000E+00 0.  1.
         11    1    5    5    0    0  0.15884109455E+03 -0.44481963624E+03 -0.12002263289E+04  0.12898210119E+04  0.00000000000E+00 0.  1.
        -11    1    5    5    0    0  0.70369029872E+01 -0.59233178035E+01 -0.80717123003E+02  0.81239507897E+02  0.00000000000E+00 0. -1.
          4    1    6    6  503    0  0.12834075167E+02 -0.72301636454E+01  0.86600358442E+02  0.87844241895E+02  0.00000000000E+00 0. -1.
         -4    1    6    6    0  503  0.98897388891E+02  0.37132428939E+01  0.49285897523E+02  0.11056030661E+03  0.00000000000E+00 0.  1.
<mgrwt>
<rscale>  0 0.19903380E+04</rscale>
<asrwt>0</asrwt>
<pdfrwt beam="1">  1        2 0.23420059E+00 0.19903380E+04</pdfrwt>
<pdfrwt beam="2">  1       -1 0.10008730E+00 0.19903380E+04</pdfrwt>
<totfact> 0.12425641E+01</totfact>
</mgrwt>
</event>
<event>
12    6  0.1450532E-007  0.3192841E+04  0.7818608E-02  0.8190710E-01
          2   -1    0    0  501    0  0.00000000000E+00  0.00000000000E+00  0.48443199888E+04  0.48443199888E+04  0.00000000000E+00 0. -1.
         -1   -1    0    0    0  501 -0.00000000000E+00 -0.00000000000E+00 -0.52609210163E+03  0.52609210163E+03  0.00000000000E+00 0.  1.
         24    2    1    2    0    0  0.15837382511E+03 -0.26776401355E+03 -0.42373278871E+03  0.53367802579E+03  0.92102787997E+02 0.  0.
        254    2    1    2    0    0 -0.15837382511E+03  0.26776401355E+03  0.47419606758E+04  0.48367340646E+04  0.90056955586E+03 0.  0.
         23    2    4    4    0    0 -0.29397634660E+03 -0.19615123678E+03  0.31365387678E+04  0.31576637380E+04  0.89818928034E+02 0.  0.
         23    2    4    4    0    0  0.13560252150E+03  0.46391525033E+03  0.16054219080E+04  0.16790703266E+04  0.91061823827E+02 0.  0.
          4    1    3    3  502    0  0.49413197898E+02 -0.48613703709E+02 -0.44647996031E+02  0.82452409694E+02  0.00000000000E+00 0. -1.
         -3    1    3    3    0  502  0.10896062721E+03 -0.21915030984E+03 -0.37908479268E+03  0.45122561610E+03  0.00000000000E+00 0.  1.
         11    1    5    5    0    0 -0.11107385715E+03 -0.12794188272E+03  0.14481709440E+04  0.14580485624E+04  0.00000000000E+00 0. -1.
        -11    1    5    5    0    0 -0.18290248946E+03 -0.68209354054E+02  0.16883678238E+04  0.16996151756E+04  0.00000000000E+00 0.  1.
          1    1    6    6  503    0  0.76681514337E+02  0.37737098888E+03  0.13213315891E+04  0.13763015971E+04  0.00000000000E+00 0. -1.
         -1    1    6    6    0  503  0.58921007159E+02  0.86544261444E+02  0.28409031888E+03  0.30276872948E+03  0.00000000000E+00 0.  1.
<mgrwt>
<rscale>  0 0.31928410E+04</rscale>
<asrwt>0</asrwt>
<pdfrwt beam="1">  1        2 0.74527997E+00 0.31928410E+04</pdfrwt>
<pdfrwt beam="2">  1       -1 0.80937249E-01 0.31928410E+04</pdfrwt>
<totfact> 0.76854024E-02</totfact>
</mgrwt>
</event>
<event>
12    6  0.1450532E-007  0.2047794E+04  0.7818608E-02  0.8584596E-01
          2   -1    0    0  501    0  0.00000000000E+00  0.00000000000E+00  0.80980699906E+03  0.80980699906E+03  0.00000000000E+00 0. -1.
         -1   -1    0    0    0  501 -0.00000000000E+00 -0.00000000000E+00 -0.12945863115E+04  0.12945863115E+04  0.00000000000E+00 0.  1.
         24    2    1    2    0    0  0.56914376849E+03  0.36227447836E+03 -0.68660001313E+03  0.96602208543E+03  0.81312143194E+02 0.  0.
        254    2    1    2    0    0 -0.56914376849E+03 -0.36227447836E+03  0.20182070065E+03  0.11383712252E+04  0.89442161433E+03 0.  0.
         23    2    4    4    0    0 -0.49039981296E+03  0.19034694350E+03 -0.95978864063E+01  0.53453823601E+03  0.94419653024E+02 0.  0.
         23    2    4    4    0    0 -0.78743955530E+02 -0.55262142185E+03  0.21141858706E+03  0.60383298915E+03  0.91243703408E+02 0.  0.
          2    1    3    3  502    0  0.36392616529E+03  0.21042976267E+03 -0.47618164521E+03  0.63519437815E+03  0.00000000000E+00 0. -1.
         -1    1    3    3    0  502  0.20521760320E+03  0.15184471569E+03 -0.21041836791E+03  0.33082770728E+03  0.00000000000E+00 0.  1.
         11    1    5    5    0    0 -0.44424875169E+03  0.14578109571E+03  0.93248691925E+01  0.46764947817E+03  0.00000000000E+00 0. -1.
        -11    1    5    5    0    0 -0.46151061267E+02  0.44565847790E+02 -0.18922755599E+02  0.66888757835E+02  0.00000000000E+00 0.  1.
          3    1    6    6  503    0 -0.28812846094E+02 -0.39115956489E+03  0.11262178954E+03  0.40806819625E+03  0.00000000000E+00 0. -1.
         -3    1    6    6    0  503 -0.49931109436E+02 -0.16146185696E+03  0.98796797517E+02  0.19576479291E+03  0.00000000000E+00 0.  1.
<mgrwt>
<rscale>  0 0.20477940E+04</rscale>
<asrwt>0</asrwt>
<pdfrwt beam="1">  1        2 0.12458569E+00 0.20477940E+04</pdfrwt>
<pdfrwt beam="2">  1       -1 0.19916712E+00 0.20477940E+04</pdfrwt>
<totfact> 0.54581040E+00</totfact>
</mgrwt>
</event>
<event>
12    6  0.1450532E-007  0.1601026E+04  0.7818608E-02  0.8819918E-01
         -1   -1    0    0    0  501 -0.00000000000E+00  0.00000000000E+00  0.17100830066E+04  0.17100830066E+04  0.00000000000E+00 0.  1.
          2   -1    0    0  501    0  0.00000000000E+00 -0.00000000000E+00 -0.37473088192E+03  0.37473088192E+03  0.00000000000E+00 0. -1.
         24    2    1    2    0    0 -0.55572143585E+02 -0.36592648312E+02  0.11619480601E+04  0.11665920307E+04  0.79914871088E+02 0.  0.
        254    2    1    2    0    0  0.55572143585E+02  0.36592648312E+02  0.17340406454E+03  0.91822185779E+03  0.89924141668E+03 0.  0.
         23    2    4    4    0    0  0.42591302895E+02  0.44181262118E+03  0.21329444439E+03  0.50089101591E+03  0.91568982127E+02 0.  0.
         23    2    4    4    0    0  0.12980840690E+02 -0.40521997287E+03 -0.39890379854E+02  0.41733084188E+03  0.90565228112E+02 0.  0.
          4    1    3    3  502    0 -0.27567342265E+02 -0.52802400478E+02  0.45213072545E+03  0.45603754753E+03  0.00000000000E+00 0. -1.
         -3    1    3    3    0  502 -0.28004801320E+02  0.16209752166E+02  0.70981733467E+03  0.71055448318E+03  0.00000000000E+00 0.  1.
         11    1    5    5    0    0 -0.27759485380E+01  0.26120954468E+03  0.84788417235E+02  0.27464014240E+03  0.00000000000E+00 0. -1.
        -11    1    5    5    0    0  0.45367251433E+02  0.18060307650E+03  0.12850602716E+03  0.22625087350E+03  0.00000000000E+00 0.  1.
          3    1    6    6  503    0  0.18853423251E+02 -0.30837884169E+03  0.81652204187E+01  0.30906250564E+03  0.00000000000E+00 0. -1.
         -3    1    6    6    0  503 -0.58725825610E+01 -0.96841131182E+02 -0.48055600273E+02  0.10826833624E+03  0.00000000000E+00 0.  1.
<mgrwt>
<rscale>  0 0.16010258E+04</rscale>
<asrwt>0</asrwt>
<pdfrwt beam="1">  1        2 0.57650906E-01 0.16010258E+04</pdfrwt>
<pdfrwt beam="2">  1       -1 0.26308969E+00 0.16010258E+04</pdfrwt>
<totfact> 0.53828826E+00</totfact>
</mgrwt>
</event>
<event>
12    6  0.1450532E-007  0.1430861E+04  0.7818608E-02  0.8931778E-01
         -1   -1    0    0    0  501 -0.00000000000E+00  0.00000000000E+00  0.13065740974E+04  0.13065740974E+04  0.00000000000E+00 0.  1.
          2   -1    0    0  501    0  0.00000000000E+00 -0.00000000000E+00 -0.39174246068E+03  0.39174246068E+03  0.00000000000E+00 0. -1.
         24    2    1    2    0    0 -0.15781515390E+03 -0.17000154157E+03  0.70415659919E+03  0.74571582920E+03  0.80308373222E+02 0.  0.
        254    2    1    2    0    0  0.15781515390E+03  0.17000154157E+03  0.21067503750E+03  0.95260072884E+03  0.89958770013E+03 0.  0.
         23    2    4    4    0    0 -0.35067426792E+03  0.14106528908E+03  0.19631078893E+03  0.43504461710E+03  0.88622993923E+02 0.  0.
         23    2    4    4    0    0  0.50848942181E+03  0.28936252487E+02  0.14364248565E+02  0.51755611174E+03  0.90880131818E+02 0.  0.
          4    1    3    3  502    0 -0.49562689140E+02 -0.38609681428E+02  0.10057914927E+03  0.11858892412E+03  0.00000000000E+00 0. -1.
         -3    1    3    3    0  502 -0.10825246476E+03 -0.13139186014E+03  0.60357744992E+03  0.62712690509E+03  0.00000000000E+00 0.  1.
         11    1    5    5    0    0 -0.23304304647E+03  0.11850783798E+03  0.17165215794E+03  0.31275810540E+03  0.00000000000E+00 0.  1.
        -11    1    5    5    0    0 -0.11763122145E+03  0.22557451103E+02  0.24658630988E+02  0.12228651170E+03  0.00000000000E+00 0. -1.
          3    1    6    6  503    0  0.20540035431E+02 -0.12855470998E+02  0.13666969253E+02  0.27819817373E+02  0.00000000000E+00 0. -1.
         -3    1    6    6    0  503  0.48794938638E+03  0.41791723485E+02  0.69727931217E+00  0.48973629437E+03  0.00000000000E+00 0.  1.
<mgrwt>
<rscale>  0 0.14308607E+04</rscale>
<asrwt>0</asrwt>
<pdfrwt beam="1">  1        2 0.60268072E-01 0.14308607E+04</pdfrwt>
<pdfrwt beam="2">  1       -1 0.20101140E+00 0.14308607E+04</pdfrwt>
<totfact> 0.13397971E+01</totfact>
</mgrwt>
</event>
<event>
12    6  0.1450532E-007  0.2699483E+04  0.7818608E-02  0.8335173E-01
         -1   -1    0    0    0  501 -0.00000000000E+00  0.00000000000E+00  0.12069436682E+04  0.12069436682E+04  0.00000000000E+00 0.  1.
          2   -1    0    0  501    0  0.00000000000E+00 -0.00000000000E+00 -0.15094348118E+04  0.15094348118E+04  0.00000000000E+00 0. -1.
         24    2    1    2    0    0  0.67294542211E+02  0.80656805291E+03 -0.10238738265E+04  0.13074123167E+04  0.76998531831E+02 0.  0.
        254    2    1    2    0    0 -0.67294542211E+02 -0.80656805291E+03  0.72138268295E+03  0.14089661633E+04  0.89984003837E+03 0.  0.
         23    2    4    4    0    0  0.35483595581E+03 -0.15756089547E+03  0.40654399460E+03  0.56869955181E+03  0.86064913683E+02 0.  0.
         23    2    4    4    0    0 -0.42213049802E+03 -0.64900715745E+03  0.31483868835E+03  0.84026661148E+03  0.86718688401E+02 0.  0.
          2    1    3    3  502    0  0.59615828947E+02  0.79218945642E+03 -0.10147430598E+04  0.12887286989E+04  0.00000000000E+00 0. -1.
         -1    1    3    3    0  502  0.76787132638E+01  0.14378596488E+02 -0.91307667031E+01  0.18683617823E+02  0.00000000000E+00 0.  1.
         11    1    5    5    0    0  0.31881687119E+03 -0.16769461595E+03  0.36651808235E+03  0.51390776046E+03  0.00000000000E+00 0. -1.
        -11    1    5    5    0    0  0.36019084621E+02  0.10133720481E+02  0.40025912245E+02  0.54791791345E+02  0.00000000000E+00 0.  1.
          1    1    6    6  503    0 -0.23249850956E+03 -0.28078003900E+03  0.15942687920E+03  0.39788178780E+03  0.00000000000E+00 0. -1.
         -1    1    6    6    0  503 -0.18963198846E+03 -0.36822711844E+03  0.15541180915E+03  0.44238482369E+03  0.00000000000E+00 0.  1.
<mgrwt>
<rscale>  0 0.26994835E+04</rscale>
<asrwt>0</asrwt>
<pdfrwt beam="1">  1        2 0.23222074E+00 0.26994835E+04</pdfrwt>
<pdfrwt beam="2">  1       -1 0.18568364E+00 0.26994835E+04</pdfrwt>
<totfact> 0.23746776E+00</totfact>
</mgrwt>
</event>
<event>
12    6  0.1450532E-007  0.1606443E+04  0.7818608E-02  0.8816600E-01
         -1   -1    0    0    0  501 -0.00000000000E+00  0.00000000000E+00  0.11892635047E+04  0.11892635047E+04  0.00000000000E+00 0.  1.
          2   -1    0    0  501    0  0.00000000000E+00 -0.00000000000E+00 -0.54249078071E+03  0.54249078071E+03  0.00000000000E+00 0. -1.
         24    2    1    2    0    0  0.36847214337E+03 -0.39976217442E+03  0.28454103936E+03  0.61878661142E+03  0.79697872328E+02 0.  0.
        254    2    1    2    0    0 -0.36847214337E+03  0.39976217442E+03  0.36223168465E+03  0.11129676740E+04  0.90105700903E+03 0.  0.
         23    2    4    4    0    0 -0.59556679907E+03  0.24338483647E+02  0.21107555991E+03  0.63888090460E+03  0.91234556631E+02 0.  0.
         23    2    4    4    0    0  0.22709465570E+03  0.37542369077E+03  0.15115612473E+03  0.47408676943E+03  0.96928636939E+02 0.  0.
          2    1    3    3  502    0  0.24355905673E+03 -0.21599109327E+03  0.14474621104E+03  0.35626483422E+03  0.00000000000E+00 0. -1.
         -1    1    3    3    0  502  0.12491308663E+03 -0.18377108115E+03  0.13979482832E+03  0.26252177720E+03  0.00000000000E+00 0.  1.
         11    1    5    5    0    0 -0.54859178508E+03  0.16682029612E+02  0.21844390702E+03  0.59071903413E+03  0.00000000000E+00 0.  1.
        -11    1    5    5    0    0 -0.46975013987E+02  0.76564540350E+01 -0.73683471055E+01  0.48161870463E+02  0.00000000000E+00 0. -1.
          2    1    6    6  503    0  0.98880341423E+01  0.74475658517E+01 -0.11479779000E+02  0.16882676986E+02  0.00000000000E+00 0. -1.
         -2    1    6    6    0  503  0.21720662156E+03  0.36797612492E+03  0.16263590373E+03  0.45720409244E+03  0.00000000000E+00 0.  1.
<mgrwt>
<rscale>  0 0.16064426E+04</rscale>
<asrwt>0</asrwt>
<pdfrwt beam="1">  1        2 0.83460120E-01 0.16064426E+04</pdfrwt>
<pdfrwt beam="2">  1       -1 0.18296362E+00 0.16064426E+04</pdfrwt>
<totfact> 0.12145403E+01</totfact>
</mgrwt>
</event>
<event>
12    6  0.1450532E-007  0.2888026E+04  0.7818608E-02  0.8276449E-01
         -1   -1    0    0    0  501 -0.00000000000E+00  0.00000000000E+00  0.76030761696E+03  0.76030761696E+03  0.00000000000E+00 0.  1.
          2   -1    0    0  501    0  0.00000000000E+00 -0.00000000000E+00 -0.27425398929E+04  0.27425398929E+04  0.00000000000E+00 0. -1.
         24    2    1    2    0    0  0.50979647639E+03 -0.15568306734E+02  0.55557159188E+03  0.75880004576E+03  0.83563725593E+02 0.  0.
        254    2    1    2    0    0 -0.50979647639E+03  0.15568306734E+02 -0.25378038679E+04  0.27440474641E+04  0.91061143974E+03 0.  0.
         23    2    4    4    0    0 -0.37268081991E+03  0.22123463957E+03 -0.42145562591E+03  0.61143307213E+03  0.91595839395E+02 0.  0.
         23    2    4    4    0    0 -0.13711565647E+03 -0.20566633284E+03 -0.21163482419E+04  0.21326143920E+04  0.89526086205E+02 0.  0.
          4    1    3    3  502    0  0.16194581128E+02  0.59555012317E+01  0.29252517884E+01  0.17501129988E+02  0.00000000000E+00 0. -1.
         -1    1    3    3    0  502  0.49360189526E+03 -0.21523807966E+02  0.55264634009E+03  0.74129891578E+03  0.00000000000E+00 0.  1.
         11    1    5    5    0    0 -0.24487554807E+03  0.15941403580E+03 -0.33783783065E+03  0.44666684304E+03  0.00000000000E+00 0. -1.
        -11    1    5    5    0    0 -0.12780527184E+03  0.61820603776E+02 -0.83617795263E+02  0.16476622909E+03  0.00000000000E+00 0.  1.
          1    1    6    6  503    0  0.59072709643E+01 -0.42177547974E+02 -0.48533318525E+03  0.48719825750E+03  0.00000000000E+00 0. -1.
         -1    1    6    6    0  503 -0.14302292744E+03 -0.16348878487E+03 -0.16310150567E+04  0.16454161345E+04  0.00000000000E+00 0.  1.
<mgrwt>
<rscale>  0 0.28880263E+04</rscale>
<asrwt>0</asrwt>
<pdfrwt beam="1">  1        2 0.42192921E+00 0.28880263E+04</pdfrwt>
<pdfrwt beam="2">  1       -1 0.11697040E+00 0.28880263E+04</pdfrwt>
<totfact> 0.16195138E+00</totfact>
</mgrwt>
</event>
<event>
12    6  0.1450532E-007  0.1498203E+04  0.7818608E-02  0.8885649E-01
          2   -1    0    0  501    0  0.00000000000E+00  0.00000000000E+00  0.17930471059E+04  0.17930471059E+04  0.00000000000E+00 0. -1.
         -1   -1    0    0    0  501 -0.00000000000E+00 -0.00000000000E+00 -0.31296066645E+03  0.31296066645E+03  0.00000000000E+00 0.  1.
         24    2    1    2    0    0 -0.26878581314E+03  0.34736199904E+03  0.21094930821E+03  0.49386431135E+03  0.80598856482E+02 0.  0.
        254    2    1    2    0    0  0.26878581314E+03 -0.34736199904E+03  0.12691371313E+04  0.16121434610E+04  0.89184713334E+03 0.  0.
         23    2    4    4    0    0  0.38269714989E+03 -0.56372087257E+03  0.11136321439E+04  0.13087766431E+04  0.92094618472E+02 0.  0.
         23    2    4    4    0    0 -0.11391133675E+03  0.21635887353E+03  0.15550498732E+03  0.30336681794E+03  0.89792373557E+02 0.  0.
          2    1    3    3  502    0 -0.67103795610E+01  0.14369831786E+02  0.28262441821E+02  0.32408129799E+02  0.00000000000E+00 0. -1.
         -1    1    3    3    0  502 -0.26207543358E+03  0.33299216725E+03  0.18268686639E+03  0.46145618155E+03  0.00000000000E+00 0.  1.
         11    1    5    5    0    0  0.73781461561E+02 -0.85569892693E+02  0.25080883723E+03  0.27508359355E+03  0.00000000000E+00 0.  1.
        -11    1    5    5    0    0  0.30891568833E+03 -0.47815097988E+03  0.86282330671E+03  0.10336930495E+04  0.00000000000E+00 0. -1.
          4    1    6    6  503    0 -0.45059971139E+01  0.10013101784E+03  0.70314003202E+02  0.12243603959E+03  0.00000000000E+00 0. -1.
         -4    1    6    6    0  503 -0.10940533964E+03  0.11622785569E+03  0.85190984120E+02  0.18093077835E+03  0.00000000000E+00 0.  1.
<mgrwt>
<rscale>  0 0.14982032E+04</rscale>
<asrwt>0</asrwt>
<pdfrwt beam="1">  1        2 0.27585340E+00 0.14982032E+04</pdfrwt>
<pdfrwt beam="2">  1       -1 0.48147796E-01 0.14982032E+04</pdfrwt>
<totfact> 0.41328551E+01</totfact>
</mgrwt>
</event>
<event>
12    6  0.1450532E-007  0.1779968E+04  0.7818608E-02  0.8717025E-01
          2   -1    0    0  501    0  0.00000000000E+00  0.00000000000E+00  0.10471510011E+04  0.10471510011E+04  0.00000000000E+00 0. -1.
         -1   -1    0    0    0  501 -0.00000000000E+00 -0.00000000000E+00 -0.75640636903E+03  0.75640636903E+03  0.00000000000E+00 0.  1.
         24    2    1    2    0    0  0.95242475874E+02  0.22536137498E+03 -0.51374621058E+03  0.57478511997E+03  0.81141153011E+02 0.  0.
        254    2    1    2    0    0 -0.95242475874E+02 -0.22536137498E+03  0.80449084268E+03  0.12287722502E+04  0.89600047339E+03 0.  0.
         23    2    4    4    0    0 -0.65155359516E+02 -0.53780145966E+03  0.69550470143E+03  0.88654480318E+03  0.93590958071E+02 0.  0.
         23    2    4    4    0    0 -0.30087116358E+02  0.31244008468E+03  0.10898614125E+03  0.34222744701E+03  0.81960999376E+02 0.  0.
          4    1    3    3  502    0  0.14986233982E+02  0.10444124813E+02 -0.90303668982E+01  0.20376812273E+02  0.00000000000E+00 0. -1.
         -3    1    3    3    0  502  0.80256241892E+02  0.21491725017E+03 -0.50471584368E+03  0.55440830770E+03  0.00000000000E+00 0.  1.
         11    1    5    5    0    0  0.13206368675E+02 -0.21247829936E+03  0.23205273120E+03  0.31491253695E+03  0.00000000000E+00 0. -1.
        -11    1    5    5    0    0 -0.78361728191E+02 -0.32532316030E+03  0.46345197023E+03  0.57163226622E+03  0.00000000000E+00 0.  1.
          3    1    6    6  503    0 -0.57197978947E+02  0.20067975674E+03  0.81222040708E+02  0.22392184676E+03  0.00000000000E+00 0. -1.
         -3    1    6    6    0  503  0.27110862589E+02  0.11176032794E+03  0.27764100538E+02  0.11830560025E+03  0.00000000000E+00 0.  1.
<mgrwt>
<rscale>  0 0.17799682E+04</rscale>
<asrwt>0</asrwt>
<pdfrwt beam="1">  1        2 0.16110015E+00 0.17799682E+04</pdfrwt>
<pdfrwt beam="2">  1       -1 0.11637021E+00 0.17799682E+04</pdfrwt>
<totfact> 0.16916058E+01</totfact>
</mgrwt>
</event>
<event>
12    6  0.1450532E-007  0.2027897E+04  0.7818608E-02  0.8593688E-01
          2   -1    0    0  501    0  0.00000000000E+00  0.00000000000E+00  0.27071366680E+04  0.27071366680E+04  0.00000000000E+00 0. -1.
         -1   -1    0    0    0  501 -0.00000000000E+00 -0.00000000000E+00 -0.37977074725E+03  0.37977074725E+03  0.00000000000E+00 0.  1.
         24    2    1    2    0    0  0.21039071105E+03  0.21984533149E+03  0.20732091623E+04  0.20968848891E+04  0.78318492168E+02 0.  0.
        254    2    1    2    0    0 -0.21039071105E+03 -0.21984533149E+03  0.25415675840E+03  0.99002252615E+03  0.90716741750E+03 0.  0.
         23    2    4    4    0    0  0.29325061853E+03  0.36091788773E+02 -0.91413353405E+02  0.32170315703E+03  0.88532353277E+02 0.  0.
         23    2    4    4    0    0 -0.50364132958E+03 -0.25593712026E+03  0.34557011180E+03  0.66831936912E+03  0.89853650868E+02 0.  0.
          2    1    3    3  502    0  0.16520067264E+03  0.20900551025E+03  0.16902764836E+04  0.17111426465E+04  0.00000000000E+00 0. -1.
         -1    1    3    3    0  502  0.45190038409E+02  0.10839821240E+02  0.38293267875E+03  0.38574224263E+03  0.00000000000E+00 0.  1.
         11    1    5    5    0    0  0.91333325807E+02  0.33585087837E+02  0.60090038062E+01  0.97497911027E+02  0.00000000000E+00 0. -1.
        -11    1    5    5    0    0  0.20191729273E+03  0.25067009355E+01 -0.97422357211E+02  0.22420524601E+03  0.00000000000E+00 0.  1.
          1    1    6    6  503    0 -0.13748562344E+03 -0.10557899143E+03  0.75125018686E+02  0.18892588101E+03  0.00000000000E+00 0. -1.
         -1    1    6    6    0  503 -0.36615570614E+03 -0.15035812883E+03  0.27044509312E+03  0.47939348810E+03  0.00000000000E+00 0.  1.
<mgrwt>
<rscale>  0 0.20278968E+04</rscale>
<asrwt>0</asrwt>
<pdfrwt beam="1">  1        2 0.41648255E+00 0.20278968E+04</pdfrwt>
<pdfrwt beam="2">  1       -1 0.58426270E-01 0.20278968E+04</pdfrwt>
<totfact> 0.82446050E+00</totfact>
</mgrwt>
</event>
<event>
12    6  0.1450532E-007  0.1359493E+04  0.7818608E-02  0.8983673E-01
         -1   -1    0    0    0  501 -0.00000000000E+00  0.00000000000E+00  0.30275101936E+03  0.30275101936E+03  0.00000000000E+00 0.  1.
          2   -1    0    0  501    0  0.00000000000E+00 -0.00000000000E+00 -0.15261884738E+04  0.15261884738E+04  0.00000000000E+00 0. -1.
         24    2    1    2    0    0 -0.28202030454E+02 -0.18671893798E+03 -0.78725482494E+03  0.81491414133E+03  0.93035380497E+02 0.  0.
        254    2    1    2    0    0  0.28202030454E+02  0.18671893798E+03 -0.43618262946E+03  0.10140253518E+04  0.89573032298E+03 0.  0.
         23    2    4    4    0    0  0.39695946055E+03 -0.10865169497E+03 -0.12212105979E+03  0.43893897737E+03  0.91497915084E+02 0.  0.
         23    2    4    4    0    0 -0.36875743010E+03  0.29537063296E+03 -0.31406156967E+03  0.57508637443E+03  0.94147838192E+02 0.  0.
          4    1    3    3  502    0  0.25908551958E+02 -0.11071780418E+03 -0.35745208150E+03  0.37510222046E+03  0.00000000000E+00 0. -1.
         -3    1    3    3    0  502 -0.54110582411E+02 -0.76001133802E+02 -0.42980274344E+03  0.43981192086E+03  0.00000000000E+00 0.  1.
         11    1    5    5    0    0  0.19461764331E+02 -0.28956864239E+02 -0.18293468501E+02  0.39394304756E+02  0.00000000000E+00 0. -1.
        -11    1    5    5    0    0  0.37749769622E+03 -0.79694830736E+02 -0.10382759129E+03  0.39954467261E+03  0.00000000000E+00 0.  1.
          4    1    6    6  503    0 -0.71781827438E+02  0.26316286129E+02 -0.23104963094E+02  0.79868748492E+02  0.00000000000E+00 0. -1.
         -4    1    6    6    0  503 -0.29697560266E+03  0.26905434683E+03 -0.29095660658E+03  0.49521762593E+03  0.00000000000E+00 0.  1.
<mgrwt>
<rscale>  0 0.13594927E+04</rscale>
<asrwt>0</asrwt>
<pdfrwt beam="1">  1        2 0.23479823E+00 0.13594927E+04</pdfrwt>
<pdfrwt beam="2">  1       -1 0.46577080E-01 0.13594927E+04</pdfrwt>
<totfact> 0.62637092E+01</totfact>
</mgrwt>
</event>
<event>
12    6  0.1450532E-007  0.1384071E+04  0.7818608E-02  0.8965430E-01
          2   -1    0    0  501    0  0.00000000000E+00  0.00000000000E+00  0.50995745258E+03  0.50995745258E+03  0.00000000000E+00 0. -1.
         -1   -1    0    0    0  501 -0.00000000000E+00 -0.00000000000E+00 -0.93912312623E+03  0.93912312623E+03  0.00000000000E+00 0.  1.
         24    2    1    2    0    0  0.47123899227E+02 -0.24444547550E+03 -0.43836118993E+03  0.51040888834E+03  0.79890225278E+02 0.  0.
        254    2    1    2    0    0 -0.47123899227E+02  0.24444547550E+03  0.91955162707E+01  0.93867169047E+03  0.90501145440E+03 0.  0.
         23    2    4    4    0    0 -0.10952555472E+03  0.53698604977E+03  0.17823586428E+03  0.58284126757E+03  0.87097962555E+02 0.  0.
         23    2    4    4    0    0  0.62401655493E+02 -0.29254057428E+03 -0.16904034801E+03  0.35583042289E+03  0.92556449771E+02 0.  0.
          4    1    3    3  502    0  0.24420940963E+02 -0.22279545739E+02 -0.28462565460E+02  0.43621991569E+02  0.00000000000E+00 0. -1.
         -3    1    3    3    0  502  0.22702958264E+02 -0.22216592976E+03 -0.40989862447E+03  0.46678689677E+03  0.00000000000E+00 0.  1.
         11    1    5    5    0    0 -0.11886531394E+03  0.39465011557E+03  0.12719536836E+03  0.43134248378E+03  0.00000000000E+00 0. -1.
        -11    1    5    5    0    0  0.93397592213E+01  0.14233593420E+03  0.51040495923E+02  0.15149878380E+03  0.00000000000E+00 0.  1.
          2    1    6    6  503    0  0.84707357723E+02 -0.18837369626E+03 -0.10871399917E+03  0.23340676835E+03  0.00000000000E+00 0. -1.
         -2    1    6    6    0  503 -0.22305702230E+02 -0.10416687802E+03 -0.60326348845E+02  0.12242365455E+03  0.00000000000E+00 0.  1.
<mgrwt>
<rscale>  0 0.13840706E+04</rscale>
<asrwt>0</asrwt>
<pdfrwt beam="1">  1        2 0.78454992E-01 0.13840706E+04</pdfrwt>
<pdfrwt beam="2">  1       -1 0.14448048E+00 0.13840706E+04</pdfrwt>
<totfact> 0.25866185E+01</totfact>
</mgrwt>
</event>
<event>
12    6  0.1450532E-007  0.1116906E+04  0.7818608E-02  0.9188869E-01
         -1   -1    0    0    0  501 -0.00000000000E+00  0.00000000000E+00  0.10878942979E+04  0.10878942979E+04  0.00000000000E+00 0.  1.
          2   -1    0    0  501    0  0.00000000000E+00 -0.00000000000E+00 -0.28667309117E+03  0.28667309117E+03  0.00000000000E+00 0. -1.
         24    2    1    2    0    0  0.13705737872E+03  0.12138175563E+03  0.18793246029E+03  0.27449765385E+03  0.80697563011E+02 0.  0.
        254    2    1    2    0    0 -0.13705737872E+03 -0.12138175563E+03  0.61328874643E+03  0.11000697352E+04  0.89471340673E+03 0.  0.
         23    2    4    4    0    0 -0.20171015802E+03  0.93630216430E+02 -0.16071959877E+03  0.28909831202E+03  0.91068322187E+02 0.  0.
         23    2    4    4    0    0  0.64652779299E+02 -0.21501197206E+03  0.77400834521E+03  0.81097142320E+03  0.90419028968E+02 0.  0.
          2    1    3    3  502    0  0.31018846585E+02  0.48100976594E+02  0.10965750051E+03  0.12369575664E+03  0.00000000000E+00 0. -1.
         -1    1    3    3    0  502  0.10603853213E+03  0.73280779038E+02  0.78274959787E+02  0.15080189721E+03  0.00000000000E+00 0.  1.
         11    1    5    5    0    0 -0.15421896692E+03  0.84489597891E+02 -0.16422683573E+03  0.24060846927E+03  0.00000000000E+00 0. -1.
        -11    1    5    5    0    0 -0.47491191097E+02  0.91406185386E+01  0.35072369533E+01  0.48489842752E+02  0.00000000000E+00 0.  1.
          3    1    6    6  503    0  0.61720912580E+02 -0.22094441947E+03  0.76949277371E+03  0.80296017107E+03  0.00000000000E+00 0. -1.
         -3    1    6    6    0  503  0.29318667195E+01  0.59324474073E+01  0.45155715023E+01  0.80112521302E+01  0.00000000000E+00 0.  1.
<mgrwt>
<rscale>  0 0.11169065E+04</rscale>
<asrwt>0</asrwt>
<pdfrwt beam="1">  1        2 0.44103553E-01 0.11169065E+04</pdfrwt>
<pdfrwt beam="2">  1       -1 0.16736835E+00 0.11169065E+04</pdfrwt>
<totfact> 0.33793245E+01</totfact>
</mgrwt>
</event>
<event>
12    6  0.1450532E-007  0.1359659E+04  0.7818608E-02  0.8983548E-01
         -1   -1    0    0    0  501 -0.00000000000E+00  0.00000000000E+00  0.11154913933E+04  0.11154913933E+04  0.00000000000E+00 0.  1.
          2   -1    0    0  501    0  0.00000000000E+00 -0.00000000000E+00 -0.41431819488E+03  0.41431819488E+03  0.00000000000E+00 0. -1.
         24    2    1    2    0    0 -0.11132864685E+03 -0.30913122376E+03  0.39843267142E+03  0.52223504742E+03  0.77618747684E+02 0.  0.
        254    2    1    2    0    0  0.11132864685E+03  0.30913122376E+03  0.30274052700E+03  0.10075745407E+04  0.90310489278E+03 0.  0.
         23    2    4    4    0    0  0.24770760003E+03 -0.25492133099E+03  0.55877901908E+02  0.37024587454E+03  0.87268136156E+02 0.  0.
         23    2    4    4    0    0 -0.13637895318E+03  0.56405255475E+03  0.24686262509E+03  0.63732866621E+03  0.92152969142E+02 0.  0.
          2    1    3    3  502    0  0.97974753405E+01 -0.50175646669E+02  0.49721813407E+02  0.71315108989E+02  0.00000000000E+00 0. -1.
         -1    1    3    3    0  502 -0.12112612219E+03 -0.25895557709E+03  0.34871085801E+03  0.45091993843E+03  0.00000000000E+00 0.  1.
         11    1    5    5    0    0  0.21901119891E+03 -0.25399263374E+03  0.61551871370E+02  0.34097917255E+03  0.00000000000E+00 0. -1.
        -11    1    5    5    0    0  0.28696401122E+02 -0.92869724128E+00 -0.56739694625E+01  0.29266701990E+02  0.00000000000E+00 0.  1.
          2    1    6    6  503    0 -0.66488662506E+02  0.40366998613E+03  0.14038866292E+03  0.43252650395E+03  0.00000000000E+00 0. -1.
         -2    1    6    6    0  503 -0.69890290675E+02  0.16038256862E+03  0.10647396216E+03  0.20480216226E+03  0.00000000000E+00 0.  1.
<mgrwt>
<rscale>  0 0.13596593E+04</rscale>
<asrwt>0</asrwt>
<pdfrwt beam="1">  1        2 0.63741261E-01 0.13596593E+04</pdfrwt>
<pdfrwt beam="2">  1       -1 0.17161406E+00 0.13596593E+04</pdfrwt>
<totfact> 0.20432999E+01</totfact>
</mgrwt>
</event>
<event>
12    6  0.1450532E-007  0.2465775E+04  0.7818608E-02  0.8415281E-01
         -1   -1    0    0    0  501 -0.00000000000E+00  0.00000000000E+00  0.85629052682E+03  0.85629052682E+03  0.00000000000E+00 0.  1.
          2   -1    0    0  501    0  0.00000000000E+00 -0.00000000000E+00 -0.17751122515E+04  0.17751122515E+04  0.00000000000E+00 0. -1.
         24    2    1    2    0    0  0.80396161783E+03  0.14958165454E+03  0.33441536707E+03  0.88705308340E+03  0.79376197364E+02 0.  0.
        254    2    1    2    0    0 -0.80396161783E+03 -0.14958165454E+03 -0.12532370917E+04  0.17443496949E+04  0.89633905175E+03 0.  0.
         23    2    4    4    0    0 -0.35910913394E+03  0.26843265567E+03 -0.15274942726E+03  0.48265220588E+03  0.92764775639E+02 0.  0.
         23    2    4    4    0    0 -0.44485248389E+03 -0.41801431021E+03 -0.11004876645E+04  0.12616974890E+04  0.90430958172E+02 0.  0.
          2    1    3    3  502    0  0.33812185824E+03  0.55432950401E+02  0.98802529687E+02  0.35659661087E+03  0.00000000000E+00 0. -1.
         -1    1    3    3    0  502  0.46583975959E+03  0.94148704141E+02  0.23561283738E+03  0.53045647253E+03  0.00000000000E+00 0.  1.
         11    1    5    5    0    0 -0.14338379696E+03  0.58492555666E+02 -0.73285735215E+02  0.17132160192E+03  0.00000000000E+00 0. -1.
        -11    1    5    5    0    0 -0.21572533698E+03  0.20994010001E+03 -0.79463692049E+02  0.31133060396E+03  0.00000000000E+00 0.  1.
          2    1    6    6  503    0 -0.11737031824E+02 -0.18741465953E+01 -0.52143582584E+02  0.53481057826E+02  0.00000000000E+00 0.  1.
         -2    1    6    6    0  503 -0.43311545207E+03 -0.41614016362E+03 -0.10483440819E+04  0.12082164312E+04  0.00000000000E+00 0. -1.
<mgrwt>
<rscale>  0 0.24657752E+04</rscale>
<asrwt>0</asrwt>
<pdfrwt beam="1">  1        2 0.27309419E+00 0.24657752E+04</pdfrwt>
<pdfrwt beam="2">  1       -1 0.13173700E+00 0.24657752E+04</pdfrwt>
<totfact> 0.44472757E+00</totfact>
</mgrwt>
</event>
<event>
12    6  0.1450532E-007  0.2267148E+04  0.7818608E-02  0.8490988E-01
          2   -1    0    0  501    0  0.00000000000E+00  0.00000000000E+00  0.23370610291E+04  0.23370610291E+04  0.00000000000E+00 0. -1.
         -1   -1    0    0    0  501 -0.00000000000E+00 -0.00000000000E+00 -0.54983182195E+03  0.54983182195E+03  0.00000000000E+00 0.  1.
         24    2    1    2    0    0  0.54937088685E+03 -0.77431284315E+03  0.53172904031E+03  0.10910603400E+04  0.79423817840E+02 0.  0.
        254    2    1    2    0    0 -0.54937088685E+03  0.77431284315E+03  0.12555001668E+04  0.17958325111E+04  0.86450274055E+03 0.  0.
         23    2    4    4    0    0 -0.12084972763E+03 -0.16722542572E+03  0.11525392716E+03  0.25355543068E+03  0.91857982935E+02 0.  0.
         23    2    4    4    0    0 -0.42852115922E+03  0.94153826887E+03  0.11402462397E+04  0.15422770804E+04  0.91282034821E+02 0.  0.
          2    1    3    3  502    0  0.56105389560E+01 -0.27066190327E+02  0.77781128463E+01  0.28715080457E+02  0.00000000000E+00 0. -1.
         -1    1    3    3    0  502  0.54376034789E+03 -0.74724665282E+03  0.52395092746E+03  0.10623452595E+04  0.00000000000E+00 0.  1.
         11    1    5    5    0    0 -0.90091707376E+02 -0.14598298847E+03  0.12802748476E+03  0.21405276339E+03  0.00000000000E+00 0.  1.
        -11    1    5    5    0    0 -0.30758020253E+02 -0.21242437243E+02 -0.12773557592E+02  0.39502667296E+02  0.00000000000E+00 0. -1.
          4    1    6    6  503    0 -0.56579033659E+02  0.94663346633E+02  0.16209117889E+03  0.19605072436E+03  0.00000000000E+00 0. -1.
         -4    1    6    6    0  503 -0.37194212556E+03  0.84687492224E+03  0.97815506079E+03  0.13462263560E+04  0.00000000000E+00 0.  1.
<mgrwt>
<rscale>  0 0.22671485E+04</rscale>
<asrwt>0</asrwt>
<pdfrwt beam="1">  1        2 0.35954784E+00 0.22671485E+04</pdfrwt>
<pdfrwt beam="2">  1       -1 0.84589513E-01 0.22671485E+04</pdfrwt>
<totfact> 0.61802671E+00</totfact>
</mgrwt>
</event>
<event>
12    6  0.1450532E-007  0.2538654E+04  0.7818608E-02  0.8389343E-01
         -1   -1    0    0    0  501 -0.00000000000E+00  0.00000000000E+00  0.96007217676E+03  0.96007217676E+03  0.00000000000E+00 0.  1.
          2   -1    0    0  501    0  0.00000000000E+00 -0.00000000000E+00 -0.16781976263E+04  0.16781976263E+04  0.00000000000E+00 0. -1.
         24    2    1    2    0    0  0.83142321836E+03  0.34193114429E+03 -0.98244829755E+03  0.13338890736E+04  0.76641554656E+02 0.  0.
        254    2    1    2    0    0 -0.83142321836E+03 -0.34193114429E+03  0.26432284801E+03  0.13043807294E+04  0.90739244203E+03 0.  0.
         23    2    4    4    0    0 -0.32247189479E+03  0.26500170179E+03  0.27423875705E+03  0.50776816117E+03  0.91692882748E+02 0.  0.
         23    2    4    4    0    0 -0.50895132357E+03 -0.60693284607E+03 -0.99159090373E+01  0.79661256826E+03  0.84227841288E+02 0.  0.
          2    1    3    3  502    0  0.18749609325E+03  0.60605602486E+02 -0.25780636558E+03  0.32448720494E+03  0.00000000000E+00 0. -1.
         -1    1    3    3    0  502  0.64392712511E+03  0.28132554180E+03 -0.72464193197E+03  0.10094018687E+04  0.00000000000E+00 0.  1.
         11    1    5    5    0    0 -0.18712954631E+02  0.40877933321E+02  0.75829169823E+01  0.45592551295E+02  0.00000000000E+00 0. -1.
        -11    1    5    5    0    0 -0.30375894016E+03  0.22412376846E+03  0.26665584007E+03  0.46217560987E+03  0.00000000000E+00 0.  1.
          3    1    6    6  503    0 -0.27999704831E+03 -0.37481966591E+03  0.26193308144E+02  0.46858747146E+03  0.00000000000E+00 0. -1.
         -3    1    6    6    0  503 -0.22895427526E+03 -0.23211318016E+03 -0.36109217181E+02  0.32802509680E+03  0.00000000000E+00 0.  1.
<mgrwt>
<rscale>  0 0.25386539E+04</rscale>
<asrwt>0</asrwt>
<pdfrwt beam="1">  1        2 0.25818425E+00 0.25386539E+04</pdfrwt>
<pdfrwt beam="2">  1       -1 0.14770341E+00 0.25386539E+04</pdfrwt>
<totfact> 0.37126984E+00</totfact>
</mgrwt>
</event>
<event>
12    6  0.1450532E-007  0.2515135E+04  0.7818608E-02  0.8397614E-01
         -1   -1    0    0    0  501 -0.00000000000E+00  0.00000000000E+00  0.79760909223E+03  0.79760909223E+03  0.00000000000E+00 0.  1.
          2   -1    0    0  501    0  0.00000000000E+00 -0.00000000000E+00 -0.19827701065E+04  0.19827701065E+04  0.00000000000E+00 0. -1.
         24    2    1    2    0    0 -0.61052039527E+03 -0.74582363560E+03 -0.10895794947E+04  0.14568882793E+04  0.79699025644E+02 0.  0.
        254    2    1    2    0    0  0.61052039527E+03  0.74582363560E+03 -0.95581519549E+02  0.13234909194E+04  0.90194475353E+03 0.  0.
         23    2    4    4    0    0 -0.65086293804E+02  0.23587373797E+03  0.28870754770E+03  0.38909887710E+03  0.90405985174E+02 0.  0.
         23    2    4    4    0    0  0.67560668907E+03  0.50994989763E+03 -0.38428906725E+03  0.93439204231E+03  0.94430424740E+02 0.  0.
          2    1    3    3  502    0 -0.99422878222E+02 -0.15510762411E+03 -0.24374480221E+03  0.30554019765E+03  0.00000000000E+00 0. -1.
         -1    1    3    3    0  502 -0.51109751705E+03 -0.59071601148E+03 -0.84583469252E+03  0.11513480817E+04  0.00000000000E+00 0.  1.
         11    1    5    5    0    0  0.18824860416E+02  0.73637710752E+02  0.10883822447E+03  0.13275031796E+03  0.00000000000E+00 0. -1.
        -11    1    5    5    0    0 -0.83911154220E+02  0.16223602722E+03  0.17986932324E+03  0.25634855914E+03  0.00000000000E+00 0.  1.
          2    1    6    6  503    0  0.27908170102E+03  0.15881272469E+03 -0.16660095854E+03  0.36175123601E+03  0.00000000000E+00 0. -1.
         -2    1    6    6    0  503  0.39652498805E+03  0.35113717294E+03 -0.21768810871E+03  0.57264080630E+03  0.00000000000E+00 0.  1.
<mgrwt>
<rscale>  0 0.25151346E+04</rscale>
<asrwt>0</asrwt>
<pdfrwt beam="1">  1        2 0.30504155E+00 0.25151346E+04</pdfrwt>
<pdfrwt beam="2">  1       -1 0.12270909E+00 0.25151346E+04</pdfrwt>
<totfact> 0.40564384E+00</totfact>
</mgrwt>
</event>
<event>
12    6  0.1450532E-007  0.2026442E+04  0.7818608E-02  0.8594357E-01
         -1   -1    0    0    0  501 -0.00000000000E+00  0.00000000000E+00  0.46978818743E+03  0.46978818743E+03  0.00000000000E+00 0.  1.
          2   -1    0    0  501    0  0.00000000000E+00 -0.00000000000E+00 -0.21852755741E+04  0.21852755741E+04  0.00000000000E+00 0. -1.
         24    2    1    2    0    0  0.25154783905E+03  0.49108651525E+03  0.84656361066E+02  0.56340306659E+03  0.76249820804E+02 0.  0.
        254    2    1    2    0    0 -0.25154783905E+03 -0.49108651525E+03 -0.18001437478E+04  0.20916606950E+04  0.91108982515E+03 0.  0.
         23    2    4    4    0    0 -0.71368829603E+01 -0.15472265631E+03 -0.16208590369E+04  0.16306253025E+04  0.88118239820E+02 0.  0.
         23    2    4    4    0    0 -0.24441095609E+03 -0.33636385895E+03 -0.17928471087E+03  0.46103539248E+03  0.86794380586E+02 0.  0.
          2    1    3    3  502    0  0.15454181809E+03  0.21849713930E+03  0.44214926553E+02  0.27125473848E+03  0.00000000000E+00 0. -1.
         -1    1    3    3    0  502  0.97006020964E+02  0.27258937596E+03  0.40441434512E+02  0.29214832810E+03  0.00000000000E+00 0.  1.
         11    1    5    5    0    0 -0.14897750431E+02 -0.15935723723E+03 -0.15987247268E+04  0.16067163484E+04  0.00000000000E+00 0. -1.
        -11    1    5    5    0    0  0.77608674707E+01  0.46345809256E+01 -0.22134310088E+02  0.23908954125E+02  0.00000000000E+00 0.  1.
          2    1    6    6  503    0 -0.23004524643E+03 -0.33746075245E+03 -0.18061355547E+03  0.44656671537E+03  0.00000000000E+00 0. -1.
         -2    1    6    6    0  503 -0.14365709660E+02  0.10968935054E+01  0.13288446023E+01  0.14468677112E+02  0.00000000000E+00 0.  1.
<mgrwt>
<rscale>  0 0.20264419E+04</rscale>
<asrwt>0</asrwt>
<pdfrwt beam="1">  1        2 0.33619624E+00 0.20264419E+04</pdfrwt>
<pdfrwt beam="2">  1       -1 0.72275105E-01 0.20264419E+04</pdfrwt>
<totfact> 0.10728107E+01</totfact>
</mgrwt>
</event>
<event>
12    6  0.1450532E-007  0.2489219E+04  0.7818608E-02  0.8406837E-01
         -1   -1    0    0    0  501 -0.00000000000E+00  0.00000000000E+00  0.86451465960E+03  0.86451465960E+03  0.00000000000E+00 0.  1.
          2   -1    0    0  501    0  0.00000000000E+00 -0.00000000000E+00 -0.17918172664E+04  0.17918172664E+04  0.00000000000E+00 0. -1.
         24    2    1    2    0    0  0.30776777025E+03 -0.10312217872E+04 -0.40172832185E+03  0.11514437116E+04  0.79357429329E+02 0.  0.
        254    2    1    2    0    0 -0.30776777025E+03  0.10312217872E+04 -0.52557428495E+03  0.15048882144E+04  0.91121942140E+03 0.  0.
         23    2    4    4    0    0 -0.33904953897E+03  0.84868868765E+03  0.23706062145E+02  0.91874224947E+03  0.91094814116E+02 0.  0.
         23    2    4    4    0    0  0.31281768724E+02  0.18253309958E+03 -0.54928034710E+03  0.58614596491E+03  0.86955798992E+02 0.  0.
          2    1    3    3  502    0  0.30958663288E+03 -0.10148983555E+04 -0.40288240587E+03  0.11349787611E+04  0.00000000000E+00 0. -1.
         -1    1    3    3    0  502 -0.18188626330E+01 -0.16323431746E+02  0.11540840152E+01  0.16464950506E+02  0.00000000000E+00 0.  1.
         11    1    5    5    0    0 -0.16040621069E+03  0.40632450395E+03 -0.34147543148E+02  0.43817326441E+03  0.00000000000E+00 0. -1.
        -11    1    5    5    0    0 -0.17864332828E+03  0.44236418370E+03  0.57853605292E+02  0.48056898507E+03  0.00000000000E+00 0.  1.
          2    1    6    6  503    0  0.38337939076E+02  0.62438756486E+02 -0.30726072100E+03  0.31587584041E+03  0.00000000000E+00 0. -1.
         -2    1    6    6    0  503 -0.70561703514E+01  0.12009434309E+03 -0.24201962609E+03  0.27027012450E+03  0.00000000000E+00 0.  1.
<mgrwt>
<rscale>  0 0.24892186E+04</rscale>
<asrwt>0</asrwt>
<pdfrwt beam="1">  1        2 0.27566419E+00 0.24892186E+04</pdfrwt>
<pdfrwt beam="2">  1       -1 0.13300226E+00 0.24892186E+04</pdfrwt>
<totfact> 0.42401757E+00</totfact>
</mgrwt>
</event>
<event>
12    6  0.1450532E-007  0.1217285E+04  0.7818608E-02  0.9097860E-01
         -1   -1    0    0    0  501 -0.00000000000E+00  0.00000000000E+00  0.17927626729E+03  0.17927626729E+03  0.00000000000E+00 0.  1.
          2   -1    0    0  501    0  0.00000000000E+00 -0.00000000000E+00 -0.20663402941E+04  0.20663402941E+04  0.00000000000E+00 0. -1.
         24    2    1    2    0    0 -0.15708317069E+02  0.78108234667E+02  0.40803770303E+02  0.12074542473E+03  0.81036179412E+02 0.  0.
        254    2    1    2    0    0  0.15708317069E+02 -0.78108234667E+02 -0.19278677971E+04  0.21248711366E+04  0.88997497533E+03 0.  0.
         23    2    4    4    0    0  0.34283480312E+03 -0.46104893081E+02 -0.16358342468E+04  0.16745025907E+04  0.91344840950E+02 0.  0.
         23    2    4    4    0    0 -0.32712648606E+03 -0.32003341586E+02 -0.29203355027E+03  0.45036854589E+03  0.97530922731E+02 0.  0.
          4    1    3    3  502    0 -0.24422055762E+02  0.71392847367E+01 -0.15449810787E+02  0.29767479698E+02  0.00000000000E+00 0. -1.
         -3    1    3    3    0  502  0.87137386932E+01  0.70968949930E+02  0.56253581090E+02  0.90977945029E+02  0.00000000000E+00 0.  1.
         11    1    5    5    0    0  0.19664303791E+03  0.16752875891E+02 -0.97562190635E+03  0.99538296517E+03  0.00000000000E+00 0. -1.
        -11    1    5    5    0    0  0.14619176521E+03 -0.62857768972E+02 -0.66021234046E+03  0.67911962557E+03  0.00000000000E+00 0.  1.
          1    1    6    6  503    0 -0.29238774474E+03 -0.44875567519E+02 -0.28841789324E+03  0.41314560505E+03  0.00000000000E+00 0. -1.
         -1    1    6    6    0  503 -0.34738741316E+02  0.12872225932E+02 -0.36156570343E+01  0.37222940836E+02  0.00000000000E+00 0.  1.
<mgrwt>
<rscale>  0 0.12172851E+04</rscale>
<asrwt>0</asrwt>
<pdfrwt beam="1">  1        2 0.31789850E+00 0.12172851E+04</pdfrwt>
<pdfrwt beam="2">  1       -1 0.27580965E-01 0.12172851E+04</pdfrwt>
<totfact> 0.81567148E+01</totfact>
</mgrwt>
</event>
<event>
12    6  0.1450532E-007  0.1842649E+04  0.7818608E-02  0.8683942E-01
         -1   -1    0    0    0  501 -0.00000000000E+00  0.00000000000E+00  0.21422567933E+03  0.21422567933E+03  0.00000000000E+00 0.  1.
          2   -1    0    0  501    0  0.00000000000E+00 -0.00000000000E+00 -0.39623572632E+04  0.39623572632E+04  0.00000000000E+00 0. -1.
         24    2    1    2    0    0  0.39619285256E+03 -0.38179402786E+03 -0.24043381939E+04  0.24678551622E+04  0.82045687597E+02 0.  0.
        254    2    1    2    0    0 -0.39619285256E+03  0.38179402786E+03 -0.13437933900E+04  0.17087277803E+04  0.90068557010E+03 0.  0.
         23    2    4    4    0    0 -0.21391977641E+03 -0.23968066920E+03 -0.19404635010E+03  0.38604972882E+03  0.90398634980E+02 0.  0.
         23    2    4    4    0    0 -0.18227307614E+03  0.62147469706E+03 -0.11497470399E+04  0.13226780515E+04  0.90026100990E+02 0.  0.
          2    1    3    3  502    0  0.34346064295E+03 -0.34413186184E+03 -0.22150367959E+04  0.22677698205E+04  0.00000000000E+00 0. -1.
         -1    1    3    3    0  502  0.52732209610E+02 -0.37662166028E+02 -0.18930139797E+03  0.20008534167E+03  0.00000000000E+00 0.  1.
         11    1    5    5    0    0 -0.13911326367E+03 -0.87994202375E+02 -0.95389907895E+02  0.19024908491E+03  0.00000000000E+00 0.  1.
        -11    1    5    5    0    0 -0.74806512737E+02 -0.15168646683E+03 -0.98656442205E+02  0.19580064391E+03  0.00000000000E+00 0. -1.
          3    1    6    6  503    0 -0.46196952111E+02  0.66254244143E+02 -0.11510972160E+03  0.14062016661E+03  0.00000000000E+00 0. -1.
         -3    1    6    6    0  503 -0.13607612403E+03  0.55522045292E+03 -0.10346373183E+04  0.11820578849E+04  0.00000000000E+00 0.  1.
<mgrwt>
<rscale>  0 0.18426488E+04</rscale>
<asrwt>0</asrwt>
<pdfrwt beam="1">  1        2 0.60959345E+00 0.18426488E+04</pdfrwt>
<pdfrwt beam="2">  1       -1 0.32957796E-01 0.18426488E+04</pdfrwt>
<totfact> 0.34397038E+00</totfact>
</mgrwt>
</event>
<event>
12    6  0.1450532E-007  0.1792705E+04  0.7818608E-02  0.8710189E-01
          2   -1    0    0  501    0  0.00000000000E+00  0.00000000000E+00  0.17075084345E+04  0.17075084345E+04  0.00000000000E+00 0. -1.
         -1   -1    0    0    0  501 -0.00000000000E+00 -0.00000000000E+00 -0.47053805996E+03  0.47053805996E+03  0.00000000000E+00 0.  1.
         24    2    1    2    0    0 -0.58481370335E+03  0.23373050174E+03  0.21750770893E+03  0.67130375505E+03  0.81866434144E+02 0.  0.
        254    2    1    2    0    0  0.58481370335E+03 -0.23373050174E+03  0.10194626656E+04  0.15067427394E+04  0.91341805388E+03 0.  0.
         23    2    4    4    0    0  0.74693686207E+03 -0.37585593165E+03  0.62666390998E+03  0.10488811771E+04  0.90893950892E+02 0.  0.
         23    2    4    4    0    0 -0.16212315873E+03  0.14212542991E+03  0.39279875563E+03  0.45786156232E+03  0.94142399630E+02 0.  0.
          2    1    3    3  502    0 -0.53519110713E+03  0.21942011670E+03  0.22177541928E+03  0.61948288545E+03  0.00000000000E+00 0. -1.
         -1    1    3    3    0  502 -0.49622596212E+02  0.14310385043E+02 -0.42677103509E+01  0.51820869604E+02  0.00000000000E+00 0.  1.
         11    1    5    5    0    0  0.12783272460E+03 -0.76691520540E+02  0.15505139624E+03  0.21509005155E+03  0.00000000000E+00 0.  1.
        -11    1    5    5    0    0  0.61910413748E+03 -0.29916441111E+03  0.47161251374E+03  0.83379112554E+03  0.00000000000E+00 0. -1.
          3    1    6    6  503    0 -0.24928212575E+02  0.23923369703E+01  0.11676567386E+03  0.11942094309E+03  0.00000000000E+00 0. -1.
         -3    1    6    6    0  503 -0.13719494615E+03  0.13973309294E+03  0.27603308177E+03  0.33844061923E+03  0.00000000000E+00 0.  1.
<mgrwt>
<rscale>  0 0.17927049E+04</rscale>
<asrwt>0</asrwt>
<pdfrwt beam="1">  1        2 0.26269360E+00 0.17927049E+04</pdfrwt>
<pdfrwt beam="2">  1       -1 0.72390472E-01 0.17927049E+04</pdfrwt>
<totfact> 0.20116946E+01</totfact>
</mgrwt>
</event>
<event>
12    6  0.1450532E-007  0.1287297E+04  0.7818608E-02  0.9039700E-01
         -1   -1    0    0    0  501 -0.00000000000E+00  0.00000000000E+00  0.57626743262E+03  0.57626743262E+03  0.00000000000E+00 0.  1.
          2   -1    0    0  501    0  0.00000000000E+00 -0.00000000000E+00 -0.71890852221E+03  0.71890852221E+03  0.00000000000E+00 0. -1.
         24    2    1    2    0    0 -0.14229847782E+03  0.28318239609E+03  0.62609131280E+01  0.32744086712E+03  0.82080425114E+02 0.  0.
        254    2    1    2    0    0  0.14229847782E+03 -0.28318239609E+03 -0.14890200272E+03  0.96773508771E+03  0.90216310461E+03 0.  0.
         23    2    4    4    0    0  0.23714387147E+03  0.25198596396E+03 -0.20383488731E+03  0.41459955856E+03  0.10300480992E+03 0.  0.
         23    2    4    4    0    0 -0.94845393651E+02 -0.53516836005E+03  0.54932884586E+02  0.55313552914E+03  0.86835876774E+02 0.  0.
          2    1    3    3  502    0 -0.87840433083E+02  0.95940524622E+02 -0.16480451605E+02  0.13111876767E+03  0.00000000000E+00 0. -1.
         -1    1    3    3    0  502 -0.54458044736E+02  0.18724187146E+03  0.22741364733E+02  0.19632209946E+03  0.00000000000E+00 0.  1.
         11    1    5    5    0    0  0.22723530095E+03  0.22384704880E+03 -0.14874230087E+03  0.35194837025E+03  0.00000000000E+00 0.  1.
        -11    1    5    5    0    0  0.99085705235E+01  0.28138915161E+02 -0.55092586444E+02  0.62651188315E+02  0.00000000000E+00 0. -1.
          4    1    6    6  503    0  0.16053479283E+02 -0.66832633557E+02  0.13700710458E+02  0.70085837174E+02  0.00000000000E+00 0. -1.
         -4    1    6    6    0  503 -0.11089887293E+03 -0.46833572649E+03  0.41232174128E+02  0.48304969197E+03  0.00000000000E+00 0.  1.
<mgrwt>
<rscale>  0 0.12872973E+04</rscale>
<asrwt>0</asrwt>
<pdfrwt beam="1">  1        2 0.11060131E+00 0.12872973E+04</pdfrwt>
<pdfrwt beam="2">  1       -1 0.88656528E-01 0.12872973E+04</pdfrwt>
<totfact> 0.55437277E+01</totfact>
</mgrwt>
</event>
<event>
12    6  0.1450532E-007  0.1131348E+04  0.7818608E-02  0.9175165E-01
         -3   -1    0    0    0  501 -0.00000000000E+00  0.00000000000E+00  0.16803609992E+03  0.16803609992E+03  0.00000000000E+00 0.  1.
          4   -1    0    0  501    0  0.00000000000E+00 -0.00000000000E+00 -0.19042771026E+04  0.19042771026E+04  0.00000000000E+00 0. -1.
         24    2    1    2    0    0 -0.43403783028E+02 -0.14231173089E+03 -0.55486666345E+03  0.58000910763E+03  0.79981457831E+02 0.  0.
        254    2    1    2    0    0  0.43403783028E+02  0.14231173089E+03 -0.11813743392E+04  0.14923040949E+04  0.89954970129E+03 0.  0.
         23    2    4    4    0    0 -0.16995754767E+03  0.12832788656E+03  0.52550176039E+02  0.23726390772E+03  0.90437970039E+02 0.  0.
         23    2    4    4    0    0  0.21336133070E+03  0.13983844326E+02 -0.12339245153E+04  0.12550401872E+04  0.82689519764E+02 0.  0.
          2    1    3    3  502    0 -0.10643107055E+01 -0.10704624655E+03 -0.43664850043E+03  0.44957974218E+03  0.00000000000E+00 0. -1.
         -1    1    3    3    0  502 -0.42339472322E+02 -0.35265484340E+02 -0.11821816303E+03  0.13042936545E+03  0.00000000000E+00 0.  1.
         11    1    5    5    0    0 -0.17063053130E+03  0.10140818705E+03  0.27317685256E+02  0.20036130999E+03  0.00000000000E+00 0. -1.
        -11    1    5    5    0    0  0.67298362062E+00  0.26919699507E+02  0.25232490783E+02  0.36902597735E+02  0.00000000000E+00 0.  1.
          3    1    6    6  503    0  0.17731188532E+03  0.10343892568E+02 -0.79385369350E+03  0.81348029323E+03  0.00000000000E+00 0. -1.
         -3    1    6    6    0  503  0.36049445383E+02  0.36399517580E+01 -0.44007082175E+03  0.44155989392E+03  0.00000000000E+00 0.  1.
<mgrwt>
<rscale>  0 0.11313484E+04</rscale>
<asrwt>0</asrwt>
<pdfrwt beam="1">  1        4 0.29296569E+00 0.11313484E+04</pdfrwt>
<pdfrwt beam="2">  1       -3 0.25851710E-01 0.11313484E+04</pdfrwt>
<totfact> 0.11245680E+00</totfact>
</mgrwt>
</event>
<event>
12    6  0.1450532E-007  0.1784297E+04  0.7818608E-02  0.8714695E-01
         -1   -1    0    0    0  501 -0.00000000000E+00  0.00000000000E+00  0.92878480530E+03  0.92878480530E+03  0.00000000000E+00 0.  1.
          2   -1    0    0  501    0  0.00000000000E+00 -0.00000000000E+00 -0.85695697221E+03  0.85695697221E+03  0.00000000000E+00 0. -1.
         24    2    1    2    0    0  0.50423784626E+03 -0.72552536987E+02 -0.39608299422E+03  0.65020151025E+03  0.79753303364E+02 0.  0.
        254    2    1    2    0    0 -0.50423784626E+03  0.72552536987E+02  0.46791082731E+03  0.11355402673E+04  0.90055065379E+03 0.  0.
         23    2    4    4    0    0  0.10026596007E+03  0.10649717751E+03  0.49311227121E+03  0.52238515462E+03  0.91277741990E+02 0.  0.
         23    2    4    4    0    0 -0.60450380633E+03 -0.33944640520E+02 -0.25201443895E+02  0.61315511265E+03  0.93525338285E+02 0.  0.
          4    1    3    3  502    0  0.47085075452E+03 -0.68459100932E+02 -0.39167617647E+03  0.61627697405E+03  0.00000000000E+00 0. -1.
         -3    1    3    3    0  502  0.33387091742E+02 -0.40934360545E+01 -0.44068177504E+01  0.33924536200E+02  0.00000000000E+00 0.  1.
         11    1    5    5    0    0  0.38510882424E+02  0.91972099204E+02  0.21305919794E+03  0.23523642771E+03  0.00000000000E+00 0.  1.
        -11    1    5    5    0    0  0.61755077651E+02  0.14525078303E+02  0.28005307327E+03  0.28714872690E+03  0.00000000000E+00 0. -1.
          3    1    6    6  503    0 -0.11101731250E+03  0.26875698762E+02  0.10184403335E+02  0.11467723806E+03  0.00000000000E+00 0. -1.
         -3    1    6    6    0  503 -0.49348649383E+03 -0.60820339282E+02 -0.35385847230E+02  0.49847787458E+03  0.00000000000E+00 0.  1.
<mgrwt>
<rscale>  0 0.17842966E+04</rscale>
<asrwt>0</asrwt>
<pdfrwt beam="1">  1        2 0.13183953E+00 0.17842966E+04</pdfrwt>
<pdfrwt beam="2">  1       -1 0.14288997E+00 0.17842966E+04</pdfrwt>
<totfact> 0.13451382E+01</totfact>
</mgrwt>
</event>
<event>
12    6  0.1450532E-007  0.2039161E+04  0.7818608E-02  0.8588527E-01
         -1   -1    0    0    0  501 -0.00000000000E+00  0.00000000000E+00  0.97522894820E+03  0.97522894820E+03  0.00000000000E+00 0.  1.
          2   -1    0    0  501    0  0.00000000000E+00 -0.00000000000E+00 -0.10659493754E+04  0.10659493754E+04  0.00000000000E+00 0. -1.
         24    2    1    2    0    0  0.48046910238E+03 -0.40277326245E+03 -0.57001050846E+03  0.85119457726E+03  0.80891095511E+02 0.  0.
        254    2    1    2    0    0 -0.48046910238E+03  0.40277326245E+03  0.47929008122E+03  0.11899837464E+04  0.89065452078E+03 0.  0.
         23    2    4    4    0    0 -0.18672439116E+02  0.21040092948E+03  0.62069924493E+03  0.66206046864E+03  0.91865664815E+02 0.  0.
         23    2    4    4    0    0 -0.46179666326E+03  0.19237233297E+03 -0.14140916371E+03  0.52792327773E+03  0.91886685081E+02 0.  0.
          4    1    3    3  502    0  0.34532382100E+03 -0.33334187878E+03 -0.44314695728E+03  0.65325689835E+03  0.00000000000E+00 0. -1.
         -3    1    3    3    0  502  0.13514528137E+03 -0.69431383670E+02 -0.12686355117E+03  0.19793767891E+03  0.00000000000E+00 0.  1.
         11    1    5    5    0    0  0.13250611366E+02  0.14901314566E+03  0.51024167728E+03  0.53172085300E+03  0.00000000000E+00 0. -1.
        -11    1    5    5    0    0 -0.31923050482E+02  0.61387783821E+02  0.11045756765E+03  0.13033961564E+03  0.00000000000E+00 0.  1.
          1    1    6    6  503    0 -0.41520055042E+03  0.14444804253E+03 -0.13890830609E+03  0.46103389415E+03  0.00000000000E+00 0. -1.
         -1    1    6    6    0  503 -0.46596112845E+02  0.47924290438E+02 -0.25008576198E+01  0.66889383576E+02  0.00000000000E+00 0.  1.
<mgrwt>
<rscale>  0 0.20391613E+04</rscale>
<asrwt>0</asrwt>
<pdfrwt beam="1">  1        2 0.16399221E+00 0.20391613E+04</pdfrwt>
<pdfrwt beam="2">  1       -1 0.15003522E+00 0.20391613E+04</pdfrwt>
<totfact> 0.84249378E+00</totfact>
</mgrwt>
</event>
<event>
12    6  0.1450532E-007  0.2068760E+04  0.7818608E-02  0.8575131E-01
         -1   -1    0    0    0  501 -0.00000000000E+00  0.00000000000E+00  0.47348361150E+03  0.47348361150E+03  0.00000000000E+00 0.  1.
          2   -1    0    0  501    0  0.00000000000E+00 -0.00000000000E+00 -0.22597236943E+04  0.22597236943E+04  0.00000000000E+00 0. -1.
         24    2    1    2    0    0  0.68010489138E+03 -0.47394991589E+03 -0.70550071472E+03  0.10915480497E+04  0.81084525643E+02 0.  0.
        254    2    1    2    0    0 -0.68010489138E+03  0.47394991589E+03 -0.10807393681E+04  0.16416592561E+04  0.91644767738E+03 0.  0.
         23    2    4    4    0    0 -0.61568533119E+03 -0.73472093305E+02 -0.79958615363E+03  0.10159111509E+04  0.90944345086E+02 0.  0.
         23    2    4    4    0    0 -0.64419560185E+02  0.54742200920E+03 -0.28115321449E+03  0.62574810523E+03  0.93235322119E+02 0.  0.
          4    1    3    3  502    0  0.30576736021E+03 -0.18602458304E+03 -0.34833509015E+03  0.49943584081E+03  0.00000000000E+00 0. -1.
         -3    1    3    3    0  502  0.37433753117E+03 -0.28792533286E+03 -0.35716562457E+03  0.59211220889E+03  0.00000000000E+00 0.  1.
         11    1    5    5    0    0 -0.14991398779E+03 -0.29434643255E+02 -0.26166815418E+03  0.30300301132E+03  0.00000000000E+00 0.  1.
        -11    1    5    5    0    0 -0.46577134340E+03 -0.44037450051E+02 -0.53791799946E+03  0.71290813958E+03  0.00000000000E+00 0. -1.
          3    1    6    6  503    0 -0.80797176860E+02  0.42377291211E+03 -0.19071536589E+03  0.47168211289E+03  0.00000000000E+00 0. -1.
         -3    1    6    6    0  503  0.16377616675E+02  0.12364909709E+03 -0.90437848592E+02  0.15406599234E+03  0.00000000000E+00 0.  1.
<mgrwt>
<rscale>  0 0.20687601E+04</rscale>
<asrwt>0</asrwt>
<pdfrwt beam="1">  1        2 0.34764980E+00 0.20687601E+04</pdfrwt>
<pdfrwt beam="2">  1       -1 0.72843632E-01 0.20687601E+04</pdfrwt>
<totfact> 0.95487499E+00</totfact>
</mgrwt>
</event>
<event>
12    6  0.1450532E-007  0.1765928E+04  0.7818608E-02  0.8724631E-01
          2   -1    0    0  501    0  0.00000000000E+00  0.00000000000E+00  0.12312626974E+04  0.12312626974E+04  0.00000000000E+00 0. -1.
         -1   -1    0    0    0  501 -0.00000000000E+00 -0.00000000000E+00 -0.63319211435E+03  0.63319211435E+03  0.00000000000E+00 0.  1.
         24    2    1    2    0    0  0.60282359734E+03 -0.12578244940E+03  0.42373820631E+03  0.75184039711E+03  0.80575437613E+02 0.  0.
        254    2    1    2    0    0 -0.60282359734E+03  0.12578244940E+03  0.17433237670E+03  0.11126144146E+04  0.91011073169E+03 0.  0.
         23    2    4    4    0    0 -0.67222409025E+03  0.29221287595E+03 -0.12720016060E+03  0.74960955075E+03  0.91983723222E+02 0.  0.
         23    2    4    4    0    0  0.69400492908E+02 -0.16643042655E+03  0.30153253730E+03  0.36300486385E+03  0.91297014373E+02 0.  0.
          2    1    3    3  502    0  0.36583621295E+03 -0.99001725415E+02  0.29869921662E+03  0.48255434756E+03  0.00000000000E+00 0. -1.
         -1    1    3    3    0  502  0.23698738439E+03 -0.26780723986E+02  0.12503898970E+03  0.26928604955E+03  0.00000000000E+00 0.  1.
         11    1    5    5    0    0 -0.39520596157E+02  0.21072631824E+02 -0.31223637054E+02  0.54597150507E+02  0.00000000000E+00 0. -1.
        -11    1    5    5    0    0 -0.63270349409E+03  0.27114024413E+03 -0.95976523548E+02  0.69501240024E+03  0.00000000000E+00 0.  1.
          3    1    6    6  503    0  0.13619581026E+02 -0.45505049674E+02  0.16733316232E+03  0.17394421446E+03  0.00000000000E+00 0. -1.
         -3    1    6    6    0  503  0.55780911881E+02 -0.12092537688E+03  0.13419937498E+03  0.18906064939E+03  0.00000000000E+00 0.  1.
<mgrwt>
<rscale>  0 0.17659285E+04</rscale>
<asrwt>0</asrwt>
<pdfrwt beam="1">  1        2 0.18942503E+00 0.17659285E+04</pdfrwt>
<pdfrwt beam="2">  1       -1 0.97414172E-01 0.17659285E+04</pdfrwt>
<totfact> 0.19816868E+01</totfact>
</mgrwt>
</event>
<event>
12    6  0.1450532E-007  0.1846378E+04  0.7818608E-02  0.8682018E-01
         -1   -1    0    0    0  501 -0.00000000000E+00  0.00000000000E+00  0.29908891909E+03  0.29908891909E+03  0.00000000000E+00 0.  1.
          2   -1    0    0  501    0  0.00000000000E+00 -0.00000000000E+00 -0.28495805493E+04  0.28495805493E+04  0.00000000000E+00 0. -1.
         24    2    1    2    0    0  0.39239234612E+03  0.21594669766E+03 -0.18827594343E+04  0.19368654862E+04  0.77846609342E+02 0.  0.
        254    2    1    2    0    0 -0.39239234612E+03 -0.21594669766E+03 -0.66773219591E+03  0.12118039822E+04  0.90664098534E+03 0.  0.
         23    2    4    4    0    0 -0.26643483542E+03  0.21326478887E+03  0.54358663300E+02  0.35751581849E+03  0.91614979669E+02 0.  0.
         23    2    4    4    0    0 -0.12595751070E+03 -0.42921148654E+03 -0.72209085921E+03  0.85428816371E+03  0.91133215819E+02 0.  0.
          2    1    3    3  502    0  0.24094233735E+03  0.13366390411E+03 -0.13133370852E+04  0.13419290400E+04  0.00000000000E+00 0. -1.
         -1    1    3    3    0  502  0.15145000877E+03  0.82282793551E+02 -0.56942234913E+03  0.59493644615E+03  0.00000000000E+00 0.  1.
         11    1    5    5    0    0 -0.64843151553E+02  0.10489097571E+03  0.32944713801E+02  0.12764053140E+03  0.00000000000E+00 0.  1.
        -11    1    5    5    0    0 -0.20159168386E+03  0.10837381316E+03  0.21413949500E+02  0.22987528709E+03  0.00000000000E+00 0. -1.
          3    1    6    6  503    0 -0.10124658759E+02 -0.19431458617E+03 -0.30399414909E+03  0.36093366398E+03  0.00000000000E+00 0. -1.
         -3    1    6    6    0  503 -0.11583285195E+03 -0.23489690036E+03 -0.41809671012E+03  0.49335449973E+03  0.00000000000E+00 0.  1.
<mgrwt>
<rscale>  0 0.18463780E+04</rscale>
<asrwt>0</asrwt>
<pdfrwt beam="1">  1        2 0.43839699E+00 0.18463780E+04</pdfrwt>
<pdfrwt beam="2">  1       -1 0.46013682E-01 0.18463780E+04</pdfrwt>
<totfact> 0.10878565E+01</totfact>
</mgrwt>
</event>
<event>
12    6  0.1450532E-007  0.1402249E+04  0.7818608E-02  0.8952192E-01
          2   -1    0    0  501    0  0.00000000000E+00  0.00000000000E+00  0.90002240628E+03  0.90002240628E+03  0.00000000000E+00 0. -1.
         -1   -1    0    0    0  501 -0.00000000000E+00 -0.00000000000E+00 -0.54618118351E+03  0.54618118351E+03  0.00000000000E+00 0.  1.
         24    2    1    2    0    0  0.37083156346E+02 -0.36374760494E+03 -0.83323185640E+02  0.38344607080E+03  0.80004095894E+02 0.  0.
        254    2    1    2    0    0 -0.37083156346E+02  0.36374760494E+03  0.43716440841E+03  0.10627575190E+04  0.89702471739E+03 0.  0.
         23    2    4    4    0    0 -0.40509568712E+03  0.20332885002E+03  0.17757897510E+00  0.46300322539E+03  0.94481840639E+02 0.  0.
         23    2    4    4    0    0  0.36801253078E+03  0.16041875493E+03  0.43698682943E+03  0.59975429360E+03  0.87065055317E+02 0.  0.
          2    1    3    3  502    0  0.29524338280E+02 -0.80505215464E+02 -0.46999337857E+02  0.97784017236E+02  0.00000000000E+00 0. -1.
         -1    1    3    3    0  502  0.75588180664E+01 -0.28324238948E+03 -0.36323847783E+02  0.28566205356E+03  0.00000000000E+00 0.  1.
         11    1    5    5    0    0 -0.93992055990E+02  0.89967073200E+02  0.18317075047E+02  0.13139290730E+03  0.00000000000E+00 0. -1.
        -11    1    5    5    0    0 -0.31110363113E+03  0.11336177682E+03 -0.18139496072E+02  0.33161031809E+03  0.00000000000E+00 0.  1.
          1    1    6    6  503    0  0.20413697270E+03  0.41525594181E+02  0.22365885022E+03  0.30564613506E+03  0.00000000000E+00 0. -1.
         -1    1    6    6    0  503  0.16387555808E+03  0.11889316075E+03  0.21332797921E+03  0.29410815854E+03  0.00000000000E+00 0.  1.
<mgrwt>
<rscale>  0 0.14022486E+04</rscale>
<asrwt>0</asrwt>
<pdfrwt beam="1">  1        2 0.13846499E+00 0.14022486E+04</pdfrwt>
<pdfrwt beam="2">  1       -1 0.84027874E-01 0.14022486E+04</pdfrwt>
<totfact> 0.45724918E+01</totfact>
</mgrwt>
</event>
<event>
12    6  0.1450532E-007  0.2418211E+04  0.7818608E-02  0.8432717E-01
          2   -1    0    0  501    0  0.00000000000E+00  0.00000000000E+00  0.11547432135E+04  0.11547432135E+04  0.00000000000E+00 0. -1.
         -1   -1    0    0    0  501 -0.00000000000E+00 -0.00000000000E+00 -0.12660266820E+04  0.12660266820E+04  0.00000000000E+00 0.  1.
         24    2    1    2    0    0 -0.80974037539E+03  0.51134077733E+03 -0.46334800293E+03  0.10668978588E+04  0.80192289495E+02 0.  0.
        254    2    1    2    0    0  0.80974037539E+03 -0.51134077733E+03  0.35206453447E+03  0.13538720366E+04  0.88987144522E+03 0.  0.
         23    2    4    4    0    0  0.71302373888E+03  0.31786852106E+02  0.33496342892E+03  0.79360435044E+03  0.90521324315E+02 0.  0.
         23    2    4    4    0    0  0.96716636507E+02 -0.54312762944E+03  0.17101105558E+02  0.56026768618E+03  0.96258520272E+02 0.  0.
          4    1    3    3  502    0 -0.26913366545E+03  0.18910872015E+03 -0.12119168925E+03  0.35054595057E+03  0.00000000000E+00 0. -1.
         -3    1    3    3    0  502 -0.54060670994E+03  0.32223205719E+03 -0.34215631367E+03  0.71635190828E+03  0.00000000000E+00 0.  1.
         11    1    5    5    0    0  0.38520720684E+03 -0.16931591798E+02  0.14739896443E+03  0.41279259406E+03  0.00000000000E+00 0. -1.
        -11    1    5    5    0    0  0.32781653205E+03  0.48718443903E+02  0.18756446448E+03  0.38081175638E+03  0.00000000000E+00 0.  1.
          1    1    6    6  503    0 -0.10695680479E+02 -0.16671661846E+03  0.23973394793E+02  0.16877070869E+03  0.00000000000E+00 0. -1.
         -1    1    6    6    0  503  0.10741231699E+03 -0.37641101098E+03 -0.68722892354E+01  0.39149697749E+03  0.00000000000E+00 0.  1.
<mgrwt>
<rscale>  0 0.24182107E+04</rscale>
<asrwt>0</asrwt>
<pdfrwt beam="1">  1        2 0.17765280E+00 0.24182107E+04</pdfrwt>
<pdfrwt beam="2">  1       -1 0.19477334E+00 0.24182107E+04</pdfrwt>
<totfact> 0.33772538E+00</totfact>
</mgrwt>
</event>
<event>
12    6  0.1450532E-007  0.4175506E+04  0.7818608E-02  0.7970048E-01
         -1   -1    0    0    0  501 -0.00000000000E+00  0.00000000000E+00  0.13507521956E+04  0.13507521956E+04  0.00000000000E+00 0.  1.
          2   -1    0    0  501    0  0.00000000000E+00 -0.00000000000E+00 -0.32268786340E+04  0.32268786340E+04  0.00000000000E+00 0. -1.
         24    2    1    2    0    0 -0.13642431943E+04 -0.14423728232E+04 -0.72571949897E+03  0.21153878823E+04  0.81229593937E+02 0.  0.
        254    2    1    2    0    0  0.13642431943E+04  0.14423728232E+04 -0.11504069394E+04  0.24622429473E+04  0.89308753832E+03 0.  0.
         23    2    4    4    0    0  0.64490295117E+03  0.11693320818E+04 -0.10057469561E+04  0.16742751413E+04  0.91831232022E+02 0.  0.
         23    2    4    4    0    0  0.71934024315E+03  0.27304074137E+03 -0.14465998336E+03  0.78796780603E+03  0.89247524802E+02 0.  0.
          2    1    3    3  502    0 -0.32777184146E+03 -0.32033309419E+03 -0.13673679508E+03  0.47827253989E+03  0.00000000000E+00 0. -1.
         -1    1    3    3    0  502 -0.10364713529E+04 -0.11220397290E+04 -0.58898270389E+03  0.16371153424E+04  0.00000000000E+00 0.  1.
         11    1    5    5    0    0  0.41029670163E+03  0.68609358429E+03 -0.64541462859E+03  0.10274375079E+04  0.00000000000E+00 0.  1.
        -11    1    5    5    0    0  0.23460624955E+03  0.48323849752E+03 -0.36033232749E+03  0.64683763345E+03  0.00000000000E+00 0. -1.
          2    1    6    6  503    0  0.11366073471E+03  0.72393172631E+02 -0.52143045347E+01  0.13485815893E+03  0.00000000000E+00 0. -1.
         -2    1    6    6    0  503  0.60567950844E+03  0.20064756874E+03 -0.13944567882E+03  0.65310964710E+03  0.00000000000E+00 0.  1.
<mgrwt>
<rscale>  0 0.41755064E+04</rscale>
<asrwt>0</asrwt>
<pdfrwt beam="1">  1        2 0.49644287E+00 0.41755064E+04</pdfrwt>
<pdfrwt beam="2">  1       -1 0.20780803E+00 0.41755064E+04</pdfrwt>
<totfact> 0.14615297E-01</totfact>
</mgrwt>
</event>
<event>
12    6  0.1450532E-007  0.1267404E+04  0.7818608E-02  0.9055821E-01
          2   -1    0    0  501    0  0.00000000000E+00  0.00000000000E+00  0.37528294216E+03  0.37528294216E+03  0.00000000000E+00 0. -1.
         -1   -1    0    0    0  501 -0.00000000000E+00 -0.00000000000E+00 -0.10700680550E+04  0.10700680550E+04  0.00000000000E+00 0.  1.
         24    2    1    2    0    0  0.14576152650E+03 -0.11622711795E+03  0.90478184606E+02  0.22236745543E+03  0.80658649815E+02 0.  0.
        254    2    1    2    0    0 -0.14576152650E+03  0.11622711795E+03 -0.78526329741E+03  0.12229835417E+04  0.91885533761E+03 0.  0.
         23    2    4    4    0    0  0.27904560334E+03  0.33323696594E+03 -0.45259302208E+03  0.63419048270E+03  0.91890154553E+02 0.  0.
         23    2    4    4    0    0 -0.42480712984E+03 -0.21700984799E+03 -0.33267027534E+03  0.58879305900E+03  0.91942278347E+02 0.  0.
          4    1    3    3  502    0  0.10330142447E+03 -0.10695165639E+03  0.36575917259E+02  0.15312621861E+03  0.00000000000E+00 0. -1.
         -3    1    3    3    0  502  0.42460102033E+02 -0.92754615636E+01  0.53902267347E+02  0.69241236825E+02  0.00000000000E+00 0.  1.
         11    1    5    5    0    0  0.24502200850E+03  0.31183328149E+03 -0.43935947284E+03  0.59187205245E+03  0.00000000000E+00 0. -1.
        -11    1    5    5    0    0  0.34023594837E+02  0.21403684445E+02 -0.13233549238E+02  0.42318430250E+02  0.00000000000E+00 0.  1.
          4    1    6    6  503    0 -0.70636398465E+01  0.38587746555E+00 -0.25693566062E+02  0.26649638764E+02  0.00000000000E+00 0.  1.
         -4    1    6    6    0  503 -0.41774348999E+03 -0.21739572545E+03 -0.30697670927E+03  0.56214342024E+03  0.00000000000E+00 0. -1.
<mgrwt>
<rscale>  0 0.12674041E+04</rscale>
<asrwt>0</asrwt>
<pdfrwt beam="1">  1        2 0.57735838E-01 0.12674041E+04</pdfrwt>
<pdfrwt beam="2">  1       -1 0.16462585E+00 0.12674041E+04</pdfrwt>
<totfact> 0.25915194E+01</totfact>
</mgrwt>
</event>
<event>
12    6  0.1450532E-007  0.2448342E+04  0.7818608E-02  0.8421624E-01
          2   -1    0    0  501    0  0.00000000000E+00  0.00000000000E+00  0.21990855229E+04  0.21990855229E+04  0.00000000000E+00 0. -1.
         -3   -1    0    0    0  501 -0.00000000000E+00 -0.00000000000E+00 -0.68146269871E+03  0.68146269871E+03  0.00000000000E+00 0.  1.
         24    2    1    2    0    0  0.59903360222E+03 -0.60220385321E+03 -0.92580077805E+02  0.85684903736E+03  0.64253129254E+02 0.  0.
        254    2    1    2    0    0 -0.59903360222E+03  0.60220385321E+03  0.16102029020E+04  0.20236991842E+04  0.88380669002E+03 0.  0.
         23    2    4    4    0    0 -0.79143896428E+03  0.60959449837E+03  0.12228020890E+04  0.15815576089E+04  0.89991303401E+02 0.  0.
         23    2    4    4    0    0  0.19240536207E+03 -0.73906451578E+01  0.38740081298E+03  0.44214157536E+03  0.91298071047E+02 0.  0.
          2    1    3    3  502    0  0.50552846562E+03 -0.52885674170E+03 -0.96503383836E+02  0.73794402625E+03  0.00000000000E+00 0. -1.
         -1    1    3    3    0  502  0.93505136591E+02 -0.73347111517E+02  0.39233060306E+01  0.11890501111E+03  0.00000000000E+00 0.  1.
         11    1    5    5    0    0 -0.97805184156E+02  0.10484147752E+03  0.14337257009E+03  0.20276410755E+03  0.00000000000E+00 0.  1.
        -11    1    5    5    0    0 -0.69363378013E+03  0.50475302085E+03  0.10794295189E+04  0.13787935013E+04  0.00000000000E+00 0. -1.
          1    1    6    6  503    0  0.16896943658E+03 -0.33809449194E+02  0.35313122606E+03  0.39293181619E+03  0.00000000000E+00 0. -1.
         -1    1    6    6    0  503  0.23435925493E+02  0.26418804037E+02  0.34269586913E+02  0.49209759171E+02  0.00000000000E+00 0.  1.
<mgrwt>
<rscale>  0 0.24483421E+04</rscale>
<asrwt>0</asrwt>
<pdfrwt beam="1">  1        2 0.33832085E+00 0.24483421E+04</pdfrwt>
<pdfrwt beam="2">  1       -3 0.10484042E+00 0.24483421E+04</pdfrwt>
<totfact> 0.23092143E+00</totfact>
</mgrwt>
</event>
<event>
12    6  0.1450532E-007  0.1213577E+04  0.7818608E-02  0.9101055E-01
          2   -1    0    0  501    0  0.00000000000E+00  0.00000000000E+00  0.74560158015E+03  0.74560158015E+03  0.00000000000E+00 0. -1.
         -1   -1    0    0    0  501 -0.00000000000E+00 -0.00000000000E+00 -0.49381882838E+03  0.49381882838E+03  0.00000000000E+00 0.  1.
         24    2    1    2    0    0  0.24238268942E+03 -0.25137572144E+02 -0.30639027356E+02  0.25607774168E+03  0.72496855942E+02 0.  0.
        254    2    1    2    0    0 -0.24238268942E+03  0.25137572144E+02  0.28242177912E+03  0.98334266685E+03  0.90984585148E+03 0.  0.
         23    2    4    4    0    0 -0.17954696017E+03 -0.35679370406E+03 -0.11198199888E+03  0.42427582423E+03  0.89056997420E+02 0.  0.
         23    2    4    4    0    0 -0.62835729256E+02  0.38193127620E+03  0.39440377800E+03  0.55906684262E+03  0.84744119623E+02 0.  0.
          4    1    3    3  502    0  0.14347764133E+02  0.16700014758E+02 -0.66470032756E+01  0.22998510411E+02  0.00000000000E+00 0. -1.
         -3    1    3    3    0  502  0.22803492529E+03 -0.41837586903E+02 -0.23992024080E+02  0.23307923127E+03  0.00000000000E+00 0.  1.
         11    1    5    5    0    0 -0.36110398249E+01 -0.73398928404E+02 -0.37470711084E+02  0.82489371973E+02  0.00000000000E+00 0. -1.
        -11    1    5    5    0    0 -0.17593592034E+03 -0.28339477565E+03 -0.74511287795E+02  0.34178645225E+03  0.00000000000E+00 0.  1.
          3    1    6    6  503    0 -0.59171549556E+01  0.12953597094E+02 -0.21710526605E+01  0.14405619393E+02  0.00000000000E+00 0. -1.
         -3    1    6    6    0  503 -0.56918574300E+02  0.36897767911E+03  0.39657483066E+03  0.54466122323E+03  0.00000000000E+00 0.  1.
<mgrwt>
<rscale>  0 0.12135767E+04</rscale>
<asrwt>0</asrwt>
<pdfrwt beam="1">  1        2 0.11470794E+00 0.12135767E+04</pdfrwt>
<pdfrwt beam="2">  1       -1 0.75972127E-01 0.12135767E+04</pdfrwt>
<totfact> 0.74062349E+01</totfact>
</mgrwt>
</event>
<event>
12    6  0.1450532E-007  0.2339734E+04  0.7818608E-02  0.8462417E-01
         -1   -1    0    0    0  501 -0.00000000000E+00  0.00000000000E+00  0.89367102225E+03  0.89367102225E+03  0.00000000000E+00 0.  1.
          2   -1    0    0  501    0  0.00000000000E+00 -0.00000000000E+00 -0.15314236644E+04  0.15314236644E+04  0.00000000000E+00 0. -1.
         24    2    1    2    0    0  0.73138017203E+03 -0.49833222183E+03  0.20346958457E+03  0.91138456721E+03  0.77265763128E+02 0.  0.
        254    2    1    2    0    0 -0.73138017203E+03  0.49833222183E+03 -0.84122222671E+03  0.15137101194E+04  0.89465721457E+03 0.  0.
         23    2    4    4    0    0 -0.58939751065E+03  0.70722628275E+03 -0.83355698593E+03  0.12454251477E+04  0.93317249754E+02 0.  0.
         23    2    4    4    0    0 -0.14198266138E+03 -0.20889406092E+03 -0.76652407856E+01  0.26828497175E+03  0.90123611412E+02 0.  0.
          4    1    3    3  502    0  0.22672720924E+03 -0.18923839947E+03  0.44881386753E+02  0.29871514545E+03  0.00000000000E+00 0. -1.
         -3    1    3    3    0  502  0.50465296279E+03 -0.30909382236E+03  0.15858819782E+03  0.61266942176E+03  0.00000000000E+00 0.  1.
         11    1    5    5    0    0 -0.62029253949E+02  0.44535973778E+02 -0.47475340877E+02  0.89916568536E+02  0.00000000000E+00 0.  1.
        -11    1    5    5    0    0 -0.52736825670E+03  0.66269030897E+03 -0.78608164505E+03  0.11555085791E+04  0.00000000000E+00 0. -1.
          2    1    6    6  503    0 -0.12479854773E+03 -0.13045851535E+03 -0.34138271665E+02  0.18373764812E+03  0.00000000000E+00 0. -1.
         -2    1    6    6    0  503 -0.17184113648E+02 -0.78435545567E+02  0.26473030880E+02  0.84547323638E+02  0.00000000000E+00 0.  1.
<mgrwt>
<rscale>  0 0.23397341E+04</rscale>
<asrwt>0</asrwt>
<pdfrwt beam="1">  1        2 0.23560364E+00 0.23397341E+04</pdfrwt>
<pdfrwt beam="2">  1       -1 0.13748785E+00 0.23397341E+04</pdfrwt>
<totfact> 0.55122082E+00</totfact>
</mgrwt>
</event>
<event>
12    6  0.1450532E-007  0.3020392E+04  0.7818608E-02  0.8237932E-01
          4   -1    0    0  501    0  0.00000000000E+00  0.00000000000E+00  0.55267240888E+03  0.55267240888E+03  0.00000000000E+00 0. -1.
         -3   -1    0    0    0  501 -0.00000000000E+00 -0.00000000000E+00 -0.41266622069E+04  0.41266622069E+04  0.00000000000E+00 0.  1.
         24    2    1    2    0    0  0.13337642351E+04 -0.13474337518E+03 -0.11844413365E+04  0.17905650582E+04  0.78352637900E+02 0.  0.
        254    2    1    2    0    0 -0.13337642351E+04  0.13474337518E+03 -0.23895484615E+04  0.28887695576E+04  0.91540422483E+03 0.  0.
         23    2    4    4    0    0 -0.11686681957E+04  0.20609350140E+03 -0.12344874202E+04  0.17153903131E+04  0.10170964940E+03 0.  0.
         23    2    4    4    0    0 -0.16509603945E+03 -0.71350126221E+02 -0.11550610413E+04  0.11733792445E+04  0.10151502064E+03 0.  0.
          4    1    3    3  502    0  0.64786635323E+03 -0.74147426730E+02 -0.62708950793E+03  0.90469326486E+03  0.00000000000E+00 0. -1.
         -1    1    3    3    0  502  0.68589788192E+03 -0.60595948451E+02 -0.55735182860E+03  0.88587179334E+03  0.00000000000E+00 0.  1.
         11    1    5    5    0    0 -0.10874579086E+04  0.19767013999E+03 -0.11094073319E+04  0.15660213329E+04  0.00000000000E+00 0. -1.
        -11    1    5    5    0    0 -0.81210287136E+02  0.84233614099E+01 -0.12508008829E+03  0.14936898018E+03  0.00000000000E+00 0.  1.
          1    1    6    6  503    0 -0.15017823705E+03 -0.34566162580E+02 -0.10465662604E+04  0.10578512465E+04  0.00000000000E+00 0. -1.
         -1    1    6    6    0  503 -0.14917802400E+02 -0.36783963642E+02 -0.10849478095E+03  0.11552799792E+03  0.00000000000E+00 0.  1.
<mgrwt>
<rscale>  0 0.30203923E+04</rscale>
<asrwt>0</asrwt>
<pdfrwt beam="1">  1        4 0.85026525E-01 0.30203923E+04</pdfrwt>
<pdfrwt beam="2">  1       -3 0.63487111E+00 0.30203923E+04</pdfrwt>
<totfact> 0.13744259E-03</totfact>
</mgrwt>
</event>
<event>
12    6  0.1450532E-007  0.1633735E+04  0.7818608E-02  0.8800087E-01
         -1   -1    0    0    0  501 -0.00000000000E+00  0.00000000000E+00  0.79491930161E+03  0.79491930161E+03  0.00000000000E+00 0.  1.
          2   -1    0    0  501    0  0.00000000000E+00 -0.00000000000E+00 -0.83942131072E+03  0.83942131072E+03  0.00000000000E+00 0. -1.
         24    2    1    2    0    0  0.26200825382E+03 -0.10429004977E+02 -0.54774614424E+03  0.61258549849E+03  0.80486428794E+02 0.  0.
        254    2    1    2    0    0 -0.26200825382E+03  0.10429004977E+02  0.50324413513E+03  0.10217551138E+04  0.84968921607E+03 0.  0.
         23    2    4    4    0    0  0.51427736236E+02  0.36684192076E+03  0.10553127561E+03  0.39586742322E+03  0.91413126825E+02 0.  0.
         23    2    4    4    0    0 -0.31343599006E+03 -0.35641291578E+03  0.39771285952E+03  0.62588769062E+03  0.91036235915E+02 0.  0.
          2    1    3    3  502    0  0.24381158831E+03 -0.17803426736E+02 -0.53740593433E+03  0.59039494480E+03  0.00000000000E+00 0. -1.
         -1    1    3    3    0  502  0.18196665512E+02  0.73744217597E+01 -0.10340209909E+02  0.22190553689E+02  0.00000000000E+00 0.  1.
         11    1    5    5    0    0 -0.23478974053E+02  0.60170092825E+02  0.60268063890E+01  0.64869289255E+02  0.00000000000E+00 0.  1.
        -11    1    5    5    0    0  0.74906710289E+02  0.30667182793E+03  0.99504469222E+02  0.33099813396E+03  0.00000000000E+00 0. -1.
          2    1    6    6  503    0 -0.66367793308E+02 -0.12431472613E+03  0.15158751699E+03  0.20697248713E+03  0.00000000000E+00 0. -1.
         -2    1    6    6    0  503 -0.24706819675E+03 -0.23209818965E+03  0.24612534253E+03  0.41891520350E+03  0.00000000000E+00 0.  1.
<mgrwt>
<rscale>  0 0.16337346E+04</rscale>
<asrwt>0</asrwt>
<pdfrwt beam="1">  1        2 0.12914174E+00 0.16337346E+04</pdfrwt>
<pdfrwt beam="2">  1       -1 0.12229528E+00 0.16337346E+04</pdfrwt>
<totfact> 0.20831686E+01</totfact>
</mgrwt>
</event>
<event>
12    6  0.1450532E-007  0.1360261E+04  0.7818608E-02  0.8983097E-01
          2   -1    0    0  501    0  0.00000000000E+00  0.00000000000E+00  0.25395274308E+04  0.25395274308E+04  0.00000000000E+00 0. -1.
         -1   -1    0    0    0  501 -0.00000000000E+00 -0.00000000000E+00 -0.18215108547E+03  0.18215108547E+03  0.00000000000E+00 0.  1.
         24    2    1    2    0    0 -0.21238712468E+03  0.16905544056E+01  0.56346879290E+02  0.23351961961E+03  0.79027167666E+02 0.  0.
        254    2    1    2    0    0  0.21238712468E+03 -0.16905544056E+01  0.23010294661E+04  0.24881588967E+04  0.92254373490E+03 0.  0.
         23    2    4    4    0    0  0.46717924625E+03  0.27492306811E+03  0.15157706184E+04  0.16125688454E+04  0.94755327721E+02 0.  0.
         23    2    4    4    0    0 -0.25479212157E+03 -0.27661362252E+03  0.78525884769E+03  0.87559005129E+03  0.92694976523E+02 0.  0.
          2    1    3    3  502    0 -0.95757102082E+02 -0.19743087153E+02  0.60299627281E+02  0.11487061043E+03  0.00000000000E+00 0. -1.
         -1    1    3    3    0  502 -0.11663002260E+03  0.21433641559E+02 -0.39527479907E+01  0.11864900918E+03  0.00000000000E+00 0.  1.
         11    1    5    5    0    0  0.44391818279E+03  0.26054023267E+03  0.14835449943E+04  0.15703026192E+04  0.00000000000E+00 0. -1.
        -11    1    5    5    0    0  0.23261063466E+02  0.14382835437E+02  0.32225624129E+02  0.42266226225E+02  0.00000000000E+00 0.  1.
          1    1    6    6  503    0 -0.24159138823E+03 -0.23788667283E+03  0.63485423549E+03  0.71971964562E+03  0.00000000000E+00 0. -1.
         -1    1    6    6    0  503 -0.13200733341E+02 -0.38726949688E+02  0.15040461220E+03  0.15587040567E+03  0.00000000000E+00 0.  1.
<mgrwt>
<rscale>  0 0.13602613E+04</rscale>
<asrwt>0</asrwt>
<pdfrwt beam="1">  1        2 0.39069650E+00 0.13602613E+04</pdfrwt>
<pdfrwt beam="2">  1       -1 0.28023246E-01 0.13602613E+04</pdfrwt>
<totfact> 0.42385818E+01</totfact>
</mgrwt>
</event>
<event>
12    6  0.1450532E-007  0.1420901E+04  0.7818608E-02  0.8938827E-01
          2   -1    0    0  501    0  0.00000000000E+00  0.00000000000E+00  0.74925975971E+03  0.74925975971E+03  0.00000000000E+00 0. -1.
         -1   -1    0    0    0  501 -0.00000000000E+00 -0.00000000000E+00 -0.67365096300E+03  0.67365096300E+03  0.00000000000E+00 0.  1.
         24    2    1    2    0    0  0.37849054974E+02  0.22771487916E+03  0.37408403857E+03  0.44680797252E+03  0.80074210823E+02 0.  0.
        254    2    1    2    0    0 -0.37849054974E+02 -0.22771487916E+03 -0.29847524186E+03  0.97610275020E+03  0.90022357878E+03 0.  0.
         23    2    4    4    0    0  0.40157492045E+03 -0.15611732247E+03 -0.15835691075E+02  0.44060565066E+03  0.90815941169E+02 0.  0.
         23    2    4    4    0    0 -0.43942397542E+03 -0.71597556682E+02 -0.28263955079E+03  0.53549709954E+03  0.93018211410E+02 0.  0.
          2    1    3    3  502    0  0.49594912874E+02  0.70416403499E+02  0.14554068771E+03  0.16911598696E+03  0.00000000000E+00 0. -1.
         -1    1    3    3    0  502 -0.11745857901E+02  0.15729847566E+03  0.22854335086E+03  0.27769198556E+03  0.00000000000E+00 0.  1.
         11    1    5    5    0    0  0.41459228223E+02 -0.46097538675E+02 -0.16113450316E+02  0.64058519792E+02  0.00000000000E+00 0. -1.
        -11    1    5    5    0    0  0.36011569222E+03 -0.11001978380E+03  0.27775924096E+00  0.37654713087E+03  0.00000000000E+00 0.  1.
          2    1    6    6  503    0 -0.55777517772E+02 -0.25742494272E+02 -0.74711837152E+02  0.96724692352E+02  0.00000000000E+00 0.  1.
         -2    1    6    6    0  503 -0.38364645765E+03 -0.45855062409E+02 -0.20792771364E+03  0.43877240719E+03  0.00000000000E+00 0. -1.
<mgrwt>
<rscale>  0 0.14209005E+04</rscale>
<asrwt>0</asrwt>
<pdfrwt beam="1">  1        2 0.11527073E+00 0.14209005E+04</pdfrwt>
<pdfrwt beam="2">  1       -1 0.10363861E+00 0.14209005E+04</pdfrwt>
<totfact> 0.36586531E+01</totfact>
</mgrwt>
</event>
<event>
12    6  0.1450532E-007  0.1215635E+04  0.7818608E-02  0.9099280E-01
         -1   -1    0    0    0  501 -0.00000000000E+00  0.00000000000E+00  0.12889421296E+03  0.12889421296E+03  0.00000000000E+00 0.  1.
          2   -1    0    0  501    0  0.00000000000E+00 -0.00000000000E+00 -0.28662447171E+04  0.28662447171E+04  0.00000000000E+00 0. -1.
         24    2    1    2    0    0  0.14997287317E+03  0.18509996209E+03 -0.88643620002E+03  0.92149097018E+03  0.81379436984E+02 0.  0.
        254    2    1    2    0    0 -0.14997287317E+03 -0.18509996209E+03 -0.18509143041E+04  0.20736479598E+04  0.90408973096E+03 0.  0.
         23    2    4    4    0    0  0.58740717933E+02  0.13832096320E+03 -0.61565905317E+00  0.18096753815E+03  0.10082514579E+03 0.  0.
         23    2    4    4    0    0 -0.20871359110E+03 -0.32342092529E+03 -0.18502986450E+04  0.18926804217E+04  0.10233105496E+03 0.  0.
          2    1    3    3  502    0  0.99754931228E+02  0.74282185176E+02 -0.35033020274E+03  0.37175279459E+03  0.00000000000E+00 0. -1.
         -1    1    3    3    0  502  0.50217941942E+02  0.11081777691E+03 -0.53610599728E+03  0.54973817559E+03  0.00000000000E+00 0.  1.
         11    1    5    5    0    0  0.28477590180E+02  0.51747643807E+01  0.29301229988E+02  0.41186325493E+02  0.00000000000E+00 0. -1.
        -11    1    5    5    0    0  0.30263127753E+02  0.13314619882E+03 -0.29916889041E+02  0.13978121266E+03  0.00000000000E+00 0.  1.
          1    1    6    6  503    0 -0.30996362686E+01 -0.93111081639E+01 -0.19906227966E+03  0.19930402822E+03  0.00000000000E+00 0. -1.
         -1    1    6    6    0  503 -0.20561395483E+03 -0.31410981713E+03 -0.16512363654E+04  0.16933763935E+04  0.00000000000E+00 0.  1.
<mgrwt>
<rscale>  0 0.12156354E+04</rscale>
<asrwt>0</asrwt>
<pdfrwt beam="1">  1        2 0.44096076E+00 0.12156354E+04</pdfrwt>
<pdfrwt beam="2">  1       -1 0.19829878E-01 0.12156354E+04</pdfrwt>
<totfact> 0.49664095E+01</totfact>
</mgrwt>
</event>
<event>
12    6  0.1450532E-007  0.2093390E+04  0.7818608E-02  0.8564161E-01
          2   -1    0    0  501    0  0.00000000000E+00  0.00000000000E+00  0.15003058348E+04  0.15003058348E+04  0.00000000000E+00 0. -1.
         -1   -1    0    0    0  501 -0.00000000000E+00 -0.00000000000E+00 -0.73023146379E+03  0.73023146379E+03  0.00000000000E+00 0.  1.
         24    2    1    2    0    0  0.62039074010E+03 -0.30656587528E+03  0.84714810325E+03  0.10966897953E+04  0.78748282802E+02 0.  0.
        254    2    1    2    0    0 -0.62039074010E+03  0.30656587528E+03 -0.77073732229E+02  0.11338475033E+04  0.89487568644E+03 0.  0.
         23    2    4    4    0    0 -0.45079152846E+03  0.18814653188E+02  0.35405898189E+03  0.58102048887E+03  0.93059403163E+02 0.  0.
         23    2    4    4    0    0 -0.16959921164E+03  0.28775122209E+03 -0.43113271412E+03  0.55282701441E+03  0.90430261889E+02 0.  0.
          4    1    3    3  502    0  0.37427450751E+03 -0.18915815605E+03  0.45189284268E+03  0.61649765306E+03  0.00000000000E+00 0. -1.
         -3    1    3    3    0  502  0.24611623260E+03 -0.11740771923E+03  0.39525526057E+03  0.48019214226E+03  0.00000000000E+00 0.  1.
         11    1    5    5    0    0 -0.11325372598E+03  0.44610386092E+02  0.10494657749E+03  0.16071800497E+03  0.00000000000E+00 0. -1.
        -11    1    5    5    0    0 -0.33753780248E+03 -0.25795732904E+02  0.24911240441E+03  0.42030248390E+03  0.00000000000E+00 0.  1.
          4    1    6    6  503    0 -0.55896378639E+02  0.28106912309E+02 -0.80454469780E+02  0.10191822885E+03  0.00000000000E+00 0. -1.
         -4    1    6    6    0  503 -0.11370283300E+03  0.25964430978E+03 -0.35067824434E+03  0.45090878556E+03  0.00000000000E+00 0.  1.
<mgrwt>
<rscale>  0 0.20933901E+04</rscale>
<asrwt>0</asrwt>
<pdfrwt beam="1">  1        2 0.23081628E+00 0.20933901E+04</pdfrwt>
<pdfrwt beam="2">  1       -1 0.11234330E+00 0.20933901E+04</pdfrwt>
<totfact> 0.96760531E+00</totfact>
</mgrwt>
</event>
<event>
12    6  0.1450532E-007  0.1235704E+04  0.7818608E-02  0.9082166E-01
          2   -1    0    0  501    0  0.00000000000E+00  0.00000000000E+00  0.51418185173E+03  0.51418185173E+03  0.00000000000E+00 0. -1.
         -1   -1    0    0    0  501 -0.00000000000E+00 -0.00000000000E+00 -0.74242486934E+03  0.74242486934E+03  0.00000000000E+00 0.  1.
         24    2    1    2    0    0 -0.22780421213E+03 -0.15026332874E+03  0.11744532716E+02  0.28462529550E+03  0.79998735982E+02 0.  0.
        254    2    1    2    0    0  0.22780421213E+03  0.15026332874E+03 -0.23998755033E+03  0.97198142558E+03  0.90148768174E+03 0.  0.
         23    2    4    4    0    0 -0.20438138682E+03 -0.14081943328E+03  0.15992133273E+03  0.30918489944E+03  0.91752958068E+02 0.  0.
         23    2    4    4    0    0  0.43218559895E+03  0.29108276202E+03 -0.39990888306E+03  0.66279652613E+03  0.88648485705E+02 0.  0.
          2    1    3    3  502    0 -0.15447266488E+03 -0.68858924908E+02  0.34784503872E+02  0.17266533365E+03  0.00000000000E+00 0. -1.
         -1    1    3    3    0  502 -0.73331547247E+02 -0.81404403837E+02 -0.23039971156E+02  0.11195996185E+03  0.00000000000E+00 0.  1.
         11    1    5    5    0    0 -0.89542116894E+01  0.11780857949E+02  0.13338826066E+01  0.14857515398E+02  0.00000000000E+00 0. -1.
        -11    1    5    5    0    0 -0.19542717513E+03 -0.15260029123E+03  0.15858745013E+03  0.29432738405E+03  0.00000000000E+00 0.  1.
          1    1    6    6  503    0  0.14602850577E+03  0.73154916649E+02 -0.17086491244E+03  0.23637001635E+03  0.00000000000E+00 0. -1.
         -1    1    6    6    0  503  0.28615709318E+03  0.21792784537E+03 -0.22904397062E+03  0.42642650978E+03  0.00000000000E+00 0.  1.
<mgrwt>
<rscale>  0 0.12357045E+04</rscale>
<asrwt>0</asrwt>
<pdfrwt beam="1">  1        2 0.79104901E-01 0.12357045E+04</pdfrwt>
<pdfrwt beam="2">  1       -1 0.11421921E+00 0.12357045E+04</pdfrwt>
<totfact> 0.46831782E+01</totfact>
</mgrwt>
</event>
<event>
12    6  0.1450532E-007  0.1385652E+04  0.7818608E-02  0.8964271E-01
          2   -1    0    0  501    0  0.00000000000E+00  0.00000000000E+00  0.59929732505E+03  0.59929732505E+03  0.00000000000E+00 0. -1.
         -1   -1    0    0    0  501 -0.00000000000E+00 -0.00000000000E+00 -0.80095064717E+03  0.80095064717E+03  0.00000000000E+00 0.  1.
         24    2    1    2    0    0 -0.10925386630E+03  0.25477687536E+03  0.22564265218E+03  0.36620246368E+03  0.79636514237E+02 0.  0.
        254    2    1    2    0    0  0.10925386630E+03 -0.25477687536E+03 -0.42729597430E+03  0.10340455085E+04  0.89990032814E+03 0.  0.
         23    2    4    4    0    0  0.38927664716E+03 -0.25949587000E+03 -0.53819430456E+03  0.71901264707E+03  0.91932924535E+02 0.  0.
         23    2    4    4    0    0 -0.28002278087E+03  0.47189946408E+01  0.11089833026E+03  0.31503286148E+03  0.92261787561E+02 0.  0.
          4    1    3    3  502    0 -0.10302845275E+03  0.25759487318E+03  0.22786577618E+03  0.35901642402E+03  0.00000000000E+00 0. -1.
         -3    1    3    3    0  502 -0.62254135525E+01 -0.28179978209E+01 -0.22231239962E+01  0.71860396548E+01  0.00000000000E+00 0.  1.
         11    1    5    5    0    0  0.99888666462E+02 -0.70775719823E+02 -0.84508366331E+02  0.14875688953E+03  0.00000000000E+00 0.  1.
        -11    1    5    5    0    0  0.28938798070E+03 -0.18872015018E+03 -0.45368593823E+03  0.57025575753E+03  0.00000000000E+00 0. -1.
          2    1    6    6  503    0 -0.18964018224E+03 -0.26177926016E+02  0.10727568497E+03  0.21944647437E+03  0.00000000000E+00 0. -1.
         -2    1    6    6    0  503 -0.90382598631E+02  0.30896920657E+02  0.36226452871E+01  0.95586387107E+02  0.00000000000E+00 0.  1.
<mgrwt>
<rscale>  0 0.13856516E+04</rscale>
<asrwt>0</asrwt>
<pdfrwt beam="1">  1        2 0.92199589E-01 0.13856516E+04</pdfrwt>
<pdfrwt beam="2">  1       -1 0.12322318E+00 0.13856516E+04</pdfrwt>
<totfact> 0.32079589E+01</totfact>
</mgrwt>
</event>
<event>
12    6  0.1450532E-007  0.1286845E+04  0.7818608E-02  0.9040063E-01
         -1   -1    0    0    0  501 -0.00000000000E+00  0.00000000000E+00  0.82537016398E+03  0.82537016398E+03  0.00000000000E+00 0.  1.
          2   -1    0    0  501    0  0.00000000000E+00 -0.00000000000E+00 -0.50158373455E+03  0.50158373455E+03  0.00000000000E+00 0. -1.
         24    2    1    2    0    0 -0.18974971551E+03  0.85955871756E+02  0.33098479706E+03  0.39904948777E+03  0.79348543649E+02 0.  0.
        254    2    1    2    0    0  0.18974971551E+03 -0.85955871756E+02 -0.71983676313E+01  0.92790441076E+03  0.90419102660E+03 0.  0.
         23    2    4    4    0    0 -0.20591829990E+03  0.24992599035E+03 -0.16967470932E+03  0.37635184054E+03  0.89363605609E+02 0.  0.
         23    2    4    4    0    0  0.39566801541E+03 -0.33588186210E+03  0.16247634168E+03  0.55155257022E+03  0.91879662620E+02 0.  0.
          4    1    3    3  502    0 -0.11097541885E+03  0.24556240068E+02  0.11814830025E+03  0.16394381162E+03  0.00000000000E+00 0. -1.
         -3    1    3    3    0  502 -0.78774296659E+02  0.61399631688E+02  0.21283649680E+03  0.23510567615E+03  0.00000000000E+00 0.  1.
         11    1    5    5    0    0 -0.13506302469E+03  0.21463783577E+03 -0.15054922539E+03  0.29491776896E+03  0.00000000000E+00 0. -1.
        -11    1    5    5    0    0 -0.70855275206E+02  0.35288154582E+02 -0.19125483930E+02  0.81434071579E+02  0.00000000000E+00 0.  1.
          4    1    6    6  503    0  0.16555194217E+03 -0.19998943872E+03  0.72250243141E+02  0.26948714031E+03  0.00000000000E+00 0. -1.
         -4    1    6    6    0  503  0.23011607324E+03 -0.13589242338E+03  0.90226098544E+02  0.28206542992E+03  0.00000000000E+00 0.  1.
<mgrwt>
<rscale>  0 0.12868446E+04</rscale>
<asrwt>0</asrwt>
<pdfrwt beam="1">  1        2 0.77166729E-01 0.12868446E+04</pdfrwt>
<pdfrwt beam="2">  1       -1 0.12698002E+00 0.12868446E+04</pdfrwt>
<totfact> 0.37047352E+01</totfact>
</mgrwt>
</event>
<event>
12    6  0.1450532E-007  0.1116785E+04  0.7818608E-02  0.9188984E-01
         -1   -1    0    0    0  501 -0.00000000000E+00  0.00000000000E+00  0.67254759696E+03  0.67254759696E+03  0.00000000000E+00 0.  1.
          2   -1    0    0  501    0  0.00000000000E+00 -0.00000000000E+00 -0.46361389935E+03  0.46361389935E+03  0.00000000000E+00 0. -1.
         24    2    1    2    0    0 -0.19645479161E+02 -0.18014029948E+03 -0.86441812105E+01  0.19796647367E+03  0.79243488569E+02 0.  0.
        254    2    1    2    0    0  0.19645479161E+02  0.18014029948E+03  0.21757787881E+03  0.93819502264E+03  0.89444580317E+03 0.  0.
         23    2    4    4    0    0 -0.64754979512E+02  0.53029506841E+03  0.12143998751E+03  0.55559497969E+03  0.92369063748E+02 0.  0.
         23    2    4    4    0    0  0.84400458674E+02 -0.35015476893E+03  0.96137891307E+02  0.38260004295E+03  0.86072638430E+02 0.  0.
          2    1    3    3  502    0  0.15206851414E+02 -0.30035505949E+02 -0.26490945251E+02  0.42838652264E+02  0.00000000000E+00 0. -1.
         -1    1    3    3    0  502 -0.34852330576E+02 -0.15010479353E+03  0.17846764040E+02  0.15512782141E+03  0.00000000000E+00 0.  1.
         11    1    5    5    0    0 -0.20794082584E+02  0.38704211594E+03  0.54265533141E+02  0.39138055837E+03  0.00000000000E+00 0.  1.
        -11    1    5    5    0    0 -0.43960896928E+02  0.14325295247E+03  0.67174454366E+02  0.16421442132E+03  0.00000000000E+00 0. -1.
          4    1    6    6  503    0  0.78390301558E+00 -0.17536804705E+03  0.61038724369E+02  0.18568869730E+03  0.00000000000E+00 0. -1.
         -4    1    6    6    0  503  0.83616555658E+02 -0.17478672188E+03  0.35099166939E+02  0.19691134565E+03  0.00000000000E+00 0.  1.
<mgrwt>
<rscale>  0 0.11167854E+04</rscale>
<asrwt>0</asrwt>
<pdfrwt beam="1">  1        2 0.71325215E-01 0.11167854E+04</pdfrwt>
<pdfrwt beam="2">  1       -1 0.10346886E+00 0.11167854E+04</pdfrwt>
<totfact> 0.67219477E+01</totfact>
</mgrwt>
</event>
<event>
12    6  0.1450532E-007  0.3322155E+04  0.7818608E-02  0.8157281E-01
         -1   -1    0    0    0  501 -0.00000000000E+00  0.00000000000E+00  0.19551755977E+04  0.19551755977E+04  0.00000000000E+00 0.  1.
          2   -1    0    0  501    0  0.00000000000E+00 -0.00000000000E+00 -0.14112179179E+04  0.14112179179E+04  0.00000000000E+00 0. -1.
         24    2    1    2    0    0  0.12711201290E+04 -0.66090703292E+02 -0.61935062944E+03  0.14176617496E+04  0.77815619080E+02 0.  0.
        254    2    1    2    0    0 -0.12711201290E+04  0.66090703292E+02  0.11633083092E+04  0.19487317660E+04  0.90782978034E+03 0.  0.
         23    2    4    4    0    0 -0.61261636556E+03  0.22116607662E+03  0.74540867973E+02  0.66350991881E+03  0.10235148538E+03 0.  0.
         23    2    4    4    0    0 -0.65850376347E+03 -0.15507537333E+03  0.10887674412E+04  0.12852218472E+04  0.93301004959E+02 0.  0.
          2    1    3    3  502    0  0.72152771108E+03 -0.66939878667E+02 -0.37986797586E+03  0.81815821471E+03  0.00000000000E+00 0. -1.
         -1    1    3    3    0  502  0.54959241796E+03  0.84917537531E+00 -0.23948265358E+03  0.59950353489E+03  0.00000000000E+00 0.  1.
         11    1    5    5    0    0 -0.27798668697E+03  0.11392932541E+03 -0.15292503838E+02  0.30081613985E+03  0.00000000000E+00 0. -1.
        -11    1    5    5    0    0 -0.33462967859E+03  0.10723675121E+03  0.89833371812E+02  0.36269377896E+03  0.00000000000E+00 0.  1.
          3    1    6    6  503    0 -0.65597305786E+03 -0.14860125655E+03  0.10866350127E+04  0.12779509524E+04  0.00000000000E+00 0. -1.
         -3    1    6    6    0  503 -0.25307056123E+01 -0.64741167774E+01  0.21324285443E+01  0.72708947483E+01  0.00000000000E+00 0.  1.
<mgrwt>
<rscale>  0 0.33221552E+04</rscale>
<asrwt>0</asrwt>
<pdfrwt beam="1">  1        2 0.21711045E+00 0.33221552E+04</pdfrwt>
<pdfrwt beam="2">  1       -1 0.30079625E+00 0.33221552E+04</pdfrwt>
<totfact> 0.44168299E-01</totfact>
</mgrwt>
</event>
<event>
12    6  0.1450532E-007  0.1676396E+04  0.7818608E-02  0.8774942E-01
          2   -1    0    0  501    0  0.00000000000E+00  0.00000000000E+00  0.18622790893E+04  0.18622790893E+04  0.00000000000E+00 0. -1.
         -1   -1    0    0    0  501 -0.00000000000E+00 -0.00000000000E+00 -0.37726679245E+03  0.37726679245E+03  0.00000000000E+00 0.  1.
         24    2    1    2    0    0  0.57398760361E+03  0.60161362808E+01  0.32055399431E+03  0.66224472010E+03  0.79468503502E+02 0.  0.
        254    2    1    2    0    0 -0.57398760361E+03 -0.60161362808E+01  0.11644583026E+04  0.15773011617E+04  0.89577779233E+03 0.  0.
         23    2    4    4    0    0 -0.55029978481E+03 -0.22013875500E+03  0.11986642227E+04  0.13403646248E+04  0.92143822966E+02 0.  0.
         23    2    4    4    0    0 -0.23687818795E+02  0.21412261872E+03 -0.34205920112E+02  0.23693653686E+03  0.92516317059E+02 0.  0.
          4    1    3    3  502    0  0.13879673383E+03  0.33483889403E+02  0.65642564002E+02  0.15714531613E+03  0.00000000000E+00 0. -1.
         -3    1    3    3    0  502  0.43519086977E+03 -0.27467753123E+02  0.25491143031E+03  0.50509940397E+03  0.00000000000E+00 0.  1.
         11    1    5    5    0    0 -0.55951136857E+02 -0.49943491440E+02  0.18966603990E+03  0.20395609514E+03  0.00000000000E+00 0.  1.
        -11    1    5    5    0    0 -0.49434864795E+03 -0.17019526356E+03  0.10089981828E+04  0.11364085297E+04  0.00000000000E+00 0. -1.
          3    1    6    6  503    0  0.30449044482E+02  0.10243275294E+03 -0.36123833397E+02  0.11280312285E+03  0.00000000000E+00 0. -1.
         -3    1    6    6    0  503 -0.54136863277E+02  0.11168986578E+03  0.19179132849E+01  0.12413341402E+03  0.00000000000E+00 0.  1.
<mgrwt>
<rscale>  0 0.16763962E+04</rscale>
<asrwt>0</asrwt>
<pdfrwt beam="1">  1        2 0.28650447E+00 0.16763962E+04</pdfrwt>
<pdfrwt beam="2">  1       -1 0.58041046E-01 0.16763962E+04</pdfrwt>
<totfact> 0.26022074E+01</totfact>
</mgrwt>
</event>
<event>
12    6  0.1450532E-007  0.1373070E+04  0.7818608E-02  0.8973546E-01
         -1   -1    0    0    0  501 -0.00000000000E+00  0.00000000000E+00  0.16332496152E+04  0.16332496152E+04  0.00000000000E+00 0.  1.
          2   -1    0    0  501    0  0.00000000000E+00 -0.00000000000E+00 -0.28858437298E+03  0.28858437298E+03  0.00000000000E+00 0. -1.
         24    2    1    2    0    0 -0.34982091623E+02 -0.28414528826E+03  0.80113198018E+03  0.85476635424E+03  0.82769433320E+02 0.  0.
        254    2    1    2    0    0  0.34982091623E+02  0.28414528826E+03  0.54353326201E+03  0.10670676339E+04  0.87249219874E+03 0.  0.
         23    2    4    4    0    0 -0.57385891070E+02  0.94927570462E+01 -0.22059049795E+03  0.24538109775E+03  0.90379546465E+02 0.  0.
         23    2    4    4    0    0  0.92367982694E+02  0.27465253122E+03  0.76412375996E+03  0.82168653616E+03  0.85544059130E+02 0.  0.
          4    1    3    3  502    0  0.31356236423E+00 -0.93806234119E+02  0.16466282767E+03  0.18950871932E+03  0.00000000000E+00 0. -1.
         -3    1    3    3    0  502 -0.35295653988E+02 -0.19033905414E+03  0.63646915251E+03  0.66525763492E+03  0.00000000000E+00 0.  1.
         11    1    5    5    0    0 -0.17038903490E+02  0.26169596741E+02 -0.13990147271E+02  0.34218361247E+02  0.00000000000E+00 0. -1.
        -11    1    5    5    0    0 -0.40346987580E+02 -0.16676839695E+02 -0.20660035068E+03  0.21116273650E+03  0.00000000000E+00 0.  1.
          2    1    6    6  503    0 -0.83289207607E+01  0.65312432241E+01  0.84040358615E+01  0.13515024153E+02  0.00000000000E+00 0. -1.
         -2    1    6    6    0  503  0.10069690345E+03  0.26812128799E+03  0.75571972410E+03  0.80817151201E+03  0.00000000000E+00 0.  1.
<mgrwt>
<rscale>  0 0.13730700E+04</rscale>
<asrwt>0</asrwt>
<pdfrwt beam="1">  1        2 0.44397597E-01 0.13730700E+04</pdfrwt>
<pdfrwt beam="2">  1       -1 0.25126916E+00 0.13730700E+04</pdfrwt>
<totfact> 0.87710124E+00</totfact>
</mgrwt>
</event>
<event>
12    6  0.1450532E-007  0.2049300E+04  0.7818608E-02  0.8583912E-01
          2   -1    0    0  501    0  0.00000000000E+00  0.00000000000E+00  0.17565839856E+04  0.17565839856E+04  0.00000000000E+00 0. -1.
         -1   -1    0    0    0  501 -0.00000000000E+00 -0.00000000000E+00 -0.59769829794E+03  0.59769829794E+03  0.00000000000E+00 0.  1.
         24    2    1    2    0    0 -0.63135405366E+03 -0.24788796555E+03  0.99519316430E+03  0.12070017602E+04  0.79921401549E+02 0.  0.
        254    2    1    2    0    0  0.63135405366E+03  0.24788796555E+03  0.16369252333E+03  0.11472805233E+04  0.91071453944E+03 0.  0.
         23    2    4    4    0    0  0.84376394242E+03  0.23342809709E+03  0.32354879625E+02  0.88128976048E+03  0.95909001903E+02 0.  0.
         23    2    4    4    0    0 -0.21240988876E+03  0.14459868457E+02  0.13133764371E+03  0.26599076279E+03  0.90412723656E+02 0.  0.
          2    1    3    3  502    0 -0.56944628104E+03 -0.19857014922E+03  0.86086740245E+03  0.10510907933E+04  0.00000000000E+00 0. -1.
         -1    1    3    3    0  502 -0.61907772625E+02 -0.49317816328E+02  0.13432576185E+03  0.15591096695E+03  0.00000000000E+00 0.  1.
         11    1    5    5    0    0  0.64204599864E+03  0.13929661294E+03  0.48862784742E+01  0.65700113125E+03  0.00000000000E+00 0. -1.
        -11    1    5    5    0    0  0.20171794378E+03  0.94131484151E+02  0.27468601151E+02  0.22428862922E+03  0.00000000000E+00 0.  1.
          3    1    6    6  503    0 -0.13401139565E+03  0.28843016283E+02  0.12585972459E+03  0.18609579261E+03  0.00000000000E+00 0. -1.
         -3    1    6    6    0  503 -0.78398493110E+02 -0.14383147826E+02  0.54779191176E+01  0.79894970187E+02  0.00000000000E+00 0.  1.
<mgrwt>
<rscale>  0 0.20492996E+04</rscale>
<asrwt>0</asrwt>
<pdfrwt beam="1">  1        2 0.27024369E+00 0.20492996E+04</pdfrwt>
<pdfrwt beam="2">  1       -1 0.91953585E-01 0.20492996E+04</pdfrwt>
<totfact> 0.11070491E+01</totfact>
</mgrwt>
</event>
<event>
12    6  0.1450532E-007  0.1399781E+04  0.7818608E-02  0.8953977E-01
          2   -1    0    0  501    0  0.00000000000E+00  0.00000000000E+00  0.31105258398E+04  0.31105258398E+04  0.00000000000E+00 0. -1.
         -1   -1    0    0    0  501 -0.00000000000E+00 -0.00000000000E+00 -0.15748027914E+03  0.15748027914E+03  0.00000000000E+00 0.  1.
         24    2    1    2    0    0 -0.18936813137E+03  0.13156246096E+03  0.95222129927E+02  0.26153807769E+03  0.78523510748E+02 0.  0.
        254    2    1    2    0    0  0.18936813137E+03 -0.13156246096E+03  0.28578234307E+04  0.30064680412E+04  0.90472446166E+03 0.  0.
         23    2    4    4    0    0 -0.13322071309E+03  0.13002249844E+03  0.22789908653E+04  0.22884172550E+04  0.91654572506E+02 0.  0.
         23    2    4    4    0    0  0.32258884446E+03 -0.26158495940E+03  0.57883256544E+03  0.71805078620E+03  0.89774936328E+02 0.  0.
          4    1    3    3  502    0 -0.94944466556E+02  0.29849413351E+02  0.13387724682E+02  0.10042245954E+03  0.00000000000E+00 0. -1.
         -3    1    3    3    0  502 -0.94423664818E+02  0.10171304761E+03  0.81834405245E+02  0.16111561815E+03  0.00000000000E+00 0.  1.
         11    1    5    5    0    0 -0.14385164798E+02  0.66202460429E+02  0.10123439020E+04  0.10146082370E+04  0.00000000000E+00 0. -1.
        -11    1    5    5    0    0 -0.11883554829E+03  0.63820038014E+02  0.12666469633E+04  0.12738090180E+04  0.00000000000E+00 0.  1.
          4    1    6    6  503    0  0.22470069246E+03 -0.15538031090E+03  0.31252622187E+03  0.41509767714E+03  0.00000000000E+00 0. -1.
         -4    1    6    6    0  503  0.97888151996E+02 -0.10620464850E+03  0.26630634357E+03  0.30295310906E+03  0.00000000000E+00 0.  1.
<mgrwt>
<rscale>  0 0.13997807E+04</rscale>
<asrwt>0</asrwt>
<pdfrwt beam="1">  1        2 0.47854239E+00 0.13997807E+04</pdfrwt>
<pdfrwt beam="2">  1       -1 0.24227737E-01 0.13997807E+04</pdfrwt>
<totfact> 0.24538104E+01</totfact>
</mgrwt>
</event>
<event>
12    6  0.1450532E-007  0.1572008E+04  0.7818608E-02  0.8837932E-01
          2   -1    0    0  501    0  0.00000000000E+00  0.00000000000E+00  0.12945565592E+04  0.12945565592E+04  0.00000000000E+00 0. -1.
         -1   -1    0    0    0  501 -0.00000000000E+00 -0.00000000000E+00 -0.47723054098E+03  0.47723054098E+03  0.00000000000E+00 0.  1.
         24    2    1    2    0    0 -0.45731605144E+03 -0.15367790492E+02  0.55094780530E+03  0.72044056127E+03  0.78211113423E+02 0.  0.
        254    2    1    2    0    0  0.45731605144E+03  0.15367790492E+02  0.26637821296E+03  0.10513465390E+04  0.90829403430E+03 0.  0.
         23    2    4    4    0    0 -0.22180242730E+03  0.53748894204E+02  0.26970133339E+03  0.36496567952E+03  0.91519820855E+02 0.  0.
         23    2    4    4    0    0  0.67911847874E+03 -0.38381103711E+02 -0.33231204318E+01  0.68638085943E+03  0.91829318719E+02 0.  0.
          2    1    3    3  502    0 -0.29330042646E+03  0.16218414887E+02  0.39217921653E+03  0.48999256629E+03  0.00000000000E+00 0. -1.
         -1    1    3    3    0  502 -0.16401562498E+03 -0.31586205379E+02  0.15876858877E+03  0.23044799498E+03  0.00000000000E+00 0.  1.
         11    1    5    5    0    0 -0.23121728023E+02 -0.37457963496E+01 -0.19863515009E+01  0.23507251846E+02  0.00000000000E+00 0. -1.
        -11    1    5    5    0    0 -0.19868069928E+03  0.57494690553E+02  0.27168768489E+03  0.34145842767E+03  0.00000000000E+00 0.  1.
          1    1    6    6  503    0  0.26085813476E+03 -0.19321168141E+02  0.43176775282E+02  0.26511225535E+03  0.00000000000E+00 0. -1.
         -1    1    6    6    0  503  0.41826034398E+03 -0.19059935570E+02 -0.46499895714E+02  0.42126860409E+03  0.00000000000E+00 0.  1.
<mgrwt>
<rscale>  0 0.15720075E+04</rscale>
<asrwt>0</asrwt>
<pdfrwt beam="1">  1        2 0.19916255E+00 0.15720075E+04</pdfrwt>
<pdfrwt beam="2">  1       -1 0.73420084E-01 0.15720075E+04</pdfrwt>
<totfact> 0.34102755E+01</totfact>
</mgrwt>
</event>
<event>
12    6  0.1450532E-007  0.2861104E+04  0.7818608E-02  0.8284545E-01
         -1   -1    0    0    0  501 -0.00000000000E+00  0.00000000000E+00  0.15280767742E+04  0.15280767742E+04  0.00000000000E+00 0.  1.
          2   -1    0    0  501    0  0.00000000000E+00 -0.00000000000E+00 -0.13392518237E+04  0.13392518237E+04  0.00000000000E+00 0. -1.
         24    2    1    2    0    0  0.81164546739E+03 -0.78417473895E+03  0.74012290903E+03  0.13519725602E+04  0.79683732699E+02 0.  0.
        254    2    1    2    0    0 -0.81164546739E+03  0.78417473895E+03 -0.55129795847E+03  0.15153560377E+04  0.84774766056E+03 0.  0.
         23    2    4    4    0    0 -0.77242631016E+03  0.17847560517E+03 -0.29607156811E+03  0.85058110982E+03  0.85638219683E+02 0.  0.
         23    2    4    4    0    0 -0.39219157227E+02  0.60569913379E+03 -0.25522639037E+03  0.66477492787E+03  0.91518366552E+02 0.  0.
          4    1    3    3  502    0  0.16128361592E+02 -0.30787066441E+02  0.13539107212E+02  0.37299798012E+02  0.00000000000E+00 0. -1.
         -3    1    3    3    0  502  0.79551710580E+03 -0.75338767251E+03  0.72658380181E+03  0.13146727622E+04  0.00000000000E+00 0.  1.
         11    1    5    5    0    0 -0.17587169407E+03  0.77693326190E+02 -0.65288774383E+02  0.20305105213E+03  0.00000000000E+00 0.  1.
        -11    1    5    5    0    0 -0.59655461609E+03  0.10078227898E+03 -0.23078279373E+03  0.64753005769E+03  0.00000000000E+00 0. -1.
          2    1    6    6  503    0  0.18989390263E+02  0.35861538320E+02 -0.10730362334E+02  0.41973653034E+02  0.00000000000E+00 0.  1.
         -2    1    6    6    0  503 -0.58208547490E+02  0.56983759547E+03 -0.24449602803E+03  0.62280127483E+03  0.00000000000E+00 0. -1.
<mgrwt>
<rscale>  0 0.28611044E+04</rscale>
<asrwt>0</asrwt>
<pdfrwt beam="1">  1        2 0.20603874E+00 0.28611044E+04</pdfrwt>
<pdfrwt beam="2">  1       -1 0.23508873E+00 0.28611044E+04</pdfrwt>
<totfact> 0.13511510E+00</totfact>
</mgrwt>
</event>
<event>
12    6  0.1450532E-007  0.1539755E+04  0.7818608E-02  0.8858438E-01
          2   -1    0    0  501    0  0.00000000000E+00  0.00000000000E+00  0.19452018230E+04  0.19452018230E+04  0.00000000000E+00 0. -1.
         -1   -1    0    0    0  501 -0.00000000000E+00 -0.00000000000E+00 -0.30470435934E+03  0.30470435934E+03  0.00000000000E+00 0.  1.
         24    2    1    2    0    0  0.44875701050E+03  0.15537217466E+03  0.31641040198E+03  0.57614586085E+03  0.79404932869E+02 0.  0.
        254    2    1    2    0    0 -0.44875701050E+03 -0.15537217466E+03  0.13240870617E+04  0.16737603215E+04  0.90705220345E+03 0.  0.
         23    2    4    4    0    0  0.26866947855E+03 -0.40316721995E+02  0.44990550740E+03  0.53345235092E+03  0.91365848841E+02 0.  0.
         23    2    4    4    0    0 -0.71742648905E+03 -0.11505545267E+03  0.87418155430E+03  0.11403079706E+04  0.90390007973E+02 0.  0.
          4    1    3    3  502    0  0.17216179620E+03  0.30538819779E+02  0.14805731612E+03  0.22911410354E+03  0.00000000000E+00 0. -1.
         -1    1    3    3    0  502  0.27659521429E+03  0.12483335488E+03  0.16835308586E+03  0.34703175731E+03  0.00000000000E+00 0.  1.
         11    1    5    5    0    0  0.26898943669E+03 -0.49369180986E+02  0.41219296796E+03  0.49466723757E+03  0.00000000000E+00 0. -1.
        -11    1    5    5    0    0 -0.31995814002E+00  0.90524589905E+01  0.37712539440E+02  0.38785113356E+02  0.00000000000E+00 0.  1.
          4    1    6    6  503    0 -0.66944705529E+03 -0.12942495735E+03  0.82186074187E+03  0.10678788594E+04  0.00000000000E+00 0. -1.
         -4    1    6    6    0  503 -0.47979433764E+02  0.14369504676E+02  0.52320812432E+02  0.72429111153E+02  0.00000000000E+00 0.  1.
<mgrwt>
<rscale>  0 0.15397551E+04</rscale>
<asrwt>0</asrwt>
<pdfrwt beam="1">  1        2 0.29926181E+00 0.15397551E+04</pdfrwt>
<pdfrwt beam="2">  1       -1 0.46877595E-01 0.15397551E+04</pdfrwt>
<totfact> 0.35676822E+01</totfact>
</mgrwt>
</event>
<event>
12    6  0.1450532E-007  0.2801751E+04  0.7818608E-02  0.8302725E-01
         -1   -1    0    0    0  501 -0.00000000000E+00  0.00000000000E+00  0.89488799917E+03  0.89488799917E+03  0.00000000000E+00 0.  1.
          2   -1    0    0  501    0  0.00000000000E+00 -0.00000000000E+00 -0.21929584109E+04  0.21929584109E+04  0.00000000000E+00 0. -1.
         24    2    1    2    0    0 -0.54369005928E+03  0.12932706781E+03 -0.18310230256E+04  0.19160581298E+04  0.79429626290E+02 0.  0.
        254    2    1    2    0    0  0.54369005928E+03 -0.12932706781E+03  0.53295261385E+03  0.11717882803E+04  0.88131998399E+03 0.  0.
         23    2    4    4    0    0 -0.18051204269E+03 -0.19924048605E+02 -0.69913110707E+02  0.21880854478E+03  0.10003884721E+03 0.  0.
         23    2    4    4    0    0  0.72420210196E+03 -0.10940301920E+03  0.60286572455E+03  0.95297973551E+03  0.91025212718E+02 0.  0.
          2    1    3    3  502    0 -0.46578817009E+03  0.11698436994E+03 -0.16528437109E+04  0.17212019913E+04  0.00000000000E+00 0. -1.
         -1    1    3    3    0  502 -0.77901889191E+02  0.12342697868E+02 -0.17817931474E+03  0.19485613856E+03  0.00000000000E+00 0.  1.
         11    1    5    5    0    0 -0.88294370884E+02 -0.57762949067E+02 -0.51635469521E+02  0.11746776548E+03  0.00000000000E+00 0. -1.
        -11    1    5    5    0    0 -0.92217671802E+02  0.37838900462E+02 -0.18277641185E+02  0.10134077930E+03  0.00000000000E+00 0.  1.
          1    1    6    6  503    0  0.29327180117E+03 -0.97949864484E+01  0.27785049450E+03  0.40411036663E+03  0.00000000000E+00 0. -1.
         -1    1    6    6    0  503  0.43093030079E+03 -0.99608032752E+02  0.32501523005E+03  0.54886936888E+03  0.00000000000E+00 0.  1.
<mgrwt>
<rscale>  0 0.28017510E+04</rscale>
<asrwt>0</asrwt>
<pdfrwt beam="1">  1        2 0.33737821E+00 0.28017510E+04</pdfrwt>
<pdfrwt beam="2">  1       -1 0.13767508E+00 0.28017510E+04</pdfrwt>
<totfact> 0.22576209E+00</totfact>
</mgrwt>
</event>
<event>
12    6  0.1450532E-007  0.2261905E+04  0.7818608E-02  0.8493095E-01
          2   -1    0    0  501    0  0.00000000000E+00  0.00000000000E+00  0.12870446717E+04  0.12870446717E+04  0.00000000000E+00 0. -1.
         -1   -1    0    0    0  501 -0.00000000000E+00 -0.00000000000E+00 -0.99379094373E+03  0.99379094373E+03  0.00000000000E+00 0.  1.
         24    2    1    2    0    0  0.16956672686E+03 -0.20560687398E+03  0.10413945779E+04  0.10778962275E+04  0.79564746392E+02 0.  0.
        254    2    1    2    0    0 -0.16956672686E+03  0.20560687398E+03 -0.74814084987E+03  0.12029393880E+04  0.90350505172E+03 0.  0.
         23    2    4    4    0    0  0.22966367505E+03  0.25112693607E+03 -0.70538380999E+03  0.78866451579E+03  0.92818410984E+02 0.  0.
         23    2    4    4    0    0 -0.39923040191E+03 -0.45520062091E+02 -0.42757039880E+02  0.41427487221E+03  0.91315471991E+02 0.  0.
          2    1    3    3  502    0  0.13453837770E+03 -0.19596141643E+03  0.95572339254E+03  0.98483940561E+03  0.00000000000E+00 0. -1.
         -1    1    3    3    0  502  0.35028349154E+02 -0.96454575496E+01  0.85671185327E+02  0.93056821841E+02  0.00000000000E+00 0.  1.
         11    1    5    5    0    0  0.22377345930E+03  0.19653292070E+03 -0.59421441985E+03  0.66467324812E+03  0.00000000000E+00 0. -1.
        -11    1    5    5    0    0  0.58902157521E+01  0.54594015367E+02 -0.11116939014E+03  0.12399126767E+03  0.00000000000E+00 0.  1.
          2    1    6    6  503    0 -0.92746442364E+02  0.18239233327E+02 -0.36029526648E+02  0.10115680399E+03  0.00000000000E+00 0. -1.
         -2    1    6    6    0  503 -0.30648395954E+03 -0.63759295418E+02 -0.67275132318E+01  0.31311806822E+03  0.00000000000E+00 0.  1.
<mgrwt>
<rscale>  0 0.22619048E+04</rscale>
<asrwt>0</asrwt>
<pdfrwt beam="1">  1        2 0.19800687E+00 0.22619048E+04</pdfrwt>
<pdfrwt beam="2">  1       -1 0.15289091E+00 0.22619048E+04</pdfrwt>
<totfact> 0.57769258E+00</totfact>
</mgrwt>
</event>
<event>
12    6  0.1809943E-007  0.1719007E+04  0.7818608E-02  0.8750597E-01
         -1   -1    0    0    0  501 -0.00000000000E+00  0.00000000000E+00  0.43802995987E+03  0.43802995987E+03  0.00000000000E+00 0.  1.
          2   -1    0    0  501    0  0.00000000000E+00 -0.00000000000E+00 -0.16865206514E+04  0.16865206514E+04  0.00000000000E+00 0. -1.
         24    2    1    2    0    0  0.30701419416E+03  0.51647984398E+03 -0.27790166446E+03  0.66792288138E+03  0.88783420236E+02 0.  0.
        254    2    1    2    0    0 -0.30701419416E+03 -0.51647984398E+03 -0.97058902707E+03  0.14566277299E+04  0.90482713232E+03 0.  0.
         23    2    4    4    0    0 -0.15700774922E+03 -0.30741496496E+03 -0.10978204422E+04  0.11544028358E+04  0.90998846504E+02 0.  0.
         23    2    4    4    0    0 -0.15000644494E+03 -0.20906487901E+03  0.12723141509E+03  0.30222489410E+03  0.94562130185E+02 0.  0.
          4    1    3    3  502    0  0.11748553963E+01 -0.25520825697E+01  0.21841058398E+01  0.35586133485E+01  0.00000000000E+00 0. -1.
         -3    1    3    3    0  502  0.30583933876E+03  0.51903192655E+03 -0.28008577030E+03  0.66436426803E+03  0.00000000000E+00 0.  1.
         11    1    5    5    0    0 -0.11548653848E+03 -0.27727877167E+03 -0.85512999422E+03  0.90634869934E+03  0.00000000000E+00 0. -1.
        -11    1    5    5    0    0 -0.41521210746E+02 -0.30136193289E+02 -0.24269044795E+03  0.24805413645E+03  0.00000000000E+00 0.  1.
          1    1    6    6  503    0 -0.23582484248E+02 -0.21112937380E+02  0.56780609894E+02  0.65007133055E+02  0.00000000000E+00 0. -1.
         -1    1    6    6    0  503 -0.12642396069E+03 -0.18795194163E+03  0.70450805201E+02  0.23721776104E+03  0.00000000000E+00 0.  1.
<mgrwt>
<rscale>  0 0.17190074E+04</rscale>
<asrwt>0</asrwt>
<pdfrwt beam="1">  1        2 0.25946471E+00 0.17190074E+04</pdfrwt>
<pdfrwt beam="2">  1       -1 0.67389225E-01 0.17190074E+04</pdfrwt>
<totfact> 0.24084862E+01</totfact>
</mgrwt>
</event>
<event>
12    6  0.1450532E-007  0.2593888E+04  0.7818608E-02  0.8370280E-01
          2   -1    0    0  501    0  0.00000000000E+00  0.00000000000E+00  0.17755302845E+04  0.17755302845E+04  0.00000000000E+00 0. -1.
         -1   -1    0    0    0  501 -0.00000000000E+00 -0.00000000000E+00 -0.94735822783E+03  0.94735822783E+03  0.00000000000E+00 0.  1.
         24    2    1    2    0    0  0.37673904126E+03  0.50945983487E+03  0.13512598756E+04  0.14945846536E+04  0.79990042043E+02 0.  0.
        254    2    1    2    0    0 -0.37673904126E+03 -0.50945983487E+03 -0.52308781891E+03  0.12283038587E+04  0.91303224181E+03 0.  0.
         23    2    4    4    0    0 -0.30423625080E+03 -0.19437192116E+03  0.20603484291E+03  0.42575374137E+03  0.92063846116E+02 0.  0.
         23    2    4    4    0    0 -0.72502790463E+02 -0.31508791371E+03 -0.72912266182E+03  0.80255011738E+03  0.89049351128E+02 0.  0.
          2    1    3    3  502    0  0.34579517429E+03  0.45710311155E+03  0.11598019003E+04  0.12936993488E+04  0.00000000000E+00 0. -1.
         -1    1    3    3    0  502  0.30943866973E+02  0.52356723312E+02  0.19145797527E+03  0.20088530477E+03  0.00000000000E+00 0.  1.
         11    1    5    5    0    0 -0.19391044331E+03 -0.10863462278E+03  0.17433122497E+03  0.28247852536E+03  0.00000000000E+00 0. -1.
        -11    1    5    5    0    0 -0.11032580749E+03 -0.85737298376E+02  0.31703617940E+02  0.14327521600E+03  0.00000000000E+00 0.  1.
          1    1    6    6  503    0 -0.70676021725E+02 -0.15517751510E+03 -0.30742091652E+03  0.35154342712E+03  0.00000000000E+00 0.  1.
         -1    1    6    6    0  503 -0.18267687380E+01 -0.15991039861E+03 -0.42170174530E+03  0.45100669026E+03  0.00000000000E+00 0. -1.
<mgrwt>
<rscale>  0 0.25938876E+04</rscale>
<asrwt>0</asrwt>
<pdfrwt beam="1">  1        2 0.27315851E+00 0.25938876E+04</pdfrwt>
<pdfrwt beam="2">  1       -1 0.14574742E+00 0.25938876E+04</pdfrwt>
<totfact> 0.33802299E+00</totfact>
</mgrwt>
</event>
<event>
12    6  0.1450532E-007  0.1422986E+04  0.7818608E-02  0.8937346E-01
          2   -1    0    0  501    0  0.00000000000E+00  0.00000000000E+00  0.56649893395E+03  0.56649893395E+03  0.00000000000E+00 0. -1.
         -1   -1    0    0    0  501 -0.00000000000E+00 -0.00000000000E+00 -0.89359788404E+03  0.89359788404E+03  0.00000000000E+00 0.  1.
         24    2    1    2    0    0  0.11965138278E+02 -0.37709280431E+03  0.89019005550E+02  0.39670526849E+03  0.84312152721E+02 0.  0.
        254    2    1    2    0    0 -0.11965138278E+02  0.37709280431E+03 -0.41611795564E+03  0.10633915495E+04  0.90294257123E+03 0.  0.
         23    2    4    4    0    0 -0.60898477933E+02  0.16158344593E+01 -0.61639292099E+03  0.62551879516E+03  0.87305753091E+02 0.  0.
         23    2    4    4    0    0  0.48933339656E+02  0.37547696986E+03  0.20027496535E+03  0.43787275433E+03  0.90802316166E+02 0.  0.
          4    1    3    3  502    0  0.67169683312E+01 -0.51896595577E+02  0.43992833798E+02  0.68364784221E+02  0.00000000000E+00 0. -1.
         -3    1    3    3    0  502  0.52481699464E+01 -0.32519620874E+03  0.45026171752E+02  0.32834048427E+03  0.00000000000E+00 0.  1.
         11    1    5    5    0    0 -0.30076566658E+02 -0.73051021370E+01 -0.55826883830E+03  0.55912615767E+03  0.00000000000E+00 0. -1.
        -11    1    5    5    0    0 -0.30821911275E+02  0.89209365963E+01 -0.58124082692E+02  0.66392637492E+02  0.00000000000E+00 0.  1.
          4    1    6    6  503    0  0.10747939067E+02  0.28408004206E+03  0.18085031780E+03  0.33693296950E+03  0.00000000000E+00 0.  1.
         -4    1    6    6    0  503  0.38185400589E+02  0.91396927799E+02  0.19424647543E+02  0.10093978483E+03  0.00000000000E+00 0. -1.
<mgrwt>
<rscale>  0 0.14229859E+04</rscale>
<asrwt>0</asrwt>
<pdfrwt beam="1">  1        2 0.87153683E-01 0.14229859E+04</pdfrwt>
<pdfrwt beam="2">  1       -1 0.13747660E+00 0.14229859E+04</pdfrwt>
<totfact> 0.25948368E+01</totfact>
</mgrwt>
</event>
<event>
12    6  0.1450532E-007  0.3324634E+04  0.7818608E-02  0.8156656E-01
         -1   -1    0    0    0  501 -0.00000000000E+00  0.00000000000E+00  0.19800558261E+04  0.19800558261E+04  0.00000000000E+00 0.  1.
          2   -1    0    0  501    0  0.00000000000E+00 -0.00000000000E+00 -0.13955652190E+04  0.13955652190E+04  0.00000000000E+00 0. -1.
         24    2    1    2    0    0 -0.33451591435E+03  0.14805063066E+04  0.52929292486E+03  0.16097153038E+04  0.85044329933E+02 0.  0.
        254    2    1    2    0    0  0.33451591435E+03 -0.14805063066E+04  0.55197682246E+02  0.17659057413E+04  0.90087539774E+03 0.  0.
         23    2    4    4    0    0  0.47304831869E+03 -0.89551882653E+03 -0.30245632734E+03  0.10610144587E+04  0.92429276867E+02 0.  0.
         23    2    4    4    0    0 -0.13853240434E+03 -0.58498748009E+03  0.35765400958E+03  0.70489128260E+03  0.86912316735E+02 0.  0.
          4    1    3    3  502    0 -0.23252168650E+03  0.10423819261E+04  0.33107373174E+03  0.11181396292E+04  0.00000000000E+00 0. -1.
         -3    1    3    3    0  502 -0.10199422786E+03  0.43812438050E+03  0.19821919312E+03  0.49157567457E+03  0.00000000000E+00 0.  1.
         11    1    5    5    0    0  0.43061023962E+03 -0.83203015808E+03 -0.25438794638E+03  0.97077937230E+03  0.00000000000E+00 0. -1.
        -11    1    5    5    0    0  0.42438079067E+02 -0.63488668452E+02 -0.48068380960E+02  0.90235086440E+02  0.00000000000E+00 0.  1.
          4    1    6    6  503    0 -0.12738003726E+03 -0.36549223971E+03  0.21315634801E+03  0.44186635975E+03  0.00000000000E+00 0. -1.
         -4    1    6    6    0  503 -0.11152367079E+02 -0.21949524038E+03  0.14449766157E+03  0.26302492285E+03  0.00000000000E+00 0.  1.
<mgrwt>
<rscale>  0 0.33246335E+04</rscale>
<asrwt>0</asrwt>
<pdfrwt beam="1">  1        2 0.21470234E+00 0.33246335E+04</pdfrwt>
<pdfrwt beam="2">  1       -1 0.30462397E+00 0.33246335E+04</pdfrwt>
<totfact> 0.42573870E-01</totfact>
</mgrwt>
</event>
<event>
12    6  0.1450532E-007  0.1476121E+04  0.7818608E-02  0.8900490E-01
         -1   -1    0    0    0  501 -0.00000000000E+00  0.00000000000E+00  0.49022592102E+03  0.49022592102E+03  0.00000000000E+00 0.  1.
          2   -1    0    0  501    0  0.00000000000E+00 -0.00000000000E+00 -0.11111877209E+04  0.11111877209E+04  0.00000000000E+00 0. -1.
         24    2    1    2    0    0 -0.31750939466E+03 -0.31912572454E+03 -0.27999804497E+03  0.53686321963E+03  0.84674480502E+02 0.  0.
        254    2    1    2    0    0  0.31750939466E+03  0.31912572454E+03 -0.34096375492E+03  0.10645504223E+04  0.90241779442E+03 0.  0.
         23    2    4    4    0    0 -0.24427473782E+03  0.34954426812E+03 -0.18390628910E+03  0.47320051630E+03  0.90806731823E+02 0.  0.
         23    2    4    4    0    0  0.56178413248E+03 -0.30418543585E+02 -0.15705746582E+03  0.59134990599E+03  0.92200674884E+02 0.  0.
          4    1    3    3  502    0 -0.23436233022E+03 -0.27284142508E+03 -0.24623586221E+03  0.43589017527E+03  0.00000000000E+00 0. -1.
         -3    1    3    3    0  502 -0.83147064442E+02 -0.46284299462E+02 -0.33762182755E+02  0.10097304436E+03  0.00000000000E+00 0.  1.
         11    1    5    5    0    0 -0.30522639157E+02  0.87100259264E+01 -0.23866054866E+01  0.31830676061E+02  0.00000000000E+00 0.  1.
        -11    1    5    5    0    0 -0.21375209866E+03  0.34083424220E+03 -0.18151968361E+03  0.44136984024E+03  0.00000000000E+00 0. -1.
          4    1    6    6  503    0  0.55822754760E+03 -0.19436336570E+02 -0.15411901724E+03  0.57943803599E+03  0.00000000000E+00 0. -1.
         -4    1    6    6    0  503  0.35565848821E+01 -0.10982207015E+02 -0.29384485866E+01  0.11911870006E+02  0.00000000000E+00 0.  1.
<mgrwt>
<rscale>  0 0.14761206E+04</rscale>
<asrwt>0</asrwt>
<pdfrwt beam="1">  1        2 0.17095196E+00 0.14761206E+04</pdfrwt>
<pdfrwt beam="2">  1       -1 0.75419373E-01 0.14761206E+04</pdfrwt>
<totfact> 0.41836218E+01</totfact>
</mgrwt>
</event>
<event>
12    6  0.1450532E-007  0.1414157E+04  0.7818608E-02  0.8943634E-01
         -1   -1    0    0    0  501 -0.00000000000E+00  0.00000000000E+00  0.26660531877E+03  0.26660531877E+03  0.00000000000E+00 0.  1.
          2   -1    0    0  501    0  0.00000000000E+00 -0.00000000000E+00 -0.18752809581E+04  0.18752809581E+04  0.00000000000E+00 0. -1.
         24    2    1    2    0    0 -0.17299279641E+03 -0.15962276239E+03 -0.98342130607E+03  0.10143034051E+04  0.79296900643E+02 0.  0.
        254    2    1    2    0    0  0.17299279641E+03  0.15962276239E+03 -0.62525433331E+03  0.11275828718E+04  0.90834696985E+03 0.  0.
         23    2    4    4    0    0 -0.71116568700E+02  0.14614607530E+03  0.19286306257E+03  0.26884243141E+03  0.93079806377E+02 0.  0.
         23    2    4    4    0    0  0.24410936511E+03  0.13476687089E+02 -0.81811739587E+03  0.85874044041E+03  0.91367758783E+02 0.  0.
          2    1    3    3  502    0 -0.17207575489E+03 -0.16763176975E+03 -0.94626965641E+03  0.97628722121E+03  0.00000000000E+00 0. -1.
         -1    1    3    3    0  502 -0.91704151458E+00  0.80090073618E+01 -0.37151649654E+02  0.38016183871E+02  0.00000000000E+00 0.  1.
         11    1    5    5    0    0  0.99002932643E+01  0.81645173882E+02  0.68698072200E+02  0.10716051208E+03  0.00000000000E+00 0. -1.
        -11    1    5    5    0    0 -0.81016861964E+02  0.64500901416E+02  0.12416499037E+03  0.16168191933E+03  0.00000000000E+00 0.  1.
          3    1    6    6  503    0  0.14496733142E+03  0.16803431593E+02 -0.62287670427E+03  0.63974469221E+03  0.00000000000E+00 0. -1.
         -3    1    6    6    0  503  0.99142033688E+02 -0.33267445035E+01 -0.19524069160E+03  0.21899574820E+03  0.00000000000E+00 0.  1.
<mgrwt>
<rscale>  0 0.14141568E+04</rscale>
<asrwt>0</asrwt>
<pdfrwt beam="1">  1        2 0.28850476E+00 0.14141568E+04</pdfrwt>
<pdfrwt beam="2">  1       -1 0.41016203E-01 0.14141568E+04</pdfrwt>
<totfact> 0.50503181E+01</totfact>
</mgrwt>
</event>
<event>
12    6  0.1450532E-007  0.1423176E+04  0.7818608E-02  0.8937211E-01
          2   -1    0    0  501    0  0.00000000000E+00  0.00000000000E+00  0.20908812986E+04  0.20908812986E+04  0.00000000000E+00 0. -1.
         -1   -1    0    0    0  501 -0.00000000000E+00 -0.00000000000E+00 -0.24217415975E+03  0.24217415975E+03  0.00000000000E+00 0.  1.
         24    2    1    2    0    0  0.34523424419E-01  0.33966210204E+02  0.14335708268E+04  0.14362076297E+04  0.80083303878E+02 0.  0.
        254    2    1    2    0    0 -0.34523424419E-01 -0.33966210204E+02  0.41513631198E+03  0.89684782857E+03  0.79425698956E+03 0.  0.
         23    2    4    4    0    0 -0.30118636569E+03 -0.19185228276E+03  0.22148659894E+02  0.36932597357E+03  0.91600143781E+02 0.  0.
         23    2    4    4    0    0  0.30115184227E+03  0.15788607256E+03  0.39298765209E+03  0.52752185500E+03  0.90661837648E+02 0.  0.
          2    1    3    3  502    0  0.16269706161E+02  0.56512863052E+02  0.10352693904E+04  0.10369383384E+04  0.00000000000E+00 0. -1.
         -1    1    3    3    0  502 -0.16235182737E+02 -0.22546652848E+02  0.39830143647E+03  0.39926929134E+03  0.00000000000E+00 0.  1.
         11    1    5    5    0    0 -0.18375181901E+03 -0.96424511451E+02 -0.29141581538E+02  0.20955106579E+03  0.00000000000E+00 0. -1.
        -11    1    5    5    0    0 -0.11743454668E+03 -0.95427771311E+02  0.51290241432E+02  0.15977490779E+03  0.00000000000E+00 0.  1.
          1    1    6    6  503    0  0.25705855010E+03  0.11865406112E+03  0.36573160850E+03  0.46251215537E+03  0.00000000000E+00 0. -1.
         -1    1    6    6    0  503  0.44093292162E+02  0.39232011439E+02  0.27256043582E+02  0.65009699638E+02  0.00000000000E+00 0.  1.
<mgrwt>
<rscale>  0 0.14231759E+04</rscale>
<asrwt>0</asrwt>
<pdfrwt beam="1">  1        2 0.32167403E+00 0.14231759E+04</pdfrwt>
<pdfrwt beam="2">  1       -1 0.37257564E-01 0.14231759E+04</pdfrwt>
<totfact> 0.45658703E+01</totfact>
</mgrwt>
</event>
<event>
12    6  0.1450532E-007  0.1498907E+04  0.7818608E-02  0.8885180E-01
         -1   -1    0    0    0  501 -0.00000000000E+00  0.00000000000E+00  0.39902661704E+03  0.39902661704E+03  0.00000000000E+00 0.  1.
          2   -1    0    0  501    0  0.00000000000E+00 -0.00000000000E+00 -0.14076271054E+04  0.14076271054E+04  0.00000000000E+00 0. -1.
         24    2    1    2    0    0  0.19690476854E+03 -0.23308450972E+03  0.11307989657E+03  0.33634387978E+03  0.85089752115E+02 0.  0.
        254    2    1    2    0    0 -0.19690476854E+03  0.23308450972E+03 -0.11216803850E+04  0.14703098427E+04  0.90030232197E+03 0.  0.
         23    2    4    4    0    0  0.15893888870E+03  0.88061093088E+02 -0.10498221977E+04  0.10693237448E+04  0.91160835487E+02 0.  0.
         23    2    4    4    0    0 -0.35584365724E+03  0.14502341663E+03 -0.71858187291E+02  0.40098609792E+03  0.89273466819E+02 0.  0.
          2    1    3    3  502    0  0.74367603728E+02 -0.13416337816E+03  0.23556533655E+02  0.15519427438E+03  0.00000000000E+00 0. -1.
         -1    1    3    3    0  502  0.12253716481E+03 -0.98921131556E+02  0.89523362915E+02  0.18114960540E+03  0.00000000000E+00 0.  1.
         11    1    5    5    0    0  0.11392032968E+02 -0.60592224836E+01 -0.26107948266E+03  0.26139814242E+03  0.00000000000E+00 0. -1.
        -11    1    5    5    0    0  0.14754685574E+03  0.94120315572E+02 -0.78874271501E+03  0.80792560235E+03  0.00000000000E+00 0.  1.
          3    1    6    6  503    0 -0.17377208603E+03  0.11054446568E+03 -0.12209432872E+02  0.20631501890E+03  0.00000000000E+00 0. -1.
         -3    1    6    6    0  503 -0.18207157122E+03  0.34478950951E+02 -0.59648754418E+02  0.19467107902E+03  0.00000000000E+00 0.  1.
<mgrwt>
<rscale>  0 0.14989072E+04</rscale>
<asrwt>0</asrwt>
<pdfrwt beam="1">  1        2 0.21655802E+00 0.14989072E+04</pdfrwt>
<pdfrwt beam="2">  1       -1 0.61388709E-01 0.14989072E+04</pdfrwt>
<totfact> 0.42457160E+01</totfact>
</mgrwt>
</event>
<event>
12    6  0.1450532E-007  0.1291298E+04  0.7818608E-02  0.9036495E-01
         -1   -1    0    0    0  501 -0.00000000000E+00  0.00000000000E+00  0.60643200705E+03  0.60643200705E+03  0.00000000000E+00 0.  1.
          2   -1    0    0  501    0  0.00000000000E+00 -0.00000000000E+00 -0.68740196525E+03  0.68740196525E+03  0.00000000000E+00 0. -1.
         24    2    1    2    0    0 -0.14866406944E+03 -0.17678963594E+03  0.20135991709E+03  0.31645456613E+03  0.79006931943E+02 0.  0.
        254    2    1    2    0    0  0.14866406944E+03  0.17678963594E+03 -0.28232987529E+03  0.97737940617E+03  0.90675507399E+03 0.  0.
         23    2    4    4    0    0  0.13208000454E+03 -0.29376818389E+02 -0.58052948671E+03  0.60302470145E+03  0.91193094879E+02 0.  0.
         23    2    4    4    0    0  0.16584064905E+02  0.20616645433E+03  0.29819961142E+03  0.37435470473E+03  0.91862933776E+02 0.  0.
          4    1    3    3  502    0 -0.13092447479E+00  0.73981820169E+01  0.45516618206E+01  0.86872241655E+01  0.00000000000E+00 0. -1.
         -3    1    3    3    0  502 -0.14853314497E+03 -0.18418781796E+03  0.19680825527E+03  0.30776734196E+03  0.00000000000E+00 0.  1.
         11    1    5    5    0    0  0.23660350671E+02 -0.29814770156E+02 -0.29774820857E+03  0.30017116520E+03  0.00000000000E+00 0.  1.
        -11    1    5    5    0    0  0.10841965387E+03  0.43795176722E+00 -0.28278127815E+03  0.30285353625E+03  0.00000000000E+00 0. -1.
          1    1    6    6  503    0 -0.24773791016E+02  0.40129368551E+02  0.28959736041E+02  0.55342327862E+02  0.00000000000E+00 0. -1.
         -1    1    6    6    0  503  0.41357855921E+02  0.16603708578E+03  0.26923987538E+03  0.31901237687E+03  0.00000000000E+00 0.  1.
<mgrwt>
<rscale>  0 0.12912979E+04</rscale>
<asrwt>0</asrwt>
<pdfrwt beam="1">  1        2 0.10575415E+00 0.12912979E+04</pdfrwt>
<pdfrwt beam="2">  1       -1 0.93297232E-01 0.12912979E+04</pdfrwt>
<totfact> 0.52401426E+01</totfact>
</mgrwt>
</event>
<event>
12    6  0.1450532E-007  0.1160668E+04  0.7818608E-02  0.9147998E-01
         -1   -1    0    0    0  501 -0.00000000000E+00  0.00000000000E+00  0.53970863558E+03  0.53970863558E+03  0.00000000000E+00 0.  1.
          2   -1    0    0  501    0  0.00000000000E+00 -0.00000000000E+00 -0.62401716065E+03  0.62401716065E+03  0.00000000000E+00 0. -1.
         24    2    1    2    0    0  0.21152708323E+03 -0.24413421745E+02  0.27256525134E+02  0.23077464368E+03  0.84701215475E+02 0.  0.
        254    2    1    2    0    0 -0.21152708323E+03  0.24413421745E+02 -0.11156505021E+03  0.93295115255E+03  0.90144959400E+03 0.  0.
         23    2    4    4    0    0  0.29342065874E+03 -0.19748488165E+03 -0.74078527022E+02  0.37271433678E+03  0.91281910697E+02 0.  0.
         23    2    4    4    0    0 -0.50494774196E+03  0.22189830339E+03 -0.37486523186E+02  0.56023681578E+03  0.90823846909E+02 0.  0.
          2    1    3    3  502    0  0.14565138806E+03 -0.16769387856E+02 -0.21879915322E+02  0.14823720824E+03  0.00000000000E+00 0. -1.
         -1    1    3    3    0  502  0.65875695165E+02 -0.76440338880E+01  0.49136440455E+02  0.82537435435E+02  0.00000000000E+00 0.  1.
         11    1    5    5    0    0  0.51703555835E+02 -0.37314171721E+02  0.21673969234E+02  0.67345126324E+02  0.00000000000E+00 0.  1.
        -11    1    5    5    0    0  0.24171710290E+03 -0.16017070992E+03 -0.95752496256E+02  0.30536921045E+03  0.00000000000E+00 0. -1.
          1    1    6    6  503    0 -0.39239321428E+03  0.20166357926E+03 -0.54812361275E+02  0.44457286103E+03  0.00000000000E+00 0. -1.
         -1    1    6    6    0  503 -0.11255452768E+03  0.20234724132E+02  0.17325838089E+02  0.11566395475E+03  0.00000000000E+00 0.  1.
<mgrwt>
<rscale>  0 0.11606678E+04</rscale>
<asrwt>0</asrwt>
<pdfrwt beam="1">  1        2 0.96002640E-01 0.11606678E+04</pdfrwt>
<pdfrwt beam="2">  1       -1 0.83032098E-01 0.11606678E+04</pdfrwt>
<totfact> 0.77014461E+01</totfact>
</mgrwt>
</event>
<event>
12    6  0.1450532E-007  0.1445255E+04  0.7818608E-02  0.8921696E-01
          2   -1    0    0  501    0  0.00000000000E+00  0.00000000000E+00  0.54666621894E+03  0.54666621894E+03  0.00000000000E+00 0. -1.
         -1   -1    0    0    0  501 -0.00000000000E+00 -0.00000000000E+00 -0.95522774497E+03  0.95522774497E+03  0.00000000000E+00 0.  1.
         24    2    1    2    0    0  0.26917383110E+03 -0.29577769391E+03 -0.21241020399E+03  0.46026313185E+03  0.82371476988E+02 0.  0.
        254    2    1    2    0    0 -0.26917383110E+03  0.29577769391E+03 -0.19615132205E+03  0.10416308321E+04  0.94158401303E+03 0.  0.
         23    2    4    4    0    0 -0.35693620037E+03  0.26943863847E+03  0.28825991260E+03  0.53978598398E+03  0.90964280115E+02 0.  0.
         23    2    4    4    0    0  0.87762369273E+02  0.26339055436E+02 -0.48441123465E+03  0.50184484808E+03  0.93797803767E+02 0.  0.
          4    1    3    3  502    0  0.10416795186E+02 -0.48986971731E+02 -0.34959040297E+02  0.61076734685E+02  0.00000000000E+00 0. -1.
         -3    1    3    3    0  502  0.25875703591E+03 -0.24679072218E+03 -0.17745116369E+03  0.39918639716E+03  0.00000000000E+00 0.  1.
         11    1    5    5    0    0 -0.21766626293E+03  0.15642148769E+03  0.11934634809E+03  0.29341069277E+03  0.00000000000E+00 0. -1.
        -11    1    5    5    0    0 -0.13926993744E+03  0.11301715078E+03  0.16891356451E+03  0.24637529121E+03  0.00000000000E+00 0.  1.
          1    1    6    6  503    0  0.93183710983E+02  0.19961327884E+02 -0.48418189719E+03  0.49347114219E+03  0.00000000000E+00 0. -1.
         -1    1    6    6    0  503 -0.54213417100E+01  0.63777275513E+01 -0.22933745081E+00  0.83737058894E+01  0.00000000000E+00 0.  1.
<mgrwt>
<rscale>  0 0.14452553E+04</rscale>
<asrwt>0</asrwt>
<pdfrwt beam="1">  1        2 0.84102496E-01 0.14452553E+04</pdfrwt>
<pdfrwt beam="2">  1       -1 0.14695811E+00 0.14452553E+04</pdfrwt>
<totfact> 0.22670132E+01</totfact>
</mgrwt>
</event>
<event>
12    6  0.1450532E-007  0.2191053E+04  0.7818608E-02  0.8522161E-01
         -1   -1    0    0    0  501 -0.00000000000E+00  0.00000000000E+00  0.45048980103E+03  0.45048980103E+03  0.00000000000E+00 0.  1.
          2   -1    0    0  501    0  0.00000000000E+00 -0.00000000000E+00 -0.26641627143E+04  0.26641627143E+04  0.00000000000E+00 0. -1.
         24    2    1    2    0    0  0.33266907375E+03 -0.20195432483E+03 -0.20804732284E+04  0.21182740320E+04  0.85215950643E+02 0.  0.
        254    2    1    2    0    0 -0.33266907375E+03  0.20195432483E+03 -0.13319968488E+03  0.99637848342E+03  0.90750959457E+03 0.  0.
         23    2    4    4    0    0 -0.34939497029E+03  0.46719014051E+03 -0.30675514919E+03  0.66583880154E+03  0.94335122954E+02 0.  0.
         23    2    4    4    0    0  0.16725896542E+02 -0.26523581568E+03  0.17355546431E+03  0.33053968189E+03  0.92223579265E+02 0.  0.
          2    1    3    3  502    0  0.33712667732E+03 -0.19385024407E+03 -0.20423897777E+04  0.20790835283E+04  0.00000000000E+00 0. -1.
         -1    1    3    3    0  502 -0.44576035733E+01 -0.81040807551E+01 -0.38083450734E+02  0.39190503624E+02  0.00000000000E+00 0.  1.
         11    1    5    5    0    0 -0.19357727538E+03  0.21071339116E+03 -0.10773440667E+03  0.30574335175E+03  0.00000000000E+00 0. -1.
        -11    1    5    5    0    0 -0.15581769491E+03  0.25647674934E+03 -0.19902074252E+03  0.36009544979E+03  0.00000000000E+00 0.  1.
          3    1    6    6  503    0  0.54508323889E+02 -0.17977797986E+03  0.11735604202E+03  0.22150331829E+03  0.00000000000E+00 0. -1.
         -3    1    6    6    0  503 -0.37782427347E+02 -0.85457835818E+02  0.56199422296E+02  0.10903636359E+03  0.00000000000E+00 0.  1.
<mgrwt>
<rscale>  0 0.21910528E+04</rscale>
<asrwt>0</asrwt>
<pdfrwt beam="1">  1        2 0.40987119E+00 0.21910528E+04</pdfrwt>
<pdfrwt beam="2">  1       -1 0.69306122E-01 0.21910528E+04</pdfrwt>
<totfact> 0.61159821E+00</totfact>
</mgrwt>
</event>
<event>
12    6  0.1450532E-007  0.3158693E+04  0.7818608E-02  0.8199812E-01
          2   -1    0    0  501    0  0.00000000000E+00  0.00000000000E+00  0.36761778507E+04  0.36761778507E+04  0.00000000000E+00 0. -1.
         -1   -1    0    0    0  501 -0.00000000000E+00 -0.00000000000E+00 -0.67851305394E+03  0.67851305394E+03  0.00000000000E+00 0.  1.
         24    2    1    2    0    0 -0.23044429377E+03  0.92394621134E+03 -0.13045259561E+03  0.96454226340E+03  0.80887107795E+02 0.  0.
        254    2    1    2    0    0  0.23044429377E+03 -0.92394621134E+03  0.31281173923E+04  0.33901486412E+04  0.89510234905E+03 0.  0.
         23    2    4    4    0    0  0.12430076723E+02 -0.19167711961E+03  0.51832503030E+02  0.21922184513E+03  0.92070538286E+02 0.  0.
         23    2    4    4    0    0  0.21801421704E+03 -0.73226909172E+03  0.30762848893E+04  0.31709267961E+04  0.86601411048E+02 0.  0.
          2    1    3    3  502    0 -0.38823992727E+02  0.30938395386E+03 -0.49928278653E+02  0.31578246678E+03  0.00000000000E+00 0. -1.
         -1    1    3    3    0  502 -0.19162030104E+03  0.61456225748E+03 -0.80524316962E+02  0.64875979662E+03  0.00000000000E+00 0.  1.
         11    1    5    5    0    0 -0.33767867575E+02 -0.64704415076E+02 -0.38377513599E+01  0.73086650945E+02  0.00000000000E+00 0. -1.
        -11    1    5    5    0    0  0.46197944298E+02 -0.12697270454E+03  0.55670254390E+02  0.14613519418E+03  0.00000000000E+00 0.  1.
          1    1    6    6  503    0  0.20956448573E+03 -0.69568802392E+03  0.28291742762E+04  0.29209803466E+04  0.00000000000E+00 0. -1.
         -1    1    6    6    0  503  0.84497313166E+01 -0.36581067798E+02  0.24711061312E+03  0.24994644946E+03  0.00000000000E+00 0.  1.
<mgrwt>
<rscale>  0 0.31586926E+04</rscale>
<asrwt>0</asrwt>
<pdfrwt beam="1">  1        2 0.56556581E+00 0.31586926E+04</pdfrwt>
<pdfrwt beam="2">  1       -1 0.10438663E+00 0.31586926E+04</pdfrwt>
<totfact> 0.50267018E-01</totfact>
</mgrwt>
</event>
<event>
12    6  0.1488777E-007  0.2860483E+04  0.7818608E-02  0.8284733E-01
         -1   -1    0    0    0  501 -0.00000000000E+00  0.00000000000E+00  0.10378326442E+04  0.10378326442E+04  0.00000000000E+00 0.  1.
          2   -1    0    0  501    0  0.00000000000E+00 -0.00000000000E+00 -0.19710218055E+04  0.19710218055E+04  0.00000000000E+00 0. -1.
         24    2    1    2    0    0  0.59897924589E+03  0.64028007163E+03 -0.14326336929E+04  0.16815708025E+04  0.80662003470E+02 0.  0.
        254    2    1    2    0    0 -0.59897924589E+03 -0.64028007163E+03  0.49944453151E+03  0.13272836472E+04  0.86226581336E+03 0.  0.
         23    2    4    4    0    0 -0.75359218486E+02  0.16614578722E+03 -0.58289915064E+02  0.21198438260E+03  0.90863798322E+02 0.  0.
         23    2    4    4    0    0 -0.52362002740E+03 -0.80642585885E+03  0.55773444657E+03  0.11152992646E+04  0.91236712913E+02 0.  0.
          4    1    3    3  502    0  0.51674061190E+03  0.54494860280E+03 -0.11694258189E+04  0.13898009158E+04  0.00000000000E+00 0. -1.
         -1    1    3    3    0  502  0.82238633986E+02  0.95331468832E+02 -0.26320787395E+03  0.29176988669E+03  0.00000000000E+00 0.  1.
         11    1    5    5    0    0 -0.38186907614E+02  0.12817010665E+03 -0.86037876178E+00  0.13374063109E+03  0.00000000000E+00 0. -1.
        -11    1    5    5    0    0 -0.37172310872E+02  0.37975680564E+02 -0.57429536302E+02  0.78243751506E+02  0.00000000000E+00 0.  1.
          3    1    6    6  503    0 -0.50241933124E+03 -0.79149168864E+03  0.52840263622E+03  0.10761475845E+04  0.00000000000E+00 0. -1.
         -3    1    6    6    0  503 -0.21200696168E+02 -0.14934170204E+02  0.29331810357E+02  0.39151680124E+02  0.00000000000E+00 0.  1.
<mgrwt>
<rscale>  0 0.28604830E+04</rscale>
<asrwt>0</asrwt>
<pdfrwt beam="1">  1        2 0.30323412E+00 0.28604830E+04</pdfrwt>
<pdfrwt beam="2">  1       -1 0.15966656E+00 0.28604830E+04</pdfrwt>
<totfact> 0.20077437E+00</totfact>
</mgrwt>
</event>
<event>
12    6  0.1450532E-007  0.1981908E+04  0.7818608E-02  0.8615126E-01
         -1   -1    0    0    0  501 -0.00000000000E+00  0.00000000000E+00  0.44236749169E+03  0.44236749169E+03  0.00000000000E+00 0.  1.
          2   -1    0    0  501    0  0.00000000000E+00 -0.00000000000E+00 -0.22198509414E+04  0.22198509414E+04  0.00000000000E+00 0. -1.
         24    2    1    2    0    0 -0.53779804156E+02 -0.71152885161E+03 -0.28853526133E+03  0.77441006517E+03  0.85397763346E+02 0.  0.
        254    2    1    2    0    0  0.53779804156E+02  0.71152885161E+03 -0.14889481884E+04  0.18878083679E+04  0.91525305371E+03 0.  0.
         23    2    4    4    0    0  0.87631618254E+02  0.40580005331E+03 -0.15083443226E+04  0.15670285882E+04  0.90127781167E+02 0.  0.
         23    2    4    4    0    0 -0.33851814098E+02  0.30572879830E+03  0.19396134184E+02  0.32077977976E+03  0.88923639460E+02 0.  0.
          2    1    3    3  502    0 -0.56793021078E+02 -0.45039666323E+03 -0.14581887704E+03  0.47680787157E+03  0.00000000000E+00 0. -1.
         -1    1    3    3    0  502  0.30132169212E+01 -0.26113218839E+03 -0.14271638429E+03  0.29760219360E+03  0.00000000000E+00 0.  1.
         11    1    5    5    0    0 -0.11313703240E+02  0.48697885414E+02 -0.11807488651E+03  0.12822309756E+03  0.00000000000E+00 0. -1.
        -11    1    5    5    0    0  0.98945321494E+02  0.35710216790E+03 -0.13902694360E+04  0.14388054906E+04  0.00000000000E+00 0.  1.
          1    1    6    6  503    0 -0.18167311039E+02  0.62034706892E+01 -0.50474129100E+01  0.19849700655E+02  0.00000000000E+00 0. -1.
         -1    1    6    6    0  503 -0.15684503059E+02  0.29952532761E+03  0.24443547094E+02  0.30093007911E+03  0.00000000000E+00 0.  1.
<mgrwt>
<rscale>  0 0.19819081E+04</rscale>
<asrwt>0</asrwt>
<pdfrwt beam="1">  1        2 0.34151552E+00 0.19819081E+04</pdfrwt>
<pdfrwt beam="2">  1       -1 0.68056538E-01 0.19819081E+04</pdfrwt>
<totfact> 0.11652971E+01</totfact>
</mgrwt>
</event>
<event>
12    6  0.1450532E-007  0.1714466E+04  0.7818608E-02  0.8753157E-01
          2   -1    0    0  501    0  0.00000000000E+00  0.00000000000E+00  0.16641974982E+04  0.16641974982E+04  0.00000000000E+00 0. -1.
         -1   -1    0    0    0  501 -0.00000000000E+00 -0.00000000000E+00 -0.44156323031E+03  0.44156323031E+03  0.00000000000E+00 0.  1.
         24    2    1    2    0    0 -0.30243416300E+03 -0.49233693366E+03  0.71739025554E+03  0.92459942249E+03  0.79832538123E+02 0.  0.
        254    2    1    2    0    0  0.30243416300E+03  0.49233693366E+03  0.50524401237E+03  0.11811613060E+04  0.89777972779E+03 0.  0.
         23    2    4    4    0    0 -0.21539128996E+03 -0.11569848110E+03  0.81210487403E+02  0.27311706120E+03  0.90654506450E+02 0.  0.
         23    2    4    4    0    0  0.51782545295E+03  0.60803541476E+03  0.42403352497E+03  0.90804424483E+03  0.83003945339E+02 0.  0.
          2    1    3    3  502    0 -0.21764426791E+03 -0.28001754534E+03  0.43245805765E+03  0.55928420743E+03  0.00000000000E+00 0. -1.
         -1    1    3    3    0  502 -0.84789895087E+02 -0.21231938833E+03  0.28493219788E+03  0.36531521507E+03  0.00000000000E+00 0.  1.
         11    1    5    5    0    0  0.82621158729E+01 -0.57417185860E+00  0.70289190831E+01  0.10862685464E+02  0.00000000000E+00 0.  1.
        -11    1    5    5    0    0 -0.22365340583E+03 -0.11512430924E+03  0.74181568320E+02  0.26225437574E+03  0.00000000000E+00 0. -1.
          1    1    6    6  503    0  0.34496877065E+03  0.34298974107E+03  0.26250004870E+03  0.55276730255E+03  0.00000000000E+00 0. -1.
         -1    1    6    6    0  503  0.17285668230E+03  0.26504567369E+03  0.16153347627E+03  0.35527694227E+03  0.00000000000E+00 0.  1.
<mgrwt>
<rscale>  0 0.17144660E+04</rscale>
<asrwt>0</asrwt>
<pdfrwt beam="1">  1        2 0.25603038E+00 0.17144660E+04</pdfrwt>
<pdfrwt beam="2">  1       -1 0.67932806E-01 0.17144660E+04</pdfrwt>
<totfact> 0.24391382E+01</totfact>
</mgrwt>
</event>
<event>
12    6  0.1450532E-007  0.2269160E+04  0.7818608E-02  0.8490181E-01
         -1   -1    0    0    0  501 -0.00000000000E+00  0.00000000000E+00  0.62938604354E+03  0.62938604354E+03  0.00000000000E+00 0.  1.
          2   -1    0    0  501    0  0.00000000000E+00 -0.00000000000E+00 -0.20452820550E+04  0.20452820550E+04  0.00000000000E+00 0. -1.
         24    2    1    2    0    0  0.56346122016E+03  0.73907588612E+03 -0.37475375471E+03  0.10053038987E+04  0.80460177031E+02 0.  0.
        254    2    1    2    0    0 -0.56346122016E+03 -0.73907588612E+03 -0.10411422568E+04  0.16693641998E+04  0.91601196540E+03 0.  0.
         23    2    4    4    0    0 -0.46229077958E+03 -0.93565556874E+03 -0.73342965023E+03  0.12794429211E+04  0.99453649719E+02 0.  0.
         23    2    4    4    0    0 -0.10117044058E+03  0.19657968261E+03 -0.30771260656E+03  0.38992127869E+03  0.92046323532E+02 0.  0.
          2    1    3    3  502    0  0.10044158151E+03  0.87064725208E+02 -0.61245805075E+02  0.14635513763E+03  0.00000000000E+00 0. -1.
         -1    1    3    3    0  502  0.46301963865E+03  0.65201116092E+03 -0.31350794963E+03  0.85894876111E+03  0.00000000000E+00 0.  1.
         11    1    5    5    0    0 -0.43333812009E+02 -0.17144634406E+03 -0.12239050802E+03  0.21506069982E+03  0.00000000000E+00 0. -1.
        -11    1    5    5    0    0 -0.41895696758E+03 -0.76420922468E+03 -0.61103914221E+03  0.10643822213E+04  0.00000000000E+00 0.  1.
          4    1    6    6  503    0 -0.85959690971E+02  0.81387656557E+02 -0.11594348794E+03  0.16569825439E+03  0.00000000000E+00 0. -1.
         -4    1    6    6    0  503 -0.15210749606E+02  0.11519202606E+03 -0.19176911862E+03  0.22422302430E+03  0.00000000000E+00 0.  1.
<mgrwt>
<rscale>  0 0.22691602E+04</rscale>
<asrwt>0</asrwt>
<pdfrwt beam="1">  1        2 0.31465878E+00 0.22691602E+04</pdfrwt>
<pdfrwt beam="2">  1       -1 0.96828622E-01 0.22691602E+04</pdfrwt>
<totfact> 0.66879613E+00</totfact>
</mgrwt>
</event>
<event>
12    6  0.1450532E-007  0.1619488E+04  0.7818608E-02  0.8808665E-01
          2   -1    0    0  501    0  0.00000000000E+00  0.00000000000E+00  0.13932837417E+04  0.13932837417E+04  0.00000000000E+00 0. -1.
         -1   -1    0    0    0  501 -0.00000000000E+00 -0.00000000000E+00 -0.47060412618E+03  0.47060412618E+03  0.00000000000E+00 0.  1.
         24    2    1    2    0    0 -0.40359655624E+03 -0.28770096735E+03 -0.29716794919E+00  0.50241017279E+03  0.82181911599E+02 0.  0.
        254    2    1    2    0    0  0.40359655624E+03  0.28770096735E+03  0.92297678343E+03  0.13614776951E+04  0.86952478087E+03 0.  0.
         23    2    4    4    0    0 -0.92540828083E+02  0.44559872861E+03  0.34528112578E+03  0.57848065599E+03  0.91097649455E+02 0.  0.
         23    2    4    4    0    0  0.49613738432E+03 -0.15789776126E+03  0.57769565765E+03  0.78299703907E+03  0.90929000760E+02 0.  0.
          4    1    3    3  502    0 -0.52985781997E+02 -0.64033412213E+02 -0.21968048744E+02  0.85967238754E+02  0.00000000000E+00 0. -1.
         -3    1    3    3    0  502 -0.35061077424E+03 -0.22366755514E+03  0.21670880795E+02  0.41644293404E+03  0.00000000000E+00 0.  1.
         11    1    5    5    0    0 -0.67551376091E+02  0.42744138758E+03  0.32866267853E+03  0.54340453116E+03  0.00000000000E+00 0.  1.
        -11    1    5    5    0    0 -0.24989451992E+02  0.18157341027E+02  0.16618447252E+02  0.35076124830E+02  0.00000000000E+00 0. -1.
          4    1    6    6  503    0  0.64605203069E+02 -0.46858005803E+02  0.12088949088E+03  0.14485777155E+03  0.00000000000E+00 0. -1.
         -4    1    6    6    0  503  0.43153218126E+03 -0.11103975545E+03  0.45680616677E+03  0.63813926752E+03  0.00000000000E+00 0.  1.
<mgrwt>
<rscale>  0 0.16194877E+04</rscale>
<asrwt>0</asrwt>
<pdfrwt beam="1">  1        2 0.21435134E+00 0.16194877E+04</pdfrwt>
<pdfrwt beam="2">  1       -1 0.72400635E-01 0.16194877E+04</pdfrwt>
<totfact> 0.30660649E+01</totfact>
</mgrwt>
</event>
<event>
12    6  0.1450532E-007  0.1408675E+04  0.7818608E-02  0.8947563E-01
          2   -1    0    0  501    0  0.00000000000E+00  0.00000000000E+00  0.96345666661E+03  0.96345666661E+03  0.00000000000E+00 0. -1.
         -1   -1    0    0    0  501 -0.00000000000E+00 -0.00000000000E+00 -0.51490804861E+03  0.51490804861E+03  0.00000000000E+00 0.  1.
         24    2    1    2    0    0 -0.24230850456E+03 -0.12112938302E+03 -0.19021626855E+03  0.34042901122E+03  0.79523229603E+02 0.  0.
        254    2    1    2    0    0  0.24230850456E+03  0.12112938302E+03  0.63876488655E+03  0.11379357040E+04  0.90193755179E+03 0.  0.
         23    2    4    4    0    0  0.34097390579E+03  0.37856503410E+03  0.66934205841E+03  0.84611827682E+03  0.91228601558E+02 0.  0.
         23    2    4    4    0    0 -0.98665401222E+02 -0.25743565108E+03 -0.30577171857E+02  0.29181742718E+03  0.90633721787E+02 0.  0.
          2    1    3    3  502    0 -0.25116894781E+01 -0.54058806880E+01 -0.28040770131E+02  0.28667349365E+02  0.00000000000E+00 0. -1.
         -1    1    3    3    0  502 -0.23979681509E+03 -0.11572350233E+03 -0.16217549841E+03  0.31176166186E+03  0.00000000000E+00 0.  1.
         11    1    5    5    0    0  0.28792901925E+03  0.32643674798E+03  0.51153072537E+03  0.67166044514E+03  0.00000000000E+00 0.  1.
        -11    1    5    5    0    0  0.53044886536E+02  0.52128286117E+02  0.15781133303E+03  0.17445783168E+03  0.00000000000E+00 0. -1.
          3    1    6    6  503    0 -0.34660914876E+02 -0.14461349562E+03 -0.57324765020E+02  0.15937556532E+03  0.00000000000E+00 0. -1.
         -3    1    6    6    0  503 -0.64004486346E+02 -0.11282215545E+03  0.26747593163E+02  0.13244186186E+03  0.00000000000E+00 0.  1.
<mgrwt>
<rscale>  0 0.14086754E+04</rscale>
<asrwt>0</asrwt>
<pdfrwt beam="1">  1        2 0.14822410E+00 0.14086754E+04</pdfrwt>
<pdfrwt beam="2">  1       -1 0.79216623E-01 0.14086754E+04</pdfrwt>
<totfact> 0.47045322E+01</totfact>
</mgrwt>
</event>
<event>
12    6  0.1450532E-007  0.2228798E+04  0.7818608E-02  0.8506536E-01
         -1   -1    0    0    0  501 -0.00000000000E+00  0.00000000000E+00  0.16856865047E+04  0.16856865047E+04  0.00000000000E+00 0.  1.
          2   -1    0    0  501    0  0.00000000000E+00 -0.00000000000E+00 -0.73672374616E+03  0.73672374616E+03  0.00000000000E+00 0. -1.
         24    2    1    2    0    0 -0.97724753382E+02 -0.43477136903E+03 -0.49764543891E+03  0.67280240157E+03  0.80223549752E+02 0.  0.
        254    2    1    2    0    0  0.97724753382E+02  0.43477136903E+03  0.14466081974E+04  0.17496078493E+04  0.87742582515E+03 0.  0.
         23    2    4    4    0    0  0.12822660676E+03  0.68104567939E+03  0.12001173732E+04  0.13889908594E+04  0.93534046485E+02 0.  0.
         23    2    4    4    0    0 -0.30501853381E+02 -0.24627431036E+03  0.24649082419E+03  0.36061698988E+03  0.87780908963E+02 0.  0.
          2    1    3    3  502    0 -0.65815761637E+02 -0.40068728400E+03 -0.44889055924E+03  0.60529723956E+03  0.00000000000E+00 0. -1.
         -1    1    3    3    0  502 -0.31908991745E+02 -0.34084085029E+02 -0.48754879670E+02  0.67505162010E+02  0.00000000000E+00 0.  1.
         11    1    5    5    0    0  0.92653551426E+02  0.24720344622E+03  0.45230560689E+03  0.52371231267E+03  0.00000000000E+00 0. -1.
        -11    1    5    5    0    0  0.35573055336E+02  0.43384223317E+03  0.74781176633E+03  0.86527854672E+03  0.00000000000E+00 0.  1.
          1    1    6    6  503    0 -0.23539159331E+02 -0.24128414785E+02  0.66747075060E+02  0.74775961720E+02  0.00000000000E+00 0. -1.
         -1    1    6    6    0  503 -0.69626940496E+01 -0.22214589557E+03  0.17974374913E+03  0.28584102816E+03  0.00000000000E+00 0.  1.
<mgrwt>
<rscale>  0 0.22287981E+04</rscale>
<asrwt>0</asrwt>
<pdfrwt beam="1">  1        2 0.11334212E+00 0.22287981E+04</pdfrwt>
<pdfrwt beam="2">  1       -1 0.25933638E+00 0.22287981E+04</pdfrwt>
<totfact> 0.24200181E+00</totfact>
</mgrwt>
</event>
<event>
12    6  0.1450532E-007  0.1509529E+04  0.7818608E-02  0.8878141E-01
         -1   -1    0    0    0  501 -0.00000000000E+00  0.00000000000E+00  0.67957982892E+03  0.67957982892E+03  0.00000000000E+00 0.  1.
          2   -1    0    0  501    0  0.00000000000E+00 -0.00000000000E+00 -0.83826721745E+03  0.83826721745E+03  0.00000000000E+00 0. -1.
         24    2    1    2    0    0 -0.91880372675E+01  0.31689997051E+03 -0.41461685360E+03  0.52774663398E+03  0.78098418992E+02 0.  0.
        254    2    1    2    0    0  0.91880372675E+01 -0.31689997051E+03  0.25592946507E+03  0.99010041239E+03  0.90237958985E+03 0.  0.
         23    2    4    4    0    0  0.89516796026E+02  0.11648462990E+02  0.52988457852E+03  0.54529463632E+03  0.91758543948E+02 0.  0.
         23    2    4    4    0    0 -0.80328758759E+02 -0.32854843350E+03 -0.27395511344E+03  0.44480577607E+03  0.91673287291E+02 0.  0.
          2    1    3    3  502    0  0.45433056612E+01  0.24688887825E+03 -0.36562982222E+03  0.44120281813E+03  0.00000000000E+00 0. -1.
         -1    1    3    3    0  502 -0.13731342929E+02  0.70011092258E+02 -0.48987031375E+02  0.86543815844E+02  0.00000000000E+00 0.  1.
         11    1    5    5    0    0  0.17659887377E+02 -0.28585609249E+02  0.64991492279E+02  0.73163534271E+02  0.00000000000E+00 0.  1.
        -11    1    5    5    0    0  0.71856908649E+02  0.40234072239E+02  0.46489308624E+03  0.47213110205E+03  0.00000000000E+00 0. -1.
          1    1    6    6  503    0 -0.14407636111E+01  0.48833310491E+01 -0.13457586218E+02  0.14388514472E+02  0.00000000000E+00 0.  1.
         -1    1    6    6    0  503 -0.78887995148E+02 -0.33343176455E+03 -0.26049752723E+03  0.43041726160E+03  0.00000000000E+00 0. -1.
<mgrwt>
<rscale>  0 0.15095291E+04</rscale>
<asrwt>0</asrwt>
<pdfrwt beam="1">  1        2 0.12896419E+00 0.15095291E+04</pdfrwt>
<pdfrwt beam="2">  1       -1 0.10455074E+00 0.15095291E+04</pdfrwt>
<totfact> 0.30666791E+01</totfact>
</mgrwt>
</event>
<event>
12    6  0.1450532E-007  0.2666038E+04  0.7818608E-02  0.8346109E-01
         -1   -1    0    0    0  501 -0.00000000000E+00  0.00000000000E+00  0.22001203657E+04  0.22001203657E+04  0.00000000000E+00 0.  1.
          2   -1    0    0  501    0  0.00000000000E+00 -0.00000000000E+00 -0.80765593458E+03  0.80765593458E+03  0.00000000000E+00 0. -1.
         24    2    1    2    0    0 -0.94332753482E+03  0.16762862664E+03  0.13986465989E+04  0.16972288354E+04  0.80045091895E+02 0.  0.
        254    2    1    2    0    0  0.94332753482E+03 -0.16762862664E+03 -0.61821677525E+01  0.13105474649E+04  0.89416455092E+03 0.  0.
         23    2    4    4    0    0  0.35729462216E+03 -0.70117024890E+02  0.42816180784E+03  0.56913607841E+03  0.89540481590E+02 0.  0.
         23    2    4    4    0    0  0.58603291265E+03 -0.97511601753E+02 -0.43434397560E+03  0.74141138649E+03  0.89961478890E+02 0.  0.
          2    1    3    3  502    0 -0.45788643054E+02 -0.54955502998E+01  0.50254637489E+02  0.68207987032E+02  0.00000000000E+00 0. -1.
         -1    1    3    3    0  502 -0.89753889176E+03  0.17312417694E+03  0.13483919614E+04  0.16290208484E+04  0.00000000000E+00 0.  1.
         11    1    5    5    0    0  0.19229856348E+03 -0.72321168755E+02  0.28058318916E+03  0.34775855850E+03  0.00000000000E+00 0. -1.
        -11    1    5    5    0    0  0.16499605868E+03  0.22041438649E+01  0.14757861868E+03  0.22137751991E+03  0.00000000000E+00 0.  1.
          4    1    6    6  503    0  0.32461867421E+03 -0.99106359602E+02 -0.24148143225E+03  0.41654848011E+03  0.00000000000E+00 0.  1.
         -4    1    6    6    0  503  0.26141423845E+03  0.15947578484E+01 -0.19286254334E+03  0.32486290638E+03  0.00000000000E+00 0. -1.
<mgrwt>
<rscale>  0 0.26660385E+04</rscale>
<asrwt>0</asrwt>
<pdfrwt beam="1">  1        2 0.12425476E+00 0.26660385E+04</pdfrwt>
<pdfrwt beam="2">  1       -1 0.33848005E+00 0.26660385E+04</pdfrwt>
<totfact> 0.63178068E-01</totfact>
</mgrwt>
</event>
<event>
12    6  0.1450532E-007  0.1517977E+04  0.7818608E-02  0.8872586E-01
          2   -1    0    0  501    0  0.00000000000E+00  0.00000000000E+00  0.19820689238E+04  0.19820689238E+04  0.00000000000E+00 0. -1.
         -1   -1    0    0    0  501 -0.00000000000E+00 -0.00000000000E+00 -0.29063739098E+03  0.29063739098E+03  0.00000000000E+00 0.  1.
         24    2    1    2    0    0  0.47343054875E+03 -0.92270977227E+02  0.46200725343E+03  0.67261294496E+03  0.79416961510E+02 0.  0.
        254    2    1    2    0    0 -0.47343054875E+03  0.92270977227E+02  0.12294242794E+04  0.16000933698E+04  0.90341812891E+03 0.  0.
         23    2    4    4    0    0 -0.65340730288E+03  0.22959146688E+03  0.58577342407E+03  0.91177013919E+03  0.92417191288E+02 0.  0.
         23    2    4    4    0    0  0.17997675413E+03 -0.13732048966E+03  0.64365085531E+03  0.68832323062E+03  0.90850962339E+02 0.  0.
          4    1    3    3  502    0  0.58044610645E+02  0.71930640044E+01  0.32652078875E+02  0.66985634651E+02  0.00000000000E+00 0. -1.
         -3    1    3    3    0  502  0.41538593810E+03 -0.99464041232E+02  0.42935517455E+03  0.60562731031E+03  0.00000000000E+00 0.  1.
         11    1    5    5    0    0 -0.51026135163E+01  0.14532065010E+02  0.16814738106E+02  0.22802477842E+02  0.00000000000E+00 0. -1.
        -11    1    5    5    0    0 -0.64830468937E+03  0.21505940187E+03  0.56895868596E+03  0.88896766135E+03  0.00000000000E+00 0.  1.
          2    1    6    6  503    0  0.27103767319E+02 -0.73255463929E+02  0.19862955861E+03  0.21343542057E+03  0.00000000000E+00 0. -1.
         -2    1    6    6    0  503  0.15287298682E+03 -0.64065025728E+02  0.44502129670E+03  0.47488781005E+03  0.00000000000E+00 0.  1.
<mgrwt>
<rscale>  0 0.15179767E+04</rscale>
<asrwt>0</asrwt>
<pdfrwt beam="1">  1        2 0.30493367E+00 0.15179767E+04</pdfrwt>
<pdfrwt beam="2">  1       -1 0.44713446E-01 0.15179767E+04</pdfrwt>
<totfact> 0.37252240E+01</totfact>
</mgrwt>
</event>
<event>
12    6  0.1450532E-007  0.1361116E+04  0.7818608E-02  0.8982456E-01
          2   -1    0    0  501    0  0.00000000000E+00  0.00000000000E+00  0.24759741805E+04  0.24759741805E+04  0.00000000000E+00 0. -1.
         -1   -1    0    0    0  501 -0.00000000000E+00 -0.00000000000E+00 -0.18706132469E+03  0.18706132469E+03  0.00000000000E+00 0.  1.
         24    2    1    2    0    0  0.93407367642E+02  0.14923148395E+03 -0.39120857848E+01  0.19329852556E+03  0.79712253990E+02 0.  0.
        254    2    1    2    0    0 -0.93407367642E+02 -0.14923148395E+03  0.22928249416E+04  0.24697369796E+04  0.90086600757E+03 0.  0.
         23    2    4    4    0    0 -0.30627980165E+03  0.18155567177E+03  0.43873509295E+03  0.57214947367E+03  0.89981995865E+02 0.  0.
         23    2    4    4    0    0  0.21287243401E+03 -0.33078715572E+03  0.18540898486E+04  0.18975875059E+04  0.91947595824E+02 0.  0.
          2    1    3    3  502    0 -0.10184263581E+02  0.26553624561E+02  0.14070111894E+02  0.31729832189E+02  0.00000000000E+00 0. -1.
         -1    1    3    3    0  502  0.10359163122E+03  0.12267785939E+03 -0.17982197679E+02  0.16156869337E+03  0.00000000000E+00 0.  1.
         11    1    5    5    0    0 -0.20023325042E+03  0.91874475180E+02  0.32503648640E+03  0.39266142063E+03  0.00000000000E+00 0.  1.
        -11    1    5    5    0    0 -0.10604655123E+03  0.89681196590E+02  0.11369860655E+03  0.17948805303E+03  0.00000000000E+00 0. -1.
          1    1    6    6  503    0  0.21814285440E+03 -0.33273679353E+03  0.18371679437E+04  0.18797569343E+04  0.00000000000E+00 0. -1.
         -1    1    6    6    0  503 -0.52704203942E+01  0.19496378031E+01  0.16921904887E+02  0.17830571604E+02  0.00000000000E+00 0.  1.
<mgrwt>
<rscale>  0 0.13611157E+04</rscale>
<asrwt>0</asrwt>
<pdfrwt beam="1">  1        2 0.38091908E+00 0.13611157E+04</pdfrwt>
<pdfrwt beam="2">  1       -1 0.28778667E-01 0.13611157E+04</pdfrwt>
<totfact> 0.44022667E+01</totfact>
</mgrwt>
</event>
<event>
12    6  0.1450532E-007  0.1470262E+04  0.7818608E-02  0.8904472E-01
          2   -1    0    0  501    0  0.00000000000E+00  0.00000000000E+00  0.14013297015E+04  0.14013297015E+04  0.00000000000E+00 0. -1.
         -1   -1    0    0    0  501 -0.00000000000E+00 -0.00000000000E+00 -0.38564652480E+03  0.38564652480E+03  0.00000000000E+00 0.  1.
         24    2    1    2    0    0  0.23624834272E+03  0.16633772468E+03  0.74676756816E+03  0.80469991973E+03  0.79991511233E+02 0.  0.
        254    2    1    2    0    0 -0.23624834272E+03 -0.16633772468E+03  0.26891560855E+03  0.98227630658E+03  0.89948297364E+03 0.  0.
         23    2    4    4    0    0  0.44524941209E+02  0.21257062279E+03 -0.19929078481E+03  0.31123570554E+03  0.99910497091E+02 0.  0.
         23    2    4    4    0    0 -0.28077328393E+03 -0.37890834747E+03  0.46820639336E+03  0.67104060104E+03  0.93129419153E+02 0.  0.
          4    1    3    3  502    0  0.17876191165E+03  0.14485817752E+03  0.49973514953E+03  0.55015900641E+03  0.00000000000E+00 0. -1.
         -3    1    3    3    0  502  0.57486431066E+02  0.21479547161E+02  0.24703241862E+03  0.25454091332E+03  0.00000000000E+00 0.  1.
         11    1    5    5    0    0  0.30028074521E+01  0.19248293286E+03 -0.15317231437E+03  0.24600905306E+03  0.00000000000E+00 0.  1.
        -11    1    5    5    0    0  0.41522133757E+02  0.20087689927E+02 -0.46118470442E+02  0.65226652484E+02  0.00000000000E+00 0. -1.
          2    1    6    6  503    0 -0.12073592628E+03 -0.95338474199E+02  0.12805215356E+03  0.20015979264E+03  0.00000000000E+00 0. -1.
         -2    1    6    6    0  503 -0.16003735765E+03 -0.28356987327E+03  0.34015423980E+03  0.47088080840E+03  0.00000000000E+00 0.  1.
<mgrwt>
<rscale>  0 0.14702625E+04</rscale>
<asrwt>0</asrwt>
<pdfrwt beam="1">  1        2 0.21558918E+00 0.14702625E+04</pdfrwt>
<pdfrwt beam="2">  1       -1 0.59330235E-01 0.14702625E+04</pdfrwt>
<totfact> 0.45907620E+01</totfact>
</mgrwt>
</event>
<event>
12    6  0.1450532E-007  0.2487111E+04  0.7818608E-02  0.8407592E-01
          2   -1    0    0  501    0  0.00000000000E+00  0.00000000000E+00  0.58639714270E+03  0.58639714270E+03  0.00000000000E+00 0. -1.
         -1   -1    0    0    0  501 -0.00000000000E+00 -0.00000000000E+00 -0.26371726772E+04  0.26371726772E+04  0.00000000000E+00 0.  1.
         24    2    1    2    0    0  0.59586304113E+03  0.46689268429E+03  0.97897948164E+02  0.76710955804E+03  0.76364411631E+02 0.  0.
        254    2    1    2    0    0 -0.59586304113E+03 -0.46689268429E+03 -0.21486734826E+04  0.24564602618E+04  0.91888940605E+03 0.  0.
         23    2    4    4    0    0 -0.65797045279E+03  0.29870364792E+02 -0.10083598369E+04  0.12077359499E+04  0.89550033926E+02 0.  0.
         23    2    4    4    0    0  0.62107411664E+02 -0.49676304908E+03 -0.11403136458E+04  0.12487243119E+04  0.91467693895E+02 0.  0.
          2    1    3    3  502    0  0.47942395926E+03  0.33662926702E+03  0.66111416263E+02  0.58952295586E+03  0.00000000000E+00 0. -1.
         -3    1    3    3    0  502  0.11643908187E+03  0.13026341727E+03  0.31786531901E+02  0.17758660219E+03  0.00000000000E+00 0.  1.
         11    1    5    5    0    0 -0.30827441112E+02  0.19654724479E+02 -0.42201818855E+02  0.55835766624E+02  0.00000000000E+00 0. -1.
        -11    1    5    5    0    0 -0.62714301168E+03  0.10215640314E+02 -0.96615801804E+03  0.11519001833E+04  0.00000000000E+00 0.  1.
          4    1    6    6  503    0 -0.16366470770E+02 -0.10515025741E+03 -0.30021496160E+03  0.31851759946E+03  0.00000000000E+00 0. -1.
         -4    1    6    6    0  503  0.78473882435E+02 -0.39161279167E+03 -0.84009868416E+03  0.93020671248E+03  0.00000000000E+00 0.  1.
<mgrwt>
<rscale>  0 0.24871112E+04</rscale>
<asrwt>0</asrwt>
<pdfrwt beam="1">  1        2 0.90214946E-01 0.24871112E+04</pdfrwt>
<pdfrwt beam="2">  1       -1 0.40571887E+00 0.24871112E+04</pdfrwt>
<totfact> 0.33959253E-01</totfact>
</mgrwt>
</event>
<event>
12    6  0.1450532E-007  0.1145455E+04  0.7818608E-02  0.9161987E-01
         -1   -1    0    0    0  501 -0.00000000000E+00  0.00000000000E+00  0.10104645975E+03  0.10104645975E+03  0.00000000000E+00 0.  1.
          2   -1    0    0  501    0  0.00000000000E+00 -0.00000000000E+00 -0.32461962333E+04  0.32461962333E+04  0.00000000000E+00 0. -1.
         24    2    1    2    0    0  0.11484343195E+03 -0.10588317564E+02 -0.11523181809E+04  0.11616532951E+04  0.91104674896E+02 0.  0.
        254    2    1    2    0    0 -0.11484343195E+03  0.10588317564E+02 -0.19928315927E+04  0.21855893979E+04  0.89001243430E+03 0.  0.
         23    2    4    4    0    0  0.30593564428E+03 -0.18842121896E+03 -0.52312632864E+03  0.64121951542E+03  0.91663171728E+02 0.  0.
         23    2    4    4    0    0 -0.42077907623E+03  0.19900953652E+03 -0.14697052640E+04  0.15443698825E+04  0.91569341000E+02 0.  0.
          2    1    3    3  502    0  0.12201010054E+03 -0.31408797038E+01 -0.80670318765E+03  0.81588379242E+03  0.00000000000E+00 0. -1.
         -1    1    3    3    0  502 -0.71666685839E+01 -0.74474378598E+01 -0.34561499323E+03  0.34576950272E+03  0.00000000000E+00 0.  1.
         11    1    5    5    0    0  0.11534807126E+03 -0.11227816866E+03 -0.28074395035E+03  0.32361818608E+03  0.00000000000E+00 0.  1.
        -11    1    5    5    0    0  0.19058757302E+03 -0.76143050296E+02 -0.24238237829E+03  0.31760132935E+03  0.00000000000E+00 0. -1.
          3    1    6    6  503    0 -0.27946782502E+03  0.94422729263E+02 -0.10099305262E+04  0.10521300228E+04  0.00000000000E+00 0. -1.
         -3    1    6    6    0  503 -0.14131125121E+03  0.10458680726E+03 -0.45977473782E+03  0.49223985973E+03  0.00000000000E+00 0.  1.
<mgrwt>
<rscale>  0 0.11454547E+04</rscale>
<asrwt>0</asrwt>
<pdfrwt beam="1">  1        2 0.49941474E+00 0.11454547E+04</pdfrwt>
<pdfrwt beam="2">  1       -1 0.15545611E-01 0.11454547E+04</pdfrwt>
<totfact> 0.43287532E+01</totfact>
</mgrwt>
</event>
<event>
12    6  0.1450532E-007  0.3029351E+04  0.7818608E-02  0.8235399E-01
          2   -1    0    0  501    0  0.00000000000E+00  0.00000000000E+00  0.23566712726E+04  0.23566712726E+04  0.00000000000E+00 0. -1.
         -1   -1    0    0    0  501 -0.00000000000E+00 -0.00000000000E+00 -0.97350949164E+03  0.97350949164E+03  0.00000000000E+00 0.  1.
         24    2    1    2    0    0  0.52147220580E+03  0.10531113996E+04 -0.15784411018E+03  0.11884049528E+04  0.80091742350E+02 0.  0.
        254    2    1    2    0    0 -0.52147220580E+03 -0.10531113996E+04  0.15410058911E+04  0.21417758115E+04  0.91188134576E+03 0.  0.
         23    2    4    4    0    0 -0.47337543822E+03 -0.14827779711E+03  0.25702983946E+03  0.56754453119E+03  0.99859130181E+02 0.  0.
         23    2    4    4    0    0 -0.48096767579E+02 -0.90483360250E+03  0.12839760517E+04  0.15742312803E+04  0.92587663023E+02 0.  0.
          2    1    3    3  502    0  0.90496966198E+02  0.24696085445E+03 -0.52807595186E+02  0.26826853455E+03  0.00000000000E+00 0. -1.
         -1    1    3    3    0  502  0.43097523960E+03  0.80615054517E+03 -0.10503651499E+03  0.92013641820E+03  0.00000000000E+00 0.  1.
         11    1    5    5    0    0 -0.42386291418E+03 -0.10306941533E+03  0.24195458173E+03  0.49882371036E+03  0.00000000000E+00 0. -1.
        -11    1    5    5    0    0 -0.49512524041E+02 -0.45208381780E+02  0.15075257732E+02  0.68720820831E+02  0.00000000000E+00 0.  1.
          1    1    6    6  503    0 -0.91283253451E+01 -0.76934667164E+03  0.10668245419E+04  0.13153297042E+04  0.00000000000E+00 0. -1.
         -1    1    6    6    0  503 -0.38968442234E+02 -0.13548693086E+03  0.21715150973E+03  0.25890157609E+03  0.00000000000E+00 0.  1.
<mgrwt>
<rscale>  0 0.30293510E+04</rscale>
<asrwt>0</asrwt>
<pdfrwt beam="1">  1        2 0.36256481E+00 0.30293510E+04</pdfrwt>
<pdfrwt beam="2">  1       -1 0.14977069E+00 0.30293510E+04</pdfrwt>
<totfact> 0.14313342E+00</totfact>
</mgrwt>
</event>
<event>
12    6  0.1450532E-007  0.2621773E+04  0.7818608E-02  0.8360843E-01
         -1   -1    0    0    0  501 -0.00000000000E+00  0.00000000000E+00  0.52841319817E+03  0.52841319817E+03  0.00000000000E+00 0.  1.
          2   -1    0    0  501    0  0.00000000000E+00 -0.00000000000E+00 -0.32520442130E+04  0.32520442130E+04  0.00000000000E+00 0. -1.
         24    2    1    2    0    0 -0.12326195471E+03 -0.57252573722E+02  0.45217946361E+03  0.47890098933E+03  0.80053254731E+02 0.  0.
        254    2    1    2    0    0  0.12326195471E+03  0.57252573722E+02 -0.31758104784E+04  0.33015564218E+04  0.89220583106E+03 0.  0.
         23    2    4    4    0    0  0.35263565344E+03 -0.29706365830E+03 -0.17036877860E+04  0.17674101026E+04  0.92669722461E+02 0.  0.
         23    2    4    4    0    0 -0.22937369873E+03  0.35431623202E+03 -0.14721226924E+04  0.15341463192E+04  0.91145056368E+02 0.  0.
          4    1    3    3  502    0 -0.52020785227E+02  0.99669352931E+00  0.79383761000E+02  0.94915420265E+02  0.00000000000E+00 0. -1.
         -3    1    3    3    0  502 -0.71241169481E+02 -0.58249267252E+02  0.37279570261E+03  0.38398556906E+03  0.00000000000E+00 0.  1.
         11    1    5    5    0    0  0.79550417691E+02 -0.10593005647E+03 -0.38122802975E+03  0.40358921750E+03  0.00000000000E+00 0. -1.
        -11    1    5    5    0    0  0.27308523575E+03 -0.19113360183E+03 -0.13224597563E+04  0.13638208851E+04  0.00000000000E+00 0.  1.
          3    1    6    6  503    0 -0.22781249035E+03  0.35992836312E+03 -0.14505541441E+04  0.15118049750E+04  0.00000000000E+00 0. -1.
         -3    1    6    6    0  503 -0.15612083842E+01 -0.56121310941E+01 -0.21568548233E+02  0.22341344183E+02  0.00000000000E+00 0.  1.
<mgrwt>
<rscale>  0 0.26217727E+04</rscale>
<asrwt>0</asrwt>
<pdfrwt beam="1">  1        2 0.50031451E+00 0.26217727E+04</pdfrwt>
<pdfrwt beam="2">  1       -1 0.81294336E-01 0.26217727E+04</pdfrwt>
<totfact> 0.18139014E+00</totfact>
</mgrwt>
</event>
<event>
12    6  0.1450532E-007  0.2538691E+04  0.7818608E-02  0.8389330E-01
         -1   -1    0    0    0  501 -0.00000000000E+00  0.00000000000E+00  0.12133602516E+04  0.12133602516E+04  0.00000000000E+00 0.  1.
          2   -1    0    0  501    0  0.00000000000E+00 -0.00000000000E+00 -0.13279140850E+04  0.13279140850E+04  0.00000000000E+00 0. -1.
         24    2    1    2    0    0 -0.91053321085E+03  0.15142559294E+03  0.56419820760E+03  0.10847329583E+04  0.79533232782E+02 0.  0.
        254    2    1    2    0    0  0.91053321085E+03 -0.15142559294E+03 -0.67875204105E+03  0.14565413783E+04  0.89933754238E+03 0.  0.
         23    2    4    4    0    0  0.13923771728E+03  0.23046955822E+03  0.91903639079E+02  0.29773921650E+03  0.87743962664E+02 0.  0.
         23    2    4    4    0    0  0.77129549357E+03 -0.38189515116E+03 -0.77065568013E+03  0.11588021618E+04  0.90397057164E+02 0.  0.
          2    1    3    3  502    0  0.47998776381E+00  0.30815444820E+01  0.38139544813E+01  0.49267183230E+01  0.00000000000E+00 0. -1.
         -1    1    3    3    0  502 -0.91101319862E+03  0.14834404845E+03  0.56038425312E+03  0.10798062400E+04  0.00000000000E+00 0.  1.
         11    1    5    5    0    0  0.12019105245E+03  0.22649398353E+03  0.10183880570E+03  0.27589229060E+03  0.00000000000E+00 0. -1.
        -11    1    5    5    0    0  0.19046664833E+02  0.39755746907E+01 -0.99351666250E+01  0.21846925899E+02  0.00000000000E+00 0.  1.
          3    1    6    6  503    0  0.50717408461E+03 -0.22439226542E+03 -0.44660598111E+03  0.71206344047E+03  0.00000000000E+00 0. -1.
         -3    1    6    6    0  503  0.26412140896E+03 -0.15750288574E+03 -0.32404969902E+03  0.44673872131E+03  0.00000000000E+00 0.  1.
<mgrwt>
<rscale>  0 0.25386911E+04</rscale>
<asrwt>0</asrwt>
<pdfrwt beam="1">  1        2 0.20429447E+00 0.25386911E+04</pdfrwt>
<pdfrwt beam="2">  1       -1 0.18667081E+00 0.25386911E+04</pdfrwt>
<totfact> 0.30086332E+00</totfact>
</mgrwt>
</event>
<event>
12    6  0.1450532E-007  0.1962017E+04  0.7818608E-02  0.8624588E-01
          2   -1    0    0  501    0  0.00000000000E+00  0.00000000000E+00  0.13074995681E+04  0.13074995681E+04  0.00000000000E+00 0. -1.
         -1   -1    0    0    0  501 -0.00000000000E+00 -0.00000000000E+00 -0.73604429284E+03  0.73604429284E+03  0.00000000000E+00 0.  1.
         24    2    1    2    0    0 -0.18837522578E+03  0.74690185447E+03  0.18819163453E+03  0.79712209081E+03  0.81485768369E+02 0.  0.
        254    2    1    2    0    0  0.18837522578E+03 -0.74690185447E+03  0.38326364076E+03  0.12464217702E+04  0.90184732903E+03 0.  0.
         23    2    4    4    0    0  0.35675599578E+03 -0.47961606199E+03  0.60022474013E+03  0.85190263048E+03  0.90343487330E+02 0.  0.
         23    2    4    4    0    0 -0.16838077000E+03 -0.26728579248E+03 -0.21696109937E+03  0.39451913968E+03  0.93698742610E+02 0.  0.
          4    1    3    3  502    0  0.77849162118E+01  0.18169466123E+02  0.73138359437E+01  0.21076684176E+02  0.00000000000E+00 0. -1.
         -3    1    3    3    0  502 -0.19616014200E+03  0.72873238835E+03  0.18087779859E+03  0.77604540663E+03  0.00000000000E+00 0.  1.
         11    1    5    5    0    0  0.24370439021E+03 -0.30379041726E+03  0.44612836824E+03  0.59220855142E+03  0.00000000000E+00 0.  1.
        -11    1    5    5    0    0  0.11305160557E+03 -0.17582564473E+03  0.15409637189E+03  0.25969407906E+03  0.00000000000E+00 0. -1.
          3    1    6    6  503    0 -0.34054117068E+02 -0.62595377399E+01 -0.34475547126E+02  0.48861314469E+02  0.00000000000E+00 0. -1.
         -3    1    6    6    0  503 -0.13432665293E+03 -0.26102625474E+03 -0.18248555224E+03  0.34565782521E+03  0.00000000000E+00 0.  1.
<mgrwt>
<rscale>  0 0.19620169E+04</rscale>
<asrwt>0</asrwt>
<pdfrwt beam="1">  1        2 0.20115378E+00 0.19620169E+04</pdfrwt>
<pdfrwt beam="2">  1       -1 0.11323758E+00 0.19620169E+04</pdfrwt>
<totfact> 0.12383872E+01</totfact>
</mgrwt>
</event>
<event>
12    6  0.1450532E-007  0.1060634E+04  0.7818608E-02  0.9244434E-01
         -1   -1    0    0    0  501 -0.00000000000E+00  0.00000000000E+00  0.71294264173E+03  0.71294264173E+03  0.00000000000E+00 0.  1.
          2   -1    0    0  501    0  0.00000000000E+00 -0.00000000000E+00 -0.39447207318E+03  0.39447207318E+03  0.00000000000E+00 0. -1.
         24    2    1    2    0    0 -0.95888986762E+02 -0.89525668849E+02  0.78145677336E+02  0.17205138730E+03  0.79280450440E+02 0.  0.
        254    2    1    2    0    0  0.95888986762E+02  0.89525668849E+02  0.24032489122E+03  0.93536332761E+03  0.89439306691E+03 0.  0.
         23    2    4    4    0    0  0.46668225371E+03 -0.63798227918E+02  0.20707066775E+03  0.52258954607E+03  0.91427744178E+02 0.  0.
         23    2    4    4    0    0 -0.37079326695E+03  0.15332389677E+03  0.33254223468E+02  0.41277378154E+03  0.90997182426E+02 0.  0.
          4    1    3    3  502    0  0.56475656514E+01 -0.26485782735E+02  0.36583380052E+02  0.45516319941E+02  0.00000000000E+00 0. -1.
         -3    1    3    3    0  502 -0.10153655241E+03 -0.63039886114E+02  0.41562297283E+02  0.12653506736E+03  0.00000000000E+00 0.  1.
         11    1    5    5    0    0  0.78095467749E+02 -0.45509202429E+02  0.30707070509E+02  0.95461582681E+02  0.00000000000E+00 0.  1.
        -11    1    5    5    0    0  0.38858678597E+03 -0.18289025489E+02  0.17636359724E+03  0.42712796339E+03  0.00000000000E+00 0. -1.
          3    1    6    6  503    0 -0.38373644841E+02 -0.11331880298E+02 -0.25050755665E+01  0.40090192480E+02  0.00000000000E+00 0. -1.
         -3    1    6    6    0  503 -0.33241962211E+03  0.16465577707E+03  0.35759299034E+02  0.37268358906E+03  0.00000000000E+00 0.  1.
<mgrwt>
<rscale>  0 0.10606337E+04</rscale>
<asrwt>0</asrwt>
<pdfrwt beam="1">  1        2 0.60688011E-01 0.10606337E+04</pdfrwt>
<pdfrwt beam="2">  1       -1 0.10968348E+00 0.10606337E+04</pdfrwt>
<totfact> 0.70742629E+01</totfact>
</mgrwt>
</event>
<event>
12    6  0.1450532E-007  0.2333238E+04  0.7818608E-02  0.8464930E-01
         -1   -1    0    0    0  501 -0.00000000000E+00  0.00000000000E+00  0.48767203576E+03  0.48767203576E+03  0.00000000000E+00 0.  1.
          2   -1    0    0  501    0  0.00000000000E+00 -0.00000000000E+00 -0.27908097905E+04  0.27908097905E+04  0.00000000000E+00 0. -1.
         24    2    1    2    0    0 -0.25138777824E+03 -0.53797567225E+03 -0.20900337703E+04  0.21741664236E+04  0.78389013630E+02 0.  0.
        254    2    1    2    0    0  0.25138777824E+03  0.53797567225E+03 -0.21310398439E+03  0.11043154026E+04  0.90635840668E+03 0.  0.
         23    2    4    4    0    0 -0.61034899809E+02  0.13155038554E+03 -0.48700000217E+03  0.51591140071E+03  0.89245774913E+02 0.  0.
         23    2    4    4    0    0  0.31242267805E+03  0.40642528672E+03  0.27389601778E+03  0.58840400193E+03  0.91710400089E+02 0.  0.
          2    1    3    3  502    0 -0.21290173797E+03 -0.39974958708E+03 -0.14964023704E+04  0.15634407365E+04  0.00000000000E+00 0. -1.
         -1    1    3    3    0  502 -0.38486040272E+02 -0.13822608518E+03 -0.59363139999E+03  0.61072568717E+03  0.00000000000E+00 0.  1.
         11    1    5    5    0    0 -0.58391201311E+02  0.41229358216E+02 -0.13812524062E+03  0.15552483553E+03  0.00000000000E+00 0.  1.
        -11    1    5    5    0    0 -0.26436984979E+01  0.90321027323E+02 -0.34887476155E+03  0.36038656518E+03  0.00000000000E+00 0. -1.
          2    1    6    6  503    0  0.27554185249E+03  0.31239485549E+03  0.19345171709E+03  0.45927924518E+03  0.00000000000E+00 0.  1.
         -2    1    6    6    0  503  0.36880825558E+02  0.94030431227E+02  0.80444300688E+02  0.12912475674E+03  0.00000000000E+00 0. -1.
<mgrwt>
<rscale>  0 0.23332380E+04</rscale>
<asrwt>0</asrwt>
<pdfrwt beam="1">  1        2 0.42935535E+00 0.23332380E+04</pdfrwt>
<pdfrwt beam="2">  1       -1 0.75026467E-01 0.23332380E+04</pdfrwt>
<totfact> 0.43053789E+00</totfact>
</mgrwt>
</event>
<event>
12    6  0.1450532E-007  0.2845459E+04  0.7818608E-02  0.8289293E-01
          2   -1    0    0  501    0  0.00000000000E+00  0.00000000000E+00  0.23275113605E+04  0.23275113605E+04  0.00000000000E+00 0. -1.
         -1   -1    0    0    0  501 -0.00000000000E+00 -0.00000000000E+00 -0.86966660663E+03  0.86966660663E+03  0.00000000000E+00 0.  1.
         24    2    1    2    0    0  0.86993259254E+03  0.47897054147E+03  0.15617671836E+04  0.18525023442E+04  0.80328725853E+02 0.  0.
        254    2    1    2    0    0 -0.86993259254E+03 -0.47897054147E+03 -0.10392242975E+03  0.13446756229E+04  0.90064263966E+03 0.  0.
         23    2    4    4    0    0 -0.55404202237E+03 -0.65774720238E+03  0.16896799213E+03  0.88139942369E+03  0.93385314326E+02 0.  0.
         23    2    4    4    0    0 -0.31589057017E+03  0.17877666091E+03 -0.27289042187E+03  0.46327619925E+03  0.91693552832E+02 0.  0.
          2    1    3    3  502    0  0.70022329882E+03  0.40429858806E+03  0.13177078128E+04  0.15460025538E+04  0.00000000000E+00 0. -1.
         -1    1    3    3    0  502  0.16970929372E+03  0.74671953412E+02  0.24405937078E+03  0.30649979032E+03  0.00000000000E+00 0.  1.
         11    1    5    5    0    0 -0.47001190191E+03 -0.59851003718E+03  0.13337957984E+03  0.77260310954E+03  0.00000000000E+00 0.  1.
        -11    1    5    5    0    0 -0.84030120460E+02 -0.59237165195E+02  0.35588412284E+02  0.10879631416E+03  0.00000000000E+00 0. -1.
          1    1    6    6  503    0 -0.31747785351E+03  0.16533154190E+03 -0.27225721222E+03  0.44972291005E+03  0.00000000000E+00 0.  1.
         -1    1    6    6    0  503  0.15872833412E+01  0.13445119012E+02 -0.63320965217E+00  0.13553289199E+02  0.00000000000E+00 0. -1.
<mgrwt>
<rscale>  0 0.28454588E+04</rscale>
<asrwt>0</asrwt>
<pdfrwt beam="1">  1        2 0.35807867E+00 0.28454588E+04</pdfrwt>
<pdfrwt beam="2">  1       -1 0.13379486E+00 0.28454588E+04</pdfrwt>
<totfact> 0.20315601E+00</totfact>
</mgrwt>
</event>
<event>
12    6  0.1450532E-007  0.2025423E+04  0.7818608E-02  0.8594826E-01
          2   -1    0    0  501    0  0.00000000000E+00  0.00000000000E+00  0.25262797173E+04  0.25262797173E+04  0.00000000000E+00 0. -1.
         -1   -1    0    0    0  501 -0.00000000000E+00 -0.00000000000E+00 -0.40596617506E+03  0.40596617506E+03  0.00000000000E+00 0.  1.
         24    2    1    2    0    0  0.13241680299E+03  0.60907560499E+03  0.10211937525E+03  0.63648881393E+03  0.78627865018E+02 0.  0.
        254    2    1    2    0    0 -0.13241680299E+03 -0.60907560499E+03  0.20181941670E+04  0.22957570785E+04  0.89938065643E+03 0.  0.
         23    2    4    4    0    0 -0.42731000249E+03 -0.23890080896E+03  0.51466545161E+03  0.71679875267E+03  0.96189864389E+02 0.  0.
         23    2    4    4    0    0  0.29489319950E+03 -0.37017479603E+03  0.15035287154E+04  0.15789583258E+04  0.92300692015E+02 0.  0.
          2    1    3    3  502    0  0.31508339604E+02  0.32278075220E+03  0.63670322765E+02  0.33050582364E+03  0.00000000000E+00 0. -1.
         -1    1    3    3    0  502  0.10090846339E+03  0.28629485279E+03  0.38449052483E+02  0.30598299030E+03  0.00000000000E+00 0.  1.
         11    1    5    5    0    0 -0.12514157679E+02 -0.18260507185E+01  0.45366174992E+02  0.47095949264E+02  0.00000000000E+00 0.  1.
        -11    1    5    5    0    0 -0.41479584481E+03 -0.23707475824E+03  0.46929927661E+03  0.66970280341E+03  0.00000000000E+00 0. -1.
          3    1    6    6  503    0  0.16596165066E+03 -0.21989654305E+03  0.10176705927E+04  0.10543012826E+04  0.00000000000E+00 0. -1.
         -3    1    6    6    0  503  0.12893154884E+03 -0.15027825298E+03  0.48585812269E+03  0.52465704320E+03  0.00000000000E+00 0.  1.
<mgrwt>
<rscale>  0 0.20254225E+04</rscale>
<asrwt>0</asrwt>
<pdfrwt beam="1">  1        2 0.38865841E+00 0.20254225E+04</pdfrwt>
<pdfrwt beam="2">  1       -1 0.62456336E-01 0.20254225E+04</pdfrwt>
<totfact> 0.92276869E+00</totfact>
</mgrwt>
</event>
<event>
12    6  0.1450532E-007  0.2574368E+04  0.7818608E-02  0.8376960E-01
          2   -1    0    0  501    0  0.00000000000E+00  0.00000000000E+00  0.28854717176E+04  0.28854717176E+04  0.00000000000E+00 0. -1.
         -1   -1    0    0    0  501 -0.00000000000E+00 -0.00000000000E+00 -0.57420149126E+03  0.57420149126E+03  0.00000000000E+00 0.  1.
         24    2    1    2    0    0 -0.45270125039E+03 -0.11742768874E+03 -0.34272174487E+03  0.58524689364E+03  0.79549028400E+02 0.  0.
        254    2    1    2    0    0  0.45270125039E+03  0.11742768874E+03  0.26539919712E+04  0.28744263152E+04  0.99996278637E+03 0.  0.
         23    2    4    4    0    0  0.55591059716E+03  0.44757473938E+03  0.20542575636E+04  0.21765968792E+04  0.90774984409E+02 0.  0.
         23    2    4    4    0    0 -0.10320934677E+03 -0.33014705065E+03  0.59973440761E+03  0.69782943596E+03  0.87380305001E+02 0.  0.
          4    1    3    3  502    0 -0.24172617309E+03 -0.23434082082E+02 -0.16125331746E+03  0.29151900684E+03  0.00000000000E+00 0. -1.
         -3    1    3    3    0  502 -0.21097507730E+03 -0.93993606654E+02 -0.18146842741E+03  0.29372788680E+03  0.00000000000E+00 0.  1.
         11    1    5    5    0    0  0.41921168861E+03  0.28454689408E+03  0.14379247216E+04  0.15245762951E+04  0.00000000000E+00 0. -1.
        -11    1    5    5    0    0  0.13669890855E+03  0.16302784530E+03  0.61633284203E+03  0.65202058411E+03  0.00000000000E+00 0.  1.
          2    1    6    6  503    0 -0.96321092649E+02 -0.29880649442E+03  0.58171893108E+03  0.66102949160E+03  0.00000000000E+00 0. -1.
         -2    1    6    6    0  503 -0.68882541211E+01 -0.31340556232E+02  0.18015476535E+02  0.36799944355E+02  0.00000000000E+00 0.  1.
<mgrwt>
<rscale>  0 0.25743676E+04</rscale>
<asrwt>0</asrwt>
<pdfrwt beam="1">  1        2 0.44391872E+00 0.25743676E+04</pdfrwt>
<pdfrwt beam="2">  1       -1 0.88338693E-01 0.25743676E+04</pdfrwt>
<totfact> 0.26013410E+00</totfact>
</mgrwt>
</event>
<event>
12    6  0.1450532E-007  0.1972444E+04  0.7818608E-02  0.8619614E-01
          2   -1    0    0  501    0  0.00000000000E+00  0.00000000000E+00  0.24301190233E+04  0.24301190233E+04  0.00000000000E+00 0. -1.
         -1   -1    0    0    0  501 -0.00000000000E+00 -0.00000000000E+00 -0.40024105552E+03  0.40024105552E+03  0.00000000000E+00 0.  1.
         24    2    1    2    0    0  0.57216135309E+03  0.44921203134E+03  0.41403217048E+03  0.84088426142E+03  0.80645147653E+02 0.  0.
        254    2    1    2    0    0 -0.57216135309E+03 -0.44921203134E+03  0.16158457973E+04  0.19894758174E+04  0.90437620731E+03 0.  0.
         23    2    4    4    0    0 -0.29578495491E+03  0.12634341128E+03  0.10708587361E+03  0.34866433989E+03  0.81535516564E+02 0.  0.
         23    2    4    4    0    0 -0.27637639818E+03 -0.57555544261E+03  0.15087599237E+04  0.16408114775E+04  0.90872528467E+02 0.  0.
          4    1    3    3  502    0  0.48572985597E+03  0.36043614072E+03  0.37177558273E+03  0.70997520269E+03  0.00000000000E+00 0. -1.
         -3    1    3    3    0  502  0.86431497123E+02  0.88775890616E+02  0.42256587750E+02  0.13090905873E+03  0.00000000000E+00 0.  1.
         11    1    5    5    0    0 -0.33888185940E+02  0.38699413276E+02  0.38079823334E+02  0.64000989675E+02  0.00000000000E+00 0. -1.
        -11    1    5    5    0    0 -0.26189676897E+03  0.87643998003E+02  0.69006050278E+02  0.28466335022E+03  0.00000000000E+00 0.  1.
          2    1    6    6  503    0 -0.21088914592E+03 -0.41891849328E+03  0.10011498295E+04  0.11055622628E+04  0.00000000000E+00 0. -1.
         -2    1    6    6    0  503 -0.65487252268E+02 -0.15663694933E+03  0.50761009419E+03  0.53524921470E+03  0.00000000000E+00 0.  1.
<mgrwt>
<rscale>  0 0.19724436E+04</rscale>
<asrwt>0</asrwt>
<pdfrwt beam="1">  1        2 0.37386446E+00 0.19724436E+04</pdfrwt>
<pdfrwt beam="2">  1       -1 0.61575548E-01 0.19724436E+04</pdfrwt>
<totfact> 0.10837249E+01</totfact>
</mgrwt>
</event>
<event>
12    6  0.1858023E-007  0.1624634E+04  0.7818608E-02  0.8805556E-01
          2   -1    0    0  501    0  0.00000000000E+00  0.00000000000E+00  0.87202359711E+03  0.87202359711E+03  0.00000000000E+00 0. -1.
         -1   -1    0    0    0  501 -0.00000000000E+00 -0.00000000000E+00 -0.75669845398E+03  0.75669845398E+03  0.00000000000E+00 0.  1.
         24    2    1    2    0    0  0.98929592103E+02 -0.32153630740E+03  0.48693176758E+03  0.59688393637E+03  0.77428845027E+02 0.  0.
        254    2    1    2    0    0 -0.98929592103E+02  0.32153630740E+03 -0.37160662444E+03  0.10318381147E+04  0.90190118666E+03 0.  0.
         23    2    4    4    0    0 -0.39652195147E+03 -0.45182364439E+02 -0.36881708847E+03  0.55117672436E+03  0.92188028895E+02 0.  0.
         23    2    4    4    0    0  0.29759235936E+03  0.36671867184E+03 -0.27895359724E+01  0.48066139037E+03  0.89352079176E+02 0.  0.
          4    1    3    3  502    0  0.88596226494E+02 -0.29037432350E+03  0.47106953073E+03  0.56042219967E+03  0.00000000000E+00 0. -1.
         -3    1    3    3    0  502  0.10333365609E+02 -0.31161983896E+02  0.15862236854E+02  0.36461736699E+02  0.00000000000E+00 0.  1.
         11    1    5    5    0    0 -0.39473125627E+03 -0.45693156859E+02 -0.34194287529E+03  0.52423807494E+03  0.00000000000E+00 0.  1.
        -11    1    5    5    0    0 -0.17906952015E+01  0.51079242043E+00 -0.26874213179E+02  0.26938649413E+02  0.00000000000E+00 0. -1.
          3    1    6    6  503    0  0.25981612095E+03  0.28806624091E+03 -0.30473193240E+02  0.38912104976E+03  0.00000000000E+00 0.  1.
         -3    1    6    6    0  503  0.37776238416E+02  0.78652430928E+02  0.27683657268E+02  0.91540340612E+02  0.00000000000E+00 0. -1.
<mgrwt>
<rscale>  0 0.16246340E+04</rscale>
<asrwt>0</asrwt>
<pdfrwt beam="1">  1        2 0.13415748E+00 0.16246340E+04</pdfrwt>
<pdfrwt beam="2">  1       -1 0.11641515E+00 0.16246340E+04</pdfrwt>
<totfact> 0.22314917E+01</totfact>
</mgrwt>
</event>
<event>
12    6  0.1450532E-007  0.1989067E+04  0.7818608E-02  0.8611749E-01
         -1   -1    0    0    0  501 -0.00000000000E+00  0.00000000000E+00  0.47451145304E+03  0.47451145304E+03  0.00000000000E+00 0.  1.
          2   -1    0    0  501    0  0.00000000000E+00 -0.00000000000E+00 -0.20844528592E+04  0.20844528592E+04  0.00000000000E+00 0. -1.
         24    2    1    2    0    0 -0.71687985729E+03 -0.29970961222E+03 -0.80518071689E+03  0.11218103727E+04  0.79999650359E+02 0.  0.
        254    2    1    2    0    0  0.71687985729E+03  0.29970961222E+03 -0.80476068922E+03  0.14371539395E+04  0.90223561079E+03 0.  0.
         23    2    4    4    0    0  0.22986175376E+03  0.54439787322E+03 -0.59898415449E+03  0.84691413637E+03  0.96312340048E+02 0.  0.
         23    2    4    4    0    0  0.48701810354E+03 -0.24468826100E+03 -0.20577653473E+03  0.59023980310E+03  0.94763203160E+02 0.  0.
          4    1    3    3  502    0 -0.34946675639E+03 -0.15307408677E+03 -0.33868523534E+03  0.51016309011E+03  0.00000000000E+00 0. -1.
         -3    1    3    3    0  502 -0.36741310090E+03 -0.14663552545E+03 -0.46649548155E+03  0.61164728262E+03  0.00000000000E+00 0.  1.
         11    1    5    5    0    0  0.13378726016E+03  0.40313819494E+03 -0.38661616441E+03  0.57436181435E+03  0.00000000000E+00 0. -1.
        -11    1    5    5    0    0  0.96074493599E+02  0.14125967828E+03 -0.21236799007E+03  0.27255232201E+03  0.00000000000E+00 0.  1.
          2    1    6    6  503    0  0.28447455165E+03 -0.11492992499E+03 -0.15758320455E+03  0.34491611234E+03  0.00000000000E+00 0. -1.
         -2    1    6    6    0  503  0.20254355188E+03 -0.12975833601E+03 -0.48193330185E+02  0.24532369076E+03  0.00000000000E+00 0.  1.
<mgrwt>
<rscale>  0 0.19890669E+04</rscale>
<asrwt>0</asrwt>
<pdfrwt beam="1">  1        2 0.32068505E+00 0.19890669E+04</pdfrwt>
<pdfrwt beam="2">  1       -1 0.73001763E-01 0.19890669E+04</pdfrwt>
<totfact> 0.12004570E+01</totfact>
</mgrwt>
</event>
<event>
12    6  0.1450532E-007  0.1376985E+04  0.7818608E-02  0.8970648E-01
         -1   -1    0    0    0  501 -0.00000000000E+00  0.00000000000E+00  0.15087945019E+04  0.15087945019E+04  0.00000000000E+00 0.  1.
          2   -1    0    0  501    0  0.00000000000E+00 -0.00000000000E+00 -0.31417278343E+03  0.31417278343E+03  0.00000000000E+00 0. -1.
         24    2    1    2    0    0 -0.20227031927E+03  0.24047568158E+01  0.78086732998E+03  0.81053820975E+03  0.79368366066E+02 0.  0.
        254    2    1    2    0    0  0.20227031927E+03 -0.24047568158E+01  0.41375438847E+03  0.10124290755E+04  0.90161015640E+03 0.  0.
         23    2    4    4    0    0 -0.91960863514E+02  0.33459791459E+03  0.42604195039E+03  0.55741625553E+03  0.93747392349E+02 0.  0.
         23    2    4    4    0    0  0.29423118278E+03 -0.33700267140E+03 -0.12287561917E+02  0.45501282002E+03  0.82115118882E+02 0.  0.
          4    1    3    3  502    0 -0.25460057207E+02 -0.22547019706E+02  0.73582741365E+02  0.81061719926E+02  0.00000000000E+00 0. -1.
         -3    1    3    3    0  502 -0.17681026206E+03  0.24951776522E+02  0.70728458861E+03  0.72947648983E+03  0.00000000000E+00 0.  1.
         11    1    5    5    0    0 -0.35592407213E+02  0.23581713219E+02  0.40284058924E+02  0.58700273023E+02  0.00000000000E+00 0.  1.
        -11    1    5    5    0    0 -0.56368456301E+02  0.31101620137E+03  0.38575789146E+03  0.49871598250E+03  0.00000000000E+00 0. -1.
          1    1    6    6  503    0  0.14558185431E+03 -0.21871188398E+03 -0.28887795672E+02  0.26431698628E+03  0.00000000000E+00 0. -1.
         -1    1    6    6    0  503  0.14864932847E+03 -0.11829078743E+03  0.16600233755E+02  0.19069583374E+03  0.00000000000E+00 0.  1.
<mgrwt>
<rscale>  0 0.13769854E+04</rscale>
<asrwt>0</asrwt>
<pdfrwt beam="1">  1        2 0.48334276E-01 0.13769854E+04</pdfrwt>
<pdfrwt beam="2">  1       -1 0.23212223E+00 0.13769854E+04</pdfrwt>
<totfact> 0.10644697E+01</totfact>
</mgrwt>
</event>
<event>
12    6  0.1450532E-007  0.2519761E+04  0.7818608E-02  0.8395979E-01
         -1   -1    0    0    0  501 -0.00000000000E+00  0.00000000000E+00  0.15084786570E+04  0.15084786570E+04  0.00000000000E+00 0.  1.
          2   -1    0    0  501    0  0.00000000000E+00 -0.00000000000E+00 -0.10522517982E+04  0.10522517982E+04  0.00000000000E+00 0. -1.
         24    2    1    2    0    0 -0.48120859065E+03  0.19465350644E+03 -0.78364422167E+03  0.94328838385E+03  0.79012743647E+02 0.  0.
        254    2    1    2    0    0  0.48120859065E+03 -0.19465350644E+03  0.12398710805E+04  0.16174420714E+04  0.89965930366E+03 0.  0.
         23    2    4    4    0    0  0.64783519511E+03 -0.30063633713E+03  0.11915917029E+04  0.13919607664E+04  0.87128305694E+02 0.  0.
         23    2    4    4    0    0 -0.16662660446E+03  0.10598283069E+03  0.48279377599E+02  0.22548130492E+03  0.97540426769E+02 0.  0.
          2    1    3    3  502    0 -0.41378517622E+03  0.15157872825E+03 -0.70291381613E+03  0.82962769712E+03  0.00000000000E+00 0. -1.
         -1    1    3    3    0  502 -0.67423414432E+02  0.43074778185E+02 -0.80730405545E+02  0.11366068673E+03  0.00000000000E+00 0.  1.
         11    1    5    5    0    0  0.12553093257E+03 -0.88386337669E+02  0.30156642765E+03  0.33839691193E+03  0.00000000000E+00 0.  1.
        -11    1    5    5    0    0  0.52230426254E+03 -0.21224999946E+03  0.89002527525E+03  0.10535638545E+04  0.00000000000E+00 0. -1.
          2    1    6    6  503    0 -0.15710765092E+03  0.12360138864E+03  0.47363937202E+02  0.20543480669E+03  0.00000000000E+00 0. -1.
         -2    1    6    6    0  503 -0.95189535333E+01 -0.17618557944E+02  0.91544039651E+00  0.20046498236E+02  0.00000000000E+00 0.  1.
<mgrwt>
<rscale>  0 0.25197614E+04</rscale>
<asrwt>0</asrwt>
<pdfrwt beam="1">  1        2 0.16188489E+00 0.25197614E+04</pdfrwt>
<pdfrwt beam="2">  1       -1 0.23207364E+00 0.25197614E+04</pdfrwt>
<totfact> 0.21658035E+00</totfact>
</mgrwt>
</event>
<event>
12    6  0.1450532E-007  0.1293347E+04  0.7818608E-02  0.9034858E-01
         -1   -1    0    0    0  501 -0.00000000000E+00  0.00000000000E+00  0.21666779494E+03  0.21666779494E+03  0.00000000000E+00 0.  1.
          2   -1    0    0  501    0  0.00000000000E+00 -0.00000000000E+00 -0.19300811614E+04  0.19300811614E+04  0.00000000000E+00 0. -1.
         24    2    1    2    0    0 -0.28696271741E+03 -0.57059525020E+02 -0.68706761387E+03  0.75078579421E+03  0.77550062451E+02 0.  0.
        254    2    1    2    0    0  0.28696271741E+03  0.57059525020E+02 -0.10263457526E+04  0.13959631621E+04  0.89984674004E+03 0.  0.
         23    2    4    4    0    0  0.30719371171E+03 -0.27529954205E+03 -0.14084159319E+03  0.44536846053E+03  0.91427003100E+02 0.  0.
         23    2    4    4    0    0 -0.20230994300E+02  0.33235906707E+03 -0.88550415942E+03  0.95059470160E+03  0.92956052884E+02 0.  0.
          4    1    3    3  502    0 -0.16232664045E+03 -0.36013128759E+02 -0.48219729083E+03  0.51005990915E+03  0.00000000000E+00 0. -1.
         -3    1    3    3    0  502 -0.12463607696E+03 -0.21046396260E+02 -0.20487032304E+03  0.24072588506E+03  0.00000000000E+00 0.  1.
         11    1    5    5    0    0  0.46960683681E+02 -0.83266865763E+02 -0.56853989812E+02  0.11122523501E+03  0.00000000000E+00 0.  1.
        -11    1    5    5    0    0  0.26023302803E+03 -0.19203267629E+03 -0.83987603378E+02  0.33414322552E+03  0.00000000000E+00 0. -1.
          3    1    6    6  503    0 -0.85053416612E+01  0.25985141433E+03 -0.56753376309E+03  0.62425128804E+03  0.00000000000E+00 0. -1.
         -3    1    6    6    0  503 -0.11725652639E+02  0.72507652738E+02 -0.31797039632E+03  0.32634341356E+03  0.00000000000E+00 0.  1.
<mgrwt>
<rscale>  0 0.12933467E+04</rscale>
<asrwt>0</asrwt>
<pdfrwt beam="1">  1        2 0.29693556E+00 0.12933467E+04</pdfrwt>
<pdfrwt beam="2">  1       -1 0.33333507E-01 0.12933467E+04</pdfrwt>
<totfact> 0.69156341E+01</totfact>
</mgrwt>
</event>
<event>
12    6  0.1450532E-007  0.1996904E+04  0.7818608E-02  0.8608070E-01
         -1   -1    0    0    0  501 -0.00000000000E+00  0.00000000000E+00  0.62818159367E+03  0.62818159367E+03  0.00000000000E+00 0.  1.
          2   -1    0    0  501    0  0.00000000000E+00 -0.00000000000E+00 -0.15869716985E+04  0.15869716985E+04  0.00000000000E+00 0. -1.
         24    2    1    2    0    0 -0.36357527730E+03 -0.67178704827E+03 -0.65346829593E+03  0.10084661196E+04  0.80611911030E+02 0.  0.
        254    2    1    2    0    0  0.36357527730E+03  0.67178704827E+03 -0.30532180894E+03  0.12066871726E+04  0.88282937476E+03 0.  0.
         23    2    4    4    0    0  0.43984841701E+03  0.82021747059E+03 -0.37248044397E+03  0.10066858815E+04  0.91931789667E+02 0.  0.
         23    2    4    4    0    0 -0.76273139709E+02 -0.14843042232E+03  0.67158635029E+02  0.20000129103E+03  0.87413111399E+02 0.  0.
          4    1    3    3  502    0 -0.33484213284E+03 -0.59195709033E+03 -0.60778867438E+03  0.91210718855E+03  0.00000000000E+00 0. -1.
         -3    1    3    3    0  502 -0.28733144464E+02 -0.79829957945E+02 -0.45679621557E+02  0.96358931095E+02  0.00000000000E+00 0.  1.
         11    1    5    5    0    0  0.18987859088E+03  0.31116141036E+03 -0.18913510081E+03  0.41066700492E+03  0.00000000000E+00 0.  1.
        -11    1    5    5    0    0  0.24996982613E+03  0.50905606022E+03 -0.18334534316E+03  0.59601887662E+03  0.00000000000E+00 0. -1.
          1    1    6    6  503    0 -0.87762607327E+02 -0.14628551540E+03  0.47417702151E+02  0.17705978012E+03  0.00000000000E+00 0. -1.
         -1    1    6    6    0  503  0.11489467618E+02 -0.21449069199E+01  0.19740932878E+02  0.22941510908E+02  0.00000000000E+00 0.  1.
<mgrwt>
<rscale>  0 0.19969040E+04</rscale>
<asrwt>0</asrwt>
<pdfrwt beam="1">  1        2 0.24414949E+00 0.19969040E+04</pdfrwt>
<pdfrwt beam="2">  1       -1 0.96643325E-01 0.19969040E+04</pdfrwt>
<totfact> 0.12367466E+01</totfact>
</mgrwt>
</event>
<event>
12    6  0.1450532E-007  0.1514928E+04  0.7818608E-02  0.8874586E-01
          2   -1    0    0  501    0  0.00000000000E+00  0.00000000000E+00  0.20054467369E+04  0.20054467369E+04  0.00000000000E+00 0. -1.
         -1   -1    0    0    0  501 -0.00000000000E+00 -0.00000000000E+00 -0.28609679521E+03  0.28609679521E+03  0.00000000000E+00 0.  1.
         24    2    1    2    0    0 -0.53089175476E+02 -0.86597172459E+02  0.12880401068E+04  0.12945248182E+04  0.80185144302E+02 0.  0.
        254    2    1    2    0    0  0.53089175476E+02  0.86597172459E+02  0.43130983483E+03  0.99701871386E+03  0.89314086869E+03 0.  0.
         23    2    4    4    0    0  0.28790540465E+03  0.39070448859E+03  0.31246757327E+03  0.58461227325E+03  0.92714649636E+02 0.  0.
         23    2    4    4    0    0 -0.23481622917E+03 -0.30410731613E+03  0.11884226156E+03  0.41240644061E+03  0.91299879060E+02 0.  0.
          2    1    3    3  502    0 -0.74072544964E+02 -0.70360661808E+02  0.10734922011E+04  0.10783426499E+04  0.00000000000E+00 0. -1.
         -1    1    3    3    0  502  0.20983369488E+02 -0.16236510651E+02  0.21454790569E+03  0.21618216835E+03  0.00000000000E+00 0.  1.
         11    1    5    5    0    0  0.27767992957E+03  0.39506557284E+03  0.30368586139E+03  0.57044548603E+03  0.00000000000E+00 0.  1.
        -11    1    5    5    0    0  0.10225475080E+02 -0.43610842492E+01  0.87817118806E+01  0.14166787215E+02  0.00000000000E+00 0. -1.
          1    1    6    6  503    0 -0.15084639796E+03 -0.16960081588E+03  0.25497007548E+02  0.22840571341E+03  0.00000000000E+00 0. -1.
         -1    1    6    6    0  503 -0.83969831216E+02 -0.13450650025E+03  0.93345254011E+02  0.18400072720E+03  0.00000000000E+00 0.  1.
<mgrwt>
<rscale>  0 0.15149282E+04</rscale>
<asrwt>0</asrwt>
<pdfrwt beam="1">  1        2 0.30853026E+00 0.15149282E+04</pdfrwt>
<pdfrwt beam="2">  1       -1 0.44014893E-01 0.15149282E+04</pdfrwt>
<totfact> 0.37241231E+01</totfact>
</mgrwt>
</event>
<event>
12    6  0.1450532E-007  0.2052004E+04  0.7818608E-02  0.8582686E-01
         -1   -1    0    0    0  501 -0.00000000000E+00  0.00000000000E+00  0.54115607832E+03  0.54115607832E+03  0.00000000000E+00 0.  1.
          2   -1    0    0  501    0  0.00000000000E+00 -0.00000000000E+00 -0.19452424266E+04  0.19452424266E+04  0.00000000000E+00 0. -1.
         24    2    1    2    0    0  0.36743487526E+03  0.69558120546E+03 -0.25504344342E+03  0.83066753641E+03  0.78229131932E+02 0.  0.
        254    2    1    2    0    0 -0.36743487526E+03 -0.69558120546E+03 -0.11490429049E+04  0.16557309685E+04  0.89571415192E+03 0.  0.
         23    2    4    4    0    0  0.22900488933E+02 -0.77163256359E+01 -0.76720826018E+03  0.77302508051E+03  0.91516591537E+02 0.  0.
         23    2    4    4    0    0 -0.39033536419E+03 -0.68786487982E+03 -0.38183464469E+03  0.88270588802E+03  0.88612636943E+02 0.  0.
          4    1    3    3  502    0  0.13280436645E+03  0.17640555584E+03 -0.72605898436E+02  0.23243824205E+03  0.00000000000E+00 0. -1.
         -3    1    3    3    0  502  0.23463050881E+03  0.51917564962E+03 -0.18243754498E+03  0.59822929437E+03  0.00000000000E+00 0.  1.
         11    1    5    5    0    0  0.46132463122E+02 -0.10232736891E+02 -0.70485046919E+03  0.70643265565E+03  0.00000000000E+00 0. -1.
        -11    1    5    5    0    0 -0.23231974189E+02  0.25164112547E+01 -0.62357790993E+02  0.66592424854E+02  0.00000000000E+00 0.  1.
          3    1    6    6  503    0 -0.37649625689E+03 -0.63393267837E+03 -0.33454529920E+03  0.80965463586E+03  0.00000000000E+00 0. -1.
         -3    1    6    6    0  503 -0.13839107296E+02 -0.53932201452E+02 -0.47289345492E+02  0.73051252154E+02  0.00000000000E+00 0.  1.
<mgrwt>
<rscale>  0 0.20520037E+04</rscale>
<asrwt>0</asrwt>
<pdfrwt beam="1">  1        2 0.29926806E+00 0.20520037E+04</pdfrwt>
<pdfrwt beam="2">  1       -1 0.83254781E-01 0.20520037E+04</pdfrwt>
<totfact> 0.10808935E+01</totfact>
</mgrwt>
</event>
<event>
12    6  0.1450532E-007  0.2016502E+04  0.7818608E-02  0.8598944E-01
          2   -1    0    0  501    0  0.00000000000E+00  0.00000000000E+00  0.16038101046E+04  0.16038101046E+04  0.00000000000E+00 0. -1.
         -1   -1    0    0    0  501 -0.00000000000E+00 -0.00000000000E+00 -0.63384713122E+03  0.63384713122E+03  0.00000000000E+00 0.  1.
         24    2    1    2    0    0  0.76171219418E+03  0.14877308613E+03  0.14954084454E+03  0.79495616489E+03  0.85170076801E+02 0.  0.
        254    2    1    2    0    0 -0.76171219418E+03 -0.14877308613E+03  0.82042212883E+03  0.14427010709E+04  0.89774997222E+03 0.  0.
         23    2    4    4    0    0  0.14008758573E+03 -0.21989240182E+03  0.22160792565E+03  0.35414560995E+03  0.91278914781E+02 0.  0.
         23    2    4    4    0    0 -0.90179977992E+03  0.71119315691E+02  0.59881420318E+03  0.10885554610E+04  0.89854001279E+02 0.  0.
          2    1    3    3  502    0  0.36752219386E+02  0.12927716441E+02 -0.10212883592E+02  0.40275978864E+02  0.00000000000E+00 0. -1.
         -1    1    3    3    0  502  0.72495997480E+03  0.13584536968E+03  0.15975372813E+03  0.75468018602E+03  0.00000000000E+00 0.  1.
         11    1    5    5    0    0  0.47211448172E+02 -0.14289864365E+03  0.88871084011E+02  0.17477703731E+03  0.00000000000E+00 0. -1.
        -11    1    5    5    0    0  0.92876137561E+02 -0.76993758163E+02  0.13273684163E+03  0.17936857264E+03  0.00000000000E+00 0.  1.
          1    1    6    6  503    0 -0.51124721107E+03  0.62125520980E+01  0.30283782598E+03  0.59424158006E+03  0.00000000000E+00 0.  1.
         -1    1    6    6    0  503 -0.39055256885E+03  0.64906763593E+02  0.29597637721E+03  0.49431388091E+03  0.00000000000E+00 0. -1.
<mgrwt>
<rscale>  0 0.20165024E+04</rscale>
<asrwt>0</asrwt>
<pdfrwt beam="1">  1        2 0.24674002E+00 0.20165024E+04</pdfrwt>
<pdfrwt beam="2">  1       -1 0.97514944E-01 0.20165024E+04</pdfrwt>
<totfact> 0.11838735E+01</totfact>
</mgrwt>
</event>
<event>
12    6  0.1450532E-007  0.1746494E+04  0.7818608E-02  0.8735282E-01
         -1   -1    0    0    0  501 -0.00000000000E+00  0.00000000000E+00  0.68661494878E+03  0.68661494878E+03  0.00000000000E+00 0.  1.
          2   -1    0    0  501    0  0.00000000000E+00 -0.00000000000E+00 -0.11106089401E+04  0.11106089401E+04  0.00000000000E+00 0. -1.
         24    2    1    2    0    0  0.20557568203E+03  0.55615835112E+02  0.47477703507E+03  0.52637501160E+03  0.79391042624E+02 0.  0.
        254    2    1    2    0    0 -0.20557568203E+03 -0.55615835112E+02 -0.89877102638E+03  0.12708488773E+04  0.87287629641E+03 0.  0.
         23    2    4    4    0    0 -0.56300091835E+02 -0.15765738651E+03  0.12451140441E+03  0.22766038060E+03  0.91107668200E+02 0.  0.
         23    2    4    4    0    0 -0.14927559020E+03  0.10204155140E+03 -0.10232824308E+04  0.10431884967E+04  0.91867439200E+02 0.  0.
          2    1    3    3  502    0  0.55136124956E+02  0.43580513113E+02  0.21196277890E+03  0.22331026182E+03  0.00000000000E+00 0. -1.
         -1    1    3    3    0  502  0.15043955708E+03  0.12035321999E+02  0.26281425617E+03  0.30306474978E+03  0.00000000000E+00 0.  1.
         11    1    5    5    0    0 -0.42697273736E+02 -0.12095419721E+02  0.30416509283E+02  0.53800747204E+02  0.00000000000E+00 0. -1.
        -11    1    5    5    0    0 -0.13602818099E+02 -0.14556196679E+03  0.94094895126E+02  0.17385963339E+03  0.00000000000E+00 0.  1.
          3    1    6    6  503    0 -0.36949730398E+01  0.35037866271E+02 -0.98243540488E+02  0.10437000597E+03  0.00000000000E+00 0. -1.
         -3    1    6    6    0  503 -0.14558061716E+03  0.67003685124E+02 -0.92503889031E+03  0.93881849071E+03  0.00000000000E+00 0.  1.
<mgrwt>
<rscale>  0 0.17464944E+04</rscale>
<asrwt>0</asrwt>
<pdfrwt beam="1">  1        2 0.17086291E+00 0.17464944E+04</pdfrwt>
<pdfrwt beam="2">  1       -1 0.10563307E+00 0.17464944E+04</pdfrwt>
<totfact> 0.19483790E+01</totfact>
</mgrwt>
</event>
<event>
12    6  0.1450532E-007  0.1421582E+04  0.7818608E-02  0.8938343E-01
          2   -1    0    0  501    0  0.00000000000E+00  0.00000000000E+00  0.12335345756E+04  0.12335345756E+04  0.00000000000E+00 0. -1.
         -1   -1    0    0    0  501 -0.00000000000E+00 -0.00000000000E+00 -0.40957436120E+03  0.40957436120E+03  0.00000000000E+00 0.  1.
         24    2    1    2    0    0 -0.39178634273E+03 -0.39993420553E+02  0.62852014970E+02  0.40667591076E+03  0.79617263021E+02 0.  0.
        254    2    1    2    0    0  0.39178634273E+03  0.39993420553E+02  0.76110819939E+03  0.12364330260E+04  0.89128274110E+03 0.  0.
         23    2    4    4    0    0 -0.14027315162E+03  0.32329438002E+03  0.25234568984E+03  0.44248411669E+03  0.88983330571E+02 0.  0.
         23    2    4    4    0    0  0.53205949435E+03 -0.28330095947E+03  0.50876250955E+03  0.79394890932E+03  0.90381637054E+02 0.  0.
          2    1    3    3  502    0 -0.32627511844E+03 -0.34794739877E+02  0.82018937314E+02  0.33822068670E+03  0.00000000000E+00 0. -1.
         -1    1    3    3    0  502 -0.65511224288E+02 -0.51986806761E+01 -0.19166922344E+02  0.68455224057E+02  0.00000000000E+00 0.  1.
         11    1    5    5    0    0 -0.47206387760E+02  0.21589425204E+03  0.14383317192E+03  0.26367926057E+03  0.00000000000E+00 0.  1.
        -11    1    5    5    0    0 -0.93066763863E+02  0.10740012798E+03  0.10851251792E+03  0.17880485612E+03  0.00000000000E+00 0. -1.
          4    1    6    6  503    0  0.34628685299E+03 -0.14617502019E+03  0.27805538527E+03  0.46754306578E+03  0.00000000000E+00 0. -1.
         -4    1    6    6    0  503  0.18577264136E+03 -0.13712593927E+03  0.23070712428E+03  0.32640584354E+03  0.00000000000E+00 0.  1.
<mgrwt>
<rscale>  0 0.14215824E+04</rscale>
<asrwt>0</asrwt>
<pdfrwt beam="1">  1        2 0.18977455E+00 0.14215824E+04</pdfrwt>
<pdfrwt beam="2">  1       -1 0.63011441E-01 0.14215824E+04</pdfrwt>
<totfact> 0.51197997E+01</totfact>
</mgrwt>
</event>
<event>
12    6  0.1450532E-007  0.1769679E+04  0.7818608E-02  0.8722592E-01
          2   -1    0    0  501    0  0.00000000000E+00  0.00000000000E+00  0.24990380592E+04  0.24990380592E+04  0.00000000000E+00 0. -1.
         -1   -1    0    0    0  501 -0.00000000000E+00 -0.00000000000E+00 -0.31329699688E+03  0.31329699688E+03  0.00000000000E+00 0.  1.
         24    2    1    2    0    0 -0.50636334962E+02 -0.43762480609E+03  0.15826558192E+04  0.16446087511E+04  0.76544059177E+02 0.  0.
        254    2    1    2    0    0  0.50636334962E+02  0.43762480609E+03  0.60308524317E+03  0.11677263050E+04  0.89765995984E+03 0.  0.
         23    2    4    4    0    0 -0.35184055485E+03 -0.24098497353E+02  0.12412760819E+03  0.38477670926E+03  0.90955699441E+02 0.  0.
         23    2    4    4    0    0  0.40247688982E+03  0.46172330344E+03  0.47895763498E+03  0.78294959572E+03  0.91834620690E+02 0.  0.
          2    1    3    3  502    0 -0.45278473650E+02 -0.29278232031E+03  0.92985666915E+03  0.97591242047E+03  0.00000000000E+00 0. -1.
         -1    1    3    3    0  502 -0.53578613119E+01 -0.14484248578E+03  0.65279915000E+03  0.66869633063E+03  0.00000000000E+00 0.  1.
         11    1    5    5    0    0  0.54443627169E+01  0.22125653231E+01  0.30222723167E+01  0.66083780656E+01  0.00000000000E+00 0.  1.
        -11    1    5    5    0    0 -0.35728491757E+03 -0.26311062676E+02  0.12110533587E+03  0.37816833120E+03  0.00000000000E+00 0. -1.
          3    1    6    6  503    0  0.16793115004E+03  0.14565232437E+03  0.21342667190E+03  0.30816621332E+03  0.00000000000E+00 0. -1.
         -3    1    6    6    0  503  0.23454573977E+03  0.31607097907E+03  0.26553096308E+03  0.47478338241E+03  0.00000000000E+00 0.  1.
<mgrwt>
<rscale>  0 0.17696792E+04</rscale>
<asrwt>0</asrwt>
<pdfrwt beam="1">  1        2 0.38446738E+00 0.17696792E+04</pdfrwt>
<pdfrwt beam="2">  1       -1 0.48199540E-01 0.17696792E+04</pdfrwt>
<totfact> 0.16184900E+01</totfact>
</mgrwt>
</event>
<event>
12    6  0.1450532E-007  0.1568131E+04  0.7818608E-02  0.8840369E-01
         -1   -1    0    0    0  501 -0.00000000000E+00  0.00000000000E+00  0.11915834059E+04  0.11915834059E+04  0.00000000000E+00 0.  1.
          2   -1    0    0  501    0  0.00000000000E+00 -0.00000000000E+00 -0.51591725691E+03  0.51591725691E+03  0.00000000000E+00 0. -1.
         24    2    1    2    0    0 -0.38789999689E+03  0.30564519016E+03  0.38537946675E+03  0.63160061989E+03  0.80725583355E+02 0.  0.
        254    2    1    2    0    0  0.38789999689E+03 -0.30564519016E+03  0.29028668221E+03  0.10759000429E+04  0.91071903164E+03 0.  0.
         23    2    4    4    0    0  0.14932967325E+03 -0.16065707768E+03 -0.32038648171E+03  0.39832741341E+03  0.88922340786E+02 0.  0.
         23    2    4    4    0    0  0.23857032364E+03 -0.14498811248E+03  0.61067316392E+03  0.67757262949E+03  0.90805302832E+02 0.  0.
          2    1    3    3  502    0 -0.69110677814E+01 -0.22955206834E+01  0.17549586499E+02  0.19000533134E+02  0.00000000000E+00 0. -1.
         -1    1    3    3    0  502 -0.38098892910E+03  0.30794071084E+03  0.36782988025E+03  0.61260008676E+03  0.00000000000E+00 0.  1.
         11    1    5    5    0    0 -0.79791631228E+01  0.13076159682E+00 -0.15520204956E+01  0.81297546306E+01  0.00000000000E+00 0.  1.
        -11    1    5    5    0    0  0.15730883637E+03 -0.16078783928E+03 -0.31883446121E+03  0.39019765878E+03  0.00000000000E+00 0. -1.
          2    1    6    6  503    0  0.14521537759E+03 -0.11385894450E+03  0.47803704267E+03  0.51241660717E+03  0.00000000000E+00 0. -1.
         -2    1    6    6    0  503  0.93354946049E+02 -0.31129167973E+02  0.13263612124E+03  0.16515602232E+03  0.00000000000E+00 0.  1.
<mgrwt>
<rscale>  0 0.15681307E+04</rscale>
<asrwt>0</asrwt>
<pdfrwt beam="1">  1        2 0.79371886E-01 0.15681307E+04</pdfrwt>
<pdfrwt beam="2">  1       -1 0.18332052E+00 0.15681307E+04</pdfrwt>
<totfact> 0.12849869E+01</totfact>
</mgrwt>
</event>
<event>
12    6  0.1450532E-007  0.2222388E+04  0.7818608E-02  0.8509167E-01
         -1   -1    0    0    0  501 -0.00000000000E+00  0.00000000000E+00  0.10384002029E+04  0.10384002029E+04  0.00000000000E+00 0.  1.
          2   -1    0    0  501    0  0.00000000000E+00 -0.00000000000E+00 -0.11890906749E+04  0.11890906749E+04  0.00000000000E+00 0. -1.
         24    2    1    2    0    0 -0.73733995514E+03  0.41926820621E+03 -0.47442611658E+03  0.97503997420E+03  0.78528803615E+02 0.  0.
        254    2    1    2    0    0  0.73733995514E+03 -0.41926820621E+03  0.32373564461E+03  0.12524509036E+04  0.86277022446E+03 0.  0.
         23    2    4    4    0    0  0.27298707982E+02 -0.47402921318E+03  0.61827397275E+02  0.48817979800E+03  0.95120837474E+02 0.  0.
         23    2    4    4    0    0  0.71004124716E+03  0.54761006967E+02  0.26190824733E+03  0.76427110562E+03  0.91416914849E+02 0.  0.
          4    1    3    3  502    0 -0.64610309621E+03  0.38318452723E+03 -0.44267115194E+03  0.87191590283E+03  0.00000000000E+00 0. -1.
         -3    1    3    3    0  502 -0.91236858934E+02  0.36083678975E+02 -0.31754964646E+02  0.10312407137E+03  0.00000000000E+00 0.  1.
         11    1    5    5    0    0  0.32576057765E+02 -0.78709686101E+02  0.34421512651E+02  0.91876301400E+02  0.00000000000E+00 0.  1.
        -11    1    5    5    0    0 -0.52773497825E+01 -0.39531952707E+03  0.27405884624E+02  0.39630349660E+03  0.00000000000E+00 0. -1.
          4    1    6    6  503    0  0.63181216357E+03  0.77420687551E+02  0.23087974396E+03  0.67711596426E+03  0.00000000000E+00 0. -1.
         -4    1    6    6    0  503  0.78229083595E+02 -0.22659680584E+02  0.31028503370E+02  0.87155141361E+02  0.00000000000E+00 0.  1.
<mgrwt>
<rscale>  0 0.22223879E+04</rscale>
<asrwt>0</asrwt>
<pdfrwt beam="1">  1        2 0.18293703E+00 0.22223879E+04</pdfrwt>
<pdfrwt beam="2">  1       -1 0.15975388E+00 0.22223879E+04</pdfrwt>
<totfact> 0.58699752E+00</totfact>
</mgrwt>
</event>
<event>
12    6  0.1450532E-007  0.1370018E+04  0.7818608E-02  0.8975812E-01
         -1   -1    0    0    0  501 -0.00000000000E+00  0.00000000000E+00  0.29513506888E+03  0.29513506888E+03  0.00000000000E+00 0.  1.
          2   -1    0    0  501    0  0.00000000000E+00 -0.00000000000E+00 -0.15899062125E+04  0.15899062125E+04  0.00000000000E+00 0. -1.
         24    2    1    2    0    0  0.30241223695E+03  0.22632960127E+03 -0.41254985299E+03  0.57024693555E+03  0.11093212712E+03 0.  0.
        254    2    1    2    0    0 -0.30241223695E+03 -0.22632960127E+03 -0.88222129059E+03  0.13147943458E+04  0.89871659421E+03 0.  0.
         23    2    4    4    0    0 -0.41282608344E+03 -0.19179388552E+03 -0.46911576154E+02  0.46653073409E+03  0.90774226427E+02 0.  0.
         23    2    4    4    0    0  0.11041384649E+03 -0.34535715755E+02 -0.83530971443E+03  0.84826361171E+03  0.91787269042E+02 0.  0.
          2    1    3    3  502    0  0.23983107786E+03  0.20524712223E+03 -0.38706199787E+03  0.49946202787E+03  0.00000000000E+00 0. -1.
         -1    1    3    3    0  502  0.62581159092E+02  0.21082479042E+02 -0.25487855123E+02  0.70784907675E+02  0.00000000000E+00 0.  1.
         11    1    5    5    0    0 -0.37067471296E+03 -0.13877487242E+03 -0.31399841982E+02  0.39704427728E+03  0.00000000000E+00 0. -1.
        -11    1    5    5    0    0 -0.42151370484E+02 -0.53019013102E+02 -0.15511734172E+02  0.69486456817E+02  0.00000000000E+00 0.  1.
          2    1    6    6  503    0  0.79914017384E+02 -0.63136214134E+02 -0.67262684069E+03  0.68029353850E+03  0.00000000000E+00 0. -1.
         -2    1    6    6    0  503  0.30499829111E+02  0.28600498379E+02 -0.16268287374E+03  0.16797007321E+03  0.00000000000E+00 0.  1.
<mgrwt>
<rscale>  0 0.13700176E+04</rscale>
<asrwt>0</asrwt>
<pdfrwt beam="1">  1        2 0.24460096E+00 0.13700176E+04</pdfrwt>
<pdfrwt beam="2">  1       -1 0.45405395E-01 0.13700176E+04</pdfrwt>
<totfact> 0.60459038E+01</totfact>
</mgrwt>
</event>
<event>
12    6  0.1450532E-007  0.1336372E+04  0.7818608E-02  0.9001209E-01
          2   -1    0    0  501    0  0.00000000000E+00  0.00000000000E+00  0.13139072806E+04  0.13139072806E+04  0.00000000000E+00 0. -1.
         -1   -1    0    0    0  501 -0.00000000000E+00 -0.00000000000E+00 -0.33980514365E+03  0.33980514365E+03  0.00000000000E+00 0.  1.
         24    2    1    2    0    0 -0.32235840327E+01 -0.10639972111E+03 -0.15890716150E+03  0.20696089203E+03  0.79057148371E+02 0.  0.
        254    2    1    2    0    0  0.32235840327E+01  0.10639972111E+03  0.11330092984E+04  0.14467515322E+04  0.89333567792E+03 0.  0.
         23    2    4    4    0    0 -0.19625903254E+03  0.15359477351E+03  0.11851071953E+04  0.12140401676E+04  0.85472228900E+02 0.  0.
         23    2    4    4    0    0  0.19948261657E+03 -0.47195052401E+02 -0.52097896855E+02  0.23271136461E+03  0.97055144502E+02 0.  0.
          2    1    3    3  502    0 -0.11822419976E+01 -0.70669204872E+02 -0.36736609609E+02  0.79656215696E+02  0.00000000000E+00 0. -1.
         -1    1    3    3    0  502 -0.20413420351E+01 -0.35730516240E+02 -0.12217055189E+03  0.12730467634E+03  0.00000000000E+00 0.  1.
         11    1    5    5    0    0 -0.50718038246E+02  0.24726187993E+02  0.45544279107E+03  0.45892465581E+03  0.00000000000E+00 0. -1.
        -11    1    5    5    0    0 -0.14554099429E+03  0.12886858552E+03  0.72966440422E+03  0.75511551178E+03  0.00000000000E+00 0.  1.
          1    1    6    6  503    0  0.16136431543E+03  0.49771440501E+01 -0.45682094251E+02  0.16777981998E+03  0.00000000000E+00 0. -1.
         -1    1    6    6    0  503  0.38118301141E+02 -0.52172196451E+02 -0.64158026041E+01  0.64931544626E+02  0.00000000000E+00 0.  1.
<mgrwt>
<rscale>  0 0.13363719E+04</rscale>
<asrwt>0</asrwt>
<pdfrwt beam="1">  1        2 0.20213958E+00 0.13363719E+04</pdfrwt>
<pdfrwt beam="2">  1       -1 0.52277715E-01 0.13363719E+04</pdfrwt>
<totfact> 0.66633768E+01</totfact>
</mgrwt>
</event>
<event>
12    6  0.1450532E-007  0.1174304E+04  0.7818608E-02  0.9135650E-01
          2   -1    0    0  501    0  0.00000000000E+00  0.00000000000E+00  0.14731981164E+04  0.14731981164E+04  0.00000000000E+00 0. -1.
         -1   -1    0    0    0  501 -0.00000000000E+00 -0.00000000000E+00 -0.23401306896E+03  0.23401306896E+03  0.00000000000E+00 0.  1.
         24    2    1    2    0    0  0.18973272317E+03 -0.32493366897E+02  0.49249179992E+03  0.53513416793E+03  0.82256182543E+02 0.  0.
        254    2    1    2    0    0 -0.18973272317E+03  0.32493366897E+02  0.74669324747E+03  0.11720770174E+04  0.88270006442E+03 0.  0.
         23    2    4    4    0    0 -0.18854768993E+03  0.17560484337E+02  0.93777684479E+03  0.96106815455E+03  0.91476691473E+02 0.  0.
         23    2    4    4    0    0 -0.11850332439E+01  0.14932882559E+02 -0.19108359731E+03  0.21100886284E+03  0.88246267618E+02 0.  0.
          2    1    3    3  502    0  0.12398798981E+03 -0.67441103720E+01  0.39963772726E+03  0.41848395153E+03  0.00000000000E+00 0. -1.
         -1    1    3    3    0  502  0.65744733366E+02 -0.25749256525E+02  0.92854072665E+02  0.11665021641E+03  0.00000000000E+00 0.  1.
         11    1    5    5    0    0 -0.12274140071E+03  0.46056367800E+02  0.71852840033E+03  0.73039010299E+03  0.00000000000E+00 0.  1.
        -11    1    5    5    0    0 -0.65806289218E+02 -0.28495883463E+02  0.21924844446E+03  0.23067805156E+03  0.00000000000E+00 0. -1.
          4    1    6    6  503    0  0.16199683547E+02  0.16427745201E+02 -0.19214741660E+03  0.19352759562E+03  0.00000000000E+00 0.  1.
         -4    1    6    6    0  503 -0.17384716791E+02 -0.14948626412E+01  0.10638192847E+01  0.17481267222E+02  0.00000000000E+00 0. -1.
<mgrwt>
<rscale>  0 0.11743042E+04</rscale>
<asrwt>0</asrwt>
<pdfrwt beam="1">  1        2 0.22664586E+00 0.11743042E+04</pdfrwt>
<pdfrwt beam="2">  1       -1 0.36002012E-01 0.11743042E+04</pdfrwt>
<totfact> 0.10912505E+02</totfact>
</mgrwt>
</event>
<event>
12    6  0.1450532E-007  0.1884414E+04  0.7818608E-02  0.8662653E-01
          2   -1    0    0  501    0  0.00000000000E+00  0.00000000000E+00  0.17450188334E+04  0.17450188334E+04  0.00000000000E+00 0. -1.
         -1   -1    0    0    0  501 -0.00000000000E+00 -0.00000000000E+00 -0.50873633289E+03  0.50873633289E+03  0.00000000000E+00 0.  1.
         24    2    1    2    0    0 -0.47186653321E+03  0.19019151417E+03 -0.13841109024E+03  0.53303003271E+03  0.78310590896E+02 0.  0.
        254    2    1    2    0    0  0.47186653321E+03 -0.19019151417E+03  0.13746935908E+04  0.17207251336E+04  0.90126670839E+03 0.  0.
         23    2    4    4    0    0  0.26611892967E+03  0.58098598876E+02 -0.17719662887E+02  0.28844951960E+03  0.93243803993E+02 0.  0.
         23    2    4    4    0    0  0.20574760353E+03 -0.24829011305E+03  0.13924132536E+04  0.14322756140E+04  0.92837001742E+02 0.  0.
          2    1    3    3  502    0 -0.40704395439E+02  0.19168927536E+01 -0.28954249582E+02  0.49988707272E+02  0.00000000000E+00 0. -1.
         -1    1    3    3    0  502 -0.43116213777E+03  0.18827462142E+03 -0.10945684066E+03  0.48304132544E+03  0.00000000000E+00 0.  1.
         11    1    5    5    0    0  0.59501533198E+02 -0.53929810593E+01 -0.38850973410E+02  0.71266505684E+02  0.00000000000E+00 0. -1.
        -11    1    5    5    0    0  0.20661739648E+03  0.63491579935E+02  0.21131310523E+02  0.21718301392E+03  0.00000000000E+00 0.  1.
          1    1    6    6  503    0  0.69747209046E+02 -0.49790273569E+02  0.53167866984E+03  0.53854057644E+03  0.00000000000E+00 0. -1.
         -1    1    6    6    0  503  0.13600039449E+03 -0.19849983948E+03  0.86073458381E+03  0.89373503755E+03  0.00000000000E+00 0.  1.
<mgrwt>
<rscale>  0 0.18844145E+04</rscale>
<asrwt>0</asrwt>
<pdfrwt beam="1">  1        2 0.26846443E+00 0.18844145E+04</pdfrwt>
<pdfrwt beam="2">  1       -1 0.78267129E-01 0.18844145E+04</pdfrwt>
<totfact> 0.16157716E+01</totfact>
</mgrwt>
</event>
<event>
12    6  0.1450532E-007  0.1230341E+04  0.7818608E-02  0.9086706E-01
          2   -1    0    0  501    0  0.00000000000E+00  0.00000000000E+00  0.27564812224E+04  0.27564812224E+04  0.00000000000E+00 0. -1.
         -1   -1    0    0    0  501 -0.00000000000E+00 -0.00000000000E+00 -0.13728900916E+03  0.13728900916E+03  0.00000000000E+00 0.  1.
         24    2    1    2    0    0 -0.98787049577E+01 -0.15731416021E+03  0.74068067082E+02  0.19205068305E+03  0.80944749580E+02 0.  0.
        254    2    1    2    0    0  0.98787049577E+01  0.15731416021E+03  0.25451241461E+04  0.27017195485E+04  0.89262885099E+03 0.  0.
         23    2    4    4    0    0 -0.42462313598E+03  0.83186105284E+02  0.14976260806E+04  0.15616804422E+04  0.93472940071E+02 0.  0.
         23    2    4    4    0    0  0.43450184094E+03  0.74128054929E+02  0.10474980655E+04  0.11400391063E+04  0.90278171593E+02 0.  0.
          4    1    3    3  502    0  0.11674018218E+02  0.55314725987E+01  0.59116950723E+01  0.14206619200E+02  0.00000000000E+00 0. -1.
         -3    1    3    3    0  502 -0.21552723176E+02 -0.16284563281E+03  0.68156372010E+02  0.17784406385E+03  0.00000000000E+00 0.  1.
         11    1    5    5    0    0 -0.24509559565E+03  0.79441526438E+02  0.99961544449E+03  0.10322857376E+04  0.00000000000E+00 0. -1.
        -11    1    5    5    0    0 -0.17952754033E+03  0.37445788459E+01  0.49801063611E+03  0.52939470463E+03  0.00000000000E+00 0.  1.
          1    1    6    6  503    0  0.19556895562E+03  0.44742113407E+01  0.37482083678E+03  0.42279769944E+03  0.00000000000E+00 0. -1.
         -1    1    6    6    0  503  0.23893288532E+03  0.69653843588E+02  0.67267722873E+03  0.71724140682E+03  0.00000000000E+00 0.  1.
<mgrwt>
<rscale>  0 0.12303407E+04</rscale>
<asrwt>0</asrwt>
<pdfrwt beam="1">  1        2 0.42407399E+00 0.12303407E+04</pdfrwt>
<pdfrwt beam="2">  1       -1 0.21121388E-01 0.12303407E+04</pdfrwt>
<totfact> 0.51906290E+01</totfact>
</mgrwt>
</event>
<event>
12    6  0.1450532E-007  0.1439783E+04  0.7818608E-02  0.8925515E-01
          2   -1    0    0  501    0  0.00000000000E+00  0.00000000000E+00  0.83195990339E+03  0.83195990339E+03  0.00000000000E+00 0. -1.
         -1   -1    0    0    0  501 -0.00000000000E+00 -0.00000000000E+00 -0.62291908487E+03  0.62291908487E+03  0.00000000000E+00 0.  1.
         24    2    1    2    0    0  0.12793378587E+03  0.31150838660E+03 -0.21656957239E+03  0.40814642575E+03  0.79224975056E+02 0.  0.
        254    2    1    2    0    0 -0.12793378587E+03 -0.31150838660E+03  0.42561039091E+03  0.10467325625E+04  0.89504207950E+03 0.  0.
         23    2    4    4    0    0 -0.41759879991E+03 -0.64681934148E+01 -0.18835729035E+02  0.42828429604E+03  0.92962671732E+02 0.  0.
         23    2    4    4    0    0  0.28966501404E+03 -0.30504019319E+03  0.44444611994E+03  0.61844826647E+03  0.89389960006E+02 0.  0.
          4    1    3    3  502    0  0.47943185132E+01 -0.59824894257E+00 -0.17191309686E+02  0.17857338002E+02  0.00000000000E+00 0. -1.
         -3    1    3    3    0  502  0.12313946736E+03  0.31210663555E+03 -0.19937826270E+03  0.39028908774E+03  0.00000000000E+00 0.  1.
         11    1    5    5    0    0 -0.40956311088E+03  0.98082282638E+01 -0.16893335253E+02  0.41002869158E+03  0.00000000000E+00 0.  1.
        -11    1    5    5    0    0 -0.80356890223E+01 -0.16276421679E+02 -0.19423937822E+01  0.18255604463E+02  0.00000000000E+00 0. -1.
          4    1    6    6  503    0  0.14240893076E+02 -0.53471284106E+02  0.77204545477E+02  0.94986962800E+02  0.00000000000E+00 0. -1.
         -4    1    6    6    0  503  0.27542412096E+03 -0.25156890908E+03  0.36724157447E+03  0.52346130367E+03  0.00000000000E+00 0.  1.
<mgrwt>
<rscale>  0 0.14397829E+04</rscale>
<asrwt>0</asrwt>
<pdfrwt beam="1">  1        2 0.12799383E+00 0.14397829E+04</pdfrwt>
<pdfrwt beam="2">  1       -1 0.95833705E-01 0.14397829E+04</pdfrwt>
<totfact> 0.38026498E+01</totfact>
</mgrwt>
</event>
<event>
12    6  0.1450532E-007  0.2774957E+04  0.7818608E-02  0.8311086E-01
          2   -1    0    0  501    0  0.00000000000E+00  0.00000000000E+00  0.18339693246E+04  0.18339693246E+04  0.00000000000E+00 0. -1.
         -1   -1    0    0    0  501 -0.00000000000E+00 -0.00000000000E+00 -0.10496882393E+04  0.10496882393E+04  0.00000000000E+00 0.  1.
         24    2    1    2    0    0  0.23030626552E+03  0.14756291013E+02  0.16157347616E+04  0.16340700583E+04  0.79545028470E+02 0.  0.
        254    2    1    2    0    0 -0.23030626552E+03 -0.14756291013E+02 -0.83145367638E+03  0.12495875055E+04  0.90382243499E+03 0.  0.
         23    2    4    4    0    0  0.33746863348E+03  0.49996782897E+02 -0.28974271753E+03  0.45691761197E+03  0.91859157858E+02 0.  0.
         23    2    4    4    0    0 -0.56777489900E+03 -0.64753073910E+02 -0.54171095885E+03  0.79266989358E+03  0.91178400605E+02 0.  0.
          2    1    3    3  502    0  0.19301183600E+03 -0.18147502089E+02  0.13262727789E+04  0.13403665113E+04  0.00000000000E+00 0. -1.
         -1    1    3    3    0  502  0.37294429515E+02  0.32903793102E+02  0.28946198278E+03  0.29370354705E+03  0.00000000000E+00 0.  1.
         11    1    5    5    0    0  0.18576504805E+03 -0.14753063964E+02 -0.12931576062E+03  0.22682343776E+03  0.00000000000E+00 0. -1.
        -11    1    5    5    0    0  0.15170358544E+03  0.64749846861E+02 -0.16042695691E+03  0.23009417421E+03  0.00000000000E+00 0.  1.
          2    1    6    6  503    0 -0.51007453231E+03 -0.29255440792E+02 -0.48067205959E+03  0.70148238624E+03  0.00000000000E+00 0. -1.
         -2    1    6    6    0  503 -0.57700366685E+02 -0.35497633117E+02 -0.61038899253E+02  0.91187507338E+02  0.00000000000E+00 0.  1.
<mgrwt>
<rscale>  0 0.27749566E+04</rscale>
<asrwt>0</asrwt>
<pdfrwt beam="1">  1        2 0.28214913E+00 0.27749566E+04</pdfrwt>
<pdfrwt beam="2">  1       -1 0.16149050E+00 0.27749566E+04</pdfrwt>
<totfact> 0.23345284E+00</totfact>
</mgrwt>
</event>
<event>
12    6  0.1450532E-007  0.1301011E+04  0.7818608E-02  0.9028763E-01
          2   -1    0    0  501    0  0.00000000000E+00  0.00000000000E+00  0.13898147390E+04  0.13898147390E+04  0.00000000000E+00 0. -1.
         -1   -1    0    0    0  501 -0.00000000000E+00 -0.00000000000E+00 -0.30447056335E+03  0.30447056335E+03  0.00000000000E+00 0.  1.
         24    2    1    2    0    0 -0.25213425359E+03  0.10379195731E+03  0.54265992525E+03  0.61249402346E+03  0.79527869726E+02 0.  0.
        254    2    1    2    0    0  0.25213425359E+03 -0.10379195731E+03  0.54268425036E+03  0.10817912789E+04  0.89522160564E+03 0.  0.
         23    2    4    4    0    0  0.46765957823E+03  0.15496767697E+03  0.53587019015E+03  0.73374001735E+03  0.92179663414E+02 0.  0.
         23    2    4    4    0    0 -0.21552532465E+03 -0.25875963427E+03  0.68140602080E+01  0.34805126151E+03  0.87667185035E+02 0.  0.
          4    1    3    3  502    0 -0.13960957936E+03  0.97800726253E+02  0.30274654178E+03  0.34743529652E+03  0.00000000000E+00 0. -1.
         -3    1    3    3    0  502 -0.11252467422E+03  0.59912310532E+01  0.23991338347E+03  0.26505872694E+03  0.00000000000E+00 0.  1.
         11    1    5    5    0    0  0.26515058991E+03  0.13224554617E+03  0.29301644773E+03  0.41671616054E+03  0.00000000000E+00 0.  1.
        -11    1    5    5    0    0  0.20250898832E+03  0.22722130794E+02  0.24285374242E+03  0.31702385681E+03  0.00000000000E+00 0. -1.
          3    1    6    6  503    0 -0.18773974235E+03 -0.23171952699E+03 -0.23041324905E+02  0.29911712205E+03  0.00000000000E+00 0. -1.
         -3    1    6    6    0  503 -0.27785582294E+02 -0.27040107282E+02  0.29855385113E+02  0.48934139469E+02  0.00000000000E+00 0.  1.
<mgrwt>
<rscale>  0 0.13010114E+04</rscale>
<asrwt>0</asrwt>
<pdfrwt beam="1">  1        2 0.21381765E+00 0.13010114E+04</pdfrwt>
<pdfrwt beam="2">  1       -1 0.46841626E-01 0.13010114E+04</pdfrwt>
<totfact> 0.74391499E+01</totfact>
</mgrwt>
</event>
<event>
12    6  0.1450532E-007  0.1501691E+04  0.7818608E-02  0.8883329E-01
         -1   -1    0    0    0  501 -0.00000000000E+00  0.00000000000E+00  0.39822066038E+03  0.39822066038E+03  0.00000000000E+00 0.  1.
          2   -1    0    0  501    0  0.00000000000E+00 -0.00000000000E+00 -0.14157208276E+04  0.14157208276E+04  0.00000000000E+00 0. -1.
         24    2    1    2    0    0  0.15954097403E+03 -0.15077491800E+02  0.21520228968E+03  0.27964762914E+03  0.78804300951E+02 0.  0.
        254    2    1    2    0    0 -0.15954097403E+03  0.15077491800E+02 -0.12327024569E+04  0.15342938589E+04  0.89934511999E+03 0.  0.
         23    2    4    4    0    0 -0.44022244053E+03  0.26965666974E+03 -0.68756746314E+03  0.86472855705E+03  0.92173447030E+02 0.  0.
         23    2    4    4    0    0  0.28068146650E+03 -0.25457917794E+03 -0.54513499379E+03  0.66956530180E+03  0.86907355535E+02 0.  0.
          2    1    3    3  502    0  0.21667389078E+01  0.66827300065E+01  0.49844046133E+02  0.50336692111E+02  0.00000000000E+00 0. -1.
         -1    1    3    3    0  502  0.15737423512E+03 -0.21760221806E+02  0.16535824355E+03  0.22931093703E+03  0.00000000000E+00 0.  1.
         11    1    5    5    0    0 -0.54804038317E+02  0.74003314297E+02 -0.12686957950E+03  0.15676690769E+03  0.00000000000E+00 0.  1.
        -11    1    5    5    0    0 -0.38541840221E+03  0.19565335544E+03 -0.56069788364E+03  0.70796164937E+03  0.00000000000E+00 0. -1.
          4    1    6    6  503    0  0.22087114599E+03 -0.16045181494E+03 -0.33962094149E+03  0.43574216224E+03  0.00000000000E+00 0. -1.
         -4    1    6    6    0  503  0.59810320503E+02 -0.94127363002E+02 -0.20551405230E+03  0.23382313957E+03  0.00000000000E+00 0.  1.
<mgrwt>
<rscale>  0 0.15016914E+04</rscale>
<asrwt>0</asrwt>
<pdfrwt beam="1">  1        2 0.21780321E+00 0.15016914E+04</pdfrwt>
<pdfrwt beam="2">  1       -1 0.61264716E-01 0.15016914E+04</pdfrwt>
<totfact> 0.42167021E+01</totfact>
</mgrwt>
</event>
<event>
12    6  0.1450532E-007  0.2217453E+04  0.7818608E-02  0.8511199E-01
          2   -1    0    0  501    0  0.00000000000E+00  0.00000000000E+00  0.14855188228E+04  0.14855188228E+04  0.00000000000E+00 0. -1.
         -1   -1    0    0    0  501 -0.00000000000E+00 -0.00000000000E+00 -0.82750510479E+03  0.82750510479E+03  0.00000000000E+00 0.  1.
         24    2    1    2    0    0  0.76861206677E+03  0.49530230758E+03  0.13269393444E+03  0.92731005496E+03  0.78786881577E+02 0.  0.
        254    2    1    2    0    0 -0.76861206677E+03 -0.49530230758E+03  0.52531978360E+03  0.13857138727E+04  0.89897340160E+03 0.  0.
         23    2    4    4    0    0  0.14015845204E+03 -0.30814677969E+03  0.14314622041E+03  0.37818103144E+03  0.89057411887E+02 0.  0.
         23    2    4    4    0    0 -0.90877051881E+03 -0.18715552788E+03  0.38217356319E+03  0.10075328412E+04  0.90414303427E+02 0.  0.
          2    1    3    3  502    0  0.17201923715E+03  0.74428458889E+02  0.35466442485E+02  0.19075660404E+03  0.00000000000E+00 0. -1.
         -1    1    3    3    0  502  0.59659282962E+03  0.42087384869E+03  0.97227491958E+02  0.73655345091E+03  0.00000000000E+00 0.  1.
         11    1    5    5    0    0 -0.73864921697E+01 -0.59349394629E+02  0.14118319162E+02  0.61451101254E+02  0.00000000000E+00 0. -1.
        -11    1    5    5    0    0  0.14754494421E+03 -0.24879738506E+03  0.12902790124E+03  0.31672993019E+03  0.00000000000E+00 0.  1.
          3    1    6    6  503    0 -0.68577916084E+03 -0.13859147561E+03  0.32932215663E+03  0.77327468431E+03  0.00000000000E+00 0. -1.
         -3    1    6    6    0  503 -0.22299135797E+03 -0.48564052271E+02  0.52851406562E+02  0.23425815691E+03  0.00000000000E+00 0.  1.
<mgrwt>
<rscale>  0 0.22174530E+04</rscale>
<asrwt>0</asrwt>
<pdfrwt beam="1">  1        2 0.22854136E+00 0.22174530E+04</pdfrwt>
<pdfrwt beam="2">  1       -1 0.12730848E+00 0.22174530E+04</pdfrwt>
<totfact> 0.71909271E+00</totfact>
</mgrwt>
</event>
<event>
12    6  0.1450532E-007  0.1009349E+04  0.7818608E-02  0.9298349E-01
          2   -1    0    0  501    0  0.00000000000E+00  0.00000000000E+00  0.18139990185E+04  0.18139990185E+04  0.00000000000E+00 0. -1.
         -3   -1    0    0    0  501 -0.00000000000E+00 -0.00000000000E+00 -0.14040613574E+03  0.14040613574E+03  0.00000000000E+00 0.  1.
         24    2    1    2    0    0  0.10521453687E+03 -0.45925517422E+02  0.46055994230E+03  0.48480574913E+03  0.98701074052E+02 0.  0.
        254    2    1    2    0    0 -0.10521453687E+03  0.45925517422E+02  0.12130329404E+04  0.14695994051E+04  0.82164118990E+03 0.  0.
         23    2    4    4    0    0  0.32541284512E+03  0.16292728949E+03  0.56776351897E+03  0.67980433742E+03  0.85672062349E+02 0.  0.
         23    2    4    4    0    0 -0.43062738199E+03 -0.11700177207E+03  0.64526942145E+03  0.78979506766E+03  0.90962991703E+02 0.  0.
          2    1    3    3  502    0  0.11168961048E+03 -0.53001990377E+02  0.45865783595E+03  0.47502714718E+03  0.00000000000E+00 0. -1.
         -1    1    3    3    0  502 -0.64750736056E+01  0.70764729552E+01  0.19021063498E+01  0.97786019578E+01  0.00000000000E+00 0.  1.
         11    1    5    5    0    0  0.24533787454E+03  0.16160455908E+03  0.44489261760E+03  0.53313801908E+03  0.00000000000E+00 0.  1.
        -11    1    5    5    0    0  0.80074970575E+02  0.13227304070E+01  0.12287090138E+03  0.14666631833E+03  0.00000000000E+00 0. -1.
          4    1    6    6  503    0 -0.94852327300E+02 -0.19207824595E+02  0.82296277024E+02  0.12703771775E+03  0.00000000000E+00 0. -1.
         -4    1    6    6    0  503 -0.33577505469E+03 -0.97793947474E+02  0.56297314443E+03  0.66275734991E+03  0.00000000000E+00 0.  1.
<mgrwt>
<rscale>  0 0.10093495E+04</rscale>
<asrwt>0</asrwt>
<pdfrwt beam="1">  1        2 0.27907676E+00 0.10093495E+04</pdfrwt>
<pdfrwt beam="2">  1       -3 0.21600945E-01 0.10093495E+04</pdfrwt>
<totfact> 0.10966950E+02</totfact>
</mgrwt>
</event>
<event>
12    6  0.1450532E-007  0.1216464E+04  0.7818608E-02  0.9098567E-01
         -1   -1    0    0    0  501 -0.00000000000E+00  0.00000000000E+00  0.26454252505E+03  0.26454252505E+03  0.00000000000E+00 0.  1.
          2   -1    0    0  501    0  0.00000000000E+00 -0.00000000000E+00 -0.13984365607E+04  0.13984365607E+04  0.00000000000E+00 0. -1.
         24    2    1    2    0    0 -0.17690239978E+03  0.90044208465E+02 -0.50063525880E+03  0.54432869210E+03  0.79092630337E+02 0.  0.
        254    2    1    2    0    0  0.17690239978E+03 -0.90044208465E+02 -0.63325877687E+03  0.11186503937E+04  0.90053295676E+03 0.  0.
         23    2    4    4    0    0  0.46496849692E+03  0.19031512159E+02 -0.82153592956E+02  0.48119801827E+03  0.90798779540E+02 0.  0.
         23    2    4    4    0    0 -0.28806609714E+03 -0.10907572062E+03 -0.55110518391E+03  0.63745237538E+03  0.88028506699E+02 0.  0.
          2    1    3    3  502    0 -0.15794629177E+03  0.79407085900E+02 -0.34979091483E+03  0.39192626918E+03  0.00000000000E+00 0. -1.
         -1    1    3    3    0  502 -0.18956108010E+02  0.10637122566E+02 -0.15084434397E+03  0.15240242293E+03  0.00000000000E+00 0.  1.
         11    1    5    5    0    0  0.15475546948E+03  0.23460062181E+02 -0.67926922290E+02  0.17062736189E+03  0.00000000000E+00 0. -1.
        -11    1    5    5    0    0  0.31021302744E+03 -0.44285500212E+01 -0.14226670666E+02  0.31057065638E+03  0.00000000000E+00 0.  1.
          4    1    6    6  503    0 -0.31455927637E+02 -0.33035136747E+02 -0.40703055583E+02  0.61135377460E+02  0.00000000000E+00 0. -1.
         -4    1    6    6    0  503 -0.25661016951E+03 -0.76040583877E+02 -0.51040212833E+03  0.57631699792E+03  0.00000000000E+00 0.  1.
<mgrwt>
<rscale>  0 0.12164636E+04</rscale>
<asrwt>0</asrwt>
<pdfrwt beam="1">  1        2 0.21514409E+00 0.12164636E+04</pdfrwt>
<pdfrwt beam="2">  1       -1 0.40698850E-01 0.12164636E+04</pdfrwt>
<totfact> 0.96055599E+01</totfact>
</mgrwt>
</event>
<event>
12    6  0.1450532E-007  0.2300931E+04  0.7818608E-02  0.8477554E-01
         -1   -1    0    0    0  501 -0.00000000000E+00  0.00000000000E+00  0.79514450014E+03  0.79514450014E+03  0.00000000000E+00 0.  1.
          2   -1    0    0  501    0  0.00000000000E+00 -0.00000000000E+00 -0.16645664895E+04  0.16645664895E+04  0.00000000000E+00 0. -1.
         24    2    1    2    0    0 -0.62744936123E+03 -0.59830984930E+03 -0.81994513939E+03  0.11960016511E+04  0.80265441378E+02 0.  0.
        254    2    1    2    0    0  0.62744936123E+03  0.59830984930E+03 -0.49476849941E+02  0.12637093385E+04  0.91806642296E+03 0.  0.
         23    2    4    4    0    0  0.66011533261E+03  0.24262490288E+03 -0.34703042095E+03  0.78958135201E+03  0.91594227631E+02 0.  0.
         23    2    4    4    0    0 -0.32665971387E+02  0.35568494643E+03  0.29755357101E+03  0.47412798653E+03  0.93168520375E+02 0.  0.
          4    1    3    3  502    0 -0.20483334948E+03 -0.23558329714E+03 -0.26035985032E+03  0.40650146692E+03  0.00000000000E+00 0. -1.
         -3    1    3    3    0  502 -0.42261601175E+03 -0.36272655216E+03 -0.55958528907E+03  0.78950018415E+03  0.00000000000E+00 0.  1.
         11    1    5    5    0    0  0.29960064321E+03  0.61985553315E+02 -0.15419947477E+03  0.34260798627E+03  0.00000000000E+00 0.  1.
        -11    1    5    5    0    0  0.36051468940E+03  0.18063934956E+03 -0.19283094618E+03  0.44697336575E+03  0.00000000000E+00 0. -1.
          1    1    6    6  503    0  0.31946015255E+02  0.10544489531E+03  0.77711406028E+02  0.13482669047E+03  0.00000000000E+00 0. -1.
         -1    1    6    6    0  503 -0.64611986641E+02  0.25024005112E+03  0.21984216498E+03  0.33930129606E+03  0.00000000000E+00 0.  1.
<mgrwt>
<rscale>  0 0.23009310E+04</rscale>
<asrwt>0</asrwt>
<pdfrwt beam="1">  1        2 0.25608715E+00 0.23009310E+04</pdfrwt>
<pdfrwt beam="2">  1       -1 0.12232992E+00 0.23009310E+04</pdfrwt>
<totfact> 0.62556542E+00</totfact>
</mgrwt>
</event>
<event>
12    6  0.1450532E-007  0.1228856E+04  0.7818608E-02  0.9087967E-01
          2   -1    0    0  501    0  0.00000000000E+00  0.00000000000E+00  0.73041873941E+03  0.73041873941E+03  0.00000000000E+00 0. -1.
         -1   -1    0    0    0  501 -0.00000000000E+00 -0.00000000000E+00 -0.51685665476E+03  0.51685665476E+03  0.00000000000E+00 0.  1.
         24    2    1    2    0    0 -0.18894618300E+03  0.14067066315E+03  0.22091939748E+03  0.33109314325E+03  0.72995847719E+02 0.  0.
        254    2    1    2    0    0  0.18894618300E+03 -0.14067066315E+03 -0.73573128316E+01  0.91618225091E+03  0.88535128130E+03 0.  0.
         23    2    4    4    0    0 -0.33280755918E+02  0.29164898525E+03 -0.21812421945E+03  0.37865039256E+03  0.98138704718E+02 0.  0.
         23    2    4    4    0    0  0.22222693891E+03 -0.43231964840E+03  0.21076690662E+03  0.53753185835E+03  0.90734332228E+02 0.  0.
          2    1    3    3  502    0 -0.89846144000E+02  0.10549976624E+03  0.15025610886E+03  0.20440016761E+03  0.00000000000E+00 0. -1.
         -1    1    3    3    0  502 -0.99100038995E+02  0.35170896911E+02  0.70663288622E+02  0.12669297564E+03  0.00000000000E+00 0.  1.
         11    1    5    5    0    0 -0.24024608119E+00  0.28824755716E+02  0.84899334604E+01  0.30050012154E+02  0.00000000000E+00 0. -1.
        -11    1    5    5    0    0 -0.33040509836E+02  0.26282422953E+03 -0.22661415291E+03  0.34860038041E+03  0.00000000000E+00 0.  1.
          3    1    6    6  503    0  0.57825778423E+02 -0.16136953199E+03  0.11512660006E+03  0.20648990423E+03  0.00000000000E+00 0. -1.
         -3    1    6    6    0  503  0.16440116049E+03 -0.27095011641E+03  0.95640306556E+02  0.33104195413E+03  0.00000000000E+00 0.  1.
<mgrwt>
<rscale>  0 0.12288560E+04</rscale>
<asrwt>0</asrwt>
<pdfrwt beam="1">  1        2 0.11237211E+00 0.12288560E+04</pdfrwt>
<pdfrwt beam="2">  1       -1 0.79516408E-01 0.12288560E+04</pdfrwt>
<totfact> 0.69001979E+01</totfact>
</mgrwt>
</event>
<event>
12    6  0.1450532E-007  0.2044428E+04  0.7818608E-02  0.8586126E-01
          2   -1    0    0  501    0  0.00000000000E+00  0.00000000000E+00  0.10851445962E+04  0.10851445962E+04  0.00000000000E+00 0. -1.
         -1   -1    0    0    0  501 -0.00000000000E+00 -0.00000000000E+00 -0.96293253823E+03  0.96293253823E+03  0.00000000000E+00 0.  1.
         24    2    1    2    0    0 -0.77987217947E+03 -0.20275592782E+03 -0.18742635334E+03  0.83083077348E+03  0.76423515045E+02 0.  0.
        254    2    1    2    0    0  0.77987217947E+03  0.20275592782E+03  0.30963841126E+03  0.12172463609E+04  0.85819704895E+03 0.  0.
         23    2    4    4    0    0  0.77764471631E+01  0.86717882883E+02  0.40616800461E+03  0.42451110252E+03  0.87502936260E+02 0.  0.
         23    2    4    4    0    0  0.77209573231E+03  0.11603804494E+03 -0.96529593345E+02  0.79273525839E+03  0.97542707427E+02 0.  0.
          4    1    3    3  502    0 -0.11841147245E+03 -0.55426128301E+02 -0.15229870138E+02  0.13162553495E+03  0.00000000000E+00 0. -1.
         -3    1    3    3    0  502 -0.66146070702E+03 -0.14732979952E+03 -0.17219648320E+03  0.69920523853E+03  0.00000000000E+00 0.  1.
         11    1    5    5    0    0  0.47276021855E+02  0.56421898512E+02  0.24813425881E+03  0.25882245511E+03  0.00000000000E+00 0. -1.
        -11    1    5    5    0    0 -0.39499574692E+02  0.30295984371E+02  0.15803374580E+03  0.16568864741E+03  0.00000000000E+00 0.  1.
          2    1    6    6  503    0  0.33736082659E+03  0.32748611756E+02 -0.87250830921E+02  0.34999643767E+03  0.00000000000E+00 0. -1.
         -2    1    6    6    0  503  0.43473490572E+03  0.83289433185E+02 -0.92787624233E+01  0.44273882071E+03  0.00000000000E+00 0.  1.
<mgrwt>
<rscale>  0 0.20444276E+04</rscale>
<asrwt>0</asrwt>
<pdfrwt beam="1">  1        2 0.16694532E+00 0.20444276E+04</pdfrwt>
<pdfrwt beam="2">  1       -1 0.14814347E+00 0.20444276E+04</pdfrwt>
<totfact> 0.84767442E+00</totfact>
</mgrwt>
</event>
<event>
12    6  0.1450532E-007  0.2229661E+04  0.7818608E-02  0.8506183E-01
         -1   -1    0    0    0  501 -0.00000000000E+00  0.00000000000E+00  0.42976817644E+03  0.42976817644E+03  0.00000000000E+00 0.  1.
          2   -1    0    0  501    0  0.00000000000E+00 -0.00000000000E+00 -0.28919020684E+04  0.28919020684E+04  0.00000000000E+00 0. -1.
         24    2    1    2    0    0  0.71774987605E+03  0.22080718304E+03 -0.20990073737E+03  0.78388305535E+03  0.80583051937E+02 0.  0.
        254    2    1    2    0    0 -0.71774987605E+03 -0.22080718304E+03 -0.22522331546E+04  0.25377871895E+04  0.89659853883E+03 0.  0.
         23    2    4    4    0    0 -0.38613460325E+03  0.15344530005E+03 -0.18253668573E+04  0.18741784466E+04  0.89080267741E+02 0.  0.
         23    2    4    4    0    0 -0.33161527281E+03 -0.37425248309E+03 -0.42686629727E+03  0.66360874286E+03  0.90156073521E+02 0.  0.
          2    1    3    3  502    0  0.17038827640E+03  0.88991433244E+02 -0.50953989783E+02  0.19886666136E+03  0.00000000000E+00 0. -1.
         -1    1    3    3    0  502  0.54736159965E+03  0.13181574980E+03 -0.15894674759E+03  0.58501639399E+03  0.00000000000E+00 0.  1.
         11    1    5    5    0    0 -0.50199792167E+02  0.43769186048E+02 -0.19857482304E+03  0.20944622490E+03  0.00000000000E+00 0. -1.
        -11    1    5    5    0    0 -0.33593481108E+03  0.10967611400E+03 -0.16267920343E+04  0.16647322217E+04  0.00000000000E+00 0.  1.
          2    1    6    6  503    0  0.43388504660E+01 -0.21939201139E+01 -0.11875356679E+02  0.12832108364E+02  0.00000000000E+00 0. -1.
         -2    1    6    6    0  503 -0.33595412327E+03 -0.37205856297E+03 -0.41499094059E+03  0.65077663449E+03  0.00000000000E+00 0.  1.
<mgrwt>
<rscale>  0 0.22296614E+04</rscale>
<asrwt>0</asrwt>
<pdfrwt beam="1">  1        2 0.44490800E+00 0.22296614E+04</pdfrwt>
<pdfrwt beam="2">  1       -1 0.66118182E-01 0.22296614E+04</pdfrwt>
<totfact> 0.48917061E+00</totfact>
</mgrwt>
</event>
<event>
12    6  0.1450532E-007  0.2731769E+04  0.7818608E-02  0.8324770E-01
          2   -1    0    0  501    0  0.00000000000E+00  0.00000000000E+00  0.10882361857E+04  0.10882361857E+04  0.00000000000E+00 0. -1.
         -1   -1    0    0    0  501 -0.00000000000E+00 -0.00000000000E+00 -0.17143706355E+04  0.17143706355E+04  0.00000000000E+00 0.  1.
         24    2    1    2    0    0 -0.62718895630E+03 -0.26837933867E+03 -0.13123992909E+04  0.14812847783E+04  0.80120154182E+02 0.  0.
        254    2    1    2    0    0  0.62718895630E+03  0.26837933867E+03  0.68626484110E+03  0.13213220430E+04  0.89974388175E+03 0.  0.
         23    2    4    4    0    0  0.76077348067E+03 -0.25151777291E+02  0.33638584095E+03  0.83662233553E+03  0.85863831260E+02 0.  0.
         23    2    4    4    0    0 -0.13358452437E+03  0.29353111596E+03  0.34987900015E+03  0.48469970743E+03  0.92266735345E+02 0.  0.
          2    1    3    3  502    0 -0.14072593255E+03 -0.52011707190E+02 -0.22337976852E+03  0.26908646708E+03  0.00000000000E+00 0. -1.
         -1    1    3    3    0  502 -0.48646302375E+03 -0.21636763148E+03 -0.10890195224E+04  0.12121983112E+04  0.00000000000E+00 0.  1.
         11    1    5    5    0    0  0.43196420771E+03  0.27543895433E+02  0.18136898933E+03  0.46930422245E+03  0.00000000000E+00 0. -1.
        -11    1    5    5    0    0  0.32880927296E+03 -0.52695672724E+02  0.15501685162E+03  0.36731811307E+03  0.00000000000E+00 0.  1.
          4    1    6    6  503    0 -0.56362653089E+02  0.21134516824E+03  0.26466073147E+03  0.34334943073E+03  0.00000000000E+00 0.  1.
         -4    1    6    6    0  503 -0.77221871281E+02  0.82185947720E+02  0.85218268688E+02  0.14135027671E+03  0.00000000000E+00 0. -1.
<mgrwt>
<rscale>  0 0.27317688E+04</rscale>
<asrwt>0</asrwt>
<pdfrwt beam="1">  1        2 0.16742095E+00 0.27317688E+04</pdfrwt>
<pdfrwt beam="2">  1       -1 0.26374933E+00 0.27317688E+04</pdfrwt>
<totfact> 0.12533000E+00</totfact>
</mgrwt>
</event>
<event>
12    6  0.1450532E-007  0.1566794E+04  0.7818608E-02  0.8841211E-01
         -1   -1    0    0    0  501 -0.00000000000E+00  0.00000000000E+00  0.57893862547E+03  0.57893862547E+03  0.00000000000E+00 0.  1.
          2   -1    0    0  501    0  0.00000000000E+00 -0.00000000000E+00 -0.10600624756E+04  0.10600624756E+04  0.00000000000E+00 0. -1.
         24    2    1    2    0    0 -0.32441409051E+03  0.64322646209E+02 -0.59903999500E+03  0.68891164546E+03  0.79802472976E+02 0.  0.
        254    2    1    2    0    0  0.32441409051E+03 -0.64322646209E+02  0.11791614491E+03  0.95008945557E+03  0.88282719227E+03 0.  0.
         23    2    4    4    0    0  0.59694895490E+03  0.11127200930E+02  0.20907952399E+03  0.63939823893E+03  0.92973067275E+02 0.  0.
         23    2    4    4    0    0 -0.27253486438E+03 -0.75449847138E+02 -0.91163379075E+02  0.31069121664E+03  0.90831374943E+02 0.  0.
          4    1    3    3  502    0 -0.16839094703E+03  0.36081475310E+02 -0.23065417820E+03  0.28785193038E+03  0.00000000000E+00 0. -1.
         -3    1    3    3    0  502 -0.15602314349E+03  0.28241170899E+02 -0.36838581680E+03  0.40105971508E+03  0.00000000000E+00 0.  1.
         11    1    5    5    0    0  0.42493875687E+03 -0.92579456741E+01  0.18850952335E+03  0.46496719997E+03  0.00000000000E+00 0. -1.
        -11    1    5    5    0    0  0.17201019803E+03  0.20385146604E+02  0.20570000636E+02  0.17443103896E+03  0.00000000000E+00 0.  1.
          2    1    6    6  503    0 -0.21260850969E+03 -0.69612492410E+02 -0.10764606048E+03  0.24826588938E+03  0.00000000000E+00 0. -1.
         -2    1    6    6    0  503 -0.59926354690E+02 -0.58373547288E+01  0.16482681407E+02  0.62425327256E+02  0.00000000000E+00 0.  1.
<mgrwt>
<rscale>  0 0.15667943E+04</rscale>
<asrwt>0</asrwt>
<pdfrwt beam="1">  1        2 0.16308653E+00 0.15667943E+04</pdfrwt>
<pdfrwt beam="2">  1       -1 0.89067481E-01 0.15667943E+04</pdfrwt>
<totfact> 0.31276870E+01</totfact>
</mgrwt>
</event>
<event>
12    6  0.1450532E-007  0.1309698E+04  0.7818608E-02  0.9021910E-01
         -1   -1    0    0    0  501 -0.00000000000E+00  0.00000000000E+00  0.33809548467E+03  0.33809548467E+03  0.00000000000E+00 0.  1.
          2   -1    0    0  501    0  0.00000000000E+00 -0.00000000000E+00 -0.12683614373E+04  0.12683614373E+04  0.00000000000E+00 0. -1.
         24    2    1    2    0    0 -0.13715158129E+03 -0.23208591035E+03  0.15308909226E+02  0.28165762212E+03  0.80138800583E+02 0.  0.
        254    2    1    2    0    0  0.13715158129E+03  0.23208591035E+03 -0.94557486181E+03  0.13247992998E+04  0.88786650993E+03 0.  0.
         23    2    4    4    0    0  0.14528996144E+03  0.55532268367E+03 -0.50189073071E+03  0.76765875097E+03  0.88956149147E+02 0.  0.
         23    2    4    4    0    0 -0.81383801430E+01 -0.32323677331E+03 -0.44368413110E+03  0.55714054885E+03  0.94877490123E+02 0.  0.
          2    1    3    3  502    0  0.72200241447E+01 -0.26394425474E+02  0.13120872696E+02  0.30347186773E+02  0.00000000000E+00 0. -1.
         -1    1    3    3    0  502 -0.14437160544E+03 -0.20569148488E+03  0.21880365299E+01  0.25131043534E+03  0.00000000000E+00 0.  1.
         11    1    5    5    0    0  0.75100562090E+02  0.35467862366E+03 -0.36717431535E+03  0.51599806043E+03  0.00000000000E+00 0. -1.
        -11    1    5    5    0    0  0.70189399346E+02  0.20064406000E+03 -0.13471641536E+03  0.25166069054E+03  0.00000000000E+00 0.  1.
          3    1    6    6  503    0 -0.16389055626E+02 -0.44364010573E+01 -0.33633047523E+02  0.37675783792E+02  0.00000000000E+00 0. -1.
         -3    1    6    6    0  503  0.82506754830E+01 -0.31880037225E+03 -0.41005108358E+03  0.51946476506E+03  0.00000000000E+00 0.  1.
<mgrwt>
<rscale>  0 0.13096981E+04</rscale>
<asrwt>0</asrwt>
<pdfrwt beam="1">  1        2 0.19513253E+00 0.13096981E+04</pdfrwt>
<pdfrwt beam="2">  1       -1 0.52014688E-01 0.13096981E+04</pdfrwt>
<totfact> 0.71677898E+01</totfact>
</mgrwt>
</event>
<event>
12    6  0.1450532E-007  0.1058557E+04  0.7818608E-02  0.9246554E-01
          2   -1    0    0  501    0  0.00000000000E+00  0.00000000000E+00  0.76249699895E+03  0.76249699895E+03  0.00000000000E+00 0. -1.
         -1   -1    0    0    0  501 -0.00000000000E+00 -0.00000000000E+00 -0.36739273402E+03  0.36739273402E+03  0.00000000000E+00 0.  1.
         24    2    1    2    0    0 -0.15504841071E+02 -0.28107010679E+02  0.26848745653E+03  0.27940355351E+03  0.70359272718E+02 0.  0.
        254    2    1    2    0    0  0.15504841071E+02  0.28107010679E+02  0.12661680839E+03  0.85048617945E+03  0.84039545521E+03 0.  0.
         23    2    4    4    0    0 -0.80875042840E+02  0.19339414965E+03  0.42604489846E+03  0.48349774100E+03  0.91179714706E+02 0.  0.
         23    2    4    4    0    0  0.96379883911E+02 -0.16528713898E+03 -0.29942809006E+03  0.36698843846E+03  0.91730106874E+02 0.  0.
          2    1    3    3  502    0 -0.20829236807E+02 -0.47378763297E+02  0.23292855750E+03  0.23860913062E+03  0.00000000000E+00 0. -1.
         -1    1    3    3    0  502  0.53243957361E+01  0.19271752619E+02  0.35558899030E+02  0.40794422893E+02  0.00000000000E+00 0.  1.
         11    1    5    5    0    0 -0.95726259870E+02  0.15318956173E+03  0.29804850915E+03  0.34851610072E+03  0.00000000000E+00 0.  1.
        -11    1    5    5    0    0  0.14851217030E+02  0.40204587920E+02  0.12799638931E+03  0.13498164028E+03  0.00000000000E+00 0. -1.
          3    1    6    6  503    0 -0.17478842233E+02 -0.23045737519E+02 -0.54799915411E+02  0.61964882576E+02  0.00000000000E+00 0. -1.
         -3    1    6    6    0  503  0.11385872614E+03 -0.14224140146E+03 -0.24462817465E+03  0.30502355588E+03  0.00000000000E+00 0.  1.
<mgrwt>
<rscale>  0 0.10585572E+04</rscale>
<asrwt>0</asrwt>
<pdfrwt beam="1">  1        2 0.11730723E+00 0.10585572E+04</pdfrwt>
<pdfrwt beam="2">  1       -1 0.56521959E-01 0.10585572E+04</pdfrwt>
<totfact> 0.13209607E+02</totfact>
</mgrwt>
</event>
<event>
12    6  0.1450532E-007  0.1505506E+04  0.7818608E-02  0.8880800E-01
          2   -1    0    0  501    0  0.00000000000E+00  0.00000000000E+00  0.19515448522E+04  0.19515448522E+04  0.00000000000E+00 0. -1.
         -1   -1    0    0    0  501 -0.00000000000E+00 -0.00000000000E+00 -0.29035311515E+03  0.29035311515E+03  0.00000000000E+00 0.  1.
         24    2    1    2    0    0  0.44398680161E+02 -0.24471254173E+03 -0.72747989825E+02  0.27142867311E+03  0.80782322834E+02 0.  0.
        254    2    1    2    0    0 -0.44398680161E+02  0.24471254173E+03  0.17339397269E+04  0.19704692942E+04  0.90241165341E+03 0.  0.
         23    2    4    4    0    0 -0.34687882266E+03  0.13961293719E+03  0.27423379706E+03  0.47297672008E+03  0.93199315720E+02 0.  0.
         23    2    4    4    0    0  0.30248014250E+03  0.10509960454E+03  0.14597059298E+04  0.14974925742E+04  0.95929373076E+02 0.  0.
          2    1    3    3  502    0 -0.69338819051E+01 -0.35334075330E+01 -0.16894329699E+02  0.18600593083E+02  0.00000000000E+00 0. -1.
         -3    1    3    3    0  502  0.51332562066E+02 -0.24117913420E+03 -0.55853660126E+02  0.25282808003E+03  0.00000000000E+00 0.  1.
         11    1    5    5    0    0 -0.24282352137E+03  0.13889726370E+03  0.21829854091E+03  0.35483794239E+03  0.00000000000E+00 0.  1.
        -11    1    5    5    0    0 -0.10405530129E+03  0.71567348901E+00  0.55935256151E+02  0.11813877770E+03  0.00000000000E+00 0. -1.
          1    1    6    6  503    0  0.25465532651E+02  0.40733681757E+02  0.16108204888E+03  0.16809269067E+03  0.00000000000E+00 0. -1.
         -1    1    6    6    0  503  0.27701460985E+03  0.64365922783E+02  0.12986238809E+04  0.13293998835E+04  0.00000000000E+00 0.  1.
<mgrwt>
<rscale>  0 0.15055061E+04</rscale>
<asrwt>0</asrwt>
<pdfrwt beam="1">  1        2 0.30023766E+00 0.15055061E+04</pdfrwt>
<pdfrwt beam="2">  1       -1 0.44669711E-01 0.15055061E+04</pdfrwt>
<totfact> 0.38843059E+01</totfact>
</mgrwt>
</event>
<event>
12    6  0.1450532E-007  0.2765094E+04  0.7818608E-02  0.8314188E-01
         -1   -1    0    0    0  501 -0.00000000000E+00  0.00000000000E+00  0.74969289196E+03  0.74969289196E+03  0.00000000000E+00 0.  1.
          2   -1    0    0  501    0  0.00000000000E+00 -0.00000000000E+00 -0.25496263356E+04  0.25496263356E+04  0.00000000000E+00 0. -1.
         24    2    1    2    0    0 -0.13066949468E+03  0.14449564893E+03 -0.22551519390E+04  0.22652540367E+04  0.87818413071E+02 0.  0.
        254    2    1    2    0    0  0.13066949468E+03 -0.14449564893E+03  0.45521849532E+03  0.10340651908E+04  0.90780693487E+03 0.  0.
         23    2    4    4    0    0 -0.35251986871E+03  0.10280888380E+03  0.21111855945E+03  0.43209018475E+03  0.85387101993E+02 0.  0.
         23    2    4    4    0    0  0.48318936340E+03 -0.24730453273E+03  0.24409993587E+03  0.60197500608E+03  0.90319634896E+02 0.  0.
          4    1    3    3  502    0 -0.11369180875E+03  0.96041634807E+02 -0.12565397359E+04  0.12653228564E+04  0.00000000000E+00 0. -1.
         -3    1    3    3    0  502 -0.16977685933E+02  0.48454014122E+02 -0.99861220304E+03  0.99993118031E+03  0.00000000000E+00 0.  1.
         11    1    5    5    0    0 -0.24102362007E+03  0.40554969803E+02  0.17080135033E+03  0.29817812174E+03  0.00000000000E+00 0.  1.
        -11    1    5    5    0    0 -0.11149624864E+03  0.62253913994E+02  0.40317209120E+02  0.13391206301E+03  0.00000000000E+00 0. -1.
          4    1    6    6  503    0  0.14653026266E+03 -0.98378360244E+02  0.12028230276E+03  0.21358195616E+03  0.00000000000E+00 0. -1.
         -4    1    6    6    0  503  0.33665910074E+03 -0.14892617248E+03  0.12381763311E+03  0.38839304992E+03  0.00000000000E+00 0.  1.
<mgrwt>
<rscale>  0 0.27650944E+04</rscale>
<asrwt>0</asrwt>
<pdfrwt beam="1">  1        2 0.39225020E+00 0.27650944E+04</pdfrwt>
<pdfrwt beam="2">  1       -1 0.11533737E+00 0.27650944E+04</pdfrwt>
<totfact> 0.22018540E+00</totfact>
</mgrwt>
</event>
<event>
12    6  0.1450532E-007  0.1377450E+04  0.7818608E-02  0.8970305E-01
          2   -1    0    0  501    0  0.00000000000E+00  0.00000000000E+00  0.63005260572E+03  0.63005260572E+03  0.00000000000E+00 0. -1.
         -1   -1    0    0    0  501 -0.00000000000E+00 -0.00000000000E+00 -0.75286119344E+03  0.75286119344E+03  0.00000000000E+00 0.  1.
         24    2    1    2    0    0  0.10649385805E+02 -0.21171553260E+03 -0.36629819888E+03  0.43071004698E+03  0.79999361942E+02 0.  0.
        254    2    1    2    0    0 -0.10649385805E+02  0.21171553260E+03  0.24348961115E+03  0.95220375217E+03  0.89580573718E+03 0.  0.
         23    2    4    4    0    0  0.35457602970E+03 -0.10738532052E+03 -0.38341594520E+02  0.38330341278E+03  0.90529887205E+02 0.  0.
         23    2    4    4    0    0 -0.36522541551E+03  0.31910085312E+03  0.28183120567E+03  0.56890033939E+03  0.94888403313E+02 0.  0.
          2    1    3    3  502    0  0.19541041046E+02 -0.92676567944E+02 -0.94218626183E+02  0.13359621271E+03  0.00000000000E+00 0. -1.
         -1    1    3    3    0  502 -0.88916552415E+01 -0.11903896465E+03 -0.27207957269E+03  0.29711383427E+03  0.00000000000E+00 0.  1.
         11    1    5    5    0    0  0.33849525317E+03 -0.12080054091E+03 -0.29637328717E+02  0.36062470569E+03  0.00000000000E+00 0.  1.
        -11    1    5    5    0    0  0.16080776535E+02  0.13415220392E+02 -0.87042658030E+01  0.22678707091E+02  0.00000000000E+00 0. -1.
          2    1    6    6  503    0 -0.35059557933E+03  0.31037551255E+03  0.24532544366E+03  0.52861592139E+03  0.00000000000E+00 0.  1.
         -2    1    6    6    0  503 -0.14629836180E+02  0.87253405656E+01  0.36505762006E+02  0.40284418009E+02  0.00000000000E+00 0. -1.
<mgrwt>
<rscale>  0 0.13774500E+04</rscale>
<asrwt>0</asrwt>
<pdfrwt beam="1">  1        2 0.96931170E-01 0.13774500E+04</pdfrwt>
<pdfrwt beam="2">  1       -1 0.11582480E+00 0.13774500E+04</pdfrwt>
<totfact> 0.35130507E+01</totfact>
</mgrwt>
</event>
<event>
12    6  0.1450532E-007  0.1248712E+04  0.7818608E-02  0.9071256E-01
         -1   -1    0    0    0  501 -0.00000000000E+00  0.00000000000E+00  0.48082221712E+03  0.48082221712E+03  0.00000000000E+00 0.  1.
          2   -1    0    0  501    0  0.00000000000E+00 -0.00000000000E+00 -0.81073702336E+03  0.81073702336E+03  0.00000000000E+00 0. -1.
         24    2    1    2    0    0  0.19423318590E+03  0.16215504524E+03 -0.21592226020E+03  0.34547195254E+03  0.93314834512E+02 0.  0.
        254    2    1    2    0    0 -0.19423318590E+03 -0.16215504524E+03 -0.11399254604E+03  0.94608728795E+03  0.90447004741E+03 0.  0.
         23    2    4    4    0    0 -0.20966435664E+03  0.33852423474E+03  0.48827105369E+02  0.41156896844E+03  0.91908267399E+02 0.  0.
         23    2    4    4    0    0  0.15431170739E+02 -0.50067927998E+03 -0.16281965141E+03  0.53451831950E+03  0.91004025019E+02 0.  0.
          4    1    3    3  502    0  0.17400399662E+03  0.94862923237E+02 -0.17345706555E+03  0.26336992735E+03  0.00000000000E+00 0. -1.
         -3    1    3    3    0  502  0.20229189276E+02  0.67292122006E+02 -0.42465194651E+02  0.82102025186E+02  0.00000000000E+00 0.  1.
         11    1    5    5    0    0 -0.77666815591E+02  0.19371557361E+03 -0.35965608316E+01  0.20873618027E+03  0.00000000000E+00 0. -1.
        -11    1    5    5    0    0 -0.13199754105E+03  0.14480866112E+03  0.52423666201E+02  0.20283278817E+03  0.00000000000E+00 0.  1.
          4    1    6    6  503    0 -0.79962780319E+01 -0.14194009092E+03 -0.88353670187E+02  0.16738369367E+03  0.00000000000E+00 0. -1.
         -4    1    6    6    0  503  0.23427448771E+02 -0.35873918906E+03 -0.74465981219E+02  0.36713462583E+03  0.00000000000E+00 0.  1.
<mgrwt>
<rscale>  0 0.12487119E+04</rscale>
<asrwt>0</asrwt>
<pdfrwt beam="1">  1        2 0.12472877E+00 0.12487119E+04</pdfrwt>
<pdfrwt beam="2">  1       -1 0.73972649E-01 0.12487119E+04</pdfrwt>
<totfact> 0.69944723E+01</totfact>
</mgrwt>
</event>
<event>
12    6  0.1450532E-007  0.2490094E+04  0.7818608E-02  0.8406523E-01
         -1   -1    0    0    0  501 -0.00000000000E+00  0.00000000000E+00  0.49009107135E+03  0.49009107135E+03  0.00000000000E+00 0.  1.
          2   -1    0    0  501    0  0.00000000000E+00 -0.00000000000E+00 -0.31629683846E+04  0.31629683846E+04  0.00000000000E+00 0. -1.
         24    2    1    2    0    0  0.32669742303E+03  0.42826427918E+03 -0.25407539632E+04  0.25986816335E+04  0.87028913774E+02 0.  0.
        254    2    1    2    0    0 -0.32669742303E+03 -0.42826427918E+03 -0.13212335000E+03  0.10543778224E+04  0.89672432424E+03 0.  0.
         23    2    4    4    0    0 -0.51489910983E+03 -0.38186697112E+03 -0.35959414793E+03  0.74075124846E+03  0.91983606880E+02 0.  0.
         23    2    4    4    0    0  0.18820168679E+03 -0.46397308059E+02  0.22747079793E+03  0.31362657393E+03  0.95110876637E+02 0.  0.
          4    1    3    3  502    0  0.77085143297E+02  0.48168358442E+02 -0.41871478068E+03  0.42846747558E+03  0.00000000000E+00 0. -1.
         -3    1    3    3    0  502  0.24961227974E+03  0.38009592073E+03 -0.21220391825E+04  0.21702141579E+04  0.00000000000E+00 0.  1.
         11    1    5    5    0    0 -0.35620528308E+03 -0.31442635903E+03 -0.26818468733E+03  0.54559065742E+03  0.00000000000E+00 0.  1.
        -11    1    5    5    0    0 -0.15869382675E+03 -0.67440612088E+02 -0.91409460604E+02  0.19516059104E+03  0.00000000000E+00 0. -1.
          2    1    6    6  503    0  0.20494924537E+02 -0.34716239047E+02  0.15756404873E+02  0.43284217446E+02  0.00000000000E+00 0. -1.
         -2    1    6    6    0  503  0.16770676226E+03 -0.11681069012E+02  0.21171439306E+03  0.27034235648E+03  0.00000000000E+00 0.  1.
<mgrwt>
<rscale>  0 0.24900944E+04</rscale>
<asrwt>0</asrwt>
<pdfrwt beam="1">  1        2 0.48661053E+00 0.24900944E+04</pdfrwt>
<pdfrwt beam="2">  1       -1 0.75398626E-01 0.24900944E+04</pdfrwt>
<totfact> 0.24614511E+00</totfact>
</mgrwt>
</event>
<event>
12    6  0.1450532E-007  0.1408110E+04  0.7818608E-02  0.8947969E-01
         -1   -1    0    0    0  501 -0.00000000000E+00  0.00000000000E+00  0.97813837606E+03  0.97813837606E+03  0.00000000000E+00 0.  1.
          2   -1    0    0  501    0  0.00000000000E+00 -0.00000000000E+00 -0.50677240851E+03  0.50677240851E+03  0.00000000000E+00 0. -1.
         24    2    1    2    0    0 -0.40816884971E+03 -0.69100431983E+02  0.75394625286E+02  0.42773602270E+03  0.76792421604E+02 0.  0.
        254    2    1    2    0    0  0.40816884971E+03  0.69100431983E+02  0.39597134226E+03  0.10571747619E+04  0.88850914102E+03 0.  0.
         23    2    4    4    0    0  0.38172188260E+03  0.21003827092E+03  0.62809774356E+03  0.76966910078E+03  0.89755659072E+02 0.  0.
         23    2    4    4    0    0  0.26446967113E+02 -0.14093783894E+03 -0.23212640130E+03  0.28750566109E+03  0.90630692732E+02 0.  0.
          2    1    3    3  502    0 -0.85133367767E+02  0.10874468038E+02 -0.28534416838E+01  0.85872501372E+02  0.00000000000E+00 0. -1.
         -1    1    3    3    0  502 -0.32303548195E+03 -0.79974900020E+02  0.78248066970E+02  0.34186352133E+03  0.00000000000E+00 0.  1.
         11    1    5    5    0    0  0.12195166082E+03  0.34891029594E+02  0.23443996224E+03  0.26655522395E+03  0.00000000000E+00 0. -1.
        -11    1    5    5    0    0  0.25977022178E+03  0.17514724133E+03  0.39365778132E+03  0.50311387683E+03  0.00000000000E+00 0.  1.
          3    1    6    6  503    0  0.36357587227E+02 -0.68883216237E+02 -0.18529433899E+03  0.20099941216E+03  0.00000000000E+00 0. -1.
         -3    1    6    6    0  503 -0.99106201143E+01 -0.72054622700E+02 -0.46832062312E+02  0.86506248930E+02  0.00000000000E+00 0.  1.
<mgrwt>
<rscale>  0 0.14081101E+04</rscale>
<asrwt>0</asrwt>
<pdfrwt beam="1">  1        2 0.77964986E-01 0.14081101E+04</pdfrwt>
<pdfrwt beam="2">  1       -1 0.15048283E+00 0.14081101E+04</pdfrwt>
<totfact> 0.23322082E+01</totfact>
</mgrwt>
</event>
