<event>
12    3  0.8686020E-008  0.3710396E+04  0.7818608E-02  0.8065662E-01
          2   -1    0    0  501    0  0.00000000000E+00  0.00000000000E+00  0.36477464654E+04  0.36477464654E+04  0.00000000000E+00 0. -1.
         -2   -1    0    0    0  501 -0.00000000000E+00 -0.00000000000E+00 -0.94353037722E+03  0.94353037722E+03  0.00000000000E+00 0.  1.
         23    2    1    2    0    0 -0.60287957851E+03 -0.15134131098E+04  0.50014711124E+03  0.17064984348E+04  0.90037481791E+02 0.  0.
        254    2    1    2    0    0  0.60287957851E+03  0.15134131098E+04  0.22040689769E+04  0.28847784078E+04  0.90007965207E+03 0.  0.
         23    2    4    4    0    0  0.63452840976E+03  0.87516900377E+03  0.18616500510E+04  0.21546187936E+04  0.89967468149E+02 0.  0.
         23    2    4    4    0    0 -0.31648831246E+02  0.63824410599E+03  0.34241892591E+03  0.73015961421E+03  0.86747645722E+02 0.  0.
          3    1    3    3  502    0 -0.44040406117E+03 -0.12051393858E+04  0.39214476579E+03  0.13416758900E+04  0.00000000000E+00 0. -1.
         -3    1    3    3    0  502 -0.16247551734E+03 -0.30827372392E+03  0.10800234546E+03  0.36482254483E+03  0.00000000000E+00 0.  1.
         13    1    5    5    0    0  0.54984752704E+03  0.79033191363E+03  0.16108146950E+04  0.18766141900E+04  0.00000000000E+00 0.  1.
        -13    1    5    5    0    0  0.84680882712E+02  0.84837090133E+02  0.25083535603E+03  0.27800460355E+03  0.00000000000E+00 0. -1.
          1    1    6    6  503    0  0.23913312238E+02  0.24575791355E+03  0.15639706383E+03  0.29228212424E+03  0.00000000000E+00 0. -1.
         -1    1    6    6    0  503 -0.55562143484E+02  0.39248619244E+03  0.18602186209E+03  0.43787748997E+03  0.00000000000E+00 0.  1.
<mgrwt>
<rscale>  0 0.37103960E+04</rscale>
<asrwt>0</asrwt>
<pdfrwt beam="1">  1        2 0.56119175E+00 0.37103960E+04</pdfrwt>
<pdfrwt beam="2">  1       -2 0.14515852E+00 0.37103960E+04</pdfrwt>
<totfact> 0.16790801E-01</totfact>
</mgrwt>
</event>
<event>
12    3  0.8686020E-008  0.1301790E+04  0.7818608E-02  0.9028147E-01
          1   -1    0    0  501    0  0.00000000000E+00  0.00000000000E+00  0.21121861521E+04  0.21121861521E+04  0.00000000000E+00 0. -1.
         -1   -1    0    0    0  501 -0.00000000000E+00 -0.00000000000E+00 -0.20058089056E+03  0.20058089056E+03  0.00000000000E+00 0.  1.
         23    2    1    2    0    0  0.21690210167E+03 -0.74635320159E+02  0.90164013940E+03  0.93504437035E+03  0.93467003934E+02 0.  0.
        254    2    1    2    0    0 -0.21690210167E+03  0.74635320159E+02  0.10099651221E+04  0.13777226723E+04  0.90855559053E+03 0.  0.
         23    2    4    4    0    0  0.69446730212E+02 -0.27445437267E+03  0.35289333418E+02  0.29963580794E+03  0.91587277131E+02 0.  0.
         23    2    4    4    0    0 -0.28634883188E+03  0.34908969283E+03  0.97467578869E+03  0.10780868643E+04  0.91755799957E+02 0.  0.
          4    1    3    3  502    0  0.19608793340E+03 -0.90306440513E+02  0.85266824240E+03  0.87957311374E+03  0.00000000000E+00 0. -1.
         -4    1    3    3    0  502  0.20814168266E+02  0.15671120354E+02  0.48971897001E+02  0.55471256608E+02  0.00000000000E+00 0.  1.
         13    1    5    5    0    0  0.85314432302E+01 -0.98436802898E+02  0.53721291335E+02  0.11246584740E+03  0.00000000000E+00 0. -1.
        -13    1    5    5    0    0  0.60915286982E+02 -0.17601756977E+03 -0.18431957917E+02  0.18716996054E+03  0.00000000000E+00 0.  1.
          3    1    6    6  503    0 -0.49661079197E+02  0.16487805724E+02  0.10126128005E+03  0.11398209228E+03  0.00000000000E+00 0. -1.
         -3    1    6    6    0  503 -0.23668775268E+03  0.33260188711E+03  0.87341450864E+03  0.96410477204E+03  0.00000000000E+00 0.  1.
<mgrwt>
<rscale>  0 0.13017898E+04</rscale>
<asrwt>0</asrwt>
<pdfrwt beam="1">  1        1 0.32495170E+00 0.13017898E+04</pdfrwt>
<pdfrwt beam="2">  1       -1 0.30858600E-01 0.13017898E+04</pdfrwt>
<totfact> 0.23892672E+01</totfact>
</mgrwt>
</event>
<event>
12    3  0.8686020E-008  0.1190502E+04  0.7818608E-02  0.9121211E-01
          2   -1    0    0  501    0  0.00000000000E+00  0.00000000000E+00  0.14505357248E+04  0.14505357248E+04  0.00000000000E+00 0. -1.
         -2   -1    0    0    0  501 -0.00000000000E+00 -0.00000000000E+00 -0.24427092490E+03  0.24427092490E+03  0.00000000000E+00 0.  1.
         23    2    1    2    0    0 -0.36424001258E+02 -0.23872032484E+03  0.18723832752E+03  0.31898070744E+03  0.91522669679E+02 0.  0.
        254    2    1    2    0    0  0.36424001258E+02  0.23872032484E+03  0.10190264724E+04  0.13758259423E+04  0.89228245003E+03 0.  0.
         23    2    4    4    0    0 -0.38487283499E+03  0.51511909291E+02  0.70700797903E+03  0.81176594760E+03  0.91230999942E+02 0.  0.
         23    2    4    4    0    0  0.42129683625E+03  0.18720841555E+03  0.31201849338E+03  0.56405999469E+03  0.90940212848E+02 0.  0.
          1    1    3    3  502    0 -0.19899920279E+01 -0.69219631757E+02  0.10902000328E+03  0.12915370147E+03  0.00000000000E+00 0. -1.
         -1    1    3    3    0  502 -0.34434009230E+02 -0.16950069309E+03  0.78218324248E+02  0.18982700597E+03  0.00000000000E+00 0.  1.
         13    1    5    5    0    0 -0.67034879472E+02 -0.23136766527E+02  0.15462921696E+03  0.17011519559E+03  0.00000000000E+00 0. -1.
        -13    1    5    5    0    0 -0.31783795552E+03  0.74648675818E+02  0.55237876207E+03  0.64165075201E+03  0.00000000000E+00 0.  1.
          4    1    6    6  503    0  0.29810477708E+02 -0.20171501420E+01  0.44292075262E+02  0.53427721333E+02  0.00000000000E+00 0. -1.
         -4    1    6    6    0  503  0.39148635854E+03  0.18922556570E+03  0.26772641811E+03  0.51063227335E+03  0.00000000000E+00 0.  1.
<mgrwt>
<rscale>  0 0.11905019E+04</rscale>
<asrwt>0</asrwt>
<pdfrwt beam="1">  1        2 0.22315934E+00 0.11905019E+04</pdfrwt>
<pdfrwt beam="2">  1       -2 0.37580143E-01 0.11905019E+04</pdfrwt>
<totfact> 0.89243324E+01</totfact>
</mgrwt>
</event>
<event>
12    3  0.8686020E-008  0.2700527E+04  0.7818608E-02  0.8334834E-01
         -1   -1    0    0    0  501 -0.00000000000E+00  0.00000000000E+00  0.98314577715E+03  0.98314577715E+03  0.00000000000E+00 0.  1.
          1   -1    0    0  501    0  0.00000000000E+00 -0.00000000000E+00 -0.18544675634E+04  0.18544675634E+04  0.00000000000E+00 0. -1.
         23    2    1    2    0    0 -0.21319620087E+03  0.11783044654E+04 -0.43990754890E+03  0.12792332475E+04  0.95210380803E+02 0.  0.
        254    2    1    2    0    0  0.21319620087E+03 -0.11783044654E+04 -0.43141423735E+03  0.15583800931E+04  0.89920867270E+03 0.  0.
         23    2    4    4    0    0  0.25339650074E+03  0.41419651287E+02 -0.58082762310E+02  0.27846030658E+03  0.90780840277E+02 0.  0.
         23    2    4    4    0    0 -0.40200299869E+02 -0.12197241167E+04 -0.37333147504E+03  0.12799197865E+04  0.97341073933E+02 0.  0.
          1    1    3    3  502    0 -0.64417567025E+02  0.57000317065E+03 -0.24065133644E+03  0.62206615663E+03  0.00000000000E+00 0. -1.
         -1    1    3    3    0  502 -0.14877863385E+03  0.60830129475E+03 -0.19925621246E+03  0.65716709085E+03  0.00000000000E+00 0.  1.
         13    1    5    5    0    0  0.45575250096E+02  0.22958390390E+02  0.21206904472E+02  0.55262319060E+02  0.00000000000E+00 0.  1.
        -13    1    5    5    0    0  0.20782125065E+03  0.18461260897E+02 -0.79289666783E+02  0.22319798752E+03  0.00000000000E+00 0. -1.
          1    1    6    6  503    0 -0.38826576361E+02 -0.12211100208E+04 -0.37086841879E+03  0.12767774160E+04  0.00000000000E+00 0. -1.
         -1    1    6    6    0  503 -0.13737235082E+01  0.13859040929E+01 -0.24630562481E+01  0.31423705245E+01  0.00000000000E+00 0.  1.
<mgrwt>
<rscale>  0 0.27005273E+04</rscale>
<asrwt>0</asrwt>
<pdfrwt beam="1">  1        1 0.28530270E+00 0.27005273E+04</pdfrwt>
<pdfrwt beam="2">  1       -1 0.15125320E+00 0.27005273E+04</pdfrwt>
<totfact> 0.11142579E+00</totfact>
</mgrwt>
</event>
<event>
12    3  0.8686020E-008  0.1548971E+04  0.7818608E-02  0.8852525E-01
         -2   -1    0    0    0  501 -0.00000000000E+00  0.00000000000E+00  0.41592558252E+03  0.41592558252E+03  0.00000000000E+00 0.  1.
          2   -1    0    0  501    0  0.00000000000E+00 -0.00000000000E+00 -0.14421524836E+04  0.14421524836E+04  0.00000000000E+00 0. -1.
         23    2    1    2    0    0 -0.14362687852E+03  0.15037455327E+03  0.21510397960E+03  0.31119826612E+03  0.85635578425E+02 0.  0.
        254    2    1    2    0    0  0.14362687852E+03 -0.15037455327E+03 -0.12413308807E+04  0.15468798000E+04  0.89927391479E+03 0.  0.
         23    2    4    4    0    0 -0.91444528656E+02 -0.45497955101E+03 -0.40912308344E+03  0.62542582259E+03  0.91691158249E+02 0.  0.
         23    2    4    4    0    0  0.23507140717E+03  0.30460499774E+03 -0.83220779722E+03  0.92145397739E+03  0.92004584552E+02 0.  0.
          2    1    3    3  502    0 -0.88479194682E+02  0.12690054075E+03  0.10868810351E+03  0.18906458943E+03  0.00000000000E+00 0. -1.
         -2    1    3    3    0  502 -0.55147683837E+02  0.23474012523E+02  0.10641587609E+03  0.12213367669E+03  0.00000000000E+00 0.  1.
         13    1    5    5    0    0 -0.10164882839E+03 -0.29464645667E+03 -0.25360618828E+03  0.40182722341E+03  0.00000000000E+00 0. -1.
        -13    1    5    5    0    0  0.10204299737E+02 -0.16033309435E+03 -0.15551689517E+03  0.22359859919E+03  0.00000000000E+00 0.  1.
          2    1    6    6  503    0  0.20710675411E+03  0.20299506365E+03 -0.62382680226E+03  0.68793901087E+03  0.00000000000E+00 0. -1.
         -2    1    6    6    0  503  0.27964653062E+02  0.10160993410E+03 -0.20838099496E+03  0.23351496652E+03  0.00000000000E+00 0.  1.
<mgrwt>
<rscale>  0 0.15489714E+04</rscale>
<asrwt>0</asrwt>
<pdfrwt beam="1">  1        2 0.22186961E+00 0.15489714E+04</pdfrwt>
<pdfrwt beam="2">  1       -2 0.63988552E-01 0.15489714E+04</pdfrwt>
<totfact> 0.29754940E+01</totfact>
</mgrwt>
</event>
<event>
12    3  0.8686020E-008  0.1748552E+04  0.7818608E-02  0.8734148E-01
         -1   -1    0    0    0  501 -0.00000000000E+00  0.00000000000E+00  0.63789264248E+03  0.63789264248E+03  0.00000000000E+00 0.  1.
          1   -1    0    0  501    0  0.00000000000E+00 -0.00000000000E+00 -0.11982552596E+04  0.11982552596E+04  0.00000000000E+00 0. -1.
         23    2    1    2    0    0 -0.53675912484E+03  0.28480131360E+03 -0.33159920350E+00  0.61503488686E+03  0.95108652417E+02 0.  0.
        254    2    1    2    0    0  0.53675912484E+03 -0.28480131360E+03 -0.56003101793E+03  0.12211130152E+04  0.89903287404E+03 0.  0.
         23    2    4    4    0    0 -0.99207410783E+02  0.15283770925E+03  0.75650003011E+02  0.21710419848E+03  0.90608136050E+02 0.  0.
         23    2    4    4    0    0  0.63596653562E+03 -0.43763902285E+03 -0.63568102095E+03  0.10040088168E+04  0.89230011707E+02 0.  0.
          2    1    3    3  502    0 -0.18830830565E+03  0.10367077231E+03 -0.45522022506E+02  0.21972687942E+03  0.00000000000E+00 0. -1.
         -2    1    3    3    0  502 -0.34845081919E+03  0.18113054130E+03  0.45190423302E+02  0.39530800743E+03  0.00000000000E+00 0.  1.
         13    1    5    5    0    0 -0.17783359086E+02 -0.10493427928E+02  0.11634595477E+02  0.23700711001E+02  0.00000000000E+00 0. -1.
        -13    1    5    5    0    0 -0.81424051697E+02  0.16333113718E+03  0.64015407535E+02  0.19340348748E+03  0.00000000000E+00 0.  1.
          4    1    6    6  503    0  0.37133745260E+03 -0.22108362482E+03 -0.39856260989E+03  0.58789593200E+03  0.00000000000E+00 0. -1.
         -4    1    6    6    0  503  0.26462908303E+03 -0.21655539803E+03 -0.23711841106E+03  0.41611288476E+03  0.00000000000E+00 0.  1.
<mgrwt>
<rscale>  0 0.17485516E+04</rscale>
<asrwt>0</asrwt>
<pdfrwt beam="1">  1        1 0.18434696E+00 0.17485516E+04</pdfrwt>
<pdfrwt beam="2">  1       -1 0.98137331E-01 0.17485516E+04</pdfrwt>
<totfact> 0.10106350E+01</totfact>
</mgrwt>
</event>
<event>
12    3  0.8686020E-008  0.3299401E+04  0.7818608E-02  0.8163048E-01
          2   -1    0    0  501    0  0.00000000000E+00  0.00000000000E+00  0.18792843656E+04  0.18792843656E+04  0.00000000000E+00 0. -1.
         -2   -1    0    0    0  501 -0.00000000000E+00 -0.00000000000E+00 -0.14481637769E+04  0.14481637769E+04  0.00000000000E+00 0.  1.
         23    2    1    2    0    0  0.75584907763E+03 -0.35992036984E+03 -0.10858700873E+04  0.13740299936E+04  0.89409596881E+02 0.  0.
        254    2    1    2    0    0 -0.75584907763E+03  0.35992036984E+03  0.15169906761E+04  0.19534181489E+04  0.90207053617E+03 0.  0.
         23    2    4    4    0    0 -0.83841046149E+03  0.13609288629E+03  0.14594225140E+04  0.16911579760E+04  0.92993816992E+02 0.  0.
         23    2    4    4    0    0  0.82561383862E+02  0.22382748355E+03  0.57568162162E+02  0.26226017287E+03  0.92472593136E+02 0.  0.
          2    1    3    3  502    0  0.43790190910E+03 -0.16671177346E+03 -0.64325228130E+03  0.79581680983E+03  0.00000000000E+00 0. -1.
         -2    1    3    3    0  502  0.31794716853E+03 -0.19320859639E+03 -0.44261780602E+03  0.57821318378E+03  0.00000000000E+00 0.  1.
         13    1    5    5    0    0 -0.66818170072E+03  0.10364635260E+03  0.12304625419E+04  0.14040111889E+04  0.00000000000E+00 0. -1.
        -13    1    5    5    0    0 -0.17022876078E+03  0.32446533697E+02  0.22895997204E+03  0.28714678710E+03  0.00000000000E+00 0.  1.
          2    1    6    6  503    0  0.84084612843E+02  0.20456592702E+03  0.22620152465E+02  0.22232658840E+03  0.00000000000E+00 0. -1.
         -2    1    6    6    0  503 -0.15232289809E+01  0.19261556534E+02  0.34948009697E+02  0.39933584468E+02  0.00000000000E+00 0.  1.
<mgrwt>
<rscale>  0 0.32994009E+04</rscale>
<asrwt>0</asrwt>
<pdfrwt beam="1">  1        2 0.28912067E+00 0.32994009E+04</pdfrwt>
<pdfrwt beam="2">  1       -2 0.22279443E+00 0.32994009E+04</pdfrwt>
<totfact> 0.61805063E-01</totfact>
</mgrwt>
</event>
<event>
12    3  0.8686020E-008  0.1338092E+04  0.7818608E-02  0.8999892E-01
         -2   -1    0    0    0  501 -0.00000000000E+00  0.00000000000E+00  0.24065960026E+03  0.24065960026E+03  0.00000000000E+00 0.  1.
          2   -1    0    0  501    0  0.00000000000E+00 -0.00000000000E+00 -0.18599809066E+04  0.18599809066E+04  0.00000000000E+00 0. -1.
         23    2    1    2    0    0  0.11383891095E+03 -0.28934308420E+03 -0.16796425098E+03  0.36391219730E+03  0.86841117615E+02 0.  0.
        254    2    1    2    0    0 -0.11383891095E+03  0.28934308420E+03 -0.14513570554E+04  0.17367283096E+04  0.90172567952E+03 0.  0.
         23    2    4    4    0    0 -0.40690546692E+02  0.46053115166E+03 -0.28239542781E+03  0.54947861540E+03  0.91841760085E+02 0.  0.
         23    2    4    4    0    0 -0.73148364260E+02 -0.17118806745E+03 -0.11689616276E+04  0.11872496942E+04  0.91839599336E+02 0.  0.
          1    1    3    3  502    0  0.72275755613E+02 -0.16430460668E+03 -0.14369481458E+03  0.22993039896E+03  0.00000000000E+00 0. -1.
         -1    1    3    3    0  502  0.41563155339E+02 -0.12503847752E+03 -0.24269436398E+02  0.13398179834E+03  0.00000000000E+00 0.  1.
         13    1    5    5    0    0 -0.34332584408E+02  0.36330696067E+03 -0.17579751937E+03  0.40506226909E+03  0.00000000000E+00 0. -1.
        -13    1    5    5    0    0 -0.63579622839E+01  0.97224190985E+02 -0.10659790844E+03  0.14441634631E+03  0.00000000000E+00 0.  1.
          1    1    6    6  503    0 -0.78939803363E+02 -0.16729059439E+03 -0.11641891996E+04  0.11787935052E+04  0.00000000000E+00 0. -1.
         -1    1    6    6    0  503  0.57914391030E+01 -0.38974730570E+01 -0.47724279921E+01  0.84561889793E+01  0.00000000000E+00 0.  1.
<mgrwt>
<rscale>  0 0.13380916E+04</rscale>
<asrwt>0</asrwt>
<pdfrwt beam="1">  1        2 0.28615091E+00 0.13380916E+04</pdfrwt>
<pdfrwt beam="2">  1       -2 0.37024554E-01 0.13380916E+04</pdfrwt>
<totfact> 0.53725917E+01</totfact>
</mgrwt>
</event>
<event>
12    3  0.8686020E-008  0.2921840E+04  0.7818608E-02  0.8266409E-01
         -2   -1    0    0    0  501 -0.00000000000E+00  0.00000000000E+00  0.26715173401E+04  0.26715173401E+04  0.00000000000E+00 0.  1.
          2   -1    0    0  501    0  0.00000000000E+00 -0.00000000000E+00 -0.79890451485E+03  0.79890451485E+03  0.00000000000E+00 0. -1.
         23    2    1    2    0    0  0.52598623232E+03  0.13699924129E+03 -0.58104745510E+03  0.80094816925E+03  0.92040839048E+02 0.  0.
        254    2    1    2    0    0 -0.52598623232E+03 -0.13699924129E+03  0.24536602804E+04  0.26694736857E+04  0.90011703602E+03 0.  0.
         23    2    4    4    0    0 -0.55413004091E+02  0.32328538974E+03  0.48854283379E+03  0.59499207135E+03  0.88076218570E+02 0.  0.
         23    2    4    4    0    0 -0.47057322823E+03 -0.46028463103E+03  0.19651174466E+04  0.20744816144E+04  0.92121033414E+02 0.  0.
          4    1    3    3  502    0  0.21527110571E+03  0.81758724930E+02 -0.19070370933E+03  0.29898836567E+03  0.00000000000E+00 0. -1.
         -4    1    3    3    0  502  0.31071512661E+03  0.55240516364E+02 -0.39034374577E+03  0.50195980358E+03  0.00000000000E+00 0.  1.
         13    1    5    5    0    0 -0.20463835922E+02  0.17214453010E+03  0.18151034158E+03  0.25099504363E+03  0.00000000000E+00 0. -1.
        -13    1    5    5    0    0 -0.34949168169E+02  0.15114085963E+03  0.30703249221E+03  0.34399702772E+03  0.00000000000E+00 0.  1.
          3    1    6    6  503    0 -0.41433636918E+03 -0.43343153039E+03  0.18289106196E+04  0.19246951896E+04  0.00000000000E+00 0. -1.
         -3    1    6    6    0  503 -0.56236859046E+02 -0.26853100638E+02  0.13620682697E+03  0.14978642476E+03  0.00000000000E+00 0.  1.
<mgrwt>
<rscale>  0 0.29218400E+04</rscale>
<asrwt>0</asrwt>
<pdfrwt beam="1">  1        2 0.12290839E+00 0.29218400E+04</pdfrwt>
<pdfrwt beam="2">  1       -2 0.41100266E+00 0.29218400E+04</pdfrwt>
<totfact> 0.18673253E-01</totfact>
</mgrwt>
</event>
<event>
12    3  0.8686020E-008  0.2390111E+04  0.7818608E-02  0.8443215E-01
          1   -1    0    0  501    0  0.00000000000E+00  0.00000000000E+00  0.75348398378E+03  0.75348398378E+03  0.00000000000E+00 0. -1.
         -1   -1    0    0    0  501 -0.00000000000E+00 -0.00000000000E+00 -0.18954047936E+04  0.18954047936E+04  0.00000000000E+00 0.  1.
         23    2    1    2    0    0  0.15548757972E+03 -0.31468612280E+03  0.57107601203E+03  0.67659769636E+03  0.91939588185E+02 0.  0.
        254    2    1    2    0    0 -0.15548757972E+03  0.31468612280E+03 -0.17129968218E+04  0.19722910810E+04  0.91234327598E+03 0.  0.
         23    2    4    4    0    0  0.29122831238E+03 -0.13070352431E+03 -0.46730857712E+03  0.57336315179E+03  0.92036168900E+02 0.  0.
         23    2    4    4    0    0 -0.44671589209E+03  0.44538964710E+03 -0.12456882447E+04  0.13989279292E+04  0.85633650450E+02 0.  0.
          1    1    3    3  502    0  0.10742102692E+03 -0.25080846315E+03  0.50013028980E+03  0.56971437491E+03  0.00000000000E+00 0. -1.
         -1    1    3    3    0  502  0.48066552800E+02 -0.63877659648E+02  0.70945722236E+02  0.10688332145E+03  0.00000000000E+00 0.  1.
         13    1    5    5    0    0  0.26541799485E+02 -0.39729906957E+02 -0.38808498562E+02  0.61555115038E+02  0.00000000000E+00 0. -1.
        -13    1    5    5    0    0  0.26468651289E+03 -0.90973617349E+02 -0.42850007856E+03  0.51180803675E+03  0.00000000000E+00 0.  1.
          3    1    6    6  503    0 -0.12598439094E+03  0.12623130166E+03 -0.44199083710E+03  0.47661547222E+03  0.00000000000E+00 0. -1.
         -3    1    6    6    0  503 -0.32073150115E+03  0.31915834545E+03 -0.80369740760E+03  0.92231245697E+03  0.00000000000E+00 0.  1.
<mgrwt>
<rscale>  0 0.23901106E+04</rscale>
<asrwt>0</asrwt>
<pdfrwt beam="1">  1        1 0.11592061E+00 0.23901106E+04</pdfrwt>
<pdfrwt beam="2">  1       -1 0.29160074E+00 0.23901106E+04</pdfrwt>
<totfact> 0.81650965E-01</totfact>
</mgrwt>
</event>
<event>
12    3  0.8686020E-008  0.2262173E+04  0.7818608E-02  0.8492987E-01
          1   -1    0    0  501    0  0.00000000000E+00  0.00000000000E+00  0.25954384256E+04  0.25954384256E+04  0.00000000000E+00 0. -1.
         -1   -1    0    0    0  501 -0.00000000000E+00 -0.00000000000E+00 -0.49292494925E+03  0.49292494925E+03  0.00000000000E+00 0.  1.
         23    2    1    2    0    0  0.59282556717E+03 -0.67918296796E+03  0.12656037991E+04  0.15562022724E+04  0.85328070120E+02 0.  0.
        254    2    1    2    0    0 -0.59282556717E+03  0.67918296796E+03  0.83690967731E+03  0.15321611024E+04  0.91343756149E+03 0.  0.
         23    2    4    4    0    0 -0.28904506716E+03  0.84794782863E+03  0.45863892483E+03  0.10101281937E+04  0.86294457806E+02 0.  0.
         23    2    4    4    0    0 -0.30378050001E+03 -0.16876486067E+03  0.37827075248E+03  0.52203290870E+03  0.93088265666E+02 0.  0.
          1    1    3    3  502    0  0.11098807535E+03 -0.86678818286E+02  0.17114066357E+03  0.22163189557E+03  0.00000000000E+00 0. -1.
         -1    1    3    3    0  502  0.48183749182E+03 -0.59250414967E+03  0.10944631355E+04  0.13345703769E+04  0.00000000000E+00 0.  1.
         13    1    5    5    0    0 -0.25019009005E+03  0.62096908501E+03  0.33082328375E+03  0.74675413007E+03  0.00000000000E+00 0.  1.
        -13    1    5    5    0    0 -0.38854977115E+02  0.22697874361E+03  0.12781564108E+03  0.26337406365E+03  0.00000000000E+00 0. -1.
          1    1    6    6  503    0 -0.22435907243E+03 -0.81105988758E+02  0.22064969325E+03  0.32496378555E+03  0.00000000000E+00 0. -1.
         -1    1    6    6    0  503 -0.79421427579E+02 -0.87658871913E+02  0.15762105923E+03  0.19706912315E+03  0.00000000000E+00 0.  1.
<mgrwt>
<rscale>  0 0.22621727E+04</rscale>
<asrwt>0</asrwt>
<pdfrwt beam="1">  1        1 0.39929821E+00 0.22621727E+04</pdfrwt>
<pdfrwt beam="2">  1       -1 0.75834609E-01 0.22621727E+04</pdfrwt>
<totfact> 0.18413553E+00</totfact>
</mgrwt>
</event>
<event>
12    3  0.8686020E-008  0.2549461E+04  0.7818608E-02  0.8385574E-01
          1   -1    0    0  501    0  0.00000000000E+00  0.00000000000E+00  0.11428867481E+04  0.11428867481E+04  0.00000000000E+00 0. -1.
         -1   -1    0    0    0  501 -0.00000000000E+00 -0.00000000000E+00 -0.14217833231E+04  0.14217833231E+04  0.00000000000E+00 0.  1.
         23    2    1    2    0    0  0.27066355378E+03  0.10739672356E+04 -0.15125741970E+03  0.11215564395E+04  0.91354569728E+02 0.  0.
        254    2    1    2    0    0 -0.27066355378E+03 -0.10739672356E+04 -0.12763915530E+03  0.14431136317E+04  0.91630825456E+03 0.  0.
         23    2    4    4    0    0 -0.13791148299E+03  0.88028827271E+02  0.14708615793E+03  0.23833513729E+03  0.91655050274E+02 0.  0.
         23    2    4    4    0    0 -0.13275207079E+03 -0.11619960629E+04 -0.27472531323E+03  0.12047784944E+04  0.90328623810E+02 0.  0.
          1    1    3    3  502    0  0.18192582765E+03  0.86846675800E+03 -0.11333563884E+03  0.89452584286E+03  0.00000000000E+00 0. -1.
         -1    1    3    3    0  502  0.88737726130E+02  0.20550047764E+03 -0.37921780860E+02  0.22703059665E+03  0.00000000000E+00 0.  1.
         13    1    5    5    0    0 -0.89135426366E+02  0.10277917683E+03  0.98834284491E+02  0.16815736444E+03  0.00000000000E+00 0. -1.
        -13    1    5    5    0    0 -0.48776056626E+02 -0.14750349561E+02  0.48251873437E+02  0.70177772851E+02  0.00000000000E+00 0.  1.
          1    1    6    6  503    0 -0.11252476138E+03 -0.11091655769E+04 -0.27472140014E+03  0.11482081460E+04  0.00000000000E+00 0. -1.
         -1    1    6    6    0  503 -0.20227309410E+02 -0.52830486040E+02 -0.39130892409E-02  0.56570348386E+02  0.00000000000E+00 0.  1.
<mgrwt>
<rscale>  0 0.25494606E+04</rscale>
<asrwt>0</asrwt>
<pdfrwt beam="1">  1        1 0.17582873E+00 0.25494606E+04</pdfrwt>
<pdfrwt beam="2">  1       -1 0.21873590E+00 0.25494606E+04</pdfrwt>
<totfact> 0.11688932E+00</totfact>
</mgrwt>
</event>
<event>
12    3  0.8686020E-008  0.1618205E+04  0.7818608E-02  0.8809442E-01
         -2   -1    0    0    0  501 -0.00000000000E+00  0.00000000000E+00  0.50528639327E+03  0.50528639327E+03  0.00000000000E+00 0.  1.
          2   -1    0    0  501    0  0.00000000000E+00 -0.00000000000E+00 -0.12955950217E+04  0.12955950217E+04  0.00000000000E+00 0. -1.
         23    2    1    2    0    0  0.48622364423E+03  0.25746377774E+03 -0.19545065623E+03  0.59106232960E+03  0.91938508747E+02 0.  0.
        254    2    1    2    0    0 -0.48622364423E+03 -0.25746377774E+03 -0.59485797215E+03  0.12098190853E+04  0.89839032894E+03 0.  0.
         23    2    4    4    0    0 -0.37466360145E+03 -0.53391996473E+03 -0.61088856066E+03  0.89817174476E+03  0.89912771883E+02 0.  0.
         23    2    4    4    0    0 -0.11156004279E+03  0.27645618698E+03  0.16030588514E+02  0.31164734057E+03  0.89405920658E+02 0.  0.
          3    1    3    3  502    0  0.24027801589E+03  0.81598328354E+02 -0.11221931039E+03  0.27746168336E+03  0.00000000000E+00 0. -1.
         -3    1    3    3    0  502  0.24594562835E+03  0.17586544939E+03 -0.83231345838E+02  0.31360064624E+03  0.00000000000E+00 0.  1.
         13    1    5    5    0    0 -0.79433730696E+02 -0.70403398128E+02 -0.70387780077E+02  0.12736088734E+03  0.00000000000E+00 0.  1.
        -13    1    5    5    0    0 -0.29522987075E+03 -0.46351656660E+03 -0.54050078059E+03  0.77081085742E+03  0.00000000000E+00 0. -1.
          3    1    6    6  503    0 -0.10770150987E+03  0.17295765938E+03 -0.12762495604E+02  0.20414908391E+03  0.00000000000E+00 0. -1.
         -3    1    6    6    0  503 -0.38585329150E+01  0.10349852760E+03  0.28793084118E+02  0.10749825666E+03  0.00000000000E+00 0.  1.
<mgrwt>
<rscale>  0 0.16182046E+04</rscale>
<asrwt>0</asrwt>
<pdfrwt beam="1">  1        2 0.19932231E+00 0.16182046E+04</pdfrwt>
<pdfrwt beam="2">  1       -2 0.77736368E-01 0.16182046E+04</pdfrwt>
<totfact> 0.23478578E+01</totfact>
</mgrwt>
</event>
<event>
12    3  0.8686020E-008  0.1911003E+04  0.7818608E-02  0.8649399E-01
         -1   -1    0    0    0  501 -0.00000000000E+00  0.00000000000E+00  0.36866584641E+03  0.36866584641E+03  0.00000000000E+00 0.  1.
          1   -1    0    0  501    0  0.00000000000E+00 -0.00000000000E+00 -0.24764513449E+04  0.24764513449E+04  0.00000000000E+00 0. -1.
         23    2    1    2    0    0  0.21902564949E+03  0.69446140856E+03 -0.62562025624E+03  0.96430198988E+03  0.90712400185E+02 0.  0.
        254    2    1    2    0    0 -0.21902564949E+03 -0.69446140856E+03 -0.14821652423E+04  0.18808152015E+04  0.90022393520E+03 0.  0.
         23    2    4    4    0    0 -0.16087182517E+03 -0.88404798409E+03 -0.13529594505E+04  0.16267383021E+04  0.91420164843E+02 0.  0.
         23    2    4    4    0    0 -0.58153824316E+02  0.18958657553E+03 -0.12920579174E+03  0.25407689932E+03  0.92390460802E+02 0.  0.
          2    1    3    3  502    0  0.47558199410E+02  0.26370823353E+03 -0.19352181416E+03  0.33053669587E+03  0.00000000000E+00 0. -1.
         -2    1    3    3    0  502  0.17146745008E+03  0.43075317503E+03 -0.43209844208E+03  0.63376529400E+03  0.00000000000E+00 0.  1.
         13    1    5    5    0    0 -0.57889690047E+02 -0.24750193779E+03 -0.31461844965E+03  0.40446655521E+03  0.00000000000E+00 0.  1.
        -13    1    5    5    0    0 -0.10298213513E+03 -0.63654604630E+03 -0.10383410009E+04  0.12222717469E+04  0.00000000000E+00 0. -1.
          2    1    6    6  503    0 -0.69047148114E+02  0.81540547216E+02 -0.42014031510E+02  0.11481092433E+03  0.00000000000E+00 0. -1.
         -2    1    6    6    0  503  0.10893323797E+02  0.10804602831E+03 -0.87191760229E+02  0.13926597499E+03  0.00000000000E+00 0.  1.
<mgrwt>
<rscale>  0 0.19110029E+04</rscale>
<asrwt>0</asrwt>
<pdfrwt beam="1">  1        1 0.38099251E+00 0.19110029E+04</pdfrwt>
<pdfrwt beam="2">  1       -1 0.56717823E-01 0.19110029E+04</pdfrwt>
<totfact> 0.41401649E+00</totfact>
</mgrwt>
</event>
<event>
12    3  0.8686020E-008  0.2245467E+04  0.7818608E-02  0.8499739E-01
          3   -1    0    0  501    0  0.00000000000E+00  0.00000000000E+00  0.16668915308E+04  0.16668915308E+04  0.00000000000E+00 0. -1.
         -3   -1    0    0    0  501 -0.00000000000E+00 -0.00000000000E+00 -0.75621605951E+03  0.75621605951E+03  0.00000000000E+00 0.  1.
         23    2    1    2    0    0 -0.56328087679E+03  0.25929359274E+02  0.11919709341E+04  0.13215199761E+04  0.87536629988E+02 0.  0.
        254    2    1    2    0    0  0.56328087679E+03 -0.25929359274E+02 -0.28129546281E+03  0.11015876142E+04  0.90355434625E+03 0.  0.
         23    2    4    4    0    0  0.10864603377E+03  0.13858116057E+03  0.28758987521E+03  0.34934412852E+03  0.91239712234E+02 0.  0.
         23    2    4    4    0    0  0.45463484302E+03 -0.16451051985E+03 -0.56888533802E+03  0.75224348572E+03  0.92104192991E+02 0.  0.
          4    1    3    3  502    0 -0.50333339041E+03  0.50449079061E+02  0.10588861280E+04  0.11735115864E+04  0.00000000000E+00 0. -1.
         -4    1    3    3    0  502 -0.59947486381E+02 -0.24519719787E+02  0.13308480611E+03  0.14800838963E+03  0.00000000000E+00 0.  1.
         13    1    5    5    0    0  0.52166301941E+02  0.72390138415E+02  0.65121748570E+02  0.11046491450E+03  0.00000000000E+00 0.  1.
        -13    1    5    5    0    0  0.56479731828E+02  0.66191022160E+02  0.22246812664E+03  0.23887921403E+03  0.00000000000E+00 0. -1.
          1    1    6    6  503    0  0.42641415917E+03 -0.17593080998E+03 -0.52540482757E+03  0.69916444266E+03  0.00000000000E+00 0. -1.
         -1    1    6    6    0  503  0.28220683852E+02  0.11420290132E+02 -0.43480510447E+02  0.53079043063E+02  0.00000000000E+00 0.  1.
<mgrwt>
<rscale>  0 0.22454667E+04</rscale>
<asrwt>0</asrwt>
<pdfrwt beam="1">  1        3 0.25644485E+00 0.22454667E+04</pdfrwt>
<pdfrwt beam="2">  1       -3 0.11634093E+00 0.22454667E+04</pdfrwt>
<totfact> 0.98287770E-02</totfact>
</mgrwt>
</event>
<event>
12    3  0.8686020E-008  0.3076926E+04  0.7818608E-02  0.8222099E-01
         -2   -1    0    0    0  501 -0.00000000000E+00  0.00000000000E+00  0.14681877897E+04  0.14681877897E+04  0.00000000000E+00 0.  1.
          2   -1    0    0  501    0  0.00000000000E+00 -0.00000000000E+00 -0.16121018590E+04  0.16121018590E+04  0.00000000000E+00 0. -1.
         23    2    1    2    0    0  0.60715749816E+01  0.83180722469E+03  0.10683031919E+04  0.13570028039E+04  0.90800754362E+02 0.  0.
        254    2    1    2    0    0 -0.60715749816E+01 -0.83180722469E+03 -0.12122172613E+04  0.17232868448E+04  0.89905880659E+03 0.  0.
         23    2    4    4    0    0 -0.12306517440E+03  0.19939624188E+01  0.84234230127E+02  0.17458355704E+03  0.90746899820E+02 0.  0.
         23    2    4    4    0    0  0.11699359942E+03 -0.83380118711E+03 -0.12964514914E+04  0.15487032877E+04  0.93720232163E+02 0.  0.
          1    1    3    3  502    0 -0.27357712439E+02  0.54029058241E+03  0.64308288820E+03  0.84036775221E+03  0.00000000000E+00 0. -1.
         -1    1    3    3    0  502  0.33429287420E+02  0.29151664228E+03  0.42522030372E+03  0.51663505173E+03  0.00000000000E+00 0.  1.
         13    1    5    5    0    0 -0.53792245274E+01 -0.25217161778E+02  0.36531312349E+02  0.44714405806E+02  0.00000000000E+00 0.  1.
        -13    1    5    5    0    0 -0.11768594987E+03  0.27211124197E+02  0.47702917778E+02  0.12986915123E+03  0.00000000000E+00 0. -1.
          2    1    6    6  503    0  0.13266954879E+03 -0.74485518602E+03 -0.11456961097E+04  0.13729639591E+04  0.00000000000E+00 0. -1.
         -2    1    6    6    0  503 -0.15675949373E+02 -0.88946001087E+02 -0.15075538171E+03  0.17573932859E+03  0.00000000000E+00 0.  1.
<mgrwt>
<rscale>  0 0.30769259E+04</rscale>
<asrwt>0</asrwt>
<pdfrwt beam="1">  1        2 0.24801567E+00 0.30769259E+04</pdfrwt>
<pdfrwt beam="2">  1       -2 0.22587504E+00 0.30769259E+04</pdfrwt>
<totfact> 0.84757506E-01</totfact>
</mgrwt>
</event>
<event>
12    3  0.8686020E-008  0.1963282E+04  0.7818608E-02  0.8623982E-01
          1   -1    0    0  501    0  0.00000000000E+00  0.00000000000E+00  0.14051011035E+04  0.14051011035E+04  0.00000000000E+00 0. -1.
         -1   -1    0    0    0  501 -0.00000000000E+00 -0.00000000000E+00 -0.68580066791E+03  0.68580066791E+03  0.00000000000E+00 0.  1.
         23    2    1    2    0    0 -0.76973619573E+03 -0.16712504538E+02  0.34626681146E+03  0.84917954911E+03  0.91826374737E+02 0.  0.
        254    2    1    2    0    0  0.76973619573E+03  0.16712504538E+02  0.37303362415E+03  0.12417222223E+04  0.89997048498E+03 0.  0.
         23    2    4    4    0    0  0.19485714112E+02  0.34491323727E+03  0.15852349014E+03  0.39062933908E+03  0.90093003742E+02 0.  0.
         23    2    4    4    0    0  0.75025048161E+03 -0.32820073273E+03  0.21451013401E+03  0.85109288324E+03  0.88051077105E+02 0.  0.
          3    1    3    3  502    0 -0.20936340832E+03  0.27468528736E+02  0.12285948283E+03  0.24429901624E+03  0.00000000000E+00 0. -1.
         -3    1    3    3    0  502 -0.56037278741E+03 -0.44181033274E+02  0.22340732863E+03  0.60488053287E+03  0.00000000000E+00 0.  1.
         13    1    5    5    0    0  0.26939026177E+02  0.14193459431E+03  0.22589026308E+02  0.14622381578E+03  0.00000000000E+00 0.  1.
        -13    1    5    5    0    0 -0.74533120646E+01  0.20297864297E+03  0.13593446383E+03  0.24440552330E+03  0.00000000000E+00 0. -1.
          2    1    6    6  503    0  0.68827476481E+03 -0.32147779202E+03  0.18365963705E+03  0.78153757742E+03  0.00000000000E+00 0. -1.
         -2    1    6    6    0  503  0.61975716805E+02 -0.67229407131E+01  0.30850496957E+02  0.69555305820E+02  0.00000000000E+00 0.  1.
<mgrwt>
<rscale>  0 0.19632822E+04</rscale>
<asrwt>0</asrwt>
<pdfrwt beam="1">  1        1 0.21616940E+00 0.19632822E+04</pdfrwt>
<pdfrwt beam="2">  1       -1 0.10550780E+00 0.19632822E+04</pdfrwt>
<totfact> 0.59691675E+00</totfact>
</mgrwt>
</event>
<event>
12    3  0.8686020E-008  0.1671635E+04  0.7818608E-02  0.8777709E-01
         -1   -1    0    0    0  501 -0.00000000000E+00  0.00000000000E+00  0.38167018093E+03  0.38167018093E+03  0.00000000000E+00 0.  1.
          1   -1    0    0  501    0  0.00000000000E+00 -0.00000000000E+00 -0.18303526404E+04  0.18303526404E+04  0.00000000000E+00 0. -1.
         23    2    1    2    0    0  0.57445123739E+03 -0.11559242282E+03 -0.59249375759E+03  0.83825054185E+03  0.90880612731E+02 0.  0.
        254    2    1    2    0    0 -0.57445123739E+03  0.11559242282E+03 -0.85618870185E+03  0.13737722794E+04  0.90046396387E+03 0.  0.
         23    2    4    4    0    0 -0.40934761942E+03  0.16197540812E+03  0.45046176136E+02  0.45188121131E+03  0.91465648166E+02 0.  0.
         23    2    4    4    0    0 -0.16510361797E+03 -0.46382985297E+02 -0.90123487799E+03  0.92189106813E+03  0.90819877807E+02 0.  0.
          2    1    3    3  502    0  0.49018441681E+03 -0.12314790810E+03 -0.47602060109E+03  0.69429228889E+03  0.00000000000E+00 0. -1.
         -2    1    3    3    0  502  0.84266820583E+02  0.75554852805E+01 -0.11647315650E+03  0.14395825296E+03  0.00000000000E+00 0.  1.
         13    1    5    5    0    0 -0.47992732325E+02  0.30721669230E+02 -0.23002843345E+02  0.61451233659E+02  0.00000000000E+00 0.  1.
        -13    1    5    5    0    0 -0.36135488709E+03  0.13125373889E+03  0.68049019481E+02  0.39042997765E+03  0.00000000000E+00 0. -1.
          4    1    6    6  503    0 -0.13888125407E+03  0.16133189104E+01 -0.61658696806E+03  0.63203646628E+03  0.00000000000E+00 0. -1.
         -4    1    6    6    0  503 -0.26222363904E+02 -0.47996304207E+02 -0.28464790993E+03  0.28985460185E+03  0.00000000000E+00 0.  1.
<mgrwt>
<rscale>  0 0.16716352E+04</rscale>
<asrwt>0</asrwt>
<pdfrwt beam="1">  1        1 0.28159271E+00 0.16716352E+04</pdfrwt>
<pdfrwt beam="2">  1       -1 0.58718489E-01 0.16716352E+04</pdfrwt>
<totfact> 0.10893684E+01</totfact>
</mgrwt>
</event>
<event>
12    3  0.8686020E-008  0.1748170E+04  0.7818608E-02  0.8734358E-01
         -1   -1    0    0    0  501 -0.00000000000E+00  0.00000000000E+00  0.26662909013E+03  0.26662909013E+03  0.00000000000E+00 0.  1.
          1   -1    0    0  501    0  0.00000000000E+00 -0.00000000000E+00 -0.28654945885E+04  0.28654945885E+04  0.00000000000E+00 0. -1.
         23    2    1    2    0    0 -0.25756947569E+03  0.34331419547E+03 -0.11114802761E+03  0.45202031058E+03  0.88101109627E+02 0.  0.
        254    2    1    2    0    0  0.25756947569E+03 -0.34331419547E+03 -0.24877174708E+04  0.26801033681E+04  0.90000509857E+03 0.  0.
         23    2    4    4    0    0  0.13384249738E+03 -0.99066162955E+02 -0.23546777699E+04  0.23624109983E+04  0.93543606463E+02 0.  0.
         23    2    4    4    0    0  0.12372697831E+03 -0.24424803251E+03 -0.13303970095E+03  0.31769236978E+03  0.90903318087E+02 0.  0.
          1    1    3    3  502    0 -0.91618552894E+02  0.13752147180E+03 -0.86471823651E+02  0.18650332631E+03  0.00000000000E+00 0. -1.
         -1    1    3    3    0  502 -0.16595092280E+03  0.20579272367E+03 -0.24676203956E+02  0.26551698427E+03  0.00000000000E+00 0.  1.
         13    1    5    5    0    0  0.42778705953E+01 -0.18265928877E+02 -0.80721323904E+03  0.80743120922E+03  0.00000000000E+00 0.  1.
        -13    1    5    5    0    0  0.12956462679E+03 -0.80800234078E+02 -0.15474645308E+04  0.15549797891E+04  0.00000000000E+00 0. -1.
          3    1    6    6  503    0  0.92057821230E+02 -0.22581398523E+03 -0.87139464995E+02  0.25895923373E+03  0.00000000000E+00 0. -1.
         -3    1    6    6    0  503  0.31669157081E+02 -0.18434047283E+02 -0.45900235954E+02  0.58733136049E+02  0.00000000000E+00 0.  1.
<mgrwt>
<rscale>  0 0.17481696E+04</rscale>
<asrwt>0</asrwt>
<pdfrwt beam="1">  1        1 0.44084535E+00 0.17481696E+04</pdfrwt>
<pdfrwt beam="2">  1       -1 0.41019858E-01 0.17481696E+04</pdfrwt>
<totfact> 0.41350452E+00</totfact>
</mgrwt>
</event>
<event>
12    3  0.8686020E-008  0.1536895E+04  0.7818608E-02  0.8860282E-01
          2   -1    0    0  501    0  0.00000000000E+00  0.00000000000E+00  0.21026101296E+04  0.21026101296E+04  0.00000000000E+00 0. -1.
         -2   -1    0    0    0  501 -0.00000000000E+00 -0.00000000000E+00 -0.28084697366E+03  0.28084697366E+03  0.00000000000E+00 0.  1.
         23    2    1    2    0    0 -0.15463352095E+03  0.35304988642E+02  0.13351244548E+04  0.13474436017E+04  0.88819940746E+02 0.  0.
        254    2    1    2    0    0  0.15463352095E+03 -0.35304988642E+02  0.48663870115E+03  0.10360135016E+04  0.90074901165E+03 0.  0.
         23    2    4    4    0    0  0.12232620011E+03  0.17485784611E+03  0.69013247000E+03  0.72839168326E+03  0.93448662425E+02 0.  0.
         23    2    4    4    0    0  0.32307320832E+02 -0.21016283476E+03 -0.20349376885E+03  0.30762181833E+03  0.89494631449E+02 0.  0.
          2    1    3    3  502    0 -0.14114279460E+03  0.60189724122E+02  0.11165977749E+04  0.11270912484E+04  0.00000000000E+00 0. -1.
         -2    1    3    3    0  502 -0.13490726342E+02 -0.24884735480E+02  0.21852667989E+03  0.22035235325E+03  0.00000000000E+00 0.  1.
         13    1    5    5    0    0  0.29324267989E+02 -0.13579689825E+01  0.14607542757E+03  0.14899593052E+03  0.00000000000E+00 0. -1.
        -13    1    5    5    0    0  0.93001932125E+02  0.17621581510E+03  0.54405704243E+03  0.57939575274E+03  0.00000000000E+00 0.  1.
          3    1    6    6  503    0 -0.23806274606E+02 -0.51121653284E+02 -0.83019710352E+02  0.10036151878E+03  0.00000000000E+00 0. -1.
         -3    1    6    6    0  503  0.56113595438E+02 -0.15904118147E+03 -0.12047405850E+03  0.20726029955E+03  0.00000000000E+00 0.  1.
<mgrwt>
<rscale>  0 0.15368952E+04</rscale>
<asrwt>0</asrwt>
<pdfrwt beam="1">  1        2 0.32347847E+00 0.15368952E+04</pdfrwt>
<pdfrwt beam="2">  1       -2 0.43207228E-01 0.15368952E+04</pdfrwt>
<totfact> 0.28675210E+01</totfact>
</mgrwt>
</event>
<event>
12    3  0.8686020E-008  0.2619273E+04  0.7818608E-02  0.8361684E-01
         -2   -1    0    0    0  501 -0.00000000000E+00  0.00000000000E+00  0.83390868670E+03  0.83390868670E+03  0.00000000000E+00 0.  1.
          2   -1    0    0  501    0  0.00000000000E+00 -0.00000000000E+00 -0.20567568402E+04  0.20567568402E+04  0.00000000000E+00 0. -1.
         23    2    1    2    0    0  0.55032149640E+03 -0.10112338642E+04 -0.61509128254E+03  0.13079376765E+04  0.83162504794E+02 0.  0.
        254    2    1    2    0    0 -0.55032149640E+03  0.10112338642E+04 -0.60775687097E+03  0.15827278504E+04  0.90011741272E+03 0.  0.
         23    2    4    4    0    0 -0.74396323386E+03  0.88481233181E+03 -0.65080105727E+03  0.13298466672E+04  0.92606620366E+02 0.  0.
         23    2    4    4    0    0  0.19364173746E+03  0.12642153241E+03  0.43044186305E+02  0.25288118324E+03  0.92825451903E+02 0.  0.
          3    1    3    3  502    0  0.16474899113E+03 -0.33851071332E+03 -0.24121931733E+03  0.44712245768E+03  0.00000000000E+00 0. -1.
         -3    1    3    3    0  502  0.38557250527E+03 -0.67272315090E+03 -0.37387196521E+03  0.86081521881E+03  0.00000000000E+00 0.  1.
         13    1    5    5    0    0 -0.45168551860E+03  0.49761397552E+03 -0.33422877413E+03  0.75056535345E+03  0.00000000000E+00 0.  1.
        -13    1    5    5    0    0 -0.29227771526E+03  0.38719835629E+03 -0.31657228314E+03  0.57928131371E+03  0.00000000000E+00 0. -1.
          3    1    6    6  503    0  0.21716088861E+02  0.55295419820E+02  0.29508935340E+02  0.66332113138E+02  0.00000000000E+00 0. -1.
         -3    1    6    6    0  503  0.17192564860E+03  0.71126112586E+02  0.13535250965E+02  0.18654907011E+03  0.00000000000E+00 0.  1.
<mgrwt>
<rscale>  0 0.26192727E+04</rscale>
<asrwt>0</asrwt>
<pdfrwt beam="1">  1        2 0.31642413E+00 0.26192727E+04</pdfrwt>
<pdfrwt beam="2">  1       -2 0.12829365E+00 0.26192727E+04</pdfrwt>
<totfact> 0.24636356E+00</totfact>
</mgrwt>
</event>
<event>
12    3  0.8686020E-008  0.2694431E+04  0.7818608E-02  0.8336814E-01
         -1   -1    0    0    0  501 -0.00000000000E+00  0.00000000000E+00  0.14387030791E+04  0.14387030791E+04  0.00000000000E+00 0.  1.
          1   -1    0    0  501    0  0.00000000000E+00 -0.00000000000E+00 -0.12615453165E+04  0.12615453165E+04  0.00000000000E+00 0. -1.
         23    2    1    2    0    0  0.73931587922E+02 -0.11635007479E+04 -0.17965042044E+03  0.11832030658E+04  0.92170230158E+02 0.  0.
        254    2    1    2    0    0 -0.73931587922E+02  0.11635007479E+04  0.35680818301E+03  0.15170453298E+04  0.90272619493E+03 0.  0.
         23    2    4    4    0    0 -0.88256237632E+02  0.12530293403E+04  0.14227415893E+03  0.12674135734E+04  0.90683728738E+02 0.  0.
         23    2    4    4    0    0  0.14324649710E+02 -0.89528592358E+02  0.21453402408E+03  0.24963175637E+03  0.89836528562E+02 0.  0.
          1    1    3    3  502    0  0.16709684682E+02 -0.58725868332E+03 -0.13219512129E+03  0.60218562320E+03  0.00000000000E+00 0. -1.
         -1    1    3    3    0  502  0.57221903240E+02 -0.57624206459E+03 -0.47455299152E+02  0.58101744263E+03  0.00000000000E+00 0.  1.
         13    1    5    5    0    0 -0.80499972245E+02  0.65737547126E+03  0.44932229659E+02  0.66380845205E+03  0.00000000000E+00 0. -1.
        -13    1    5    5    0    0 -0.77562653861E+01  0.59565386901E+03  0.97341929271E+02  0.60360512134E+03  0.00000000000E+00 0.  1.
          2    1    6    6  503    0  0.43356729091E+02 -0.68376478689E+02  0.18884949258E+03  0.20547330640E+03  0.00000000000E+00 0. -1.
         -2    1    6    6    0  503 -0.29032079381E+02 -0.21152113670E+02  0.25684531502E+02  0.44158449977E+02  0.00000000000E+00 0.  1.
<mgrwt>
<rscale>  0 0.26944306E+04</rscale>
<asrwt>0</asrwt>
<pdfrwt beam="1">  1        1 0.19408389E+00 0.26944306E+04</pdfrwt>
<pdfrwt beam="2">  1       -1 0.22133894E+00 0.26944306E+04</pdfrwt>
<totfact> 0.90781090E-01</totfact>
</mgrwt>
</event>
<event>
12    3  0.8686020E-008  0.2058096E+04  0.7818608E-02  0.8579931E-01
          2   -1    0    0  501    0  0.00000000000E+00  0.00000000000E+00  0.27919766973E+04  0.27919766973E+04  0.00000000000E+00 0. -1.
         -2   -1    0    0    0  501 -0.00000000000E+00 -0.00000000000E+00 -0.37927950067E+03  0.37927950067E+03  0.00000000000E+00 0.  1.
         23    2    1    2    0    0 -0.72655764826E+03  0.34425942145E+03  0.12912937373E+04  0.15239225498E+04  0.92194663923E+02 0.  0.
        254    2    1    2    0    0  0.72655764826E+03 -0.34425942145E+03  0.11214034593E+04  0.16473336482E+04  0.89986769282E+03 0.  0.
         23    2    4    4    0    0  0.58401378385E+03  0.10516743445E+03  0.24616555357E+03  0.64898368325E+03  0.91924166367E+02 0.  0.
         23    2    4    4    0    0  0.14254386441E+03 -0.44942685590E+03  0.87523790575E+03  0.99834996500E+03  0.91422146449E+02 0.  0.
          2    1    3    3  502    0 -0.38679456841E+03  0.13330323984E+03  0.67040266555E+03  0.78537858761E+03  0.00000000000E+00 0. -1.
         -2    1    3    3    0  502 -0.33976307985E+03  0.21095618161E+03  0.62089107179E+03  0.73854396214E+03  0.00000000000E+00 0.  1.
         13    1    5    5    0    0  0.55874276982E+03  0.11941919639E+03  0.23690064988E+03  0.61852756220E+03  0.00000000000E+00 0. -1.
        -13    1    5    5    0    0  0.25271014039E+02 -0.14251761945E+02  0.92649036861E+01  0.30456121050E+02  0.00000000000E+00 0.  1.
          3    1    6    6  503    0  0.13714332271E+03 -0.38923569417E+03  0.81214229144E+03  0.91098178803E+03  0.00000000000E+00 0. -1.
         -3    1    6    6    0  503  0.54005416996E+01 -0.60191161732E+02  0.63095614317E+02  0.87368176971E+02  0.00000000000E+00 0.  1.
<mgrwt>
<rscale>  0 0.20580957E+04</rscale>
<asrwt>0</asrwt>
<pdfrwt beam="1">  1        2 0.42953486E+00 0.20580957E+04</pdfrwt>
<pdfrwt beam="2">  1       -2 0.58350694E-01 0.20580957E+04</pdfrwt>
<totfact> 0.59469324E+00</totfact>
</mgrwt>
</event>
<event>
12    3  0.8686020E-008  0.1309474E+04  0.7818608E-02  0.9022086E-01
         -2   -1    0    0    0  501 -0.00000000000E+00  0.00000000000E+00  0.69848957870E+03  0.69848957870E+03  0.00000000000E+00 0. -1.
          2   -1    0    0  501    0  0.00000000000E+00 -0.00000000000E+00 -0.61372488215E+03  0.61372488215E+03  0.00000000000E+00 0.  1.
         23    2    1    2    0    0  0.10077657953E+03 -0.32303159917E+03 -0.28286099962E+00  0.34995016971E+03  0.89217196909E+02 0.  0.
        254    2    1    2    0    0 -0.10077657953E+03  0.32303159917E+03  0.85047557547E+02  0.96226429115E+03  0.89677987596E+03 0.  0.
         23    2    4    4    0    0 -0.46846672791E+03  0.18715622056E+03 -0.94461039333E+02  0.52096316193E+03  0.89393523739E+02 0.  0.
         23    2    4    4    0    0  0.36769014838E+03  0.13587537861E+03  0.17950859688E+03  0.44130112921E+03  0.94155119687E+02 0.  0.
          3    1    3    3  502    0  0.77119761347E+02 -0.24094363287E+03  0.38910758587E+02  0.25595964320E+03  0.00000000000E+00 0. -1.
         -3    1    3    3    0  502  0.23656818188E+02 -0.82087966293E+02 -0.39193619587E+02  0.93990526508E+02  0.00000000000E+00 0.  1.
         13    1    5    5    0    0 -0.36393448614E+03  0.10432544365E+03 -0.61200094150E+02  0.38350692291E+03  0.00000000000E+00 0. -1.
        -13    1    5    5    0    0 -0.10453224178E+03  0.82830776904E+02 -0.33260945183E+02  0.13745623903E+03  0.00000000000E+00 0.  1.
          2    1    6    6  503    0  0.36372257019E+03  0.14625682789E+03  0.17439318347E+03  0.42906660347E+03  0.00000000000E+00 0. -1.
         -2    1    6    6    0  503  0.39675781894E+01 -0.10381449281E+02  0.51154134099E+01  0.12234525746E+02  0.00000000000E+00 0.  1.
<mgrwt>
<rscale>  0 0.13094738E+04</rscale>
<asrwt>0</asrwt>
<pdfrwt beam="1">  1        2 0.94419213E-01 0.13094738E+04</pdfrwt>
<pdfrwt beam="2">  1       -2 0.10745994E+00 0.13094738E+04</pdfrwt>
<totfact> 0.32861338E+01</totfact>
</mgrwt>
</event>
<event>
12    3  0.8686020E-008  0.2121840E+04  0.7818608E-02  0.8551683E-01
          2   -1    0    0  501    0  0.00000000000E+00  0.00000000000E+00  0.31811932629E+04  0.31811932629E+04  0.00000000000E+00 0. -1.
         -2   -1    0    0    0  501 -0.00000000000E+00 -0.00000000000E+00 -0.35381414378E+03  0.35381414378E+03  0.00000000000E+00 0.  1.
         23    2    1    2    0    0 -0.28459442927E+03  0.80090977524E+03  0.87965005243E+03  0.12265210327E+04  0.90106445824E+02 0.  0.
        254    2    1    2    0    0  0.28459442927E+03 -0.80090977524E+03  0.19477290667E+04  0.23084863741E+04  0.90167087375E+03 0.  0.
         23    2    4    4    0    0  0.42694819561E+03 -0.32667336512E+03  0.16175365352E+04  0.17070687397E+04  0.93053695040E+02 0.  0.
         23    2    4    4    0    0 -0.14235376634E+03 -0.47423641012E+03  0.33019253157E+03  0.60141763439E+03  0.86667730884E+02 0.  0.
          1    1    3    3  502    0 -0.18938814457E+03  0.40588303870E+03  0.44020469718E+03  0.62800404922E+03  0.00000000000E+00 0. -1.
         -1    1    3    3    0  502 -0.95206284697E+02  0.39502673654E+03  0.43944535525E+03  0.59851698345E+03  0.00000000000E+00 0.  1.
         13    1    5    5    0    0  0.41764736509E+03 -0.32472755120E+03  0.16107185926E+04  0.16953736133E+04  0.00000000000E+00 0. -1.
        -13    1    5    5    0    0  0.93008305187E+01 -0.19458139198E+01  0.68179425356E+01  0.11695126360E+02  0.00000000000E+00 0.  1.
          2    1    6    6  503    0 -0.92417295293E+02 -0.21715091852E+03  0.11535862211E+03  0.26268439158E+03  0.00000000000E+00 0. -1.
         -2    1    6    6    0  503 -0.49936471045E+02 -0.25708549159E+03  0.21483390946E+03  0.33873324281E+03  0.00000000000E+00 0.  1.
<mgrwt>
<rscale>  0 0.21218399E+04</rscale>
<asrwt>0</asrwt>
<pdfrwt beam="1">  1        2 0.48941433E+00 0.21218399E+04</pdfrwt>
<pdfrwt beam="2">  1       -2 0.54432947E-01 0.21218399E+04</pdfrwt>
<totfact> 0.39076233E+00</totfact>
</mgrwt>
</event>
<event>
12    3  0.8686020E-008  0.3482252E+04  0.7818608E-02  0.8118009E-01
         -1   -1    0    0    0  501 -0.00000000000E+00  0.00000000000E+00  0.23999210966E+04  0.23999210966E+04  0.00000000000E+00 0.  1.
          1   -1    0    0  501    0  0.00000000000E+00 -0.00000000000E+00 -0.12631744416E+04  0.12631744416E+04  0.00000000000E+00 0. -1.
         23    2    1    2    0    0 -0.10008502755E+04  0.88311030920E+03 -0.44127310877E+03  0.14088528711E+04  0.92516829240E+02 0.  0.
        254    2    1    2    0    0  0.10008502755E+04 -0.88311030920E+03  0.15780197638E+04  0.22542426671E+04  0.89993251683E+03 0.  0.
         23    2    4    4    0    0  0.81474872908E+03 -0.15643488886E+03  0.10024157490E+04  0.13044320154E+04  0.91750657456E+02 0.  0.
         23    2    4    4    0    0  0.18610154646E+03 -0.72667542035E+03  0.57560401481E+03  0.94981065162E+03  0.90162852301E+02 0.  0.
          3    1    3    3  502    0 -0.84139872307E+03  0.70478104650E+03 -0.38464512778E+03  0.11630219297E+04  0.00000000000E+00 0. -1.
         -3    1    3    3    0  502 -0.15945155247E+03  0.17832926271E+03 -0.56627980986E+02  0.24583094141E+03  0.00000000000E+00 0.  1.
         13    1    5    5    0    0  0.38524366547E+03 -0.95427837769E+02  0.54273959421E+03  0.67237297769E+03  0.00000000000E+00 0. -1.
        -13    1    5    5    0    0  0.42950506361E+03 -0.61007051088E+02  0.45967615474E+03  0.63205903774E+03  0.00000000000E+00 0.  1.
          1    1    6    6  503    0  0.11267869457E+03 -0.54422386334E+03  0.38628587290E+03  0.67682558850E+03  0.00000000000E+00 0. -1.
         -1    1    6    6    0  503  0.73422851891E+02 -0.18245155701E+03  0.18931814191E+03  0.27298506313E+03  0.00000000000E+00 0.  1.
<mgrwt>
<rscale>  0 0.34822516E+04</rscale>
<asrwt>0</asrwt>
<pdfrwt beam="1">  1        1 0.19433453E+00 0.34822516E+04</pdfrwt>
<pdfrwt beam="2">  1       -1 0.36921863E+00 0.34822516E+04</pdfrwt>
<totfact> 0.90787027E-02</totfact>
</mgrwt>
</event>
<event>
12    3  0.8686020E-008  0.2338756E+04  0.7818608E-02  0.8462795E-01
         -2   -1    0    0    0  501 -0.00000000000E+00  0.00000000000E+00  0.61003162523E+03  0.61003162523E+03  0.00000000000E+00 0.  1.
          2   -1    0    0  501    0  0.00000000000E+00 -0.00000000000E+00 -0.22415975178E+04  0.22415975178E+04  0.00000000000E+00 0. -1.
         23    2    1    2    0    0  0.68576063762E+03  0.56043287582E+03 -0.12461280325E+04  0.15314977020E+04  0.91090489948E+02 0.  0.
        254    2    1    2    0    0 -0.68576063762E+03 -0.56043287582E+03 -0.38543786001E+03  0.13201314410E+04  0.89990667138E+03 0.  0.
         23    2    4    4    0    0 -0.64591971804E+03 -0.77621470524E+03 -0.24164526858E+03  0.10422958261E+04  0.90920857910E+02 0.  0.
         23    2    4    4    0    0 -0.39840919579E+02  0.21578182942E+03 -0.14379259143E+03  0.27783561495E+03  0.91472524888E+02 0.  0.
          1    1    3    3  502    0  0.44678558339E+03  0.41122080235E+03 -0.88978711745E+03  0.10772376805E+04  0.00000000000E+00 0. -1.
         -1    1    3    3    0  502  0.23897505422E+03  0.14921207347E+03 -0.35634091509E+03  0.45426002155E+03  0.00000000000E+00 0.  1.
         13    1    5    5    0    0 -0.52693750831E+03 -0.68309435037E+03 -0.21057259596E+03  0.88804383188E+03  0.00000000000E+00 0. -1.
        -13    1    5    5    0    0 -0.11898220972E+03 -0.93120354864E+02 -0.31072672615E+02  0.15425199417E+03  0.00000000000E+00 0.  1.
          4    1    6    6  503    0 -0.26431941986E+02  0.22038560375E+03 -0.14210794609E+03  0.26355858977E+03  0.00000000000E+00 0. -1.
         -4    1    6    6    0  503 -0.13408977593E+02 -0.46037743374E+01 -0.16846453336E+01  0.14277025185E+02  0.00000000000E+00 0.  1.
<mgrwt>
<rscale>  0 0.23387564E+04</rscale>
<asrwt>0</asrwt>
<pdfrwt beam="1">  1        2 0.34486115E+00 0.23387564E+04</pdfrwt>
<pdfrwt beam="2">  1       -2 0.93851021E-01 0.23387564E+04</pdfrwt>
<totfact> 0.42390364E+00</totfact>
</mgrwt>
</event>
<event>
12    3  0.8686020E-008  0.2886441E+04  0.7818608E-02  0.8276923E-01
         -2   -1    0    0    0  501 -0.00000000000E+00  0.00000000000E+00  0.76466915945E+03  0.76466915945E+03  0.00000000000E+00 0. -1.
          2   -1    0    0  501    0  0.00000000000E+00 -0.00000000000E+00 -0.27239048413E+04  0.27239048413E+04  0.00000000000E+00 0.  1.
         23    2    1    2    0    0 -0.71917430701E+03  0.10830917440E+04 -0.97910941453E+03  0.16299859358E+04  0.88879106152E+02 0.  0.
        254    2    1    2    0    0  0.71917430701E+03 -0.10830917440E+04 -0.98012626728E+03  0.18585880649E+04  0.89632733153E+03 0.  0.
         23    2    4    4    0    0  0.17984285571E+03  0.10432246805E+03 -0.32461417977E+03  0.39614440241E+03  0.91265501490E+02 0.  0.
         23    2    4    4    0    0  0.53933145130E+03 -0.11874142121E+04 -0.65551208751E+03  0.14624436625E+04  0.90633567798E+02 0.  0.
          1    1    3    3  502    0 -0.20436656753E+03  0.24122271141E+03 -0.22552206590E+03  0.38834815904E+03  0.00000000000E+00 0. -1.
         -1    1    3    3    0  502 -0.51480773948E+03  0.84186903263E+03 -0.75358734863E+03  0.12416377768E+04  0.00000000000E+00 0.  1.
         13    1    5    5    0    0  0.48807958985E+02 -0.13564342382E+02 -0.78418513825E+02  0.93357761086E+02  0.00000000000E+00 0. -1.
        -13    1    5    5    0    0  0.13103489672E+03  0.11788681043E+03 -0.24619566595E+03  0.30278664132E+03  0.00000000000E+00 0.  1.
          4    1    6    6  503    0 -0.35113420636E+01 -0.98810541431E+01 -0.31565200307E+01  0.10951181341E+02  0.00000000000E+00 0. -1.
         -4    1    6    6    0  503  0.54284279336E+03 -0.11775331579E+04 -0.65235556748E+03  0.14514924811E+04  0.00000000000E+00 0.  1.
<mgrwt>
<rscale>  0 0.28864414E+04</rscale>
<asrwt>0</asrwt>
<pdfrwt beam="1">  1        2 0.41906228E+00 0.28864414E+04</pdfrwt>
<pdfrwt beam="2">  1       -2 0.11764141E+00 0.28864414E+04</pdfrwt>
<totfact> 0.12378672E+00</totfact>
</mgrwt>
</event>
<event>
12    3  0.8686020E-008  0.3232248E+04  0.7818608E-02  0.8180352E-01
         -2   -1    0    0    0  501 -0.00000000000E+00  0.00000000000E+00  0.95573589008E+03  0.95573589008E+03  0.00000000000E+00 0. -1.
          2   -1    0    0  501    0  0.00000000000E+00 -0.00000000000E+00 -0.27328220867E+04  0.27328220867E+04  0.00000000000E+00 0.  1.
         23    2    1    2    0    0 -0.12965141842E+04  0.17884729352E+03 -0.16295982316E+04  0.20920950745E+04  0.91301808384E+02 0.  0.
        254    2    1    2    0    0  0.12965141842E+04 -0.17884729352E+03 -0.14748796506E+03  0.15964629023E+04  0.90222265242E+03 0.  0.
         23    2    4    4    0    0  0.84443821556E+03  0.24301504491E+02  0.32124803376E+03  0.90816044048E+03  0.88817922943E+02 0.  0.
         23    2    4    4    0    0  0.45207596859E+03 -0.20314879801E+03 -0.46873599882E+03  0.68830246184E+03  0.91677297487E+02 0.  0.
          3    1    3    3  502    0 -0.89759669561E+03  0.10846802710E+03 -0.11868801219E+04  0.14920219719E+04  0.00000000000E+00 0. -1.
         -3    1    3    3    0  502 -0.39891748854E+03  0.70379266422E+02 -0.44271810965E+03  0.60007310256E+03  0.00000000000E+00 0.  1.
         13    1    5    5    0    0  0.80196137545E+03  0.33571252314E+02  0.28567578603E+03  0.85198575775E+03  0.00000000000E+00 0. -1.
        -13    1    5    5    0    0  0.42476840112E+02 -0.92697478231E+01  0.35572247728E+02  0.56174682723E+02  0.00000000000E+00 0.  1.
          3    1    6    6  503    0  0.40188147593E+03 -0.19268331048E+03 -0.37942447375E+03  0.58531915235E+03  0.00000000000E+00 0. -1.
         -3    1    6    6    0  503  0.50194492667E+02 -0.10465487538E+02 -0.89311525068E+02  0.10298330949E+03  0.00000000000E+00 0.  1.
<mgrwt>
<rscale>  0 0.32322476E+04</rscale>
<asrwt>0</asrwt>
<pdfrwt beam="1">  1        2 0.42043417E+00 0.32322476E+04</pdfrwt>
<pdfrwt beam="2">  1       -2 0.14703629E+00 0.32322476E+04</pdfrwt>
<totfact> 0.67304092E-01</totfact>
</mgrwt>
</event>
<event>
12    3  0.8686020E-008  0.3120156E+04  0.7818608E-02  0.8210228E-01
          1   -1    0    0  501    0  0.00000000000E+00  0.00000000000E+00  0.14790525166E+04  0.14790525166E+04  0.00000000000E+00 0.  1.
         -1   -1    0    0    0  501 -0.00000000000E+00 -0.00000000000E+00 -0.16455422515E+04  0.16455422515E+04  0.00000000000E+00 0. -1.
         23    2    1    2    0    0 -0.10680819303E+04 -0.45424674689E+03  0.75731569158E+03  0.13890399476E+04  0.93625864868E+02 0.  0.
        254    2    1    2    0    0  0.10680819303E+04  0.45424674689E+03 -0.92380542644E+03  0.17355548204E+04  0.90088564860E+03 0.  0.
         23    2    4    4    0    0  0.97191021267E+03  0.32984311199E+03 -0.27989237892E+03  0.10677297707E+04  0.91110808516E+02 0.  0.
         23    2    4    4    0    0  0.96171717624E+02  0.12440363490E+03 -0.64391304753E+03  0.66782504972E+03  0.81492457420E+02 0.  0.
          3    1    3    3  502    0 -0.34260221419E+03 -0.14926357849E+03  0.29676056266E+03  0.47720302239E+03  0.00000000000E+00 0. -1.
         -3    1    3    3    0  502 -0.72547971610E+03 -0.30498316840E+03  0.46055512892E+03  0.91183692526E+03  0.00000000000E+00 0.  1.
         13    1    5    5    0    0  0.15491404883E+02  0.18814340621E+01  0.64395002649E+01  0.16881664107E+02  0.00000000000E+00 0. -1.
        -13    1    5    5    0    0  0.95641880778E+03  0.32796167793E+03 -0.28633187918E+03  0.10508481066E+04  0.00000000000E+00 0.  1.
          4    1    6    6  503    0  0.20450304109E+02  0.25164359203E+02 -0.41769228572E+02  0.52878430080E+02  0.00000000000E+00 0. -1.
         -4    1    6    6    0  503  0.75721413515E+02  0.99239275693E+02 -0.60214381895E+03  0.61494661964E+03  0.00000000000E+00 0.  1.
<mgrwt>
<rscale>  0 0.31201560E+04</rscale>
<asrwt>0</asrwt>
<pdfrwt beam="1">  1        1 0.22754654E+00 0.31201560E+04</pdfrwt>
<pdfrwt beam="2">  1       -1 0.25316035E+00 0.31201560E+04</pdfrwt>
<totfact> 0.37883748E-01</totfact>
</mgrwt>
</event>
<event>
12    3  0.8686020E-008  0.1973801E+04  0.7818608E-02  0.8618969E-01
          2   -1    0    0  501    0  0.00000000000E+00  0.00000000000E+00  0.76945290505E+03  0.76945290505E+03  0.00000000000E+00 0. -1.
         -2   -1    0    0    0  501 -0.00000000000E+00 -0.00000000000E+00 -0.12657982421E+04  0.12657982421E+04  0.00000000000E+00 0.  1.
         23    2    1    2    0    0  0.17483437762E+03  0.74108456255E+03 -0.29604032166E+02  0.76672949407E+03  0.84996058111E+02 0.  0.
        254    2    1    2    0    0 -0.17483437762E+03 -0.74108456255E+03 -0.46674130489E+03  0.12685216531E+04  0.90084757323E+03 0.  0.
         23    2    4    4    0    0  0.22106419854E+03 -0.62459962948E+03 -0.51171574878E+03  0.84203914835E+03  0.90459066837E+02 0.  0.
         23    2    4    4    0    0 -0.39589857617E+03 -0.11648493307E+03  0.44974443882E+02  0.42648250474E+03  0.97776295701E+02 0.  0.
          2    1    3    3  502    0  0.16754912709E+03  0.56497476354E+03 -0.99799582894E+01  0.58938000729E+03  0.00000000000E+00 0. -1.
         -2    1    3    3    0  502  0.72852505340E+01  0.17610979901E+03 -0.19624073876E+02  0.17734948677E+03  0.00000000000E+00 0.  1.
         13    1    5    5    0    0  0.74907354872E+02 -0.19633022739E+03 -0.11127000596E+03  0.23777654263E+03  0.00000000000E+00 0. -1.
        -13    1    5    5    0    0  0.14615684367E+03 -0.42826940210E+03 -0.40044574282E+03  0.60426260572E+03  0.00000000000E+00 0.  1.
          4    1    6    6  503    0 -0.14514966303E+03 -0.81073137197E+02 -0.12766311661E+02  0.16674608531E+03  0.00000000000E+00 0. -1.
         -4    1    6    6    0  503 -0.25074891314E+03 -0.35411795874E+02  0.57740755543E+02  0.25973641943E+03  0.00000000000E+00 0.  1.
<mgrwt>
<rscale>  0 0.19738005E+04</rscale>
<asrwt>0</asrwt>
<pdfrwt beam="1">  1        2 0.11837737E+00 0.19738005E+04</pdfrwt>
<pdfrwt beam="2">  1       -2 0.19473819E+00 0.19738005E+04</pdfrwt>
<totfact> 0.48626264E+00</totfact>
</mgrwt>
</event>
<event>
12    3  0.8686020E-008  0.3979198E+04  0.7818608E-02  0.8008756E-01
          1   -1    0    0  501    0  0.00000000000E+00  0.00000000000E+00  0.32175949902E+04  0.32175949902E+04  0.00000000000E+00 0.  1.
         -1   -1    0    0    0  501 -0.00000000000E+00 -0.00000000000E+00 -0.12302681397E+04  0.12302681397E+04  0.00000000000E+00 0. -1.
         23    2    1    2    0    0 -0.12862626718E+04  0.11546984456E+04  0.17854485876E+04  0.24867142492E+04  0.90116240966E+02 0.  0.
        254    2    1    2    0    0  0.12862626718E+04 -0.11546984456E+04  0.20187826281E+03  0.19611488807E+04  0.90418468135E+03 0.  0.
         23    2    4    4    0    0 -0.23873120022E+02 -0.23332758983E+03 -0.18396243788E+03  0.31120698389E+03  0.89419898423E+02 0.  0.
         23    2    4    4    0    0  0.13101357918E+04 -0.92137085582E+03  0.38584070070E+03  0.16499418968E+04  0.89750596382E+02 0.  0.
          4    1    3    3  502    0 -0.57716312519E+03  0.53478519967E+03  0.87483103735E+03  0.11766230606E+04  0.00000000000E+00 0.  1.
         -4    1    3    3    0  502 -0.70909954658E+03  0.61991324598E+03  0.91061755028E+03  0.13100911886E+04  0.00000000000E+00 0. -1.
         13    1    5    5    0    0  0.77071418847E+01 -0.71305002533E+02 -0.11783457507E+02  0.72681863577E+02  0.00000000000E+00 0.  1.
        -13    1    5    5    0    0 -0.31580261907E+02 -0.16202258730E+03 -0.17217898038E+03  0.23852512031E+03  0.00000000000E+00 0. -1.
          2    1    6    6  503    0  0.11971226031E+04 -0.86096288636E+03  0.33545042008E+03  0.15122455498E+04  0.00000000000E+00 0. -1.
         -2    1    6    6    0  503  0.11301318870E+03 -0.60407969455E+02  0.50390280615E+02  0.13769634699E+03  0.00000000000E+00 0.  1.
<mgrwt>
<rscale>  0 0.39791982E+04</rscale>
<asrwt>0</asrwt>
<pdfrwt beam="1">  1        1 0.49501461E+00 0.39791982E+04</pdfrwt>
<pdfrwt beam="2">  1       -1 0.18927202E+00 0.39791982E+04</pdfrwt>
<totfact> 0.57742454E-02</totfact>
</mgrwt>
</event>
<event>
12    3  0.8686020E-008  0.2194945E+04  0.7818608E-02  0.8520535E-01
         -1   -1    0    0    0  501 -0.00000000000E+00  0.00000000000E+00  0.99366800852E+03  0.99366800852E+03  0.00000000000E+00 0.  1.
          1   -1    0    0  501    0  0.00000000000E+00 -0.00000000000E+00 -0.12121213665E+04  0.12121213665E+04  0.00000000000E+00 0. -1.
         23    2    1    2    0    0 -0.65464824604E+03  0.61592199825E+03 -0.23760605004E+03  0.93454649658E+03  0.94848749473E+02 0.  0.
        254    2    1    2    0    0  0.65464824604E+03 -0.61592199825E+03  0.19152692021E+02  0.12712428785E+04  0.89875880887E+03 0.  0.
         23    2    4    4    0    0  0.24354955995E+03 -0.77390952526E+03  0.65590441153E+02  0.81903917427E+03  0.90943507614E+02 0.  0.
         23    2    4    4    0    0  0.41109868609E+03  0.15798752700E+03 -0.46437749132E+02  0.45220370422E+03  0.91485174611E+02 0.  0.
          2    1    3    3  502    0 -0.38785639742E+03  0.30014484651E+03 -0.13174014746E+03  0.50781392297E+03  0.00000000000E+00 0. -1.
         -2    1    3    3    0  502 -0.26679184862E+03  0.31577715174E+03 -0.10586590258E+03  0.42673257361E+03  0.00000000000E+00 0.  1.
         13    1    5    5    0    0  0.47828981522E+02 -0.24618923098E+03 -0.10848137201E+02  0.25102675356E+03  0.00000000000E+00 0. -1.
        -13    1    5    5    0    0  0.19572057843E+03 -0.52772029428E+03  0.76438578354E+02  0.56801242070E+03  0.00000000000E+00 0.  1.
          2    1    6    6  503    0  0.20467086799E+03  0.96431955530E+02  0.19070916003E+02  0.22705282665E+03  0.00000000000E+00 0. -1.
         -2    1    6    6    0  503  0.20642781810E+03  0.61555571473E+02 -0.65508665134E+02  0.22515087757E+03  0.00000000000E+00 0.  1.
<mgrwt>
<rscale>  0 0.21949453E+04</rscale>
<asrwt>0</asrwt>
<pdfrwt beam="1">  1        1 0.18648021E+00 0.21949453E+04</pdfrwt>
<pdfrwt beam="2">  1       -1 0.15287200E+00 0.21949453E+04</pdfrwt>
<totfact> 0.31651544E+00</totfact>
</mgrwt>
</event>
<event>
12    3  0.8686020E-008  0.1537263E+04  0.7818608E-02  0.8860045E-01
         -2   -1    0    0    0  501 -0.00000000000E+00  0.00000000000E+00  0.34535348234E+03  0.34535348234E+03  0.00000000000E+00 0.  1.
          2   -1    0    0  501    0  0.00000000000E+00 -0.00000000000E+00 -0.17106950639E+04  0.17106950639E+04  0.00000000000E+00 0. -1.
         23    2    1    2    0    0  0.47550600251E+03  0.15168396017E+03 -0.48409624364E+03  0.70110969595E+03  0.89953601648E+02 0.  0.
        254    2    1    2    0    0 -0.47550600251E+03 -0.15168396017E+03 -0.88124533793E+03  0.13549388503E+04  0.90008441838E+03 0.  0.
         23    2    4    4    0    0 -0.66409112409E+03 -0.24850138547E+03 -0.86770948408E+03  0.11242988268E+04  0.91422883209E+02 0.  0.
         23    2    4    4    0    0  0.18858512158E+03  0.96817425302E+02 -0.13535853851E+02  0.23064002346E+03  0.89853431541E+02 0.  0.
          2    1    3    3  502    0  0.31514016928E+03  0.10396596411E+03 -0.37797562944E+03  0.50297895029E+03  0.00000000000E+00 0. -1.
         -2    1    3    3    0  502  0.16036583323E+03  0.47717996062E+02 -0.10612061420E+03  0.19813074566E+03  0.00000000000E+00 0.  1.
         13    1    5    5    0    0 -0.22733676892E+03 -0.44217663301E+02 -0.25197557927E+03  0.34224099812E+03  0.00000000000E+00 0. -1.
        -13    1    5    5    0    0 -0.43675435517E+03 -0.20428372217E+03 -0.61573390481E+03  0.78205782871E+03  0.00000000000E+00 0.  1.
          4    1    6    6  503    0  0.10504707876E+03  0.26784927804E+02  0.31198786941E+02  0.11280817976E+03  0.00000000000E+00 0. -1.
         -4    1    6    6    0  503  0.83538042816E+02  0.70032497498E+02 -0.44734640792E+02  0.11783184370E+03  0.00000000000E+00 0.  1.
<mgrwt>
<rscale>  0 0.15372631E+04</rscale>
<asrwt>0</asrwt>
<pdfrwt beam="1">  1        2 0.26318386E+00 0.15372631E+04</pdfrwt>
<pdfrwt beam="2">  1       -2 0.53131304E-01 0.15372631E+04</pdfrwt>
<totfact> 0.31127034E+01</totfact>
</mgrwt>
</event>
<event>
12    3  0.8686020E-008  0.1273975E+04  0.7818608E-02  0.9050462E-01
          2   -1    0    0  501    0  0.00000000000E+00  0.00000000000E+00  0.28807468450E+04  0.28807468450E+04  0.00000000000E+00 0. -1.
         -2   -1    0    0    0  501 -0.00000000000E+00 -0.00000000000E+00 -0.14084996397E+03  0.14084996397E+03  0.00000000000E+00 0.  1.
         23    2    1    2    0    0 -0.15445855292E+03 -0.25115668315E+03  0.47455017312E+03  0.56714649391E+03  0.97571280033E+02 0.  0.
        254    2    1    2    0    0  0.15445855292E+03  0.25115668315E+03  0.22653467079E+04  0.24544503151E+04  0.89754861595E+03 0.  0.
         23    2    4    4    0    0 -0.35301709622E+03  0.50664219496E+02  0.11807565076E+04  0.12367225097E+04  0.90048334110E+02 0.  0.
         23    2    4    4    0    0  0.50747564914E+03  0.20049246366E+03  0.10845902003E+04  0.12177278054E+04  0.93788820316E+02 0.  0.
          1    1    3    3  502    0 -0.48328585222E+02 -0.23180035533E+02  0.12976054498E+03  0.14039503278E+03  0.00000000000E+00 0. -1.
         -1    1    3    3    0  502 -0.10612996770E+03 -0.22797664762E+03  0.34478962814E+03  0.42675146113E+03  0.00000000000E+00 0.  1.
         13    1    5    5    0    0 -0.24884740125E+02 -0.81550980638E+01  0.36687347054E+02  0.45074575421E+02  0.00000000000E+00 0.  1.
        -13    1    5    5    0    0 -0.32813235609E+03  0.58819317560E+02  0.11440691605E+04  0.11916479343E+04  0.00000000000E+00 0. -1.
          1    1    6    6  503    0  0.50694751863E+03  0.20206045987E+03  0.10860930394E+04  0.12154926188E+04  0.00000000000E+00 0. -1.
         -1    1    6    6    0  503  0.52813050961E+00 -0.15679962184E+01 -0.15028390310E+01  0.22351865982E+01  0.00000000000E+00 0.  1.
<mgrwt>
<rscale>  0 0.12739750E+04</rscale>
<asrwt>0</asrwt>
<pdfrwt beam="1">  1        2 0.44319178E+00 0.12739750E+04</pdfrwt>
<pdfrwt beam="2">  1       -2 0.21669227E-01 0.12739750E+04</pdfrwt>
<totfact> 0.37988996E+01</totfact>
</mgrwt>
</event>
<event>
12    3  0.8686020E-008  0.1520952E+04  0.7818608E-02  0.8870638E-01
         -2   -1    0    0    0  501 -0.00000000000E+00  0.00000000000E+00  0.12487244978E+04  0.12487244978E+04  0.00000000000E+00 0.  1.
          2   -1    0    0  501    0  0.00000000000E+00 -0.00000000000E+00 -0.46313181348E+03  0.46313181348E+03  0.00000000000E+00 0. -1.
         23    2    1    2    0    0 -0.18148606674E+03  0.40371594853E+03  0.48314954640E+03  0.66219261691E+03  0.95612855751E+02 0.  0.
        254    2    1    2    0    0  0.18148606674E+03 -0.40371594853E+03  0.30244313791E+03  0.10496636944E+04  0.90244016982E+03 0.  0.
         23    2    4    4    0    0  0.11534117846E+03  0.25275874620E+02  0.53042682269E+03  0.55114323975E+03  0.91998908731E+02 0.  0.
         23    2    4    4    0    0  0.66144888279E+02 -0.42899182315E+03 -0.22798368478E+03  0.49852045462E+03  0.90205058485E+02 0.  0.
          1    1    3    3  502    0 -0.49359332371E+02  0.54704080954E+02  0.43696879960E+02  0.85663863346E+02  0.00000000000E+00 0. -1.
         -1    1    3    3    0  502 -0.13212673436E+03  0.34901186757E+03  0.43945266644E+03  0.57652875356E+03  0.00000000000E+00 0.  1.
         13    1    5    5    0    0  0.11941362415E+03  0.38612343719E+02  0.38254686432E+03  0.40260729020E+03  0.00000000000E+00 0. -1.
        -13    1    5    5    0    0 -0.40724456898E+01 -0.13336469099E+02  0.14787995837E+03  0.14853594955E+03  0.00000000000E+00 0.  1.
          1    1    6    6  503    0 -0.49606420042E+01 -0.22809325953E+03 -0.93753281602E+02  0.24665932138E+03  0.00000000000E+00 0. -1.
         -1    1    6    6    0  503  0.71105530284E+02 -0.20089856362E+03 -0.13423040318E+03  0.25186113324E+03  0.00000000000E+00 0.  1.
<mgrwt>
<rscale>  0 0.15209524E+04</rscale>
<asrwt>0</asrwt>
<pdfrwt beam="1">  1        2 0.71251048E-01 0.15209524E+04</pdfrwt>
<pdfrwt beam="2">  1       -2 0.19211146E+00 0.15209524E+04</pdfrwt>
<totfact> 0.97283954E+00</totfact>
</mgrwt>
</event>
<event>
12    3  0.8686020E-008  0.2010961E+04  0.7818608E-02  0.8601513E-01
         -2   -1    0    0    0  501 -0.00000000000E+00  0.00000000000E+00  0.75834213081E+03  0.75834213081E+03  0.00000000000E+00 0.  1.
          2   -1    0    0  501    0  0.00000000000E+00 -0.00000000000E+00 -0.13331599685E+04  0.13331599685E+04  0.00000000000E+00 0. -1.
         23    2    1    2    0    0 -0.47759231218E+03  0.21184986874E+03  0.40130861963E+03  0.66408599362E+03  0.83587171279E+02 0.  0.
        254    2    1    2    0    0  0.47759231218E+03 -0.21184986874E+03 -0.97612645730E+03  0.14274161057E+04  0.90095454633E+03 0.  0.
         23    2    4    4    0    0 -0.14967180367E+03 -0.31614250639E+03 -0.54415480182E+03  0.65333333426E+03  0.91609301671E+02 0.  0.
         23    2    4    4    0    0  0.62726411585E+03  0.10429263764E+03 -0.43197165548E+03  0.77408277141E+03  0.90925247088E+02 0.  0.
          3    1    3    3  502    0 -0.46390627279E+02  0.43985080948E+02  0.29096358734E+02  0.70237993542E+02  0.00000000000E+00 0. -1.
         -3    1    3    3    0  502 -0.43120168490E+03  0.16786478779E+03  0.37221226089E+03  0.59384800008E+03  0.00000000000E+00 0.  1.
         13    1    5    5    0    0 -0.52215827164E+02 -0.59865745211E+02 -0.71328914184E+02  0.10676241874E+03  0.00000000000E+00 0. -1.
        -13    1    5    5    0    0 -0.97455976508E+02 -0.25627676117E+03 -0.47282588764E+03  0.54657091552E+03  0.00000000000E+00 0.  1.
          3    1    6    6  503    0  0.24948891126E+03  0.10564661824E+02 -0.13049172535E+03  0.28175240781E+03  0.00000000000E+00 0.  1.
         -3    1    6    6    0  503  0.37777520459E+03  0.93727975821E+02 -0.30147993013E+03  0.49233036360E+03  0.00000000000E+00 0. -1.
<mgrwt>
<rscale>  0 0.20109613E+04</rscale>
<asrwt>0</asrwt>
<pdfrwt beam="1">  1        2 0.20510153E+00 0.20109613E+04</pdfrwt>
<pdfrwt beam="2">  1       -2 0.11666802E+00 0.20109613E+04</pdfrwt>
<totfact> 0.83567736E+00</totfact>
</mgrwt>
</event>
<event>
12    3  0.8686020E-008  0.1502154E+04  0.7818608E-02  0.8883022E-01
          2   -1    0    0  501    0  0.00000000000E+00  0.00000000000E+00  0.57822322609E+03  0.57822322609E+03  0.00000000000E+00 0. -1.
         -2   -1    0    0    0  501 -0.00000000000E+00 -0.00000000000E+00 -0.97560406684E+03  0.97560406684E+03  0.00000000000E+00 0.  1.
         23    2    1    2    0    0 -0.16401648873E+03  0.53305269828E+02  0.33045430733E+03  0.38572190437E+03  0.99189101779E+02 0.  0.
        254    2    1    2    0    0  0.16401648873E+03 -0.53305269828E+02 -0.72783514807E+03  0.11681053886E+04  0.89720863552E+03 0.  0.
         23    2    4    4    0    0  0.18377258115E+03  0.38802178732E+03 -0.23355709447E+03  0.49751999112E+03  0.92972878643E+02 0.  0.
         23    2    4    4    0    0 -0.19756092417E+02 -0.44132705715E+03 -0.49427805360E+03  0.67058539745E+03  0.10106486255E+03 0.  0.
          3    1    3    3  502    0 -0.13144795822E+03 -0.56766844317E+01  0.21965359701E+03  0.25604392815E+03  0.00000000000E+00 0. -1.
         -3    1    3    3    0  502 -0.32568530514E+02  0.58981954260E+02  0.11080071032E+03  0.12967797622E+03  0.00000000000E+00 0.  1.
         13    1    5    5    0    0  0.12432658260E+03  0.33669475482E+03 -0.17350263837E+03  0.39865225772E+03  0.00000000000E+00 0. -1.
        -13    1    5    5    0    0  0.59445998546E+02  0.51327032499E+02 -0.60054456103E+02  0.98867733393E+02  0.00000000000E+00 0.  1.
          1    1    6    6  503    0 -0.15782581052E+02 -0.38802242268E+03 -0.37486090386E+03  0.53975104226E+03  0.00000000000E+00 0. -1.
         -1    1    6    6    0  503 -0.39735113655E+01 -0.53304634467E+02 -0.11941714974E+03  0.13083435520E+03  0.00000000000E+00 0.  1.
<mgrwt>
<rscale>  0 0.15021544E+04</rscale>
<asrwt>0</asrwt>
<pdfrwt beam="1">  1        2 0.88957419E-01 0.15021544E+04</pdfrwt>
<pdfrwt beam="2">  1       -2 0.15009293E+00 0.15021544E+04</pdfrwt>
<totfact> 0.14973989E+01</totfact>
</mgrwt>
</event>
<event>
12    3  0.8686020E-008  0.3344225E+04  0.7818608E-02  0.8151733E-01
         -2   -1    0    0    0  501 -0.00000000000E+00  0.00000000000E+00  0.22415735888E+04  0.22415735888E+04  0.00000000000E+00 0. -1.
          2   -1    0    0  501    0  0.00000000000E+00 -0.00000000000E+00 -0.12473201984E+04  0.12473201984E+04  0.00000000000E+00 0.  1.
         23    2    1    2    0    0 -0.61139706295E+02 -0.15175291961E+04  0.14348881952E+03  0.15277814312E+04  0.83030931605E+02 0.  0.
        254    2    1    2    0    0  0.61139706295E+02  0.15175291961E+04  0.85076457093E+03  0.19611123560E+04  0.90306610675E+03 0.  0.
         23    2    4    4    0    0 -0.17176322294E+02  0.15736432606E+04  0.62013625678E+03  0.16940018167E+04  0.91788018281E+02 0.  0.
         23    2    4    4    0    0  0.78316028589E+02 -0.56114064551E+02  0.23062831414E+03  0.26711053931E+03  0.94214820218E+02 0.  0.
          3    1    3    3  502    0  0.39137622273E+01 -0.27039262387E+03  0.53897808043E+02  0.27573984531E+03  0.00000000000E+00 0. -1.
         -3    1    3    3    0  502 -0.65053468523E+02 -0.12471365722E+04  0.89591011473E+02  0.12520415859E+04  0.00000000000E+00 0.  1.
         13    1    5    5    0    0 -0.32035043322E+02  0.81588279247E+03  0.27902322260E+03  0.86287017204E+03  0.00000000000E+00 0.  1.
        -13    1    5    5    0    0  0.14858721028E+02  0.75776046815E+03  0.34111303418E+03  0.83113164467E+03  0.00000000000E+00 0. -1.
          1    1    6    6  503    0  0.27446304216E+02 -0.72672514231E+02  0.16552267553E+03  0.18284515321E+03  0.00000000000E+00 0. -1.
         -1    1    6    6    0  503  0.50869724374E+02  0.16558449680E+02  0.65105638618E+02  0.84265386094E+02  0.00000000000E+00 0.  1.
<mgrwt>
<rscale>  0 0.33442249E+04</rscale>
<asrwt>0</asrwt>
<pdfrwt beam="1">  1        2 0.19189542E+00 0.33442249E+04</pdfrwt>
<pdfrwt beam="2">  1       -2 0.34485747E+00 0.33442249E+04</pdfrwt>
<totfact> 0.24754470E-01</totfact>
</mgrwt>
</event>
<event>
12    3  0.8686020E-008  0.1515970E+04  0.7818608E-02  0.8873902E-01
         -1   -1    0    0    0  501 -0.00000000000E+00  0.00000000000E+00  0.10793018658E+04  0.10793018658E+04  0.00000000000E+00 0.  1.
          1   -1    0    0  501    0  0.00000000000E+00 -0.00000000000E+00 -0.53232647493E+03  0.53232647493E+03  0.00000000000E+00 0. -1.
         23    2    1    2    0    0 -0.35202283177E+03 -0.13928858305E+03 -0.13910526510E+03  0.41291828455E+03  0.88486448015E+02 0.  0.
        254    2    1    2    0    0  0.35202283177E+03  0.13928858305E+03  0.68608065597E+03  0.11987100562E+04  0.90712609313E+03 0.  0.
         23    2    4    4    0    0  0.21383080763E+03 -0.35003862934E+03  0.13016646472E+03  0.44000922500E+03  0.91728693587E+02 0.  0.
         23    2    4    4    0    0  0.13819202414E+03  0.48932721238E+03  0.55591419126E+03  0.75870083119E+03  0.89711799057E+02 0.  0.
          3    1    3    3  502    0 -0.23567907236E+03 -0.12541142625E+03 -0.12539057069E+03  0.29494990456E+03  0.00000000000E+00 0. -1.
         -3    1    3    3    0  502 -0.11634375942E+03 -0.13877156801E+02 -0.13714694410E+02  0.11796838000E+03  0.00000000000E+00 0.  1.
         13    1    5    5    0    0  0.45019734023E+02 -0.19373758822E+02  0.17148061001E+02  0.51924704895E+02  0.00000000000E+00 0.  1.
        -13    1    5    5    0    0  0.16881107361E+03 -0.33066487052E+03  0.11301840372E+03  0.38808452010E+03  0.00000000000E+00 0. -1.
          1    1    6    6  503    0  0.15025530990E+03  0.45457443308E+03  0.50483476141E+03  0.69575333969E+03  0.00000000000E+00 0. -1.
         -1    1    6    6    0  503 -0.12063285752E+02  0.34752779302E+02  0.51079429849E+02  0.62947491499E+02  0.00000000000E+00 0.  1.
<mgrwt>
<rscale>  0 0.15159696E+04</rscale>
<asrwt>0</asrwt>
<pdfrwt beam="1">  1        1 0.81896381E-01 0.15159696E+04</pdfrwt>
<pdfrwt beam="2">  1       -1 0.16604644E+00 0.15159696E+04</pdfrwt>
<totfact> 0.10328187E+01</totfact>
</mgrwt>
</event>
<event>
12    3  0.8686020E-008  0.2550019E+04  0.7818608E-02  0.8385380E-01
         -2   -1    0    0    0  501 -0.00000000000E+00  0.00000000000E+00  0.95092959390E+03  0.95092959390E+03  0.00000000000E+00 0.  1.
          2   -1    0    0  501    0  0.00000000000E+00 -0.00000000000E+00 -0.17095363788E+04  0.17095363788E+04  0.00000000000E+00 0. -1.
         23    2    1    2    0    0  0.36874794129E+03  0.89620291473E+03  0.23737326477E+03  0.10009612263E+04  0.80141133040E+02 0.  0.
        254    2    1    2    0    0 -0.36874794129E+03 -0.89620291473E+03 -0.99598004966E+03  0.16595047464E+04  0.90709703744E+03 0.  0.
         23    2    4    4    0    0 -0.16624267049E+03 -0.44512751251E+03  0.61291025258E+02  0.48845036984E+03  0.95142241593E+02 0.  0.
         23    2    4    4    0    0 -0.20250527080E+03 -0.45107540222E+03 -0.10572710749E+04  0.11710543765E+04  0.95230372002E+02 0.  0.
          2    1    3    3  502    0  0.75932673291E+02  0.21567707450E+03  0.23490832391E+02  0.22985689144E+03  0.00000000000E+00 0. -1.
         -2    1    3    3    0  502  0.29281526799E+03  0.68052584023E+03  0.21388243237E+03  0.77110433488E+03  0.00000000000E+00 0.  1.
         13    1    5    5    0    0 -0.78423518830E+02 -0.10065898797E+03 -0.66801848583E+00  0.12760457050E+03  0.00000000000E+00 0. -1.
        -13    1    5    5    0    0 -0.87819151659E+02 -0.34446852454E+03  0.61959043744E+02  0.36084579934E+03  0.00000000000E+00 0.  1.
          4    1    6    6  503    0  0.14630956543E+01  0.39674176205E+01 -0.46263409735E+01  0.62677015143E+01  0.00000000000E+00 0. -1.
         -4    1    6    6    0  503 -0.20396836645E+03 -0.45504281984E+03 -0.10526447339E+04  0.11647866750E+04  0.00000000000E+00 0.  1.
<mgrwt>
<rscale>  0 0.25500186E+04</rscale>
<asrwt>0</asrwt>
<pdfrwt beam="1">  1        2 0.26300559E+00 0.25500186E+04</pdfrwt>
<pdfrwt beam="2">  1       -2 0.14629686E+00 0.25500186E+04</pdfrwt>
<totfact> 0.27547425E+00</totfact>
</mgrwt>
</event>
<event>
12    3  0.8686020E-008  0.1859060E+04  0.7818608E-02  0.8675508E-01
          1   -1    0    0  501    0  0.00000000000E+00  0.00000000000E+00  0.77412093968E+03  0.77412093968E+03  0.00000000000E+00 0. -1.
         -1   -1    0    0    0  501 -0.00000000000E+00 -0.00000000000E+00 -0.11161379628E+04  0.11161379628E+04  0.00000000000E+00 0.  1.
         23    2    1    2    0    0  0.51936065146E+02 -0.39905013910E+03  0.46107721958E+03  0.61888000125E+03  0.92097150618E+02 0.  0.
        254    2    1    2    0    0 -0.51936065146E+02  0.39905013910E+03 -0.80309424274E+03  0.12713789013E+04  0.89972528000E+03 0.  0.
         23    2    4    4    0    0 -0.15026952111E+03  0.65855410135E+03 -0.64919679967E+03  0.94128522948E+03  0.91032769700E+02 0.  0.
         23    2    4    4    0    0  0.98333455968E+02 -0.25950396225E+03 -0.15389744307E+03  0.33009367178E+03  0.90915533196E+02 0.  0.
          1    1    3    3  502    0  0.54518392095E+02 -0.11039733496E+03  0.15833903639E+03  0.20057686080E+03  0.00000000000E+00 0. -1.
         -1    1    3    3    0  502 -0.25823269490E+01 -0.28865280413E+03  0.30273818320E+03  0.41830314045E+03  0.00000000000E+00 0.  1.
         13    1    5    5    0    0 -0.73538738839E+02  0.49360262576E+03 -0.49314199362E+03  0.70159854913E+03  0.00000000000E+00 0.  1.
        -13    1    5    5    0    0 -0.76730782275E+02  0.16495147559E+03 -0.15605480604E+03  0.23968668035E+03  0.00000000000E+00 0. -1.
          3    1    6    6  503    0  0.11033391531E+03 -0.19514524582E+03 -0.13607364685E+03  0.26224278293E+03  0.00000000000E+00 0. -1.
         -3    1    6    6    0  503 -0.12000459341E+02 -0.64358716434E+02 -0.17823796224E+02  0.67850888847E+02  0.00000000000E+00 0.  1.
<mgrwt>
<rscale>  0 0.18590597E+04</rscale>
<asrwt>0</asrwt>
<pdfrwt beam="1">  1        1 0.11909553E+00 0.18590597E+04</pdfrwt>
<pdfrwt beam="2">  1       -1 0.17171353E+00 0.18590597E+04</pdfrwt>
<totfact> 0.52293738E+00</totfact>
</mgrwt>
</event>
<event>
12    3  0.8686020E-008  0.2236697E+04  0.7818608E-02  0.8503307E-01
          1   -1    0    0  501    0  0.00000000000E+00  0.00000000000E+00  0.34391735181E+04  0.34391735181E+04  0.00000000000E+00 0. -1.
         -1   -1    0    0    0  501 -0.00000000000E+00 -0.00000000000E+00 -0.36366391957E+03  0.36366391957E+03  0.00000000000E+00 0.  1.
         23    2    1    2    0    0 -0.75882877908E+03  0.49781757728E+02  0.22143256016E+04  0.23429267989E+04  0.88140658604E+02 0.  0.
        254    2    1    2    0    0  0.75882877908E+03 -0.49781757728E+02  0.86118399694E+03  0.14599106388E+04  0.90077847292E+03 0.  0.
         23    2    4    4    0    0  0.61470056749E+03 -0.21492119816E+03  0.10415947786E+03  0.66599954931E+03  0.93049953052E+02 0.  0.
         23    2    4    4    0    0  0.14412821159E+03  0.16513944043E+03  0.75702451908E+03  0.79391108947E+03  0.95732540638E+02 0.  0.
          1    1    3    3  502    0 -0.34427870833E+03  0.65179916251E+02  0.98023131553E+03  0.10409753515E+04  0.00000000000E+00 0. -1.
         -1    1    3    3    0  502 -0.41455007075E+03 -0.15398158523E+02  0.12340942861E+04  0.13019514474E+04  0.00000000000E+00 0.  1.
         13    1    5    5    0    0  0.43951462970E+03 -0.11035977076E+03  0.58320287220E+02  0.45689566054E+03  0.00000000000E+00 0.  1.
        -13    1    5    5    0    0  0.17518593779E+03 -0.10456142740E+03  0.45839190643E+02  0.20910388877E+03  0.00000000000E+00 0. -1.
          4    1    6    6  503    0  0.56490871411E+02  0.16254098385E+02  0.11641083116E+03  0.13041048991E+03  0.00000000000E+00 0. -1.
         -4    1    6    6    0  503  0.87637340180E+02  0.14888534205E+03  0.64061368792E+03  0.66350059956E+03  0.00000000000E+00 0.  1.
<mgrwt>
<rscale>  0 0.22366970E+04</rscale>
<asrwt>0</asrwt>
<pdfrwt beam="1">  1        1 0.52910360E+00 0.22366970E+04</pdfrwt>
<pdfrwt beam="2">  1       -1 0.55948298E-01 0.22366970E+04</pdfrwt>
<totfact> 0.82101288E-01</totfact>
</mgrwt>
</event>
<event>
12    3  0.8686020E-008  0.1430565E+04  0.7818608E-02  0.8931986E-01
         -2   -1    0    0    0  501 -0.00000000000E+00  0.00000000000E+00  0.24982283170E+03  0.24982283170E+03  0.00000000000E+00 0.  1.
          2   -1    0    0  501    0  0.00000000000E+00 -0.00000000000E+00 -0.20479678740E+04  0.20479678740E+04  0.00000000000E+00 0. -1.
         23    2    1    2    0    0 -0.24232232012E+03  0.34750161363E+03 -0.63741296477E+03  0.77079533828E+03  0.91393038857E+02 0.  0.
        254    2    1    2    0    0  0.24232232012E+03 -0.34750161363E+03 -0.11607320775E+04  0.15269953674E+04  0.89718360326E+03 0.  0.
         23    2    4    4    0    0  0.47224947080E+03  0.45743294630E+02 -0.81747783810E+03  0.94961392422E+03  0.91567339299E+02 0.  0.
         23    2    4    4    0    0 -0.22992715067E+03 -0.39324490826E+03 -0.34325423940E+03  0.57738144315E+03  0.89653809405E+02 0.  0.
          3    1    3    3  502    0 -0.17972423092E+03  0.22122947317E+03 -0.48984707663E+03  0.56673930291E+03  0.00000000000E+00 0. -1.
         -3    1    3    3    0  502 -0.62598089207E+02  0.12627214047E+03 -0.14756588814E+03  0.20405603537E+03  0.00000000000E+00 0.  1.
         13    1    5    5    0    0  0.43033245711E+03  0.43080218827E+02 -0.68014619072E+03  0.80600295883E+03  0.00000000000E+00 0. -1.
        -13    1    5    5    0    0  0.41917013690E+02  0.26630758022E+01 -0.13733164738E+03  0.14361096539E+03  0.00000000000E+00 0.  1.
          2    1    6    6  503    0 -0.16660716606E+03 -0.34822249521E+03 -0.29595446813E+03  0.48642152621E+03  0.00000000000E+00 0. -1.
         -2    1    6    6    0  503 -0.63319984615E+02 -0.45022413058E+02 -0.47299771267E+02  0.90959916947E+02  0.00000000000E+00 0.  1.
<mgrwt>
<rscale>  0 0.14305651E+04</rscale>
<asrwt>0</asrwt>
<pdfrwt beam="1">  1        2 0.31507197E+00 0.14305651E+04</pdfrwt>
<pdfrwt beam="2">  1       -2 0.38434283E-01 0.14305651E+04</pdfrwt>
<totfact> 0.39039510E+01</totfact>
</mgrwt>
</event>
<event>
12    3  0.8686020E-008  0.2371675E+04  0.7818608E-02  0.8450185E-01
          1   -1    0    0  501    0  0.00000000000E+00  0.00000000000E+00  0.83928801540E+03  0.83928801540E+03  0.00000000000E+00 0. -1.
         -1   -1    0    0    0  501 -0.00000000000E+00 -0.00000000000E+00 -0.16754808602E+04  0.16754808602E+04  0.00000000000E+00 0.  1.
         23    2    1    2    0    0  0.35327466379E+03 -0.94359960491E+03 -0.26173683070E+03  0.10459444752E+04  0.10154050484E+03 0.  0.
        254    2    1    2    0    0 -0.35327466379E+03  0.94359960491E+03 -0.57445601411E+03  0.14688244005E+04  0.90125590414E+03 0.  0.
         23    2    4    4    0    0  0.12437968923E+03  0.30280338863E+03 -0.56918072922E+03  0.66442028675E+03  0.10162389318E+03 0.  0.
         23    2    4    4    0    0 -0.47765435302E+03  0.64079621628E+03 -0.52752848851E+01  0.80440411370E+03  0.90910273097E+02 0.  0.
          2    1    3    3  502    0  0.18427713047E+03 -0.37672230348E+03 -0.78315359695E+02  0.42662753113E+03  0.00000000000E+00 0. -1.
         -2    1    3    3    0  502  0.16899753332E+03 -0.56687730143E+03 -0.18342147101E+03  0.61931694404E+03  0.00000000000E+00 0.  1.
         13    1    5    5    0    0  0.37261950853E+02  0.28786428832E+02 -0.38387210377E+02  0.60751044327E+02  0.00000000000E+00 0. -1.
        -13    1    5    5    0    0  0.87117738377E+02  0.27401695980E+03 -0.53079351885E+03  0.60366924242E+03  0.00000000000E+00 0.  1.
          4    1    6    6  503    0 -0.65921604070E+02  0.83042013341E+02 -0.31618741758E+02  0.11064076416E+03  0.00000000000E+00 0. -1.
         -4    1    6    6    0  503 -0.41173274895E+03  0.55775420294E+03  0.26343456872E+02  0.69376334954E+03  0.00000000000E+00 0.  1.
<mgrwt>
<rscale>  0 0.23716754E+04</rscale>
<asrwt>0</asrwt>
<pdfrwt beam="1">  1        1 0.12912123E+00 0.23716754E+04</pdfrwt>
<pdfrwt beam="2">  1       -1 0.25776628E+00 0.23716754E+04</pdfrwt>
<totfact> 0.11397939E+00</totfact>
</mgrwt>
</event>
<event>
12    3  0.8686020E-008  0.1899871E+04  0.7818608E-02  0.8654920E-01
          1   -1    0    0  501    0  0.00000000000E+00  0.00000000000E+00  0.21199246804E+04  0.21199246804E+04  0.00000000000E+00 0. -1.
         -1   -1    0    0    0  501 -0.00000000000E+00 -0.00000000000E+00 -0.42566496205E+03  0.42566496205E+03  0.00000000000E+00 0.  1.
         23    2    1    2    0    0  0.43167740843E+03 -0.51834750205E+03  0.27380804072E+03  0.73356357577E+03  0.90084175623E+02 0.  0.
        254    2    1    2    0    0 -0.43167740843E+03  0.51834750205E+03  0.14204516776E+04  0.18120260666E+04  0.90040323186E+03 0.  0.
         23    2    4    4    0    0 -0.50564929143E+03 -0.37780452291E+02  0.43516067727E+03  0.67449414288E+03  0.92026981056E+02 0.  0.
         23    2    4    4    0    0  0.73971882998E+02  0.55612795434E+03  0.98529100032E+03  0.11375319237E+04  0.91817107106E+02 0.  0.
          2    1    3    3  502    0  0.30274322587E+03 -0.30206005317E+03  0.19221994336E+03  0.46887337647E+03  0.00000000000E+00 0. -1.
         -2    1    3    3    0  502  0.12893418256E+03 -0.21628744888E+03  0.81588097355E+02  0.26469019930E+03  0.00000000000E+00 0.  1.
         13    1    5    5    0    0  0.23693580451E+01 -0.53798733266E+01  0.82239965552E+01  0.10108957112E+02  0.00000000000E+00 0.  1.
        -13    1    5    5    0    0 -0.50801864948E+03 -0.32400578964E+02  0.42693668072E+03  0.66438518577E+03  0.00000000000E+00 0. -1.
          1    1    6    6  503    0  0.91515452401E+02  0.52308290533E+03  0.92404911209E+03  0.10657661870E+04  0.00000000000E+00 0. -1.
         -1    1    6    6    0  503 -0.17543569403E+02  0.33045049015E+02  0.61241888230E+02  0.71765736712E+02  0.00000000000E+00 0.  1.
<mgrwt>
<rscale>  0 0.18998712E+04</rscale>
<asrwt>0</asrwt>
<pdfrwt beam="1">  1        1 0.32614225E+00 0.18998712E+04</pdfrwt>
<pdfrwt beam="2">  1       -1 0.65486918E-01 0.18998712E+04</pdfrwt>
<totfact> 0.54635584E+00</totfact>
</mgrwt>
</event>
<event>
12    3  0.8686020E-008  0.1940755E+04  0.7818608E-02  0.8634832E-01
          1   -1    0    0  501    0  0.00000000000E+00  0.00000000000E+00  0.75828780379E+03  0.75828780379E+03  0.00000000000E+00 0. -1.
         -1   -1    0    0    0  501 -0.00000000000E+00 -0.00000000000E+00 -0.12417881403E+04  0.12417881403E+04  0.00000000000E+00 0.  1.
         23    2    1    2    0    0 -0.50665795491E+02 -0.12253907062E+03 -0.95957963983E+03  0.97305068665E+03  0.91933165686E+02 0.  0.
        254    2    1    2    0    0  0.50665795491E+02  0.12253907062E+03  0.47607930331E+03  0.10270252575E+04  0.90030357644E+03 0.  0.
         23    2    4    4    0    0  0.14400910263E+03  0.30945495482E+03 -0.13173157177E+03  0.37683004142E+03  0.90258974163E+02 0.  0.
         23    2    4    4    0    0 -0.93343307142E+02 -0.18691588420E+03  0.60781087508E+03  0.65019521603E+03  0.98332285270E+02 0.  0.
          2    1    3    3  502    0 -0.12724901738E+02 -0.10910065232E+03 -0.51116422376E+03  0.52283241972E+03  0.00000000000E+00 0. -1.
         -2    1    3    3    0  502 -0.37940893752E+02 -0.13438418294E+02 -0.44841541607E+03  0.45021826693E+03  0.00000000000E+00 0.  1.
         13    1    5    5    0    0  0.13623632108E+03  0.25010711140E+03 -0.75354874989E+02  0.29460526054E+03  0.00000000000E+00 0. -1.
        -13    1    5    5    0    0  0.77727815509E+01  0.59347843422E+02 -0.56376696779E+02  0.82224780885E+02  0.00000000000E+00 0.  1.
          3    1    6    6  503    0 -0.47769727264E+02 -0.11453739498E+03  0.21558763909E+03  0.24875448100E+03  0.00000000000E+00 0. -1.
         -3    1    6    6    0  503 -0.45573579878E+02 -0.72378489215E+02  0.39222323599E+03  0.40144073502E+03  0.00000000000E+00 0.  1.
<mgrwt>
<rscale>  0 0.19407553E+04</rscale>
<asrwt>0</asrwt>
<pdfrwt beam="1">  1        1 0.11665966E+00 0.19407553E+04</pdfrwt>
<pdfrwt beam="2">  1       -1 0.19104433E+00 0.19407553E+04</pdfrwt>
<totfact> 0.38994201E+00</totfact>
</mgrwt>
</event>
<event>
12    3  0.8686020E-008  0.2885577E+04  0.7818608E-02  0.8277182E-01
         -2   -1    0    0    0  501 -0.00000000000E+00  0.00000000000E+00  0.11456898996E+04  0.11456898996E+04  0.00000000000E+00 0.  1.
          2   -1    0    0  501    0  0.00000000000E+00 -0.00000000000E+00 -0.18169306129E+04  0.18169306129E+04  0.00000000000E+00 0. -1.
         23    2    1    2    0    0  0.10616932455E+04 -0.74665431245E+03 -0.39929375178E+03  0.13611110961E+04  0.92210118334E+02 0.  0.
        254    2    1    2    0    0 -0.10616932455E+04  0.74665431245E+03 -0.27194696146E+03  0.16015094164E+04  0.89788198056E+03 0.  0.
         23    2    4    4    0    0 -0.13582521126E+03 -0.17870229808E+03 -0.14636427036E+03  0.28311286704E+03  0.91364087531E+02 0.  0.
         23    2    4    4    0    0 -0.92586803422E+03  0.92535661054E+03 -0.12558269110E+03  0.13183965493E+04  0.94244233184E+02 0.  0.
          3    1    3    3  502    0  0.43279976226E+03 -0.32101101047E+03 -0.21123400586E+03  0.57877759829E+03  0.00000000000E+00 0. -1.
         -3    1    3    3    0  502  0.62889348322E+03 -0.42564330198E+03 -0.18805974592E+03  0.78233349781E+03  0.00000000000E+00 0.  1.
         13    1    5    5    0    0 -0.78792268596E+02 -0.15441093800E+03 -0.13584064391E+03  0.22023541928E+03  0.00000000000E+00 0.  1.
        -13    1    5    5    0    0 -0.57032942664E+02 -0.24291360079E+02 -0.10523626451E+02  0.62877447762E+02  0.00000000000E+00 0. -1.
          3    1    6    6  503    0 -0.14952722502E+03  0.18523976271E+03  0.32677344722E+01  0.23808158013E+03  0.00000000000E+00 0. -1.
         -3    1    6    6    0  503 -0.77634080920E+03  0.74011684783E+03 -0.12885042557E+03  0.10803149692E+04  0.00000000000E+00 0.  1.
<mgrwt>
<rscale>  0 0.28855773E+04</rscale>
<asrwt>0</asrwt>
<pdfrwt beam="1">  1        2 0.27952779E+00 0.28855773E+04</pdfrwt>
<pdfrwt beam="2">  1       -2 0.17625999E+00 0.28855773E+04</pdfrwt>
<totfact> 0.14049001E+00</totfact>
</mgrwt>
</event>
<event>
12    3  0.8686020E-008  0.1314605E+04  0.7818608E-02  0.9018063E-01
         -2   -1    0    0    0  501 -0.00000000000E+00  0.00000000000E+00  0.31794860052E+03  0.31794860052E+03  0.00000000000E+00 0.  1.
          2   -1    0    0  501    0  0.00000000000E+00 -0.00000000000E+00 -0.13588571603E+04  0.13588571603E+04  0.00000000000E+00 0. -1.
         23    2    1    2    0    0 -0.15727905649E+03  0.30176900484E+03 -0.28157278063E+03  0.45121403656E+03  0.92247721419E+02 0.  0.
        254    2    1    2    0    0  0.15727905649E+03 -0.30176900484E+03 -0.75933577918E+03  0.12255917243E+04  0.89982388011E+03 0.  0.
         23    2    4    4    0    0  0.12731944006E+03 -0.42387514533E+03 -0.25471656731E+01  0.45196794492E+03  0.91586879724E+02 0.  0.
         23    2    4    4    0    0  0.29959616434E+02  0.12210614049E+03 -0.75678861350E+03  0.77362377937E+03  0.99786062691E+02 0.  0.
          1    1    3    3  502    0 -0.16097827268E+03  0.24343582904E+03 -0.25257848226E+03  0.38596748157E+03  0.00000000000E+00 0. -1.
         -1    1    3    3    0  502  0.36992161894E+01  0.58333175802E+02 -0.28994298373E+02  0.65246554988E+02  0.00000000000E+00 0.  1.
         13    1    5    5    0    0  0.15016258839E+02 -0.14335963657E+03  0.32557632233E+02  0.14777507518E+03  0.00000000000E+00 0.  1.
        -13    1    5    5    0    0  0.11230318122E+03 -0.28051550876E+03 -0.35104797906E+02  0.30419286974E+03  0.00000000000E+00 0. -1.
          4    1    6    6  503    0  0.13050990117E+01  0.84708989520E+02 -0.66573230869E+03  0.67110120177E+03  0.00000000000E+00 0. -1.
         -4    1    6    6    0  503  0.28654517422E+02  0.37397150973E+02 -0.91056304814E+02  0.10252257759E+03  0.00000000000E+00 0.  1.
<mgrwt>
<rscale>  0 0.13146052E+04</rscale>
<asrwt>0</asrwt>
<pdfrwt beam="1">  1        2 0.20905495E+00 0.13146052E+04</pdfrwt>
<pdfrwt beam="2">  1       -2 0.48915170E-01 0.13146052E+04</pdfrwt>
<totfact> 0.59195566E+01</totfact>
</mgrwt>
</event>
<event>
12    3  0.8686020E-008  0.1179447E+04  0.7818608E-02  0.9131040E-01
          2   -1    0    0  501    0  0.00000000000E+00  0.00000000000E+00  0.22497192468E+04  0.22497192468E+04  0.00000000000E+00 0. -1.
         -2   -1    0    0    0  501 -0.00000000000E+00 -0.00000000000E+00 -0.15458529816E+03  0.15458529816E+03  0.00000000000E+00 0.  1.
         23    2    1    2    0    0 -0.16963722714E+03 -0.20886917490E+02  0.74996613704E+03  0.77475670528E+03  0.92659017497E+02 0.  0.
        254    2    1    2    0    0  0.16963722714E+03  0.20886917490E+02  0.13451678116E+04  0.16295478396E+04  0.90373484398E+03 0.  0.
         23    2    4    4    0    0  0.23869999556E+03  0.29571921784E+03  0.18554938533E+03  0.43238652996E+03  0.90011072723E+02 0.  0.
         23    2    4    4    0    0 -0.69062768421E+02 -0.27483230035E+03  0.11596184262E+04  0.11971613097E+04  0.90431452496E+02 0.  0.
          3    1    3    3  502    0 -0.94810272933E+02  0.39226766189E+01  0.57597991921E+03  0.58374415849E+03  0.00000000000E+00 0. -1.
         -3    1    3    3    0  502 -0.74826954210E+02 -0.24809594109E+02  0.17398621783E+03  0.19101254679E+03  0.00000000000E+00 0.  1.
         13    1    5    5    0    0  0.95271297562E+02  0.17837093662E+03  0.12353890023E+03  0.23696976819E+03  0.00000000000E+00 0. -1.
        -13    1    5    5    0    0  0.14342869800E+03  0.11734828123E+03  0.62010485101E+02  0.19541676177E+03  0.00000000000E+00 0.  1.
          4    1    6    6  503    0  0.15470662834E+02 -0.89332125648E+02  0.28370529828E+03  0.29783932977E+03  0.00000000000E+00 0. -1.
         -4    1    6    6    0  503 -0.84533431255E+02 -0.18550017470E+03  0.87591312796E+03  0.89932197991E+03  0.00000000000E+00 0.  1.
<mgrwt>
<rscale>  0 0.11794465E+04</rscale>
<asrwt>0</asrwt>
<pdfrwt beam="1">  1        2 0.34611063E+00 0.11794465E+04</pdfrwt>
<pdfrwt beam="2">  1       -2 0.23782355E-01 0.11794465E+04</pdfrwt>
<totfact> 0.75386670E+01</totfact>
</mgrwt>
</event>
<event>
12    3  0.8686020E-008  0.1525734E+04  0.7818608E-02  0.8867518E-01
         -1   -1    0    0    0  501 -0.00000000000E+00  0.00000000000E+00  0.21154903001E+03  0.21154903001E+03  0.00000000000E+00 0.  1.
          1   -1    0    0  501    0  0.00000000000E+00 -0.00000000000E+00 -0.27509757964E+04  0.27509757964E+04  0.00000000000E+00 0. -1.
         23    2    1    2    0    0  0.45306279114E+03  0.13035663668E+03 -0.11083017409E+04  0.12078709912E+04  0.91437613097E+02 0.  0.
        254    2    1    2    0    0 -0.45306279114E+03 -0.13035663668E+03 -0.14311250255E+04  0.17546538352E+04  0.89912874346E+03 0.  0.
         23    2    4    4    0    0  0.17465449383E+03 -0.28790447906E+03 -0.38390971391E+03  0.52014033479E+03  0.98823672047E+02 0.  0.
         23    2    4    4    0    0 -0.62771728497E+03  0.15754784239E+03 -0.10472153115E+04  0.12345135004E+04  0.92267878377E+02 0.  0.
          3    1    3    3  502    0  0.81120111241E+02 -0.20285017173E+01 -0.25638541274E+03  0.26892018729E+03  0.00000000000E+00 0. -1.
         -3    1    3    3    0  502  0.37194267990E+03  0.13238513839E+03 -0.85191632816E+03  0.93895080393E+03  0.00000000000E+00 0.  1.
         13    1    5    5    0    0  0.24519445057E+02 -0.96458653533E+02 -0.64397057387E+02  0.11854305559E+03  0.00000000000E+00 0.  1.
        -13    1    5    5    0    0  0.15013504877E+03 -0.19144582553E+03 -0.31951265653E+03  0.40159727920E+03  0.00000000000E+00 0. -1.
          4    1    6    6  503    0 -0.62643997007E+03  0.14769601345E+03 -0.10345822178E+04  0.12184422489E+04  0.00000000000E+00 0. -1.
         -4    1    6    6    0  503 -0.12773149034E+01  0.98518289357E+01 -0.12633093734E+02  0.16071251477E+02  0.00000000000E+00 0.  1.
<mgrwt>
<rscale>  0 0.15257343E+04</rscale>
<asrwt>0</asrwt>
<pdfrwt beam="1">  1        1 0.42322702E+00 0.15257343E+04</pdfrwt>
<pdfrwt beam="2">  1       -1 0.32546007E-01 0.15257343E+04</pdfrwt>
<totfact> 0.77334670E+00</totfact>
</mgrwt>
</event>
<event>
12    3  0.8686020E-008  0.1823307E+04  0.7818608E-02  0.8694002E-01
         -2   -1    0    0    0  501 -0.00000000000E+00  0.00000000000E+00  0.10818546424E+04  0.10818546424E+04  0.00000000000E+00 0. -1.
          2   -1    0    0  501    0  0.00000000000E+00 -0.00000000000E+00 -0.76822928802E+03  0.76822928802E+03  0.00000000000E+00 0.  1.
         23    2    1    2    0    0  0.10313414445E+03  0.67093864637E+03  0.22774131651E+02  0.68547128258E+03  0.92503509242E+02 0.  0.
        254    2    1    2    0    0 -0.10313414445E+03 -0.67093864637E+03  0.29085122274E+03  0.11646126478E+04  0.90051811021E+03 0.  0.
         23    2    4    4    0    0  0.32304251523E+03 -0.55987302089E+03  0.53813259539E+02  0.65656133281E+03  0.10179710540E+03 0.  0.
         23    2    4    4    0    0 -0.42617665968E+03 -0.11106562548E+03  0.23703796320E+03  0.50805131504E+03  0.89258188935E+02 0.  0.
          3    1    3    3  502    0  0.26878504957E+02  0.29960916115E+03  0.51975799464E+02  0.30526969585E+03  0.00000000000E+00 0. -1.
         -3    1    3    3    0  502  0.76255639490E+02  0.37132948522E+03 -0.29201667813E+02  0.38020158673E+03  0.00000000000E+00 0.  1.
         13    1    5    5    0    0  0.28513830825E+03 -0.53806171918E+03  0.38259173878E+02  0.61014591113E+03  0.00000000000E+00 0.  1.
        -13    1    5    5    0    0  0.37904206981E+02 -0.21811301712E+02  0.15554085661E+02  0.46415421683E+02  0.00000000000E+00 0. -1.
          2    1    6    6  503    0 -0.64218072029E+02  0.15018933088E+02  0.30617010571E+02  0.72711281536E+02  0.00000000000E+00 0. -1.
         -2    1    6    6    0  503 -0.36195858765E+03 -0.12608455857E+03  0.20642095263E+03  0.43534003350E+03  0.00000000000E+00 0.  1.
<mgrwt>
<rscale>  0 0.18233073E+04</rscale>
<asrwt>0</asrwt>
<pdfrwt beam="1">  1        2 0.11818912E+00 0.18233073E+04</pdfrwt>
<pdfrwt beam="2">  1       -2 0.16643918E+00 0.18233073E+04</pdfrwt>
<totfact> 0.77365440E+00</totfact>
</mgrwt>
</event>
<event>
12    3  0.8686020E-008  0.1770733E+04  0.7818608E-02  0.8722020E-01
          1   -1    0    0  501    0  0.00000000000E+00  0.00000000000E+00  0.17814769535E+04  0.17814769535E+04  0.00000000000E+00 0. -1.
         -1   -1    0    0    0  501 -0.00000000000E+00 -0.00000000000E+00 -0.44001369842E+03  0.44001369842E+03  0.00000000000E+00 0.  1.
         23    2    1    2    0    0  0.27681783696E+03  0.16572716527E+03 -0.21312337165E+03  0.39721578940E+03  0.90913165382E+02 0.  0.
        254    2    1    2    0    0 -0.27681783696E+03 -0.16572716527E+03  0.15545866267E+04  0.18242748625E+04  0.89841281482E+03 0.  0.
         23    2    4    4    0    0  0.13275989321E+03 -0.26505616172E+03  0.12706578747E+04  0.13079536783E+04  0.91057301354E+02 0.  0.
         23    2    4    4    0    0 -0.40957773016E+03  0.99328996450E+02  0.28392875205E+03  0.51632118416E+03  0.91388524395E+02 0.  0.
          3    1    3    3  502    0 -0.68009133561E+01  0.21578159699E+00 -0.48664797952E+01  0.83655011668E+01  0.00000000000E+00 0. -1.
         -3    1    3    3    0  502  0.28361875031E+03  0.16551138367E+03 -0.20825689186E+03  0.38885028824E+03  0.00000000000E+00 0.  1.
         13    1    5    5    0    0  0.51990296023E+02 -0.16162279519E+03  0.86804598954E+03  0.88449350408E+03  0.00000000000E+00 0.  1.
        -13    1    5    5    0    0  0.80769597183E+02 -0.10343336653E+03  0.40261188513E+03  0.42346017426E+03  0.00000000000E+00 0. -1.
          3    1    6    6  503    0 -0.27334716616E+02  0.21268194858E+02  0.51929027669E+02  0.62419121747E+02  0.00000000000E+00 0. -1.
         -3    1    6    6    0  503 -0.38224301355E+03  0.78060801592E+02  0.23199972438E+03  0.45390206241E+03  0.00000000000E+00 0.  1.
<mgrwt>
<rscale>  0 0.17707335E+04</rscale>
<asrwt>0</asrwt>
<pdfrwt beam="1">  1        1 0.27407337E+00 0.17707335E+04</pdfrwt>
<pdfrwt beam="2">  1       -1 0.67694416E-01 0.17707335E+04</pdfrwt>
<totfact> 0.87666040E+00</totfact>
</mgrwt>
</event>
<event>
12    3  0.8686020E-008  0.1963248E+04  0.7818608E-02  0.8623999E-01
          1   -1    0    0  501    0  0.00000000000E+00  0.00000000000E+00  0.11596282358E+04  0.11596282358E+04  0.00000000000E+00 0. -1.
         -1   -1    0    0    0  501 -0.00000000000E+00 -0.00000000000E+00 -0.83094327873E+03  0.83094327873E+03  0.00000000000E+00 0.  1.
         23    2    1    2    0    0 -0.26525726490E+03 -0.64358374778E+03  0.46989098519E+03  0.84479359524E+03  0.91198813634E+02 0.  0.
        254    2    1    2    0    0  0.26525726490E+03  0.64358374778E+03 -0.14120602813E+03  0.11457779193E+04  0.89905864155E+03 0.  0.
         23    2    4    4    0    0  0.30256760500E+02  0.67581944644E+03 -0.39374938458E+03  0.78795714717E+03  0.90501338029E+02 0.  0.
         23    2    4    4    0    0  0.23500050440E+03 -0.32235698658E+02  0.25254335645E+03  0.35782077211E+03  0.89404590079E+02 0.  0.
          2    1    3    3  502    0 -0.14270851015E+03 -0.44746730262E+03  0.33706825635E+03  0.57810701018E+03  0.00000000000E+00 0. -1.
         -2    1    3    3    0  502 -0.12254875476E+03 -0.19611644516E+03  0.13282272884E+03  0.26668658506E+03  0.00000000000E+00 0.  1.
         13    1    5    5    0    0 -0.10103918227E+02  0.35190781723E+03 -0.24707158338E+03  0.43009948652E+03  0.00000000000E+00 0.  1.
        -13    1    5    5    0    0  0.40360678727E+02  0.32391162921E+03 -0.14667780120E+03  0.35785766066E+03  0.00000000000E+00 0. -1.
          4    1    6    6  503    0  0.21846267048E+02 -0.20107374635E+02  0.36675453915E+01  0.29916831180E+02  0.00000000000E+00 0. -1.
         -4    1    6    6    0  503  0.21315423735E+03 -0.12128324023E+02  0.24887581106E+03  0.32790394093E+03  0.00000000000E+00 0.  1.
<mgrwt>
<rscale>  0 0.19632476E+04</rscale>
<asrwt>0</asrwt>
<pdfrwt beam="1">  1        1 0.17840434E+00 0.19632476E+04</pdfrwt>
<pdfrwt beam="2">  1       -1 0.12783743E+00 0.19632476E+04</pdfrwt>
<totfact> 0.56341400E+00</totfact>
</mgrwt>
</event>
<event>
12    3  0.8686020E-008  0.2368032E+04  0.7818608E-02  0.8451570E-01
         -1   -1    0    0    0  501 -0.00000000000E+00  0.00000000000E+00  0.52856359115E+03  0.52856359115E+03  0.00000000000E+00 0.  1.
          1   -1    0    0  501    0  0.00000000000E+00 -0.00000000000E+00 -0.26522709805E+04  0.26522709805E+04  0.00000000000E+00 0. -1.
         23    2    1    2    0    0 -0.73145956647E+03  0.69472599480E+03 -0.10472236428E+04  0.14569326952E+04  0.91094538432E+02 0.  0.
        254    2    1    2    0    0  0.73145956647E+03 -0.69472599480E+03 -0.10764837466E+04  0.17239018765E+04  0.89182011529E+03 0.  0.
         23    2    4    4    0    0 -0.88144960069E+02  0.11113458502E+03 -0.39146731657E+02  0.17300856942E+03  0.90989386857E+02 0.  0.
         23    2    4    4    0    0  0.81960452653E+03 -0.80586057982E+03 -0.10373370149E+04  0.15508933071E+04  0.89661103626E+02 0.  0.
          3    1    3    3  502    0 -0.20812403621E+03  0.25470838968E+03 -0.35516975174E+03  0.48408421868E+03  0.00000000000E+00 0. -1.
         -3    1    3    3    0  502 -0.52333553025E+03  0.44001760512E+03 -0.69205389106E+03  0.97284847647E+03  0.00000000000E+00 0.  1.
         13    1    5    5    0    0 -0.42004831713E+02  0.10014312416E+03  0.43076636331E+01  0.10868121811E+03  0.00000000000E+00 0.  1.
        -13    1    5    5    0    0 -0.46140128356E+02  0.10991460857E+02 -0.43454395290E+02  0.64327351309E+02  0.00000000000E+00 0. -1.
          4    1    6    6  503    0  0.31609663634E+03 -0.32378456452E+03 -0.35135437566E+03  0.57289041275E+03  0.00000000000E+00 0. -1.
         -4    1    6    6    0  503  0.50350789020E+03 -0.48207601530E+03 -0.68598263926E+03  0.97800289436E+03  0.00000000000E+00 0.  1.
<mgrwt>
<rscale>  0 0.23680320E+04</rscale>
<asrwt>0</asrwt>
<pdfrwt beam="1">  1        1 0.40804168E+00 0.23680320E+04</pdfrwt>
<pdfrwt beam="2">  1       -1 0.81317477E-01 0.23680320E+04</pdfrwt>
<totfact> 0.14352569E+00</totfact>
</mgrwt>
</event>
<event>
12    3  0.8686020E-008  0.2264583E+04  0.7818608E-02  0.8492018E-01
         -2   -1    0    0    0  501 -0.00000000000E+00  0.00000000000E+00  0.85682667904E+03  0.85682667904E+03  0.00000000000E+00 0. -1.
          2   -1    0    0  501    0  0.00000000000E+00 -0.00000000000E+00 -0.14963171117E+04  0.14963171117E+04  0.00000000000E+00 0.  1.
         23    2    1    2    0    0 -0.57628329985E+03  0.41921630296E+03  0.38470622558E+03  0.81527503601E+03  0.93966770674E+02 0.  0.
        254    2    1    2    0    0  0.57628329985E+03 -0.41921630296E+03 -0.10241966583E+04  0.15378687548E+04  0.89900876621E+03 0.  0.
         23    2    4    4    0    0  0.29640777009E+03 -0.24867793979E+03 -0.11172468339E+04  0.11857434818E+04  0.89715287495E+02 0.  0.
         23    2    4    4    0    0  0.27987552976E+03 -0.17053836316E+03  0.93050175613E+02  0.35212527301E+03  0.88995658539E+02 0.  0.
          2    1    3    3  502    0 -0.50247114513E+03  0.32287914561E+03  0.31303165124E+03  0.67432707868E+03  0.00000000000E+00 0. -1.
         -2    1    3    3    0  502 -0.73812154722E+02  0.96337157344E+02  0.71674574340E+02  0.14094795733E+03  0.00000000000E+00 0.  1.
         13    1    5    5    0    0  0.53142688919E+01  0.64350463045E+01 -0.45146085546E+02  0.45911004290E+02  0.00000000000E+00 0.  1.
        -13    1    5    5    0    0  0.29109350120E+03 -0.25511298610E+03 -0.10721007483E+04  0.11398324775E+04  0.00000000000E+00 0. -1.
          1    1    6    6  503    0  0.10915170509E+03 -0.10197730765E+03  0.75333638435E+02  0.16729800680E+03  0.00000000000E+00 0. -1.
         -1    1    6    6    0  503  0.17072382467E+03 -0.68561055512E+02  0.17716537179E+02  0.18482726621E+03  0.00000000000E+00 0.  1.
<mgrwt>
<rscale>  0 0.22645833E+04</rscale>
<asrwt>0</asrwt>
<pdfrwt beam="1">  1        2 0.23020263E+00 0.22645833E+04</pdfrwt>
<pdfrwt beam="2">  1       -2 0.13181949E+00 0.22645833E+04</pdfrwt>
<totfact> 0.48628914E+00</totfact>
</mgrwt>
</event>
<event>
12    3  0.8686020E-008  0.1570718E+04  0.7818608E-02  0.8838742E-01
          2   -1    0    0  501    0  0.00000000000E+00  0.00000000000E+00  0.11747347963E+04  0.11747347963E+04  0.00000000000E+00 0.  1.
         -2   -1    0    0    0  501 -0.00000000000E+00 -0.00000000000E+00 -0.52504508379E+03  0.52504508379E+03  0.00000000000E+00 0. -1.
         23    2    1    2    0    0  0.58549216484E+02 -0.22313485860E+03 -0.28971803931E+03  0.38142294595E+03  0.91267439538E+02 0.  0.
        254    2    1    2    0    0 -0.58549216484E+02  0.22313485860E+03  0.93940775187E+03  0.13183569342E+04  0.89574600517E+03 0.  0.
         23    2    4    4    0    0 -0.35244373481E+03  0.26244548196E+03  0.90250647873E+03  0.10078499514E+04  0.90273823692E+02 0.  0.
         23    2    4    4    0    0  0.29389451833E+03 -0.39310623356E+02  0.36901273133E+02  0.31050698276E+03  0.84460460395E+02 0.  0.
          2    1    3    3  502    0  0.39765565015E+02 -0.24504153946E+02 -0.74667813937E+02  0.88074037944E+02  0.00000000000E+00 0. -1.
         -2    1    3    3    0  502  0.18783651469E+02 -0.19863070465E+03 -0.21505022538E+03  0.29334890800E+03  0.00000000000E+00 0.  1.
         13    1    5    5    0    0 -0.21664806181E+02  0.43016247903E+02  0.63663985308E+02  0.79830222572E+02  0.00000000000E+00 0. -1.
        -13    1    5    5    0    0 -0.33077892863E+03  0.21942923405E+03  0.83884249343E+03  0.92801972886E+03  0.00000000000E+00 0.  1.
          3    1    6    6  503    0  0.67419861002E+02 -0.35774387637E+01 -0.26652919319E+02  0.72585217737E+02  0.00000000000E+00 0. -1.
         -3    1    6    6    0  503  0.22647465732E+03 -0.35733184593E+02  0.63554192453E+02  0.23792176502E+03  0.00000000000E+00 0.  1.
<mgrwt>
<rscale>  0 0.15707180E+04</rscale>
<asrwt>0</asrwt>
<pdfrwt beam="1">  1        2 0.18072843E+00 0.15707180E+04</pdfrwt>
<pdfrwt beam="2">  1       -2 0.80776167E-01 0.15707180E+04</pdfrwt>
<totfact> 0.25500468E+01</totfact>
</mgrwt>
</event>
<event>
12    3  0.8686020E-008  0.2025379E+04  0.7818608E-02  0.8594846E-01
         -1   -1    0    0    0  501 -0.00000000000E+00  0.00000000000E+00  0.46726859490E+03  0.46726859490E+03  0.00000000000E+00 0.  1.
          1   -1    0    0  501    0  0.00000000000E+00 -0.00000000000E+00 -0.21947554042E+04  0.21947554042E+04  0.00000000000E+00 0. -1.
         23    2    1    2    0    0  0.54734868393E+03 -0.54070337105E+03 -0.10118614265E+04  0.12744973000E+04  0.92353148643E+02 0.  0.
        254    2    1    2    0    0 -0.54734868393E+03  0.54070337105E+03 -0.71562538282E+03  0.13875266991E+04  0.90617875440E+03 0.  0.
         23    2    4    4    0    0  0.12357756982E+03 -0.56068737561E+02  0.83221565450E+02  0.18211525204E+03  0.88459126000E+02 0.  0.
         23    2    4    4    0    0 -0.67092625375E+03  0.59677210861E+03 -0.79884694827E+03  0.12054114471E+04  0.92635427202E+02 0.  0.
          4    1    3    3  502    0  0.68617141446E+02 -0.56734189159E+02 -0.16943430517E+03  0.19140288422E+03  0.00000000000E+00 0. -1.
         -4    1    3    3    0  502  0.47873154248E+03 -0.48396918189E+03 -0.84242712133E+03  0.10830944158E+04  0.00000000000E+00 0.  1.
         13    1    5    5    0    0 -0.54402745829E+01 -0.24616457129E+02 -0.34591386639E+00  0.25212818278E+02  0.00000000000E+00 0. -1.
        -13    1    5    5    0    0  0.12901784441E+03 -0.31452280433E+02  0.83567479316E+02  0.15690243376E+03  0.00000000000E+00 0.  1.
          4    1    6    6  503    0 -0.22674060595E+03  0.20280928259E+03 -0.33056746907E+03  0.44924131500E+03  0.00000000000E+00 0. -1.
         -4    1    6    6    0  503 -0.44418564780E+03  0.39396282602E+03 -0.46827947920E+03  0.75617013207E+03  0.00000000000E+00 0.  1.
<mgrwt>
<rscale>  0 0.20253792E+04</rscale>
<asrwt>0</asrwt>
<pdfrwt beam="1">  1        1 0.33765468E+00 0.20253792E+04</pdfrwt>
<pdfrwt beam="2">  1       -1 0.71887477E-01 0.20253792E+04</pdfrwt>
<totfact> 0.39708495E+00</totfact>
</mgrwt>
</event>
<event>
12    3  0.8686020E-008  0.2402004E+04  0.7818608E-02  0.8438754E-01
          2   -1    0    0  501    0  0.00000000000E+00  0.00000000000E+00  0.38011049456E+04  0.38011049456E+04  0.00000000000E+00 0. -1.
         -2   -1    0    0    0  501 -0.00000000000E+00 -0.00000000000E+00 -0.37947008541E+03  0.37947008541E+03  0.00000000000E+00 0.  1.
         23    2    1    2    0    0 -0.72519314569E+03  0.58968495782E+03  0.71971069234E+03  0.11832488261E+04  0.91982909560E+02 0.  0.
        254    2    1    2    0    0  0.72519314569E+03 -0.58968495782E+03  0.27019241678E+04  0.29973262049E+04  0.89996484491E+03 0.  0.
         23    2    4    4    0    0  0.45025959185E+03 -0.56578562327E+03  0.25809615746E+04  0.26818704145E+04  0.90659797645E+02 0.  0.
         23    2    4    4    0    0  0.27493355385E+03 -0.23899334556E+02  0.12096259317E+03  0.31545579041E+03  0.93385060556E+02 0.  0.
          1    1    3    3  502    0 -0.61637367998E+03  0.47051256414E+03  0.56266069557E+03  0.95806348679E+03  0.00000000000E+00 0. -1.
         -1    1    3    3    0  502 -0.10881946572E+03  0.11917239368E+03  0.15704999676E+03  0.22518533926E+03  0.00000000000E+00 0.  1.
         13    1    5    5    0    0  0.23695392145E+03 -0.29951088731E+03  0.11955391274E+04  0.12550568663E+04  0.00000000000E+00 0. -1.
        -13    1    5    5    0    0  0.21330567039E+03 -0.26627473595E+03  0.13854224472E+04  0.14268135482E+04  0.00000000000E+00 0.  1.
          1    1    6    6  503    0  0.51755142133E+02  0.14131678843E+02 -0.90149570833E+01  0.54401916651E+02  0.00000000000E+00 0. -1.
         -1    1    6    6    0  503  0.22317841172E+03 -0.38031013399E+02  0.12997755026E+03  0.26105387376E+03  0.00000000000E+00 0.  1.
<mgrwt>
<rscale>  0 0.24020038E+04</rscale>
<asrwt>0</asrwt>
<pdfrwt beam="1">  1        2 0.58478535E+00 0.24020038E+04</pdfrwt>
<pdfrwt beam="2">  1       -2 0.58380016E-01 0.24020038E+04</pdfrwt>
<totfact> 0.12134110E+00</totfact>
</mgrwt>
</event>
<event>
12    3  0.8686020E-008  0.2298910E+04  0.7818608E-02  0.8478351E-01
         -1   -1    0    0    0  501 -0.00000000000E+00  0.00000000000E+00  0.12093515800E+04  0.12093515800E+04  0.00000000000E+00 0.  1.
          1   -1    0    0  501    0  0.00000000000E+00 -0.00000000000E+00 -0.10925249369E+04  0.10925249369E+04  0.00000000000E+00 0. -1.
         23    2    1    2    0    0 -0.55030450154E+03 -0.62489960680E+03  0.54729086536E+03  0.10012080186E+04  0.97752965037E+02 0.  0.
        254    2    1    2    0    0  0.55030450154E+03  0.62489960680E+03 -0.43046422225E+03  0.13006684983E+04  0.90172309096E+03 0.  0.
         23    2    4    4    0    0  0.16364651814E+03  0.56442388585E+03 -0.61783783937E+03  0.85744310845E+03  0.90169743505E+02 0.  0.
         23    2    4    4    0    0  0.38665798341E+03  0.60475720949E+02  0.18737361712E+03  0.44322538983E+03  0.90433206533E+02 0.  0.
          2    1    3    3  502    0 -0.31198311967E+03 -0.28807123129E+03  0.30356859520E+03  0.52198888230E+03  0.00000000000E+00 0. -1.
         -2    1    3    3    0  502 -0.23832138188E+03 -0.33682837551E+03  0.24372227016E+03  0.47921913629E+03  0.00000000000E+00 0.  1.
         13    1    5    5    0    0  0.14570251302E+03  0.55192875653E+03 -0.58031956962E+03  0.81401804493E+03  0.00000000000E+00 0.  1.
        -13    1    5    5    0    0  0.17944005123E+02  0.12495129325E+02 -0.37518269746E+02  0.43425063516E+02  0.00000000000E+00 0. -1.
          3    1    6    6  503    0  0.19200592948E+03  0.75500542909E+02  0.10176511829E+03  0.23004944737E+03  0.00000000000E+00 0. -1.
         -3    1    6    6    0  503  0.19465205393E+03 -0.15024821960E+02  0.85608498831E+02  0.21317594246E+03  0.00000000000E+00 0.  1.
<mgrwt>
<rscale>  0 0.22989100E+04</rscale>
<asrwt>0</asrwt>
<pdfrwt beam="1">  1        1 0.16808076E+00 0.22989100E+04</pdfrwt>
<pdfrwt beam="2">  1       -1 0.18605409E+00 0.22989100E+04</pdfrwt>
<totfact> 0.21875767E+00</totfact>
</mgrwt>
</event>
<event>
12    3  0.8686020E-008  0.3671746E+04  0.7818608E-02  0.8074252E-01
          1   -1    0    0  501    0  0.00000000000E+00  0.00000000000E+00  0.14062059874E+04  0.14062059874E+04  0.00000000000E+00 0. -1.
         -1   -1    0    0    0  501 -0.00000000000E+00 -0.00000000000E+00 -0.23968244162E+04  0.23968244162E+04  0.00000000000E+00 0.  1.
         23    2    1    2    0    0 -0.12929866442E+04 -0.68041339074E+03 -0.14177219184E+04  0.20378502104E+04  0.90117687715E+02 0.  0.
        254    2    1    2    0    0  0.12929866442E+04  0.68041339074E+03  0.42710348960E+03  0.17651801932E+04  0.89368164300E+03 0.  0.
         23    2    4    4    0    0  0.11358062840E+04  0.60882169864E+03  0.66850330427E+03  0.14545456635E+04  0.89925768244E+02 0.  0.
         23    2    4    4    0    0  0.15718036018E+03  0.71591692096E+02 -0.24139981468E+03  0.31063452965E+03  0.91590962870E+02 0.  0.
          4    1    3    3  502    0 -0.52120381463E+03 -0.32079303080E+03 -0.61628848660E+03  0.86854653514E+03  0.00000000000E+00 0. -1.
         -4    1    3    3    0  502 -0.77178282960E+03 -0.35962035994E+03 -0.80143343180E+03  0.11693036752E+04  0.00000000000E+00 0.  1.
         13    1    5    5    0    0  0.96936628533E+03  0.55369088250E+03  0.58495504374E+03  0.12603241614E+04  0.00000000000E+00 0. -1.
        -13    1    5    5    0    0  0.16643999872E+03  0.55130816143E+02  0.83548260533E+02  0.19422150216E+03  0.00000000000E+00 0.  1.
          4    1    6    6  503    0  0.89977695049E+02 -0.58806315566E+01 -0.13916734056E+03  0.16582555929E+03  0.00000000000E+00 0. -1.
         -4    1    6    6    0  503  0.67202665133E+02  0.77472323653E+02 -0.10223247411E+03  0.14480897036E+03  0.00000000000E+00 0.  1.
<mgrwt>
<rscale>  0 0.36717455E+04</rscale>
<asrwt>0</asrwt>
<pdfrwt beam="1">  1        1 0.21633938E+00 0.36717455E+04</pdfrwt>
<pdfrwt beam="2">  1       -1 0.36874221E+00 0.36717455E+04</pdfrwt>
<totfact> 0.71222074E-02</totfact>
</mgrwt>
</event>
<event>
12    3  0.8686020E-008  0.1328466E+04  0.7818608E-02  0.9007291E-01
          2   -1    0    0  501    0  0.00000000000E+00  0.00000000000E+00  0.14578916401E+04  0.14578916401E+04  0.00000000000E+00 0.  1.
         -2   -1    0    0    0  501 -0.00000000000E+00 -0.00000000000E+00 -0.30263244990E+03  0.30263244990E+03  0.00000000000E+00 0. -1.
         23    2    1    2    0    0  0.16518493928E+03  0.26522973050E+03  0.53462731338E+03  0.62572663954E+03  0.89858717530E+02 0.  0.
        254    2    1    2    0    0 -0.16518493928E+03 -0.26522973050E+03  0.62063187686E+03  0.11347974505E+04  0.89718919575E+03 0.  0.
         23    2    4    4    0    0 -0.23997588009E+03 -0.56744052287E+03  0.41908555367E+03  0.75080896592E+03  0.92218392894E+02 0.  0.
         23    2    4    4    0    0  0.74790940811E+02  0.30221079237E+03  0.20154632319E+03  0.38398848457E+03  0.99504713656E+02 0.  0.
          1    1    3    3  502    0  0.33737933200E+02  0.92161699380E+02  0.10181500392E+03  0.14141542346E+03  0.00000000000E+00 0. -1.
         -1    1    3    3    0  502  0.13144700608E+03  0.17306803112E+03  0.43281230946E+03  0.48431121609E+03  0.00000000000E+00 0.  1.
         13    1    5    5    0    0 -0.30257341434E+02 -0.16741044472E+03  0.13552202779E+03  0.21750398554E+03  0.00000000000E+00 0. -1.
        -13    1    5    5    0    0 -0.20971853865E+03 -0.40003007816E+03  0.28356352589E+03  0.53330498038E+03  0.00000000000E+00 0.  1.
          4    1    6    6  503    0  0.80635623324E+02  0.12291741037E+03  0.80801769485E+02  0.16774897756E+03  0.00000000000E+00 0.  1.
         -4    1    6    6    0  503 -0.58446825133E+01  0.17929338200E+03  0.12074455370E+03  0.21623950701E+03  0.00000000000E+00 0. -1.
<mgrwt>
<rscale>  0 0.13284658E+04</rscale>
<asrwt>0</asrwt>
<pdfrwt beam="1">  1        2 0.22429102E+00 0.13284658E+04</pdfrwt>
<pdfrwt beam="2">  1       -2 0.46558839E-01 0.13284658E+04</pdfrwt>
<totfact> 0.57357547E+01</totfact>
</mgrwt>
</event>
<event>
12    3  0.8686020E-008  0.1718849E+04  0.7818608E-02  0.8750687E-01
          2   -1    0    0  501    0  0.00000000000E+00  0.00000000000E+00  0.20074872538E+04  0.20074872538E+04  0.00000000000E+00 0.  1.
         -2   -1    0    0    0  501 -0.00000000000E+00 -0.00000000000E+00 -0.36792770401E+03  0.36792770401E+03  0.00000000000E+00 0. -1.
         23    2    1    2    0    0 -0.27749345173E+03  0.54626241273E+03  0.72492354209E+03  0.95369798664E+03  0.92846478318E+02 0.  0.
        254    2    1    2    0    0  0.27749345173E+03 -0.54626241273E+03  0.91463600773E+03  0.14217169712E+04  0.89961929737E+03 0.  0.
         23    2    4    4    0    0  0.94895802041E+02 -0.28793642435E+03  0.10263461562E+04  0.10739720968E+04  0.90094587266E+02 0.  0.
         23    2    4    4    0    0  0.18259764969E+03 -0.25832598838E+03 -0.11171014847E+03  0.34774487439E+03  0.91504767355E+02 0.  0.
          2    1    3    3  502    0 -0.81546761521E+02  0.25563435907E+03  0.28958588970E+03  0.39478954819E+03  0.00000000000E+00 0. -1.
         -2    1    3    3    0  502 -0.19594669021E+03  0.29062805366E+03  0.43533765239E+03  0.55890843845E+03  0.00000000000E+00 0.  1.
         13    1    5    5    0    0  0.30333075962E+01 -0.22626491574E+02  0.24325335241E+02  0.33359871260E+02  0.00000000000E+00 0. -1.
        -13    1    5    5    0    0  0.91862494445E+02 -0.26530993278E+03  0.10020208210E+04  0.10406122255E+04  0.00000000000E+00 0.  1.
          1    1    6    6  503    0  0.61669468484E+02 -0.30232420534E+02 -0.41323447015E+02  0.80154537411E+02  0.00000000000E+00 0. -1.
         -1    1    6    6    0  503  0.12092818121E+03 -0.22809356785E+03 -0.70386701450E+02  0.26759033698E+03  0.00000000000E+00 0.  1.
<mgrwt>
<rscale>  0 0.17188487E+04</rscale>
<asrwt>0</asrwt>
<pdfrwt beam="1">  1        2 0.30884419E+00 0.17188487E+04</pdfrwt>
<pdfrwt beam="2">  1       -2 0.56604263E-01 0.17188487E+04</pdfrwt>
<totfact> 0.18410638E+01</totfact>
</mgrwt>
</event>
<event>
12    3  0.8686020E-008  0.2482438E+04  0.7818608E-02  0.8409269E-01
         -2   -1    0    0    0  501 -0.00000000000E+00  0.00000000000E+00  0.50973608432E+03  0.50973608432E+03  0.00000000000E+00 0.  1.
          2   -1    0    0  501    0  0.00000000000E+00 -0.00000000000E+00 -0.30223964904E+04  0.30223964904E+04  0.00000000000E+00 0. -1.
         23    2    1    2    0    0  0.85331733767E+03  0.39663362894E+03 -0.35453073565E+03  0.10095710441E+04  0.89849519535E+02 0.  0.
        254    2    1    2    0    0 -0.85331733767E+03 -0.39663362894E+03 -0.21581296704E+04  0.25225615306E+04  0.90571755367E+03 0.  0.
         23    2    4    4    0    0 -0.20607303982E+03 -0.55910390230E+03 -0.75685008423E+03  0.96755129663E+03  0.90940586600E+02 0.  0.
         23    2    4    4    0    0 -0.64724429785E+03  0.16247027336E+03 -0.14012795862E+04  0.15550102340E+04  0.95658655264E+02 0.  0.
          2    1    3    3  502    0  0.26452075170E+03  0.16853960168E+03 -0.12719001289E+03  0.33845845357E+03  0.00000000000E+00 0. -1.
         -2    1    3    3    0  502  0.58879658598E+03  0.22809402726E+03 -0.22734072276E+03  0.67111259052E+03  0.00000000000E+00 0.  1.
         13    1    5    5    0    0 -0.12359355130E+03 -0.20816233913E+03 -0.31567128867E+03  0.39781313181E+03  0.00000000000E+00 0. -1.
        -13    1    5    5    0    0 -0.82479488524E+02 -0.35094156317E+03 -0.44117879557E+03  0.56973816481E+03  0.00000000000E+00 0.  1.
          1    1    6    6  503    0 -0.14971005672E+03  0.41021567576E+02 -0.24015169242E+03  0.28595227829E+03  0.00000000000E+00 0. -1.
         -1    1    6    6    0  503 -0.49753424113E+03  0.12144870579E+03 -0.11611278938E+04  0.12690579557E+04  0.00000000000E+00 0.  1.
<mgrwt>
<rscale>  0 0.24824380E+04</rscale>
<asrwt>0</asrwt>
<pdfrwt beam="1">  1        2 0.46498409E+00 0.24824380E+04</pdfrwt>
<pdfrwt beam="2">  1       -2 0.78420934E-01 0.24824380E+04</pdfrwt>
<totfact> 0.21769449E+00</totfact>
</mgrwt>
</event>
<event>
12    3  0.8686020E-008  0.3999021E+04  0.7818608E-02  0.8004744E-01
          1   -1    0    0  501    0  0.00000000000E+00  0.00000000000E+00  0.15552976891E+04  0.15552976891E+04  0.00000000000E+00 0. -1.
         -1   -1    0    0    0  501 -0.00000000000E+00 -0.00000000000E+00 -0.25705959020E+04  0.25705959020E+04  0.00000000000E+00 0.  1.
         23    2    1    2    0    0  0.18411917396E+04  0.32214499545E+03 -0.14735431500E+03  0.18771736052E+04  0.91120963859E+02 0.  0.
        254    2    1    2    0    0 -0.18411917396E+04 -0.32214499545E+03 -0.86794389793E+03  0.22487199859E+04  0.89980583738E+03 0.  0.
         23    2    4    4    0    0 -0.18452103548E+04 -0.15135256017E+03 -0.88588786906E+03  0.20544693562E+04  0.91313570615E+02 0.  0.
         23    2    4    4    0    0  0.40186152604E+01 -0.17079243528E+03  0.17943971129E+02  0.19425062963E+03  0.90692424129E+02 0.  0.
          4    1    3    3  502    0  0.79702787251E+03  0.15834925572E+03 -0.22783249589E+02  0.81292496137E+03  0.00000000000E+00 0. -1.
         -4    1    3    3    0  502  0.10441638670E+04  0.16379573973E+03 -0.12457106542E+03  0.10642486439E+04  0.00000000000E+00 0.  1.
         13    1    5    5    0    0 -0.10209278914E+04 -0.12874874048E+03 -0.49938769286E+03  0.11437910934E+04  0.00000000000E+00 0. -1.
        -13    1    5    5    0    0 -0.82428246342E+03 -0.22603819694E+02 -0.38650017620E+03  0.91067826282E+03  0.00000000000E+00 0.  1.
          2    1    6    6  503    0  0.28400175816E+02 -0.10240887565E+03  0.46804923826E+02  0.11612428124E+03  0.00000000000E+00 0. -1.
         -2    1    6    6    0  503 -0.24381560555E+02 -0.68383559629E+02 -0.28860952697E+02  0.78126348393E+02  0.00000000000E+00 0.  1.
<mgrwt>
<rscale>  0 0.39990208E+04</rscale>
<asrwt>0</asrwt>
<pdfrwt beam="1">  1        1 0.23927657E+00 0.39990208E+04</pdfrwt>
<pdfrwt beam="2">  1       -1 0.39547629E+00 0.39990208E+04</pdfrwt>
<totfact> 0.35989026E-02</totfact>
</mgrwt>
</event>
<event>
12    3  0.8686020E-008  0.2260051E+04  0.7818608E-02  0.8493841E-01
          2   -1    0    0  501    0  0.00000000000E+00  0.00000000000E+00  0.23948103113E+04  0.23948103113E+04  0.00000000000E+00 0. -1.
         -2   -1    0    0    0  501 -0.00000000000E+00 -0.00000000000E+00 -0.53321860944E+03  0.53321860944E+03  0.00000000000E+00 0.  1.
         23    2    1    2    0    0  0.53596905798E+03 -0.36641288032E+03  0.17029018629E+04  0.18246399812E+04  0.88966714012E+02 0.  0.
        254    2    1    2    0    0 -0.53596905798E+03  0.36641288032E+03  0.15868983893E+03  0.11033889396E+04  0.87793135094E+03 0.  0.
         23    2    4    4    0    0 -0.17490257989E+03  0.31379045893E+03  0.48047568218E+03  0.60704807576E+03  0.92709873006E+02 0.  0.
         23    2    4    4    0    0 -0.36106647809E+03  0.52622421395E+02 -0.32178584325E+03  0.49634086379E+03  0.98336175008E+02 0.  0.
          3    1    3    3  502    0  0.16745098571E+03 -0.15277479675E+03  0.67203749296E+03  0.70923505489E+03  0.00000000000E+00 0. -1.
         -3    1    3    3    0  502  0.36851807227E+03 -0.21363808357E+03  0.10308643700E+04  0.11154049263E+04  0.00000000000E+00 0.  1.
         13    1    5    5    0    0 -0.41180175181E+02  0.93571887391E+02  0.75596166934E+02  0.12714670815E+03  0.00000000000E+00 0.  1.
        -13    1    5    5    0    0 -0.13372240471E+03  0.22021857154E+03  0.40487951525E+03  0.47990136761E+03  0.00000000000E+00 0. -1.
          2    1    6    6  503    0 -0.18947343294E+03 -0.16469800854E+02 -0.19287227237E+03  0.27087109403E+03  0.00000000000E+00 0. -1.
         -2    1    6    6    0  503 -0.17159304515E+03  0.69092222248E+02 -0.12891357089E+03  0.22546976976E+03  0.00000000000E+00 0.  1.
<mgrwt>
<rscale>  0 0.22600508E+04</rscale>
<asrwt>0</asrwt>
<pdfrwt beam="1">  1        2 0.36843235E+00 0.22600508E+04</pdfrwt>
<pdfrwt beam="2">  1       -2 0.82033633E-01 0.22600508E+04</pdfrwt>
<totfact> 0.47551568E+00</totfact>
</mgrwt>
</event>
<event>
12    3  0.8686020E-008  0.3448090E+04  0.7818608E-02  0.8126203E-01
          2   -1    0    0  501    0  0.00000000000E+00  0.00000000000E+00  0.11759055110E+04  0.11759055110E+04  0.00000000000E+00 0. -1.
         -2   -1    0    0    0  501 -0.00000000000E+00 -0.00000000000E+00 -0.25276953038E+04  0.25276953038E+04  0.00000000000E+00 0.  1.
         23    2    1    2    0    0 -0.30175276239E+03  0.13460759926E+04  0.25234082011E+03  0.14053610681E+04  0.91588944490E+02 0.  0.
        254    2    1    2    0    0  0.30175276239E+03 -0.13460759926E+04 -0.16041306130E+04  0.22982397467E+04  0.89760548261E+03 0.  0.
         23    2    4    4    0    0  0.54001739768E+03 -0.77491356100E+03 -0.62532618697E+03  0.11364651729E+04  0.91708409286E+02 0.  0.
         23    2    4    4    0    0 -0.23826463529E+03 -0.57116243158E+03 -0.97880442600E+03  0.11617745738E+04  0.93088647189E+02 0.  0.
          4    1    3    3  502    0 -0.21843927142E+03  0.10385986191E+04  0.23039858934E+03  0.10860415815E+04  0.00000000000E+00 0. -1.
         -4    1    3    3    0  502 -0.83313490966E+02  0.30747737350E+03  0.21942230769E+02  0.31931948653E+03  0.00000000000E+00 0.  1.
         13    1    5    5    0    0  0.32968807941E+03 -0.42426268058E+03 -0.31192664761E+03  0.62128196926E+03  0.00000000000E+00 0. -1.
        -13    1    5    5    0    0  0.21032931826E+03 -0.35065088042E+03 -0.31339953936E+03  0.51518320366E+03  0.00000000000E+00 0.  1.
          1    1    6    6  503    0 -0.77280845848E+02 -0.30613605190E+03 -0.49485833018E+03  0.58700628477E+03  0.00000000000E+00 0. -1.
         -1    1    6    6    0  503 -0.16098378944E+03 -0.26502637968E+03 -0.48394609582E+03  0.57476828901E+03  0.00000000000E+00 0.  1.
<mgrwt>
<rscale>  0 0.34480898E+04</rscale>
<asrwt>0</asrwt>
<pdfrwt beam="1">  1        2 0.18090854E+00 0.34480898E+04</pdfrwt>
<pdfrwt beam="2">  1       -2 0.38887620E+00 0.34480898E+04</pdfrwt>
<totfact> 0.14162759E-01</totfact>
</mgrwt>
</event>
<event>
12    3  0.8686020E-008  0.2461616E+04  0.7818608E-02  0.8416789E-01
         -1   -1    0    0    0  501 -0.00000000000E+00  0.00000000000E+00  0.13022978819E+04  0.13022978819E+04  0.00000000000E+00 0.  1.
          1   -1    0    0  501    0  0.00000000000E+00 -0.00000000000E+00 -0.11632429151E+04  0.11632429151E+04  0.00000000000E+00 0. -1.
         23    2    1    2    0    0  0.74106618952E+03  0.74556581754E+03 -0.10636848363E+03  0.10603987046E+04  0.89909247881E+02 0.  0.
        254    2    1    2    0    0 -0.74106618952E+03 -0.74556581754E+03  0.24542345047E+03  0.14051420924E+04  0.89952439889E+03 0.  0.
         23    2    4    4    0    0 -0.31562572627E+03  0.13035519709E+03 -0.10138985861E+03  0.36736048731E+03  0.89787235812E+02 0.  0.
         23    2    4    4    0    0 -0.42544046325E+03 -0.87592101463E+03  0.34681330907E+03  0.10377816051E+04  0.92054205938E+02 0.  0.
          4    1    3    3  502    0  0.25335393799E+03  0.20773475331E+03 -0.58278628827E+02  0.33277371321E+03  0.00000000000E+00 0. -1.
         -4    1    3    3    0  502  0.48771225153E+03  0.53783106423E+03 -0.48089854803E+02  0.72762499138E+03  0.00000000000E+00 0.  1.
         13    1    5    5    0    0 -0.16221482383E+03  0.96236167677E+02 -0.92174378582E+02  0.20993133426E+03  0.00000000000E+00 0. -1.
        -13    1    5    5    0    0 -0.15341090244E+03  0.34119029414E+02 -0.92154800238E+01  0.15742915304E+03  0.00000000000E+00 0.  1.
          1    1    6    6  503    0 -0.16619935661E+03 -0.27146587271E+03  0.14533206997E+03  0.34991049819E+03  0.00000000000E+00 0. -1.
         -1    1    6    6    0  503 -0.25924110664E+03 -0.60445514193E+03  0.20148123910E+03  0.68787110688E+03  0.00000000000E+00 0.  1.
<mgrwt>
<rscale>  0 0.24616164E+04</rscale>
<asrwt>0</asrwt>
<pdfrwt beam="1">  1        1 0.17896045E+00 0.24616164E+04</pdfrwt>
<pdfrwt beam="2">  1       -1 0.20035352E+00 0.24616164E+04</pdfrwt>
<totfact> 0.15171215E+00</totfact>
</mgrwt>
</event>
<event>
12    3  0.8686020E-008  0.2174986E+04  0.7818608E-02  0.8528912E-01
         -1   -1    0    0    0  501 -0.00000000000E+00  0.00000000000E+00  0.10846848401E+04  0.10846848401E+04  0.00000000000E+00 0.  1.
          1   -1    0    0  501    0  0.00000000000E+00 -0.00000000000E+00 -0.10903079998E+04  0.10903079998E+04  0.00000000000E+00 0. -1.
         23    2    1    2    0    0 -0.27977916805E+03 -0.77152613718E+03 -0.36696269996E+03  0.90358625770E+03  0.90980979995E+02 0.  0.
        254    2    1    2    0    0  0.27977916805E+03  0.77152613718E+03  0.36133954017E+03  0.12714065822E+04  0.90132095878E+03 0.  0.
         23    2    4    4    0    0  0.20516379548E+03  0.71098414403E+03  0.62790001067E+03  0.97474259929E+03  0.90961945007E+02 0.  0.
         23    2    4    4    0    0  0.74615372566E+02  0.60541993147E+02 -0.26656047050E+03  0.29666398290E+03  0.87876319688E+02 0.  0.
          2    1    3    3  502    0 -0.94827079546E+02 -0.23862204828E+03 -0.70187287609E+02  0.26619337385E+03  0.00000000000E+00 0. -1.
         -2    1    3    3    0  502 -0.18495208850E+03 -0.53290408890E+03 -0.29677541235E+03  0.63739288385E+03  0.00000000000E+00 0.  1.
         13    1    5    5    0    0  0.19089984078E+03  0.52861413994E+03  0.45650810565E+03  0.72406858009E+03  0.00000000000E+00 0. -1.
        -13    1    5    5    0    0  0.14263954702E+02  0.18237000409E+03  0.17139190502E+03  0.25067401920E+03  0.00000000000E+00 0.  1.
          4    1    6    6  503    0  0.84598047864E+02  0.52483019310E+02 -0.15401798948E+03  0.18339257919E+03  0.00000000000E+00 0.  1.
         -4    1    6    6    0  503 -0.99826752990E+01  0.80589738369E+01 -0.11254248101E+03  0.11327140371E+03  0.00000000000E+00 0. -1.
<mgrwt>
<rscale>  0 0.21749856E+04</rscale>
<asrwt>0</asrwt>
<pdfrwt beam="1">  1        1 0.16773969E+00 0.21749856E+04</pdfrwt>
<pdfrwt beam="2">  1       -1 0.16687459E+00 0.21749856E+04</pdfrwt>
<totfact> 0.30576106E+00</totfact>
</mgrwt>
</event>
<event>
12    3  0.8686020E-008  0.2218925E+04  0.7818608E-02  0.8510592E-01
         -1   -1    0    0    0  501 -0.00000000000E+00  0.00000000000E+00  0.79772933871E+03  0.79772933871E+03  0.00000000000E+00 0.  1.
          1   -1    0    0  501    0  0.00000000000E+00 -0.00000000000E+00 -0.15430137924E+04  0.15430137924E+04  0.00000000000E+00 0. -1.
         23    2    1    2    0    0 -0.57805699198E+03  0.65362512608E+03  0.92297076324E+01  0.87691760929E+03  0.86738771999E+02 0.  0.
        254    2    1    2    0    0  0.57805699198E+03 -0.65362512608E+03 -0.75451416132E+03  0.14638255218E+04  0.90117581376E+03 0.  0.
         23    2    4    4    0    0  0.21313371803E+02  0.17845783875E+03 -0.29576453577E+03  0.35803507447E+03  0.91711470943E+02 0.  0.
         23    2    4    4    0    0  0.55674362017E+03 -0.83208296483E+03 -0.45874962555E+03  0.11057904474E+04  0.99978875554E+02 0.  0.
          4    1    3    3  502    0 -0.40492048614E+03  0.46517925170E+03  0.45734777265E+02  0.61842057384E+03  0.00000000000E+00 0. -1.
         -4    1    3    3    0  502 -0.17313650584E+03  0.18844587438E+03 -0.36505069633E+02  0.25849703545E+03  0.00000000000E+00 0.  1.
         13    1    5    5    0    0  0.35115096981E+02  0.65123030160E+02 -0.18376540973E+03  0.19810049194E+03  0.00000000000E+00 0.  1.
        -13    1    5    5    0    0 -0.13801725178E+02  0.11333480859E+03 -0.11199912605E+03  0.15993458254E+03  0.00000000000E+00 0. -1.
          2    1    6    6  503    0  0.18663909017E+03 -0.24160173710E+03 -0.95293918273E+02  0.31982257614E+03  0.00000000000E+00 0.  1.
         -2    1    6    6    0  503  0.37010453000E+03 -0.59048122773E+03 -0.36345570728E+03  0.78596787121E+03  0.00000000000E+00 0. -1.
<mgrwt>
<rscale>  0 0.22189253E+04</rscale>
<asrwt>0</asrwt>
<pdfrwt beam="1">  1        1 0.23738674E+00 0.22189253E+04</pdfrwt>
<pdfrwt beam="2">  1       -1 0.12272759E+00 0.22189253E+04</pdfrwt>
<totfact> 0.32564032E+00</totfact>
</mgrwt>
</event>
<event>
12    3  0.8686020E-008  0.1645154E+04  0.7818608E-02  0.8793279E-01
          1   -1    0    0  501    0  0.00000000000E+00  0.00000000000E+00  0.11660521103E+04  0.11660521103E+04  0.00000000000E+00 0. -1.
         -1   -1    0    0    0  501 -0.00000000000E+00 -0.00000000000E+00 -0.58027644274E+03  0.58027644274E+03  0.00000000000E+00 0.  1.
         23    2    1    2    0    0 -0.23566925095E+03 -0.27276643622E+03 -0.26432682016E+03  0.45623165470E+03  0.91307887516E+02 0.  0.
        254    2    1    2    0    0  0.23566925095E+03  0.27276643622E+03  0.85010248768E+03  0.12900968983E+04  0.90096295309E+03 0.  0.
         23    2    4    4    0    0  0.53453673629E+02 -0.31944706711E+03  0.22303565235E+03  0.40346075709E+03  0.90177360727E+02 0.  0.
         23    2    4    4    0    0  0.18221557732E+03  0.59221350333E+03  0.62706683533E+03  0.88663614119E+03  0.94823418802E+02 0.  0.
          3    1    3    3  502    0 -0.21713462165E+03 -0.24163987227E+03 -0.26613660330E+03  0.41995947829E+03  0.00000000000E+00 0.  1.
         -3    1    3    3    0  502 -0.18534629297E+02 -0.31126563956E+02  0.18097831343E+01  0.36272176415E+02  0.00000000000E+00 0. -1.
         13    1    5    5    0    0  0.19696509518E+02 -0.21473765555E+03  0.97847033530E+02  0.23680003203E+03  0.00000000000E+00 0. -1.
        -13    1    5    5    0    0  0.33757164110E+02 -0.10470941156E+03  0.12518861882E+03  0.16666072506E+03  0.00000000000E+00 0.  1.
          3    1    6    6  503    0  0.12382944121E+03  0.30354538544E+03  0.38291785844E+03  0.50408294739E+03  0.00000000000E+00 0. -1.
         -3    1    6    6    0  503  0.58386136118E+02  0.28866811789E+03  0.24414897689E+03  0.38255319381E+03  0.00000000000E+00 0.  1.
<mgrwt>
<rscale>  0 0.16451536E+04</rscale>
<asrwt>0</asrwt>
<pdfrwt beam="1">  1        1 0.17939263E+00 0.16451536E+04</pdfrwt>
<pdfrwt beam="2">  1       -1 0.89273299E-01 0.16451536E+04</pdfrwt>
<totfact> 0.13307392E+01</totfact>
</mgrwt>
</event>
<event>
12    3  0.8686020E-008  0.2540841E+04  0.7818608E-02  0.8388578E-01
          2   -1    0    0  501    0  0.00000000000E+00  0.00000000000E+00  0.27250287355E+04  0.27250287355E+04  0.00000000000E+00 0. -1.
         -2   -1    0    0    0  501 -0.00000000000E+00 -0.00000000000E+00 -0.59227573169E+03  0.59227573169E+03  0.00000000000E+00 0.  1.
         23    2    1    2    0    0 -0.49515384084E+03 -0.92466049086E+03  0.14005006450E+04  0.17520498186E+04  0.90012004420E+02 0.  0.
        254    2    1    2    0    0  0.49515384084E+03  0.92466049086E+03  0.73225235883E+03  0.15652546486E+04  0.90202785343E+03 0.  0.
         23    2    4    4    0    0  0.52636401088E+03  0.94974930394E+03  0.31308967141E+03  0.11338018724E+04  0.91644591546E+02 0.  0.
         23    2    4    4    0    0 -0.31210170041E+02 -0.25088813071E+02  0.41916268742E+03  0.43145277619E+03  0.94077714174E+02 0.  0.
          4    1    3    3  502    0 -0.38792025323E+02 -0.77980663452E+02  0.16195382867E+03  0.18388813916E+03  0.00000000000E+00 0. -1.
         -4    1    3    3    0  502 -0.45636181551E+03 -0.84667982741E+03  0.12385468163E+04  0.15681616795E+04  0.00000000000E+00 0.  1.
         13    1    5    5    0    0  0.29636719833E+03  0.57739125867E+03  0.14528936614E+03  0.66507381677E+03  0.00000000000E+00 0. -1.
        -13    1    5    5    0    0  0.22999681254E+03  0.37235804526E+03  0.16780030527E+03  0.46872805559E+03  0.00000000000E+00 0.  1.
          4    1    6    6  503    0  0.31335531799E+02 -0.51170938536E+01  0.20523201988E+03  0.20767349900E+03  0.00000000000E+00 0. -1.
         -4    1    6    6    0  503 -0.62545701840E+02 -0.19971719218E+02  0.21393066754E+03  0.22377927719E+03  0.00000000000E+00 0.  1.
<mgrwt>
<rscale>  0 0.25408411E+04</rscale>
<asrwt>0</asrwt>
<pdfrwt beam="1">  1        2 0.41923518E+00 0.25408411E+04</pdfrwt>
<pdfrwt beam="2">  1       -2 0.91119345E-01 0.25408411E+04</pdfrwt>
<totfact> 0.23418473E+00</totfact>
</mgrwt>
</event>
<event>
12    3  0.8686020E-008  0.1713949E+04  0.7818608E-02  0.8753448E-01
         -2   -1    0    0    0  501 -0.00000000000E+00  0.00000000000E+00  0.60512884727E+03  0.60512884727E+03  0.00000000000E+00 0.  1.
          2   -1    0    0  501    0  0.00000000000E+00 -0.00000000000E+00 -0.12136352475E+04  0.12136352475E+04  0.00000000000E+00 0. -1.
         23    2    1    2    0    0 -0.53957731264E+02 -0.30911836819E+03  0.34145946523E+03  0.47258793288E+03  0.90990030202E+02 0.  0.
        254    2    1    2    0    0  0.53957731264E+02  0.30911836819E+03 -0.94996586546E+03  0.13461761619E+04  0.90071611008E+03 0.  0.
         23    2    4    4    0    0  0.42816706702E+03  0.22532517819E+03 -0.27266147081E+03  0.56235598445E+03  0.88326113795E+02 0.  0.
         23    2    4    4    0    0 -0.37420933576E+03  0.83793190005E+02 -0.67730439465E+03  0.78382017742E+03  0.92622361598E+02 0.  0.
          2    1    3    3  502    0  0.10916379507E+02 -0.84752590089E+02  0.49679479437E+02  0.98844420912E+02  0.00000000000E+00 0. -1.
         -2    1    3    3    0  502 -0.64874110771E+02 -0.22436577810E+03  0.29177998579E+03  0.37374351197E+03  0.00000000000E+00 0.  1.
         13    1    5    5    0    0  0.24171191745E+03  0.17020482680E+03 -0.18764202588E+03  0.35014834568E+03  0.00000000000E+00 0.  1.
        -13    1    5    5    0    0  0.18645514957E+03  0.55120351388E+02 -0.85019444925E+02  0.21220763877E+03  0.00000000000E+00 0. -1.
          4    1    6    6  503    0 -0.22064053262E+03  0.39713007272E+02 -0.30366142357E+03  0.37745149058E+03  0.00000000000E+00 0.  1.
         -4    1    6    6    0  503 -0.15356880314E+03  0.44080182733E+02 -0.37364297108E+03  0.40636868684E+03  0.00000000000E+00 0. -1.
<mgrwt>
<rscale>  0 0.17139495E+04</rscale>
<asrwt>0</asrwt>
<pdfrwt beam="1">  1        2 0.18671311E+00 0.17139495E+04</pdfrwt>
<pdfrwt beam="2">  1       -2 0.93096747E-01 0.17139495E+04</pdfrwt>
<totfact> 0.17266726E+01</totfact>
</mgrwt>
</event>
<event>
12    3  0.8686020E-008  0.1461997E+04  0.7818608E-02  0.8910125E-01
         -2   -1    0    0    0  501 -0.00000000000E+00  0.00000000000E+00  0.52455674131E+03  0.52455674131E+03  0.00000000000E+00 0. -1.
          2   -1    0    0  501    0  0.00000000000E+00 -0.00000000000E+00 -0.10186866557E+04  0.10186866557E+04  0.00000000000E+00 0.  1.
         23    2    1    2    0    0 -0.33710084514E+03  0.22916087255E+03  0.42044026210E+02  0.41909959216E+03  0.87892449646E+02 0.  0.
        254    2    1    2    0    0  0.33710084514E+03 -0.22916087255E+03 -0.53617394064E+03  0.11241438049E+04  0.90003617381E+03 0.  0.
         23    2    4    4    0    0 -0.15230429387E+03 -0.22635975401E+03 -0.55747899210E+03  0.62577242938E+03  0.79830887402E+02 0.  0.
         23    2    4    4    0    0  0.48940513901E+03 -0.28011185475E+01  0.21305051451E+02  0.49837137551E+03  0.91623612470E+02 0.  0.
          1    1    3    3  502    0 -0.25424294008E+03  0.15127970120E+03  0.65454872555E+02  0.30300059557E+03  0.00000000000E+00 0. -1.
         -1    1    3    3    0  502 -0.82857905064E+02  0.77881171352E+02 -0.23410846345E+02  0.11609899659E+03  0.00000000000E+00 0.  1.
         13    1    5    5    0    0 -0.86313329947E+01 -0.71392275312E+02 -0.11929994769E+03  0.13929764680E+03  0.00000000000E+00 0.  1.
        -13    1    5    5    0    0 -0.14367296087E+03 -0.15496747869E+03 -0.43817904440E+03  0.48647478258E+03  0.00000000000E+00 0. -1.
          4    1    6    6  503    0  0.42186438133E+03 -0.19811387919E+02  0.45189454610E+02  0.42474007832E+03  0.00000000000E+00 0. -1.
         -4    1    6    6    0  503  0.67540757681E+02  0.17010269371E+02 -0.23884403159E+02  0.73631297194E+02  0.00000000000E+00 0.  1.
<mgrwt>
<rscale>  0 0.14619972E+04</rscale>
<asrwt>0</asrwt>
<pdfrwt beam="1">  1        2 0.15672102E+00 0.14619972E+04</pdfrwt>
<pdfrwt beam="2">  1       -2 0.80701037E-01 0.14619972E+04</pdfrwt>
<totfact> 0.32187147E+01</totfact>
</mgrwt>
</event>
<event>
12    3  0.8686020E-008  0.1555585E+04  0.7818608E-02  0.8848308E-01
          2   -1    0    0  501    0  0.00000000000E+00  0.00000000000E+00  0.37416211808E+03  0.37416211808E+03  0.00000000000E+00 0.  1.
         -2   -1    0    0    0  501 -0.00000000000E+00 -0.00000000000E+00 -0.16168432393E+04  0.16168432393E+04  0.00000000000E+00 0. -1.
         23    2    1    2    0    0 -0.32209241938E+03 -0.32712687647E+03 -0.70563536029E+03  0.84713425717E+03  0.94655523061E+02 0.  0.
        254    2    1    2    0    0  0.32209241938E+03  0.32712687647E+03 -0.53704576096E+03  0.11438711002E+04  0.89959292163E+03 0.  0.
         23    2    4    4    0    0 -0.29540612869E+03  0.15871762045E+03 -0.28766001481E+03  0.45103531534E+03  0.90711122008E+02 0.  0.
         23    2    4    4    0    0  0.61749854807E+03  0.16840925602E+03 -0.24938574615E+03  0.69283578489E+03  0.90344009533E+02 0.  0.
          3    1    3    3  502    0 -0.10228165662E+03 -0.13888896128E+03 -0.33599876485E+03  0.37768618035E+03  0.00000000000E+00 0. -1.
         -3    1    3    3    0  502 -0.21981076276E+03 -0.18823791519E+03 -0.36963659544E+03  0.46944807682E+03  0.00000000000E+00 0.  1.
         13    1    5    5    0    0 -0.20373103304E+03  0.79187399153E+02 -0.22782143513E+03  0.31572073785E+03  0.00000000000E+00 0. -1.
        -13    1    5    5    0    0 -0.91675095654E+02  0.79530221297E+02 -0.59838579682E+02  0.13531457749E+03  0.00000000000E+00 0.  1.
          1    1    6    6  503    0  0.55905467233E+03  0.17482064959E+03 -0.21088340245E+03  0.62255617868E+03  0.00000000000E+00 0. -1.
         -1    1    6    6    0  503  0.58443875742E+02 -0.64113935756E+01 -0.38502343700E+02  0.70279606215E+02  0.00000000000E+00 0.  1.
<mgrwt>
<rscale>  0 0.15555854E+04</rscale>
<asrwt>0</asrwt>
<pdfrwt beam="1">  1        2 0.57563402E-01 0.15555854E+04</pdfrwt>
<pdfrwt beam="2">  1       -2 0.24874512E+00 0.15555854E+04</pdfrwt>
<totfact> 0.53981573E+00</totfact>
</mgrwt>
</event>
<event>
12    3  0.8686020E-008  0.4007554E+04  0.7818608E-02  0.8003024E-01
         -1   -1    0    0    0  501 -0.00000000000E+00  0.00000000000E+00  0.21868119758E+04  0.21868119758E+04  0.00000000000E+00 0.  1.
          1   -1    0    0  501    0  0.00000000000E+00 -0.00000000000E+00 -0.18360615506E+04  0.18360615506E+04  0.00000000000E+00 0. -1.
         23    2    1    2    0    0 -0.18326225925E+04  0.27395916395E+03 -0.26617155655E+03  0.18742080966E+04  0.90826768253E+02 0.  0.
        254    2    1    2    0    0  0.18326225925E+04 -0.27395916395E+03  0.61692198180E+03  0.21486654297E+04  0.89588571093E+03 0.  0.
         23    2    4    4    0    0  0.10965510063E+04 -0.36092709309E+03 -0.33112760890E+02  0.11586853577E+04  0.93609973785E+02 0.  0.
         23    2    4    4    0    0  0.73607158625E+03  0.86967929141E+02  0.65003474269E+03  0.98998007206E+03  0.90280538285E+02 0.  0.
          3    1    3    3  502    0 -0.30718047936E+03  0.21625471137E+02 -0.68329658113E+02  0.31543057886E+03  0.00000000000E+00 0. -1.
         -3    1    3    3    0  502 -0.15254421132E+04  0.25233369281E+03 -0.19784189844E+03  0.15587775178E+04  0.00000000000E+00 0.  1.
         13    1    5    5    0    0  0.26708645958E+03 -0.98864466941E+02 -0.47262098480E+02  0.28869199100E+03  0.00000000000E+00 0. -1.
        -13    1    5    5    0    0  0.82946454671E+03 -0.26206262615E+03  0.14149337590E+02  0.86999336666E+03  0.00000000000E+00 0.  1.
          2    1    6    6  503    0  0.60086235500E+03  0.90912795537E+02  0.49152332740E+03  0.78159829031E+03  0.00000000000E+00 0.  1.
         -2    1    6    6    0  503  0.13520923125E+03 -0.39448663962E+01  0.15851141529E+03  0.20838178175E+03  0.00000000000E+00 0. -1.
<mgrwt>
<rscale>  0 0.40075536E+04</rscale>
<asrwt>0</asrwt>
<pdfrwt beam="1">  1        1 0.28247101E+00 0.40075536E+04</pdfrwt>
<pdfrwt beam="2">  1       -1 0.33643261E+00 0.40075536E+04</pdfrwt>
<totfact> 0.57508109E-02</totfact>
</mgrwt>
</event>
<event>
12    3  0.8686020E-008  0.3496791E+04  0.7818608E-02  0.8114551E-01
         -2   -1    0    0    0  501 -0.00000000000E+00  0.00000000000E+00  0.10229963307E+04  0.10229963307E+04  0.00000000000E+00 0.  1.
          2   -1    0    0  501    0  0.00000000000E+00 -0.00000000000E+00 -0.29881696641E+04  0.29881696641E+04  0.00000000000E+00 0. -1.
         23    2    1    2    0    0 -0.61197430669E+03 -0.11401532771E+04  0.22229209469E+03  0.13161253219E+04  0.91159421971E+02 0.  0.
        254    2    1    2    0    0  0.61197430669E+03  0.11401532771E+04 -0.21874654281E+04  0.26950406729E+04  0.89653621329E+03 0.  0.
         23    2    4    4    0    0  0.75259835658E+03  0.11327952265E+04 -0.21030918341E+04  0.25061628994E+04  0.90707794600E+02 0.  0.
         23    2    4    4    0    0 -0.14062404989E+03  0.73580506516E+01 -0.84373593994E+02  0.18887777348E+03  0.93416516928E+02 0.  0.
          3    1    3    3  502    0 -0.18538921664E+03 -0.42200834186E+03  0.10376183586E+03  0.47246875117E+03  0.00000000000E+00 0. -1.
         -3    1    3    3    0  502 -0.42658509005E+03 -0.71814493528E+03  0.11853025884E+03  0.84365657076E+03  0.00000000000E+00 0.  1.
         13    1    5    5    0    0  0.62157548074E+03  0.99072619149E+03 -0.17896872303E+04  0.21379604409E+04  0.00000000000E+00 0. -1.
        -13    1    5    5    0    0  0.13102287584E+03  0.14206903500E+03 -0.31340460384E+03  0.36820245844E+03  0.00000000000E+00 0.  1.
          3    1    6    6  503    0 -0.98227433874E+02 -0.83048192441E+01 -0.64419391866E+01  0.98788143867E+02  0.00000000000E+00 0. -1.
         -3    1    6    6    0  503 -0.42396616014E+02  0.15662869896E+02 -0.77931654807E+02  0.90089629613E+02  0.00000000000E+00 0.  1.
<mgrwt>
<rscale>  0 0.34967909E+04</rscale>
<asrwt>0</asrwt>
<pdfrwt beam="1">  1        2 0.45971841E+00 0.34967909E+04</pdfrwt>
<pdfrwt beam="2">  1       -2 0.15738405E+00 0.34967909E+04</pdfrwt>
<totfact> 0.38322473E-01</totfact>
</mgrwt>
</event>
<event>
12    3  0.8686020E-008  0.3001713E+04  0.7818608E-02  0.8243242E-01
          1   -1    0    0  501    0  0.00000000000E+00  0.00000000000E+00  0.14468305697E+04  0.14468305697E+04  0.00000000000E+00 0. -1.
         -1   -1    0    0    0  501 -0.00000000000E+00 -0.00000000000E+00 -0.15569000223E+04  0.15569000223E+04  0.00000000000E+00 0.  1.
         23    2    1    2    0    0  0.64267354343E+03  0.11993088056E+04  0.58614968236E+02  0.13649054640E+04  0.90334470289E+02 0.  0.
        254    2    1    2    0    0 -0.64267354343E+03 -0.11993088056E+04 -0.16868442082E+03  0.16388251280E+04  0.89773184851E+03 0.  0.
         23    2    4    4    0    0 -0.42743802271E+03 -0.64042860949E+03  0.34166277669E+03  0.84692585192E+03  0.87737555079E+02 0.  0.
         23    2    4    4    0    0 -0.21523552072E+03 -0.55888019612E+03 -0.51034719750E+03  0.79189927612E+03  0.89312924726E+02 0.  0.
          1    1    3    3  502    0  0.17190965318E+03  0.25064179549E+03  0.30825878100E+02  0.30549054529E+03  0.00000000000E+00 0. -1.
         -1    1    3    3    0  502  0.47076389026E+03  0.94866701012E+03  0.27789090136E+02  0.10594149187E+04  0.00000000000E+00 0.  1.
         13    1    5    5    0    0 -0.20708366665E+03 -0.27359766634E+03  0.11009207714E+03  0.36036036612E+03  0.00000000000E+00 0. -1.
        -13    1    5    5    0    0 -0.22035435606E+03 -0.36683094314E+03  0.23157069955E+03  0.48656548580E+03  0.00000000000E+00 0.  1.
          3    1    6    6  503    0  0.42767856603E+01 -0.63071285749E+02 -0.57056443262E+02  0.85157006167E+02  0.00000000000E+00 0. -1.
         -3    1    6    6    0  503 -0.21951230638E+03 -0.49580891038E+03 -0.45329075424E+03  0.70674226996E+03  0.00000000000E+00 0.  1.
<mgrwt>
<rscale>  0 0.30017132E+04</rscale>
<asrwt>0</asrwt>
<pdfrwt beam="1">  1        1 0.22258932E+00 0.30017132E+04</pdfrwt>
<pdfrwt beam="2">  1       -1 0.23952308E+00 0.30017132E+04</pdfrwt>
<totfact> 0.49501774E-01</totfact>
</mgrwt>
</event>
<event>
12    3  0.8686020E-008  0.2212613E+04  0.7818608E-02  0.8513196E-01
          2   -1    0    0  501    0  0.00000000000E+00  0.00000000000E+00  0.38314045686E+04  0.38314045686E+04  0.00000000000E+00 0.  1.
         -2   -1    0    0    0  501 -0.00000000000E+00 -0.00000000000E+00 -0.31944276602E+03  0.31944276602E+03  0.00000000000E+00 0. -1.
         23    2    1    2    0    0  0.30788284126E+03  0.75349680824E+03  0.22744926123E+04  0.24174339819E+04  0.90117308465E+02 0.  0.
        254    2    1    2    0    0 -0.30788284126E+03 -0.75349680824E+03  0.12374691903E+04  0.17334133528E+04  0.90046797316E+03 0.  0.
         23    2    4    4    0    0 -0.25651163896E+03 -0.50918208046E+03  0.13345920657E+04  0.14539832299E+04  0.88694075365E+02 0.  0.
         23    2    4    4    0    0 -0.51371202303E+02 -0.24431472778E+03 -0.97122875440E+02  0.27943012284E+03  0.79496251389E+02 0.  0.
          2    1    3    3  502    0  0.34143536235E+02  0.13601166914E+03  0.31529083822E+03  0.34506994635E+03  0.00000000000E+00 0. -1.
         -2    1    3    3    0  502  0.27373930502E+03  0.61748513910E+03  0.19592017741E+04  0.20723640355E+04  0.00000000000E+00 0.  1.
         13    1    5    5    0    0 -0.43877517407E+02 -0.16200576917E+03  0.33595108178E+03  0.37554525044E+03  0.00000000000E+00 0. -1.
        -13    1    5    5    0    0 -0.21263412155E+03 -0.34717631129E+03  0.99864098396E+03  0.10784379795E+04  0.00000000000E+00 0.  1.
          2    1    6    6  503    0 -0.27340516266E+01  0.32494621233E+01  0.55957435622E+01  0.70246984563E+01  0.00000000000E+00 0. -1.
         -2    1    6    6    0  503 -0.48637150676E+02 -0.24756418990E+03 -0.10271861900E+03  0.27240542439E+03  0.00000000000E+00 0.  1.
<mgrwt>
<rscale>  0 0.22126134E+04</rscale>
<asrwt>0</asrwt>
<pdfrwt beam="1">  1        2 0.58944682E+00 0.22126134E+04</pdfrwt>
<pdfrwt beam="2">  1       -2 0.49145044E-01 0.22126134E+04</pdfrwt>
<totfact> 0.16725900E+00</totfact>
</mgrwt>
</event>
<event>
12    3  0.8686020E-008  0.3494972E+04  0.7818608E-02  0.8114982E-01
          1   -1    0    0  501    0  0.00000000000E+00  0.00000000000E+00  0.24601506214E+04  0.24601506214E+04  0.00000000000E+00 0. -1.
         -1   -1    0    0    0  501 -0.00000000000E+00 -0.00000000000E+00 -0.12412687265E+04  0.12412687265E+04  0.00000000000E+00 0.  1.
         23    2    1    2    0    0  0.27225841253E+02  0.15888075302E+04  0.17612193006E+03  0.16011651720E+04  0.87523478543E+02 0.  0.
        254    2    1    2    0    0 -0.27225841253E+02 -0.15888075302E+04  0.10427599649E+04  0.21002541758E+04  0.89368263057E+03 0.  0.
         23    2    4    4    0    0  0.10930823709E+03 -0.12791795589E+04  0.36520528943E+03  0.13374595260E+04  0.84702099605E+02 0.  0.
         23    2    4    4    0    0 -0.13653407835E+03 -0.30962797136E+03  0.67755467545E+03  0.76279464985E+03  0.90908219740E+02 0.  0.
          2    1    3    3  502    0  0.17065630703E+02  0.29362757291E+03  0.73006887682E+00  0.29412398801E+03  0.00000000000E+00 0.  1.
         -2    1    3    3    0  502  0.10160210550E+02  0.12951799573E+04  0.17539186118E+03  0.13070411840E+04  0.00000000000E+00 0. -1.
         13    1    5    5    0    0 -0.11582491059E+02 -0.24747185448E+03  0.77654552983E+02  0.25962800785E+03  0.00000000000E+00 0. -1.
        -13    1    5    5    0    0  0.12089072815E+03 -0.10317077044E+04  0.28755073644E+03  0.10778315181E+04  0.00000000000E+00 0.  1.
          1    1    6    6  503    0 -0.11371865085E+01  0.63827521162E+01  0.15395996084E+02  0.16705370787E+02  0.00000000000E+00 0. -1.
         -1    1    6    6    0  503 -0.13539689184E+03 -0.31601072347E+03  0.66215867937E+03  0.74608927906E+03  0.00000000000E+00 0.  1.
<mgrwt>
<rscale>  0 0.34949724E+04</rscale>
<asrwt>0</asrwt>
<pdfrwt beam="1">  1        1 0.37848471E+00 0.34949724E+04</pdfrwt>
<pdfrwt beam="2">  1       -1 0.19096442E+00 0.34949724E+04</pdfrwt>
<totfact> 0.20496561E-01</totfact>
</mgrwt>
</event>
<event>
12    3  0.8686020E-008  0.5052572E+04  0.7818608E-02  0.7820448E-01
         -2   -1    0    0    0  501 -0.00000000000E+00  0.00000000000E+00  0.32699378877E+04  0.32699378877E+04  0.00000000000E+00 0.  1.
          2   -1    0    0  501    0  0.00000000000E+00 -0.00000000000E+00 -0.19517559699E+04  0.19517559699E+04  0.00000000000E+00 0. -1.
         23    2    1    2    0    0  0.23649466316E+04  0.59526555015E+03  0.45456984665E+03  0.24825589693E+04  0.95664230246E+02 0.  0.
        254    2    1    2    0    0 -0.23649466316E+04 -0.59526555015E+03  0.86361207109E+03  0.27391348883E+04  0.89984469868E+03 0.  0.
         23    2    4    4    0    0 -0.10745474148E+04 -0.47980062992E+03  0.18909499743E+01  0.11803165139E+04  0.91009374242E+02 0.  0.
         23    2    4    4    0    0 -0.12903992168E+04 -0.11546492023E+03  0.86172112112E+03  0.15588183745E+04  0.94282275088E+02 0.  0.
          2    1    3    3  502    0  0.71516873538E+03  0.21481533322E+03  0.16803260850E+03  0.76540636591E+03  0.00000000000E+00 0. -1.
         -2    1    3    3    0  502  0.16497778962E+04  0.38045021693E+03  0.28653723815E+03  0.17171526034E+04  0.00000000000E+00 0.  1.
         13    1    5    5    0    0 -0.89351792162E+03 -0.42156102390E+03  0.27982406480E+02  0.98836784053E+03  0.00000000000E+00 0. -1.
        -13    1    5    5    0    0 -0.18102949314E+03 -0.58239606022E+02 -0.26091456506E+02  0.19194867335E+03  0.00000000000E+00 0.  1.
          1    1    6    6  503    0 -0.10676232325E+04 -0.12647232357E+03  0.73450759568E+03  0.13020430190E+04  0.00000000000E+00 0. -1.
         -1    1    6    6    0  503 -0.22277598436E+03  0.11007403337E+02  0.12721352543E+03  0.25677535550E+03  0.00000000000E+00 0.  1.
<mgrwt>
<rscale>  0 0.50525719E+04</rscale>
<asrwt>0</asrwt>
<pdfrwt beam="1">  1        2 0.30027015E+00 0.50525719E+04</pdfrwt>
<pdfrwt beam="2">  1       -2 0.50306737E+00 0.50525719E+04</pdfrwt>
<totfact> 0.81965117E-03</totfact>
</mgrwt>
</event>
<event>
12    3  0.8686020E-008  0.1392603E+04  0.7818608E-02  0.8959190E-01
          2   -1    0    0  501    0  0.00000000000E+00  0.00000000000E+00  0.99483606061E+03  0.99483606061E+03  0.00000000000E+00 0. -1.
         -2   -1    0    0    0  501 -0.00000000000E+00 -0.00000000000E+00 -0.48735236217E+03  0.48735236217E+03  0.00000000000E+00 0.  1.
         23    2    1    2    0    0  0.34237715802E+03 -0.14082048985E+03  0.30461959943E+03  0.48764323791E+03  0.89164446002E+02 0.  0.
        254    2    1    2    0    0 -0.34237715802E+03  0.14082048985E+03  0.20286409902E+03  0.99454518487E+03  0.90050749768E+03 0.  0.
         23    2    4    4    0    0 -0.21873623996E+03  0.49538996289E+03 -0.18138599575E+02  0.54966760913E+03  0.92459254416E+02 0.  0.
         23    2    4    4    0    0 -0.12364091806E+03 -0.35456947304E+03  0.22100269859E+03  0.44487757574E+03  0.89818020367E+02 0.  0.
          2    1    3    3  502    0  0.10735383714E+03 -0.29879618094E+02  0.14415743088E+03  0.18220593515E+03  0.00000000000E+00 0. -1.
         -2    1    3    3    0  502  0.23502332088E+03 -0.11094087176E+03  0.16046216855E+03  0.30543730277E+03  0.00000000000E+00 0.  1.
         13    1    5    5    0    0  0.75905327906E+01  0.41230155422E+02 -0.24796588284E+01  0.41996316649E+02  0.00000000000E+00 0.  1.
        -13    1    5    5    0    0 -0.22632677275E+03  0.45415980747E+03 -0.15658940746E+02  0.50767129248E+03  0.00000000000E+00 0. -1.
          1    1    6    6  503    0 -0.10031344279E+03 -0.27208227952E+03  0.21088925053E+03  0.35856077535E+03  0.00000000000E+00 0. -1.
         -1    1    6    6    0  503 -0.23327475263E+02 -0.82487193522E+02  0.10113448059E+02  0.86316800386E+02  0.00000000000E+00 0.  1.
<mgrwt>
<rscale>  0 0.13926029E+04</rscale>
<asrwt>0</asrwt>
<pdfrwt beam="1">  1        2 0.15305170E+00 0.13926029E+04</pdfrwt>
<pdfrwt beam="2">  1       -2 0.74977287E-01 0.13926029E+04</pdfrwt>
<totfact> 0.39506339E+01</totfact>
</mgrwt>
</event>
<event>
12    3  0.8686020E-008  0.2283783E+04  0.7818608E-02  0.8484343E-01
         -2   -1    0    0    0  501 -0.00000000000E+00  0.00000000000E+00  0.20696447779E+04  0.20696447779E+04  0.00000000000E+00 0.  1.
          2   -1    0    0  501    0  0.00000000000E+00 -0.00000000000E+00 -0.63001912004E+03  0.63001912004E+03  0.00000000000E+00 0. -1.
         23    2    1    2    0    0  0.66382134662E+03  0.69250990464E+03  0.57724881704E+03  0.11232066122E+04  0.90267095843E+02 0.  0.
        254    2    1    2    0    0 -0.66382134662E+03 -0.69250990464E+03  0.86237684081E+03  0.15764572858E+04  0.90625328139E+03 0.  0.
         23    2    4    4    0    0 -0.34164107633E+03 -0.45139722739E+02  0.76137691164E+03  0.84066913868E+03  0.90959219130E+02 0.  0.
         23    2    4    4    0    0 -0.32218027029E+03 -0.64737018190E+03  0.10099992917E+03  0.73578814709E+03  0.91076521246E+02 0.  0.
          3    1    3    3  502    0  0.25051034266E+03  0.32229159721E+03  0.22780422270E+03  0.46746344167E+03  0.00000000000E+00 0. -1.
         -3    1    3    3    0  502  0.41331100396E+03  0.37021830743E+03  0.34944459434E+03  0.65574317050E+03  0.00000000000E+00 0.  1.
         13    1    5    5    0    0 -0.31545792209E+03 -0.42306043689E+02  0.62068761781E+03  0.69753610720E+03  0.00000000000E+00 0. -1.
        -13    1    5    5    0    0 -0.26183154240E+02 -0.28336790497E+01  0.14068929382E+03  0.14313303148E+03  0.00000000000E+00 0.  1.
          1    1    6    6  503    0 -0.87655061829E+02 -0.19718419884E+03 -0.10615476037E+02  0.21605024061E+03  0.00000000000E+00 0. -1.
         -1    1    6    6    0  503 -0.23452520846E+03 -0.45018598306E+03  0.11161540521E+03  0.51973790648E+03  0.00000000000E+00 0.  1.
<mgrwt>
<rscale>  0 0.22837826E+04</rscale>
<asrwt>0</asrwt>
<pdfrwt beam="1">  1        2 0.96926019E-01 0.22837826E+04</pdfrwt>
<pdfrwt beam="2">  1       -2 0.31840689E+00 0.22837826E+04</pdfrwt>
<totfact> 0.10397260E+00</totfact>
</mgrwt>
</event>
<event>
12    3  0.8686020E-008  0.1544704E+04  0.7818608E-02  0.8855258E-01
          2   -1    0    0  501    0  0.00000000000E+00  0.00000000000E+00  0.24922560184E+04  0.24922560184E+04  0.00000000000E+00 0. -1.
         -2   -1    0    0    0  501 -0.00000000000E+00 -0.00000000000E+00 -0.23935244274E+03  0.23935244274E+03  0.00000000000E+00 0.  1.
         23    2    1    2    0    0  0.24583082892E+03  0.14306551897E+03  0.86337260775E+01  0.29939856908E+03  0.93082881200E+02 0.  0.
        254    2    1    2    0    0 -0.24583082892E+03 -0.14306551897E+03  0.22442698496E+04  0.24322098921E+04  0.89330692496E+03 0.  0.
         23    2    4    4    0    0 -0.29364801082E+03 -0.14608388717E+03  0.22929325768E+04  0.23178811028E+04  0.86390675895E+02 0.  0.
         23    2    4    4    0    0  0.47817181900E+02  0.30183681954E+01 -0.48662727154E+02  0.11432878928E+03  0.91691971359E+02 0.  0.
          1    1    3    3  502    0  0.22111276985E+02 -0.88501971340E+01  0.16310245906E+02  0.28866220410E+02  0.00000000000E+00 0. -1.
         -1    1    3    3    0  502  0.22371955194E+03  0.15191571611E+03 -0.76765198287E+01  0.27053234867E+03  0.00000000000E+00 0.  1.
         13    1    5    5    0    0 -0.28650852321E+03 -0.11934695651E+03  0.20469276363E+04  0.20703245104E+04  0.00000000000E+00 0. -1.
        -13    1    5    5    0    0 -0.71394876160E+01 -0.26736930663E+02  0.24600494045E+03  0.24755659246E+03  0.00000000000E+00 0.  1.
          2    1    6    6  503    0  0.70230411116E+02 -0.18052235539E+02 -0.31053200501E+02  0.78882793528E+02  0.00000000000E+00 0. -1.
         -2    1    6    6    0  503 -0.22413229215E+02  0.21070603735E+02 -0.17609526653E+02  0.35445995748E+02  0.00000000000E+00 0.  1.
<mgrwt>
<rscale>  0 0.15447039E+04</rscale>
<asrwt>0</asrwt>
<pdfrwt beam="1">  1        2 0.38342398E+00 0.15447039E+04</pdfrwt>
<pdfrwt beam="2">  1       -2 0.36823455E-01 0.15447039E+04</pdfrwt>
<totfact> 0.23589008E+01</totfact>
</mgrwt>
</event>
<event>
12    3  0.8686020E-008  0.1951573E+04  0.7818608E-02  0.8629602E-01
          2   -1    0    0  501    0  0.00000000000E+00  0.00000000000E+00  0.36798607743E+03  0.36798607743E+03  0.00000000000E+00 0. -1.
         -2   -1    0    0    0  501 -0.00000000000E+00 -0.00000000000E+00 -0.25874881023E+04  0.25874881023E+04  0.00000000000E+00 0.  1.
         23    2    1    2    0    0 -0.41540899723E+03 -0.33341278531E+03 -0.44733768093E+02  0.54233276255E+03  0.91624204993E+02 0.  0.
        254    2    1    2    0    0  0.41540899723E+03  0.33341278531E+03 -0.21747682568E+04  0.24131414172E+04  0.89994766970E+03 0.  0.
         23    2    4    4    0    0  0.64976794573E+03  0.39604336118E+03 -0.13995566968E+04  0.15957154862E+04  0.92196736513E+02 0.  0.
         23    2    4    4    0    0 -0.23435894851E+03 -0.62630575866E+02 -0.77521155998E+03  0.81742593094E+03  0.91572288732E+02 0.  0.
          2    1    3    3  502    0 -0.12375248295E+03 -0.91619270422E+02  0.28168315577E+02  0.15653185539E+03  0.00000000000E+00 0. -1.
         -2    1    3    3    0  502 -0.29165651428E+03 -0.24179351489E+03 -0.72902083670E+02  0.38580090716E+03  0.00000000000E+00 0.  1.
         13    1    5    5    0    0  0.10731846602E+03  0.10809722552E+03 -0.27041163502E+03  0.31036223300E+03  0.00000000000E+00 0. -1.
        -13    1    5    5    0    0  0.54244947972E+03  0.28794613565E+03 -0.11291450618E+04  0.12853532532E+04  0.00000000000E+00 0.  1.
          1    1    6    6  503    0 -0.21567859620E+02  0.14682630069E+02 -0.15506625325E+03  0.15724597003E+03  0.00000000000E+00 0. -1.
         -1    1    6    6    0  503 -0.21279108889E+03 -0.77313205935E+02 -0.62014530673E+03  0.66017996091E+03  0.00000000000E+00 0.  1.
<mgrwt>
<rscale>  0 0.19515733E+04</rscale>
<asrwt>0</asrwt>
<pdfrwt beam="1">  1        2 0.56613240E-01 0.19515733E+04</pdfrwt>
<pdfrwt beam="2">  1       -2 0.39807511E+00 0.19515733E+04</pdfrwt>
<totfact> 0.62459464E-01</totfact>
</mgrwt>
</event>
<event>
12    3  0.8686020E-008  0.2927497E+04  0.7818608E-02  0.8264743E-01
          3   -1    0    0  501    0  0.00000000000E+00  0.00000000000E+00  0.60912554615E+03  0.60912554615E+03  0.00000000000E+00 0. -1.
         -3   -1    0    0    0  501 -0.00000000000E+00 -0.00000000000E+00 -0.35174354216E+04  0.35174354216E+04  0.00000000000E+00 0.  1.
         23    2    1    2    0    0  0.81322118154E+03 -0.10295495936E+04 -0.10381661284E+04  0.16754639627E+04  0.89941782804E+02 0.  0.
        254    2    1    2    0    0 -0.81322118154E+03  0.10295495936E+04 -0.18701437471E+04  0.24510970051E+04  0.88833430520E+03 0.  0.
         23    2    4    4    0    0 -0.59193583500E+03  0.10476472317E+04 -0.10586288364E+04  0.16052619615E+04  0.90654271160E+02 0.  0.
         23    2    4    4    0    0 -0.22128534654E+03 -0.18097638063E+02 -0.81151491066E+03  0.84583504360E+03  0.87096163334E+02 0.  0.
          1    1    3    3  502    0  0.19355159577E+03 -0.21912624863E+03 -0.18924680938E+03  0.34827128495E+03  0.00000000000E+00 0. -1.
         -1    1    3    3    0  502  0.61966958577E+03 -0.81042334499E+03 -0.84891931902E+03  0.13271926777E+04  0.00000000000E+00 0.  1.
         13    1    5    5    0    0 -0.58422203357E+03  0.10441523171E+04 -0.10572785801E+04  0.15966863943E+04  0.00000000000E+00 0.  1.
        -13    1    5    5    0    0 -0.77138014364E+01  0.34949145658E+01 -0.13502563450E+01  0.85755671894E+01  0.00000000000E+00 0. -1.
          3    1    6    6  503    0 -0.18991784420E+03  0.14135064787E+02 -0.59638972193E+03  0.62605853403E+03  0.00000000000E+00 0. -1.
         -3    1    6    6    0  503 -0.31367502336E+02 -0.32232702850E+02 -0.21512518873E+03  0.21977650958E+03  0.00000000000E+00 0.  1.
<mgrwt>
<rscale>  0 0.29274971E+04</rscale>
<asrwt>0</asrwt>
<pdfrwt beam="1">  1        3 0.93711623E-01 0.29274971E+04</pdfrwt>
<pdfrwt beam="2">  1       -3 0.54114391E+00 0.29274971E+04</pdfrwt>
<totfact> 0.41983532E-03</totfact>
</mgrwt>
</event>
<event>
12    3  0.8686020E-008  0.2004820E+04  0.7818608E-02  0.8604371E-01
          2   -1    0    0  501    0  0.00000000000E+00  0.00000000000E+00  0.65102024140E+03  0.65102024140E+03  0.00000000000E+00 0.  1.
         -2   -1    0    0    0  501 -0.00000000000E+00 -0.00000000000E+00 -0.15434628512E+04  0.15434628512E+04  0.00000000000E+00 0. -1.
         23    2    1    2    0    0  0.22731041182E+03  0.19327714619E+03  0.45162240217E+03  0.54947599852E+03  0.94525130211E+02 0.  0.
        254    2    1    2    0    0 -0.22731041182E+03 -0.19327714619E+03 -0.13440650120E+04  0.16450070941E+04  0.90028412437E+03 0.  0.
         23    2    4    4    0    0 -0.19030830644E+03  0.20218358090E+03 -0.11602775799E+04  0.11968475993E+04  0.95418351200E+02 0.  0.
         23    2    4    4    0    0 -0.37002105388E+02 -0.39546072709E+03 -0.18378743207E+03  0.44815949474E+03  0.96492331636E+02 0.  0.
          1    1    3    3  502    0  0.15777590629E+03  0.10955225110E+03  0.21070783686E+03  0.28511879075E+03  0.00000000000E+00 0. -1.
         -1    1    3    3    0  502  0.69534505536E+02  0.83724895085E+02  0.24091456531E+03  0.26435720777E+03  0.00000000000E+00 0.  1.
         13    1    5    5    0    0 -0.11826917318E+03  0.77936531704E+02 -0.71793685211E+03  0.73177525506E+03  0.00000000000E+00 0.  1.
        -13    1    5    5    0    0 -0.72039133260E+02  0.12424704920E+03 -0.44234072777E+03  0.46507234427E+03  0.00000000000E+00 0. -1.
          2    1    6    6  503    0  0.27919718586E+02 -0.80300268665E+02 -0.56727773558E+02  0.10220412969E+03  0.00000000000E+00 0. -1.
         -2    1    6    6    0  503 -0.64921823974E+02 -0.31516045842E+03 -0.12705965851E+03  0.34595536504E+03  0.00000000000E+00 0.  1.
<mgrwt>
<rscale>  0 0.20048198E+04</rscale>
<asrwt>0</asrwt>
<pdfrwt beam="1">  1        2 0.10015696E+00 0.20048198E+04</pdfrwt>
<pdfrwt beam="2">  1       -2 0.23745582E+00 0.20048198E+04</pdfrwt>
<totfact> 0.32001872E+00</totfact>
</mgrwt>
</event>
<event>
12    3  0.8686020E-008  0.3644559E+04  0.7818608E-02  0.8080361E-01
         -2   -1    0    0    0  501 -0.00000000000E+00  0.00000000000E+00  0.10526699528E+04  0.10526699528E+04  0.00000000000E+00 0. -1.
          2   -1    0    0  501    0  0.00000000000E+00 -0.00000000000E+00 -0.31545517290E+04  0.31545517290E+04  0.00000000000E+00 0.  1.
         23    2    1    2    0    0  0.14970863356E+02  0.16979891863E+04 -0.76423183119E+03  0.18643992668E+04  0.92427975500E+02 0.  0.
        254    2    1    2    0    0 -0.14970863356E+02 -0.16979891863E+04 -0.13376499450E+04  0.23428224150E+04  0.90339254425E+03 0.  0.
         23    2    4    4    0    0 -0.11359213838E+03 -0.17617528001E+04 -0.12823836564E+04  0.21836580693E+04  0.84726731999E+02 0.  0.
         23    2    4    4    0    0  0.98621275027E+02  0.63763613735E+02 -0.55266288660E+02  0.15916434565E+03  0.92124762907E+02 0.  0.
          2    1    3    3  502    0  0.78480752598E+01  0.10907800912E+04 -0.44207443202E+03  0.11769845382E+04  0.00000000000E+00 0. -1.
         -2    1    3    3    0  502  0.71227880959E+01  0.60720909510E+03 -0.32215739916E+03  0.68741472862E+03  0.00000000000E+00 0.  1.
         13    1    5    5    0    0 -0.50689121490E+02 -0.13463208292E+04 -0.97652347594E+03  0.16639553063E+04  0.00000000000E+00 0. -1.
        -13    1    5    5    0    0 -0.62903016893E+02 -0.41543197086E+03 -0.30586018043E+03  0.51970276304E+03  0.00000000000E+00 0.  1.
          2    1    6    6  503    0  0.71806350763E+02  0.79391863165E+02 -0.66655522504E+02  0.12610384065E+03  0.00000000000E+00 0. -1.
         -2    1    6    6    0  503  0.26814924264E+02 -0.15628249429E+02  0.11389233844E+02  0.33060505003E+02  0.00000000000E+00 0.  1.
<mgrwt>
<rscale>  0 0.36445586E+04</rscale>
<asrwt>0</asrwt>
<pdfrwt beam="1">  1        2 0.48531565E+00 0.36445586E+04</pdfrwt>
<pdfrwt beam="2">  1       -2 0.16194923E+00 0.36445586E+04</pdfrwt>
<totfact> 0.27442704E-01</totfact>
</mgrwt>
</event>
<event>
12    3  0.8686020E-008  0.5931550E+04  0.7818608E-02  0.7698947E-01
          2   -1    0    0  501    0  0.00000000000E+00  0.00000000000E+00  0.22206597207E+04  0.22206597207E+04  0.00000000000E+00 0. -1.
         -2   -1    0    0    0  501 -0.00000000000E+00 -0.00000000000E+00 -0.39609052270E+04  0.39609052270E+04  0.00000000000E+00 0.  1.
         23    2    1    2    0    0 -0.63943834860E+03 -0.27673531262E+04 -0.24802311145E+03  0.28526136536E+04  0.93618728806E+02 0.  0.
        254    2    1    2    0    0  0.63943834860E+03  0.27673531262E+04 -0.14922223948E+04  0.33289512940E+04  0.88772986648E+03 0.  0.
         23    2    4    4    0    0 -0.46811499480E+02  0.29485791397E+03  0.74570454602E+02  0.32089241217E+03  0.90987260503E+02 0.  0.
         23    2    4    4    0    0  0.68624984808E+03  0.24724952122E+04 -0.15667928494E+04  0.30080588819E+04  0.96989563390E+02 0.  0.
          3    1    3    3  502    0 -0.18998244165E+03 -0.96318783560E+03 -0.54389041013E+02  0.98325088485E+03  0.00000000000E+00 0. -1.
         -3    1    3    3    0  502 -0.44945590695E+03 -0.18041652906E+04 -0.19363407044E+03  0.18693627688E+04  0.00000000000E+00 0.  1.
         13    1    5    5    0    0 -0.11510964799E+02  0.14547582620E+03 -0.88383367183E+01  0.14619792924E+03  0.00000000000E+00 0.  1.
        -13    1    5    5    0    0 -0.35300534682E+02  0.14938208778E+03  0.83408791320E+02  0.17469448293E+03  0.00000000000E+00 0. -1.
          4    1    6    6  503    0  0.25601677446E+03  0.77834770839E+03 -0.47245363706E+03  0.94582354757E+03  0.00000000000E+00 0.  1.
         -4    1    6    6    0  503  0.43023307362E+03  0.16941475038E+04 -0.10943392124E+04  0.20622353343E+04  0.00000000000E+00 0. -1.
<mgrwt>
<rscale>  0 0.59315505E+04</rscale>
<asrwt>0</asrwt>
<pdfrwt beam="1">  1        2 0.34163996E+00 0.59315505E+04</pdfrwt>
<pdfrwt beam="2">  1       -2 0.60937003E+00 0.59315505E+04</pdfrwt>
<totfact> 0.16219912E-03</totfact>
</mgrwt>
</event>
<event>
12    3  0.8686020E-008  0.1404471E+04  0.7818608E-02  0.8950589E-01
         -1   -1    0    0    0  501 -0.00000000000E+00  0.00000000000E+00  0.11990690129E+04  0.11990690129E+04  0.00000000000E+00 0.  1.
          1   -1    0    0  501    0  0.00000000000E+00 -0.00000000000E+00 -0.41126446311E+03  0.41126446311E+03  0.00000000000E+00 0. -1.
         23    2    1    2    0    0  0.38679420198E+03 -0.12169066458E+03  0.28022543437E+03  0.50122475816E+03  0.91003250435E+02 0.  0.
        254    2    1    2    0    0 -0.38679420198E+03  0.12169066458E+03  0.50757911540E+03  0.11091087178E+04  0.89892559038E+03 0.  0.
         23    2    4    4    0    0  0.43286661151E+02  0.42869735434E+03  0.30484204156E+03  0.53579655539E+03  0.92163560126E+02 0.  0.
         23    2    4    4    0    0 -0.43008086313E+03 -0.30700668976E+03  0.20273707384E+03  0.57331216244E+03  0.91443195998E+02 0.  0.
          2    1    3    3  502    0  0.21752291547E+03 -0.10521086643E+03  0.13040564009E+03  0.27457453658E+03  0.00000000000E+00 0. -1.
         -2    1    3    3    0  502  0.16927128651E+03 -0.16479798153E+02  0.14981979428E+03  0.22665022158E+03  0.00000000000E+00 0.  1.
         13    1    5    5    0    0 -0.97523563625E+01  0.94968350134E+02  0.11031114744E+03  0.14588572662E+03  0.00000000000E+00 0. -1.
        -13    1    5    5    0    0  0.53039017513E+02  0.33372900421E+03  0.19453089412E+03  0.38991082878E+03  0.00000000000E+00 0.  1.
          2    1    6    6  503    0 -0.14865626617E+03 -0.11861970517E+03  0.28003219031E+02  0.19223293214E+03  0.00000000000E+00 0. -1.
         -2    1    6    6    0  503 -0.28142459697E+03 -0.18838698459E+03  0.17473385481E+03  0.38107923029E+03  0.00000000000E+00 0.  1.
<mgrwt>
<rscale>  0 0.14044707E+04</rscale>
<asrwt>0</asrwt>
<pdfrwt beam="1">  1        1 0.63271457E-01 0.14044707E+04</pdfrwt>
<pdfrwt beam="2">  1       -1 0.18447215E+00 0.14044707E+04</pdfrwt>
<totfact> 0.10892635E+01</totfact>
</mgrwt>
</event>
<event>
12    3  0.8686020E-008  0.1200885E+04  0.7818608E-02  0.9112082E-01
          2   -1    0    0  501    0  0.00000000000E+00  0.00000000000E+00  0.10639880949E+04  0.10639880949E+04  0.00000000000E+00 0.  1.
         -2   -1    0    0    0  501 -0.00000000000E+00 -0.00000000000E+00 -0.33884899847E+03  0.33884899847E+03  0.00000000000E+00 0. -1.
         23    2    1    2    0    0  0.90910227387E+02  0.16303915843E+03  0.35412678594E+03  0.41070002074E+03  0.91773034645E+02 0.  0.
        254    2    1    2    0    0 -0.90910227387E+02 -0.16303915843E+03  0.37101231049E+03  0.99213707264E+03  0.90102130926E+03 0.  0.
         23    2    4    4    0    0  0.32135466776E+03 -0.31135843717E+03  0.95927716934E+02  0.46644987512E+03  0.90335265744E+02 0.  0.
         23    2    4    4    0    0 -0.41226489515E+03  0.14831927874E+03  0.27508459356E+03  0.52568719751E+03  0.93351720903E+02 0.  0.
          1    1    3    3  502    0  0.26872143025E+02  0.12450812329E+03  0.17361854962E+03  0.21533180352E+03  0.00000000000E+00 0. -1.
         -1    1    3    3    0  502  0.64038084362E+02  0.38531035137E+02  0.18050823632E+03  0.19536821722E+03  0.00000000000E+00 0.  1.
         13    1    5    5    0    0  0.24747917401E+03 -0.23023670313E+03  0.32152059646E+02  0.33954180298E+03  0.00000000000E+00 0.  1.
        -13    1    5    5    0    0  0.73875493758E+02 -0.81121734041E+02  0.63775657288E+02  0.12690807214E+03  0.00000000000E+00 0. -1.
          1    1    6    6  503    0 -0.90352627342E+02  0.58007457768E+02  0.31086009428E+02  0.11178015211E+03  0.00000000000E+00 0. -1.
         -1    1    6    6    0  503 -0.32191226781E+03  0.90311820970E+02  0.24399858413E+03  0.41390704540E+03  0.00000000000E+00 0.  1.
<mgrwt>
<rscale>  0 0.12008852E+04</rscale>
<asrwt>0</asrwt>
<pdfrwt beam="1">  1        2 0.16369047E+00 0.12008852E+04</pdfrwt>
<pdfrwt beam="2">  1       -2 0.52130616E-01 0.12008852E+04</pdfrwt>
<totfact> 0.78614786E+01</totfact>
</mgrwt>
</event>
<event>
12    3  0.8686020E-008  0.2802434E+04  0.7818608E-02  0.8302513E-01
         -2   -1    0    0    0  501 -0.00000000000E+00  0.00000000000E+00  0.75347758119E+03  0.75347758119E+03  0.00000000000E+00 0. -1.
          2   -1    0    0  501    0  0.00000000000E+00 -0.00000000000E+00 -0.26057957139E+04  0.26057957139E+04  0.00000000000E+00 0.  1.
         23    2    1    2    0    0  0.42698966487E+03  0.10846766216E+04 -0.27242452788E+03  0.12006086290E+04  0.91664657560E+02 0.  0.
        254    2    1    2    0    0 -0.42698966487E+03 -0.10846766216E+04 -0.15798936048E+04  0.21586646660E+04  0.89717656606E+03 0.  0.
         23    2    4    4    0    0 -0.56871294258E+03 -0.26614437274E+03 -0.65001930277E+03  0.90842107209E+03  0.91850487467E+02 0.  0.
         23    2    4    4    0    0  0.14172327770E+03 -0.81853224881E+03 -0.92987430201E+03  0.12502435939E+04  0.91445595079E+02 0.  0.
          1    1    3    3  502    0  0.33204289175E+03  0.78420254738E+03 -0.16320819524E+03  0.86710035882E+03  0.00000000000E+00 0.  1.
         -1    1    3    3    0  502  0.94946773123E+02  0.30047407418E+03 -0.10921633264E+03  0.33350827020E+03  0.00000000000E+00 0. -1.
         13    1    5    5    0    0 -0.51593844833E+03 -0.26839526511E+03 -0.60192201024E+03  0.83698184401E+03  0.00000000000E+00 0. -1.
        -13    1    5    5    0    0 -0.52774494250E+02  0.22508923656E+01 -0.48097292534E+02  0.71439228082E+02  0.00000000000E+00 0.  1.
          4    1    6    6  503    0  0.53812726039E+02 -0.24828558863E+03 -0.22525801877E+03  0.33953308826E+03  0.00000000000E+00 0. -1.
         -4    1    6    6    0  503  0.87910551665E+02 -0.57024666018E+03 -0.70461628325E+03  0.91071050568E+03  0.00000000000E+00 0.  1.
<mgrwt>
<rscale>  0 0.28024337E+04</rscale>
<asrwt>0</asrwt>
<pdfrwt beam="1">  1        2 0.40089165E+00 0.28024337E+04</pdfrwt>
<pdfrwt beam="2">  1       -2 0.11591963E+00 0.28024337E+04</pdfrwt>
<totfact> 0.15186115E+00</totfact>
</mgrwt>
</event>
<event>
12    3  0.8686020E-008  0.2301892E+04  0.7818608E-02  0.8477176E-01
          2   -1    0    0  501    0  0.00000000000E+00  0.00000000000E+00  0.25155634123E+04  0.25155634123E+04  0.00000000000E+00 0.  1.
         -2   -1    0    0    0  501 -0.00000000000E+00 -0.00000000000E+00 -0.52659242356E+03  0.52659242356E+03  0.00000000000E+00 0. -1.
         23    2    1    2    0    0  0.95878368183E+03  0.15963446076E+03  0.85813851197E+03  0.13000210679E+04  0.94359745507E+02 0.  0.
        254    2    1    2    0    0 -0.95878368183E+03 -0.15963446076E+03  0.11308324768E+04  0.17421347680E+04  0.90083414104E+03 0.  0.
         23    2    4    4    0    0 -0.78492276145E+03  0.26931232208E+03  0.57742195794E+03  0.10152116482E+04  0.92766938644E+02 0.  0.
         23    2    4    4    0    0 -0.17386092038E+03 -0.42894678285E+03  0.55341051881E+03  0.72692311974E+03  0.89056485042E+02 0.  0.
          3    1    3    3  502    0  0.20228129160E+03  0.62356046369E+02  0.15192486382E+03  0.26055164881E+03  0.00000000000E+00 0. -1.
         -3    1    3    3    0  502  0.75650239024E+03  0.97278414396E+02  0.70621364815E+03  0.10394694191E+04  0.00000000000E+00 0.  1.
         13    1    5    5    0    0 -0.23760906880E+03  0.66992800408E+02  0.22177947981E+03  0.33186178229E+03  0.00000000000E+00 0. -1.
        -13    1    5    5    0    0 -0.54731369266E+03  0.20231952168E+03  0.35564247814E+03  0.68334986594E+03  0.00000000000E+00 0.  1.
          1    1    6    6  503    0  0.52191358071E+01 -0.31058994494E+02  0.18142015520E+02  0.36346021030E+02  0.00000000000E+00 0. -1.
         -1    1    6    6    0  503 -0.17908005619E+03 -0.39788778835E+03  0.53526850329E+03  0.69057709871E+03  0.00000000000E+00 0.  1.
<mgrwt>
<rscale>  0 0.23018919E+04</rscale>
<asrwt>0</asrwt>
<pdfrwt beam="1">  1        2 0.38700975E+00 0.23018919E+04</pdfrwt>
<pdfrwt beam="2">  1       -2 0.81014221E-01 0.23018919E+04</pdfrwt>
<totfact> 0.41523918E+00</totfact>
</mgrwt>
</event>
<event>
12    3  0.8686020E-008  0.1077646E+04  0.7818608E-02  0.9227258E-01
         -1   -1    0    0    0  501 -0.00000000000E+00  0.00000000000E+00  0.26454808814E+03  0.26454808814E+03  0.00000000000E+00 0.  1.
          1   -1    0    0  501    0  0.00000000000E+00 -0.00000000000E+00 -0.10974567466E+04  0.10974567466E+04  0.00000000000E+00 0. -1.
         23    2    1    2    0    0 -0.22915872858E+01  0.13325188191E+03 -0.24442609204E+03  0.29261392720E+03  0.90097061652E+02 0.  0.
        254    2    1    2    0    0  0.22915872858E+01 -0.13325188191E+03 -0.58848256639E+03  0.10693909075E+04  0.88290648809E+03 0.  0.
         23    2    4    4    0    0 -0.13319459316E+03 -0.34820642567E+03  0.39395399816E+02  0.38614271666E+03  0.92550989080E+02 0.  0.
         23    2    4    4    0    0  0.13548618044E+03  0.21495454376E+03 -0.62787796620E+03  0.68324819085E+03  0.89640330678E+02 0.  0.
          3    1    3    3  502    0  0.24427016795E+02  0.10479702923E+03 -0.22412265102E+03  0.24861628905E+03  0.00000000000E+00 0. -1.
         -3    1    3    3    0  502 -0.26718604081E+02  0.28454852682E+02 -0.20303441022E+02  0.43997638147E+02  0.00000000000E+00 0.  1.
         13    1    5    5    0    0  0.26712404499E+01  0.49953088641E+01 -0.68933422786E-02  0.56646874325E+01  0.00000000000E+00 0.  1.
        -13    1    5    5    0    0 -0.13586583361E+03 -0.35320173453E+03  0.39402293158E+02  0.38047802923E+03  0.00000000000E+00 0. -1.
          2    1    6    6  503    0 -0.50607603980E+01 -0.13444892803E+01 -0.51693632226E+02  0.51958161630E+02  0.00000000000E+00 0.  1.
         -2    1    6    6    0  503  0.14054694084E+03  0.21629903304E+03 -0.57618433398E+03  0.63129002922E+03  0.00000000000E+00 0. -1.
<mgrwt>
<rscale>  0 0.10776457E+04</rscale>
<asrwt>0</asrwt>
<pdfrwt beam="1">  1        1 0.16883950E+00 0.10776457E+04</pdfrwt>
<pdfrwt beam="2">  1       -1 0.40699707E-01 0.10776457E+04</pdfrwt>
<totfact> 0.74922658E+01</totfact>
</mgrwt>
</event>
<event>
12    3  0.8686020E-008  0.1599264E+04  0.7818608E-02  0.8821000E-01
          1   -1    0    0  501    0  0.00000000000E+00  0.00000000000E+00  0.29041526985E+04  0.29041526985E+04  0.00000000000E+00 0. -1.
         -1   -1    0    0    0  501 -0.00000000000E+00 -0.00000000000E+00 -0.22017148078E+03  0.22017148078E+03  0.00000000000E+00 0.  1.
         23    2    1    2    0    0 -0.38644868755E+03 -0.30008007551E+03  0.46035863865E+03  0.67798677715E+03  0.91352908974E+02 0.  0.
        254    2    1    2    0    0  0.38644868755E+03  0.30008007551E+03  0.22236225791E+04  0.24463374021E+04  0.89480649925E+03 0.  0.
         23    2    4    4    0    0  0.19247284263E+03  0.51553523619E+03  0.19797572581E+04  0.20568206616E+04  0.90829830477E+02 0.  0.
         23    2    4    4    0    0  0.19397584492E+03 -0.21545516068E+03  0.24386532101E+03  0.38951674056E+03  0.90583893211E+02 0.  0.
          2    1    3    3  502    0 -0.18783262441E+02 -0.49095974387E+02  0.48934628138E+02  0.71817988554E+02  0.00000000000E+00 0. -1.
         -2    1    3    3    0  502 -0.36766542511E+03 -0.25098410112E+03  0.41142401051E+03  0.60616878859E+03  0.00000000000E+00 0.  1.
         13    1    5    5    0    0  0.19536230007E+03  0.51803012866E+03  0.19706709274E+04  0.20469649598E+04  0.00000000000E+00 0. -1.
        -13    1    5    5    0    0 -0.28894574438E+01 -0.24948924674E+01  0.90863306402E+01  0.98557017633E+01  0.00000000000E+00 0.  1.
          2    1    6    6  503    0  0.17831036696E+03 -0.14666911008E+03  0.16548141964E+03  0.28406075946E+03  0.00000000000E+00 0. -1.
         -2    1    6    6    0  503  0.15665477964E+02 -0.68786050599E+02  0.78383901368E+02  0.10545598110E+03  0.00000000000E+00 0.  1.
<mgrwt>
<rscale>  0 0.15992643E+04</rscale>
<asrwt>0</asrwt>
<pdfrwt beam="1">  1        1 0.44679270E+00 0.15992643E+04</pdfrwt>
<pdfrwt beam="2">  1       -1 0.33872538E-01 0.15992643E+04</pdfrwt>
<totfact> 0.55639893E+00</totfact>
</mgrwt>
</event>
<event>
12    3  0.8686020E-008  0.1481721E+04  0.7818608E-02  0.8896700E-01
         -1   -1    0    0    0  501 -0.00000000000E+00  0.00000000000E+00  0.10109543470E+04  0.10109543470E+04  0.00000000000E+00 0.  1.
          1   -1    0    0  501    0  0.00000000000E+00 -0.00000000000E+00 -0.54292722593E+03  0.54292722593E+03  0.00000000000E+00 0. -1.
         23    2    1    2    0    0  0.57069091560E+02  0.45727005636E+03  0.14087560947E+03  0.49063086702E+03  0.92303438088E+02 0.  0.
        254    2    1    2    0    0 -0.57069091560E+02 -0.45727005636E+03  0.32715151163E+03  0.10632507059E+04  0.90062265486E+03 0.  0.
         23    2    4    4    0    0 -0.67195162292E+02 -0.71267028074E+03  0.32581867128E+03  0.79180182672E+03  0.91532548041E+02 0.  0.
         23    2    4    4    0    0  0.10126070732E+02  0.25540022439E+03  0.13328403460E+01  0.27144887921E+03  0.91383289681E+02 0.  0.
          1    1    3    3  502    0 -0.74516319976E+01  0.16352490319E+03  0.14251387903E+02  0.16431379383E+03  0.00000000000E+00 0. -1.
         -1    1    3    3    0  502  0.64520723558E+02  0.29374515316E+03  0.12662422156E+03  0.32631707320E+03  0.00000000000E+00 0.  1.
         13    1    5    5    0    0 -0.64042165534E+02 -0.40191936918E+03  0.14376191619E+03  0.43163418173E+03  0.00000000000E+00 0.  1.
        -13    1    5    5    0    0 -0.31529967585E+01 -0.31075091157E+03  0.18205675509E+03  0.36016764500E+03  0.00000000000E+00 0. -1.
          3    1    6    6  503    0 -0.33266376684E+02  0.11216081808E+03 -0.24606637413E+02  0.11954993741E+03  0.00000000000E+00 0. -1.
         -3    1    6    6    0  503  0.43392447416E+02  0.14323940631E+03  0.25939477759E+02  0.15189894180E+03  0.00000000000E+00 0.  1.
<mgrwt>
<rscale>  0 0.14817215E+04</rscale>
<asrwt>0</asrwt>
<pdfrwt beam="1">  1        1 0.83527266E-01 0.14817215E+04</pdfrwt>
<pdfrwt beam="2">  1       -1 0.15553144E+00 0.14817215E+04</pdfrwt>
<totfact> 0.12099757E+01</totfact>
</mgrwt>
</event>
<event>
12    3  0.8686020E-008  0.1632300E+04  0.7818608E-02  0.8800947E-01
          2   -1    0    0  501    0  0.00000000000E+00  0.00000000000E+00  0.28101942622E+04  0.28101942622E+04  0.00000000000E+00 0. -1.
         -2   -1    0    0    0  501 -0.00000000000E+00 -0.00000000000E+00 -0.23703011199E+03  0.23703011199E+03  0.00000000000E+00 0.  1.
         23    2    1    2    0    0 -0.36090282930E+02  0.56219438329E+03  0.90912023384E+03  0.10732484735E+04  0.89429598426E+02 0.  0.
        254    2    1    2    0    0  0.36090282930E+02 -0.56219438329E+03  0.16640439164E+04  0.19739759007E+04  0.90009647701E+03 0.  0.
         23    2    4    4    0    0 -0.14959548112E+03 -0.49085886818E+03  0.16751500941E+04  0.17543232477E+04  0.90559280880E+02 0.  0.
         23    2    4    4    0    0  0.18568576405E+03 -0.71335515111E+02 -0.11106177733E+02  0.21965265299E+03  0.92498551842E+02 0.  0.
          1    1    3    3  502    0  0.16732042832E+02  0.34494348021E+03  0.58904200576E+03  0.68281509236E+03  0.00000000000E+00 0. -1.
         -1    1    3    3    0  502 -0.52822325761E+02  0.21725090308E+03  0.32007822807E+03  0.39043338110E+03  0.00000000000E+00 0.  1.
         13    1    5    5    0    0 -0.45781476500E+02 -0.28701755283E+03  0.86690748519E+03  0.91433232859E+03  0.00000000000E+00 0. -1.
        -13    1    5    5    0    0 -0.10381400462E+03 -0.20384131535E+03  0.80824260891E+03  0.83999091915E+03  0.00000000000E+00 0.  1.
          3    1    6    6  503    0  0.69045641829E+02 -0.13572061804E+02 -0.47017963442E+02  0.84629725294E+02  0.00000000000E+00 0. -1.
         -3    1    6    6    0  503  0.11664012222E+03 -0.57763453306E+02  0.35911785709E+02  0.13502292769E+03  0.00000000000E+00 0.  1.
<mgrwt>
<rscale>  0 0.16322998E+04</rscale>
<asrwt>0</asrwt>
<pdfrwt beam="1">  1        2 0.43233755E+00 0.16322998E+04</pdfrwt>
<pdfrwt beam="2">  1       -2 0.36466173E-01 0.16322998E+04</pdfrwt>
<totfact> 0.15500611E+01</totfact>
</mgrwt>
</event>
<event>
12    3  0.8686020E-008  0.3461471E+04  0.7818608E-02  0.8122982E-01
          2   -1    0    0  501    0  0.00000000000E+00  0.00000000000E+00  0.13023752145E+04  0.13023752145E+04  0.00000000000E+00 0. -1.
         -2   -1    0    0    0  501 -0.00000000000E+00 -0.00000000000E+00 -0.22999862256E+04  0.22999862256E+04  0.00000000000E+00 0.  1.
         23    2    1    2    0    0  0.11083219274E+04 -0.11089941736E+04 -0.85295379301E+03  0.17872753920E+04  0.92615236017E+02 0.  0.
        254    2    1    2    0    0 -0.11083219274E+04  0.11089941736E+04 -0.14465721810E+03  0.18150860481E+04  0.90297623417E+03 0.  0.
         23    2    4    4    0    0 -0.10634240571E+04  0.63087778250E+03 -0.34322413692E+03  0.12864572486E+04  0.91060104325E+02 0.  0.
         23    2    4    4    0    0 -0.44897870267E+02  0.47811639113E+03  0.19856691881E+03  0.52862879953E+03  0.96997341345E+02 0.  0.
          2    1    3    3  502    0  0.68904002403E+03 -0.71563896699E+03 -0.49373988222E+03  0.11093666468E+04  0.00000000000E+00 0. -1.
         -2    1    3    3    0  502  0.41928190333E+03 -0.39335520664E+03 -0.35921391078E+03  0.67790874515E+03  0.00000000000E+00 0.  1.
         13    1    5    5    0    0 -0.30261456091E+03  0.22761609323E+03 -0.97736394579E+02  0.39107168294E+03  0.00000000000E+00 0.  1.
        -13    1    5    5    0    0 -0.76080949618E+03  0.40326168927E+03 -0.24548774234E+03  0.89538556563E+03  0.00000000000E+00 0. -1.
          4    1    6    6  503    0  0.26306471703E+02  0.79651086116E+02  0.48722784497E+02  0.97006369389E+02  0.00000000000E+00 0.  1.
         -4    1    6    6    0  503 -0.71204341970E+02  0.39846530501E+03  0.14984413432E+03  0.43162243014E+03  0.00000000000E+00 0. -1.
<mgrwt>
<rscale>  0 0.34614708E+04</rscale>
<asrwt>0</asrwt>
<pdfrwt beam="1">  1        2 0.20036542E+00 0.34614708E+04</pdfrwt>
<pdfrwt beam="2">  1       -2 0.35384403E+00 0.34614708E+04</pdfrwt>
<totfact> 0.19974921E-01</totfact>
</mgrwt>
</event>
<event>
12    3  0.8686020E-008  0.2905635E+04  0.7818608E-02  0.8271203E-01
         -3   -1    0    0    0  501 -0.00000000000E+00  0.00000000000E+00  0.15676921430E+04  0.15676921430E+04  0.00000000000E+00 0.  1.
          3   -1    0    0  501    0  0.00000000000E+00 -0.00000000000E+00 -0.13463605611E+04  0.13463605611E+04  0.00000000000E+00 0. -1.
         23    2    1    2    0    0  0.12068004908E+04  0.57548935493E+02 -0.41167636349E+03  0.12796817659E+04  0.91807893616E+02 0.  0.
        254    2    1    2    0    0 -0.12068004908E+04 -0.57548935493E+02  0.63300794541E+03  0.16343709382E+04  0.90043878202E+03 0.  0.
         23    2    4    4    0    0 -0.24256181467E+03  0.36204233357E+03  0.12362594216E+03  0.46231003813E+03  0.92392167098E+02 0.  0.
         23    2    4    4    0    0 -0.96423867608E+03 -0.41959126907E+03  0.50938200325E+03  0.11720609001E+04  0.91889448140E+02 0.  0.
          4    1    3    3  502    0  0.61955388778E+03  0.39514663019E+01 -0.25115345162E+03  0.66853622954E+03  0.00000000000E+00 0. -1.
         -4    1    3    3    0  502  0.58724660298E+03  0.53597469191E+02 -0.16052291187E+03  0.61114553639E+03  0.00000000000E+00 0.  1.
         13    1    5    5    0    0 -0.83028322813E+01  0.33182599453E+00  0.16157584830E+02  0.18169058311E+02  0.00000000000E+00 0.  1.
        -13    1    5    5    0    0 -0.23425898239E+03  0.36171050758E+03  0.10746835733E+03  0.44414097982E+03  0.00000000000E+00 0. -1.
          2    1    6    6  503    0 -0.44911040246E+03 -0.24530108727E+03  0.24224734244E+03  0.56617713830E+03  0.00000000000E+00 0. -1.
         -2    1    6    6    0  503 -0.51512827362E+03 -0.17429018179E+03  0.26713466081E+03  0.60588376175E+03  0.00000000000E+00 0.  1.
<mgrwt>
<rscale>  0 0.29056351E+04</rscale>
<asrwt>0</asrwt>
<pdfrwt beam="1">  1        3 0.20713239E+00 0.29056351E+04</pdfrwt>
<pdfrwt beam="2">  1       -3 0.24118341E+00 0.29056351E+04</pdfrwt>
<totfact> 0.24498865E-02</totfact>
</mgrwt>
</event>
<event>
12    3  0.8686020E-008  0.1034855E+04  0.7818608E-02  0.9271122E-01
          2   -1    0    0  501    0  0.00000000000E+00  0.00000000000E+00  0.27462145375E+04  0.27462145375E+04  0.00000000000E+00 0.  1.
         -2   -1    0    0    0  501 -0.00000000000E+00 -0.00000000000E+00 -0.97490982089E+02  0.97490982089E+02  0.00000000000E+00 0. -1.
         23    2    1    2    0    0 -0.14825085038E+01  0.70048097723E+02  0.17236581246E+03  0.20805029400E+03  0.93091448066E+02 0.  0.
        254    2    1    2    0    0  0.14825085038E+01 -0.70048097723E+02  0.24763577430E+04  0.26356552256E+04  0.89967875560E+03 0.  0.
         23    2    4    4    0    0  0.58859050228E+02  0.23508000572E+03  0.17411343024E+03  0.31075499052E+03  0.86753562819E+02 0.  0.
         23    2    4    4    0    0 -0.57376541724E+02 -0.30512810344E+03  0.23022443127E+04  0.23249002351E+04  0.91853146731E+02 0.  0.
          3    1    3    3  502    0  0.23866741282E+01  0.25849890174E+02 -0.39315611495E+01  0.26255860460E+02  0.00000000000E+00 0. -1.
         -3    1    3    3    0  502 -0.38691826319E+01  0.44198207548E+02  0.17629737361E+03  0.18179443354E+03  0.00000000000E+00 0.  1.
         13    1    5    5    0    0 -0.17416861955E+02  0.72335957407E+02  0.29386000615E+02  0.79996092695E+02  0.00000000000E+00 0. -1.
        -13    1    5    5    0    0  0.76275912183E+02  0.16274404831E+03  0.14472742963E+03  0.23075889783E+03  0.00000000000E+00 0.  1.
          4    1    6    6  503    0 -0.14635702815E+02 -0.71471879997E+02  0.87388475817E+03  0.87692474249E+03  0.00000000000E+00 0. -1.
         -4    1    6    6    0  503 -0.42740838910E+02 -0.23365622344E+03  0.14283595546E+04  0.14479754926E+04  0.00000000000E+00 0.  1.
<mgrwt>
<rscale>  0 0.10348549E+04</rscale>
<asrwt>0</asrwt>
<pdfrwt beam="1">  1        2 0.42249448E+00 0.10348549E+04</pdfrwt>
<pdfrwt beam="2">  1       -2 0.14998615E-01 0.10348549E+04</pdfrwt>
<totfact> 0.88622895E+01</totfact>
</mgrwt>
</event>
<event>
12    3  0.8686020E-008  0.2287074E+04  0.7818608E-02  0.8483035E-01
         -2   -1    0    0    0  501 -0.00000000000E+00  0.00000000000E+00  0.22159437181E+04  0.22159437181E+04  0.00000000000E+00 0.  1.
          2   -1    0    0  501    0  0.00000000000E+00 -0.00000000000E+00 -0.59012193950E+03  0.59012193950E+03  0.00000000000E+00 0. -1.
         23    2    1    2    0    0  0.88021957532E+03  0.29353742859E+03  0.36683928645E+03  0.10019394999E+04  0.91438375659E+02 0.  0.
        254    2    1    2    0    0 -0.88021957532E+03 -0.29353742859E+03  0.12589824921E+04  0.18041261577E+04  0.89937953874E+03 0.  0.
         23    2    4    4    0    0 -0.35844013649E+03 -0.21810307189E+03  0.11897312160E+04  0.12647822215E+04  0.90362714279E+02 0.  0.
         23    2    4    4    0    0 -0.52177943884E+03 -0.75434356705E+02  0.69251276116E+02  0.53934393619E+03  0.90288522514E+02 0.  0.
          1    1    3    3  502    0  0.66125823058E+03  0.18077496875E+03  0.28501115984E+03  0.74241053203E+03  0.00000000000E+00 0. -1.
         -1    1    3    3    0  502  0.21896134474E+03  0.11276245985E+03  0.81828126616E+02  0.25952896784E+03  0.00000000000E+00 0.  1.
         13    1    5    5    0    0 -0.25923310678E+03 -0.10795234005E+03  0.76271870627E+03  0.81277016202E+03  0.00000000000E+00 0. -1.
        -13    1    5    5    0    0 -0.99207029708E+02 -0.11015073184E+03  0.42701250971E+03  0.45201205948E+03  0.00000000000E+00 0.  1.
          3    1    6    6  503    0 -0.33557656925E+02 -0.28653698619E+02  0.81194803708E+00  0.44134000979E+02  0.00000000000E+00 0. -1.
         -3    1    6    6    0  503 -0.48822178191E+03 -0.46780658086E+02  0.68439328079E+02  0.49520993521E+03  0.00000000000E+00 0.  1.
<mgrwt>
<rscale>  0 0.22870741E+04</rscale>
<asrwt>0</asrwt>
<pdfrwt beam="1">  1        2 0.90787992E-01 0.22870741E+04</pdfrwt>
<pdfrwt beam="2">  1       -2 0.34091441E+00 0.22870741E+04</pdfrwt>
<totfact> 0.81576526E-01</totfact>
</mgrwt>
</event>
<event>
12    3  0.8686020E-008  0.3330579E+04  0.7818608E-02  0.8155158E-01
         -2   -1    0    0    0  501 -0.00000000000E+00  0.00000000000E+00  0.14876694504E+04  0.14876694504E+04  0.00000000000E+00 0.  1.
          2   -1    0    0  501    0  0.00000000000E+00 -0.00000000000E+00 -0.18641162965E+04  0.18641162965E+04  0.00000000000E+00 0. -1.
         23    2    1    2    0    0 -0.35518918790E+03 -0.13789902181E+04 -0.77553822187E+03  0.16247399341E+04  0.10269829084E+03 0.  0.
        254    2    1    2    0    0  0.35518918790E+03  0.13789902181E+04  0.39909137576E+03  0.17270458128E+04  0.89198650904E+03 0.  0.
         23    2    4    4    0    0 -0.10637710837E+03  0.83736898968E+03  0.52582695352E+03  0.99859613194E+03  0.90539138538E+02 0.  0.
         23    2    4    4    0    0  0.46156629627E+03  0.54162122846E+03 -0.12673557776E+03  0.72844968084E+03  0.90443517602E+02 0.  0.
          1    1    3    3  502    0 -0.44972831800E+02 -0.27745371636E+03 -0.11744617992E+03  0.30462554965E+03  0.00000000000E+00 0. -1.
         -1    1    3    3    0  502 -0.31021635610E+03 -0.11015365018E+04 -0.65809204195E+03  0.13201143845E+04  0.00000000000E+00 0.  1.
         13    1    5    5    0    0 -0.24970432055E+02  0.19165350944E+03  0.77171182795E+02  0.20811050336E+03  0.00000000000E+00 0. -1.
        -13    1    5    5    0    0 -0.81406676318E+02  0.64571548024E+03  0.44865577073E+03  0.79048562857E+03  0.00000000000E+00 0.  1.
          3    1    6    6  503    0  0.64026857640E+02  0.33767204972E+02 -0.11614100086E+02  0.73311322124E+02  0.00000000000E+00 0. -1.
         -3    1    6    6    0  503  0.39753943863E+03  0.50785402349E+03 -0.11512147767E+03  0.65513835872E+03  0.00000000000E+00 0.  1.
<mgrwt>
<rscale>  0 0.33305788E+04</rscale>
<asrwt>0</asrwt>
<pdfrwt beam="1">  1        2 0.28678712E+00 0.33305788E+04</pdfrwt>
<pdfrwt beam="2">  1       -2 0.22887222E+00 0.33305788E+04</pdfrwt>
<totfact> 0.57561848E-01</totfact>
</mgrwt>
</event>
<event>
12    3  0.8686020E-008  0.1803717E+04  0.7818608E-02  0.8704325E-01
         -1   -1    0    0    0  501 -0.00000000000E+00  0.00000000000E+00  0.19683558754E+04  0.19683558754E+04  0.00000000000E+00 0.  1.
          1   -1    0    0  501    0  0.00000000000E+00 -0.00000000000E+00 -0.41321227069E+03  0.41321227069E+03  0.00000000000E+00 0. -1.
         23    2    1    2    0    0  0.68739927152E+02 -0.63856700452E+03  0.80916273707E+03  0.10369709591E+04  0.89841182177E+02 0.  0.
        254    2    1    2    0    0 -0.68739927152E+02  0.63856700452E+03  0.74598086761E+03  0.13445971870E+04  0.91594822103E+03 0.  0.
         23    2    4    4    0    0 -0.18973567051E+03  0.82276824629E+03  0.44173940013E+03  0.95720953343E+03  0.90383524494E+02 0.  0.
         23    2    4    4    0    0  0.12099574336E+03 -0.18420124177E+03  0.30424146748E+03  0.38738765357E+03  0.94531773628E+02 0.  0.
          1    1    3    3  502    0  0.41943027877E+02 -0.38244278530E+03  0.41275827768E+03  0.56426155053E+03  0.00000000000E+00 0. -1.
         -1    1    3    3    0  502  0.26796899276E+02 -0.25612421922E+03  0.39640445940E+03  0.47270940853E+03  0.00000000000E+00 0.  1.
         13    1    5    5    0    0 -0.16533575541E+03  0.79359960570E+03  0.42863526842E+03  0.91698660814E+03  0.00000000000E+00 0. -1.
        -13    1    5    5    0    0 -0.24399915102E+02  0.29168640591E+02  0.13104131711E+02  0.40222925289E+02  0.00000000000E+00 0.  1.
          4    1    6    6  503    0  0.15415223577E+02 -0.10880053329E+03  0.14696048864E+03  0.18350087298E+03  0.00000000000E+00 0. -1.
         -4    1    6    6    0  503  0.10558051978E+03 -0.75400708484E+02  0.15728097884E+03  0.20388678059E+03  0.00000000000E+00 0.  1.
<mgrwt>
<rscale>  0 0.18037171E+04</rscale>
<asrwt>0</asrwt>
<pdfrwt beam="1">  1        1 0.63571120E-01 0.18037171E+04</pdfrwt>
<pdfrwt beam="2">  1       -1 0.30282398E+00 0.18037171E+04</pdfrwt>
<totfact> 0.17177252E+00</totfact>
</mgrwt>
</event>
<event>
12    3  0.8686020E-008  0.2688126E+04  0.7818608E-02  0.8338868E-01
          2   -1    0    0  501    0  0.00000000000E+00  0.00000000000E+00  0.60806923178E+03  0.60806923178E+03  0.00000000000E+00 0. -1.
         -2   -1    0    0    0  501 -0.00000000000E+00 -0.00000000000E+00 -0.29708878662E+04  0.29708878662E+04  0.00000000000E+00 0.  1.
         23    2    1    2    0    0 -0.91775468925E+03  0.75674634143E+03 -0.94781871210E+03  0.15235785675E+04  0.89401596308E+02 0.  0.
        254    2    1    2    0    0  0.91775468925E+03 -0.75674634143E+03 -0.14149999223E+04  0.20553785305E+04  0.89856409259E+03 0.  0.
         23    2    4    4    0    0  0.10729933884E+04 -0.73719314873E+03 -0.12912986943E+04  0.18361737981E+04  0.96505692695E+02 0.  0.
         23    2    4    4    0    0 -0.15523869918E+03 -0.19553192693E+02 -0.12370122801E+03  0.21920473238E+03  0.90924913088E+02 0.  0.
          3    1    3    3  502    0 -0.44730033932E+03  0.38215818160E+03 -0.41318174908E+03  0.71891698206E+03  0.00000000000E+00 0. -1.
         -3    1    3    3    0  502 -0.47045434993E+03  0.37458815983E+03 -0.53463696302E+03  0.80466158544E+03  0.00000000000E+00 0.  1.
         13    1    5    5    0    0  0.93073031633E+03 -0.60079841114E+03 -0.11145015771E+04  0.15714106458E+04  0.00000000000E+00 0. -1.
        -13    1    5    5    0    0  0.14226307210E+03 -0.13639473760E+03 -0.17679711722E+03  0.26476315224E+03  0.00000000000E+00 0.  1.
          2    1    6    6  503    0 -0.14349259981E+03 -0.20885848788E+02 -0.13832531375E+03  0.20040019287E+03  0.00000000000E+00 0. -1.
         -2    1    6    6    0  503 -0.11746099374E+02  0.13326560950E+01  0.14624085735E+02  0.18804539515E+02  0.00000000000E+00 0.  1.
<mgrwt>
<rscale>  0 0.26881261E+04</rscale>
<asrwt>0</asrwt>
<pdfrwt beam="1">  1        2 0.93549110E-01 0.26881261E+04</pdfrwt>
<pdfrwt beam="2">  1       -2 0.45705968E+00 0.26881261E+04</pdfrwt>
<totfact> 0.13338810E-01</totfact>
</mgrwt>
</event>
<event>
12    3  0.8686020E-008  0.1933017E+04  0.7818608E-02  0.8638594E-01
         -3   -1    0    0    0  501 -0.00000000000E+00  0.00000000000E+00  0.16528562909E+04  0.16528562909E+04  0.00000000000E+00 0.  1.
          3   -1    0    0  501    0  0.00000000000E+00 -0.00000000000E+00 -0.56516624726E+03  0.56516624726E+03  0.00000000000E+00 0. -1.
         23    2    1    2    0    0  0.37592893357E+03  0.12721274839E+03  0.11623685972E+04  0.12314272243E+04  0.88355002559E+02 0.  0.
        254    2    1    2    0    0 -0.37592893357E+03 -0.12721274839E+03 -0.74678553541E+02  0.98659531390E+03  0.90015986392E+03 0.  0.
         23    2    4    4    0    0 -0.16566922869E+03  0.32285779675E+03  0.18661217204E+03  0.41821067856E+03  0.91611236511E+02 0.  0.
         23    2    4    4    0    0 -0.21025970488E+03 -0.45007054514E+03 -0.26129072558E+03  0.56838463534E+03  0.89529946510E+02 0.  0.
          4    1    3    3  502    0  0.46561665100E+02 -0.15386332293E+01  0.78031015561E+02  0.90880115749E+02  0.00000000000E+00 0. -1.
         -4    1    3    3    0  502  0.32936726847E+03  0.12875138162E+03  0.10843375817E+04  0.11405471086E+04  0.00000000000E+00 0.  1.
         13    1    5    5    0    0 -0.87618761955E+02  0.17741025422E+03  0.50362380754E+02  0.20417594164E+03  0.00000000000E+00 0. -1.
        -13    1    5    5    0    0 -0.78050466740E+02  0.14544754253E+03  0.13624979129E+03  0.21403473693E+03  0.00000000000E+00 0.  1.
          4    1    6    6  503    0 -0.60884576819E+02 -0.23051151474E+03 -0.10771579562E+03  0.26162030263E+03  0.00000000000E+00 0. -1.
         -4    1    6    6    0  503 -0.14937512806E+03 -0.21955903040E+03 -0.15357492996E+03  0.30676433271E+03  0.00000000000E+00 0.  1.
<mgrwt>
<rscale>  0 0.19330169E+04</rscale>
<asrwt>0</asrwt>
<pdfrwt beam="1">  1        3 0.86948654E-01 0.19330169E+04</pdfrwt>
<pdfrwt beam="2">  1       -3 0.25428558E+00 0.19330169E+04</pdfrwt>
<totfact> 0.20356965E-01</totfact>
</mgrwt>
</event>
<event>
12    3  0.8686020E-008  0.2756159E+04  0.7818608E-02  0.8317010E-01
          2   -1    0    0  501    0  0.00000000000E+00  0.00000000000E+00  0.11924821810E+04  0.11924821810E+04  0.00000000000E+00 0. -1.
         -2   -1    0    0    0  501 -0.00000000000E+00 -0.00000000000E+00 -0.15925635017E+04  0.15925635017E+04  0.00000000000E+00 0.  1.
         23    2    1    2    0    0 -0.12069971247E+04 -0.18114513436E+03 -0.31816545358E+02  0.12243599685E+04  0.91593784106E+02 0.  0.
        254    2    1    2    0    0  0.12069971247E+04  0.18114513436E+03 -0.36826477531E+03  0.15606857142E+04  0.90025848241E+03 0.  0.
         23    2    4    4    0    0  0.11843391029E+04  0.39246159814E+03 -0.18107535968E+03  0.12639699372E+04  0.90257961241E+02 0.  0.
         23    2    4    4    0    0  0.22658021801E+02 -0.21131646378E+03 -0.18718941563E+03  0.29671577705E+03  0.88500515303E+02 0.  0.
          1    1    3    3  502    0 -0.40460223810E+03 -0.71042479286E+02 -0.52821179723E+02  0.41417397548E+03  0.00000000000E+00 0. -1.
         -1    1    3    3    0  502 -0.80239488657E+03 -0.11010265508E+03  0.21004634365E+02  0.81018599304E+03  0.00000000000E+00 0.  1.
         13    1    5    5    0    0  0.30172967153E+03  0.12766154611E+03 -0.17536543837E+02  0.32809418679E+03  0.00000000000E+00 0. -1.
        -13    1    5    5    0    0  0.88260943134E+03  0.26480005203E+03 -0.16353881584E+03  0.93587575037E+03  0.00000000000E+00 0.  1.
          4    1    6    6  503    0  0.56051104777E+02 -0.15040568133E+03 -0.13684057606E+03  0.21092401139E+03  0.00000000000E+00 0. -1.
         -4    1    6    6    0  503 -0.33393082975E+02 -0.60910782449E+02 -0.50348839574E+02  0.85791765663E+02  0.00000000000E+00 0.  1.
<mgrwt>
<rscale>  0 0.27561594E+04</rscale>
<asrwt>0</asrwt>
<pdfrwt beam="1">  1        2 0.18345880E+00 0.27561594E+04</pdfrwt>
<pdfrwt beam="2">  1       -2 0.24500977E+00 0.27561594E+04</pdfrwt>
<totfact> 0.11527977E+00</totfact>
</mgrwt>
</event>
<event>
12    3  0.8686020E-008  0.2155264E+04  0.7818608E-02  0.8537282E-01
         -1   -1    0    0    0  501 -0.00000000000E+00  0.00000000000E+00  0.81154541369E+03  0.81154541369E+03  0.00000000000E+00 0.  1.
          1   -1    0    0  501    0  0.00000000000E+00 -0.00000000000E+00 -0.14309618108E+04  0.14309618108E+04  0.00000000000E+00 0. -1.
         23    2    1    2    0    0 -0.21945201847E+02  0.88484340290E+03 -0.27876985134E+03  0.93249549587E+03  0.91683042378E+02 0.  0.
        254    2    1    2    0    0  0.21945201847E+02 -0.88484340290E+03 -0.34064654573E+03  0.13100117286E+04  0.90369310075E+03 0.  0.
         23    2    4    4    0    0 -0.10966277419E+03  0.73795801870E+02  0.15176968402E+03  0.22062326381E+03  0.90381652626E+02 0.  0.
         23    2    4    4    0    0  0.13160797604E+03 -0.95863920477E+03 -0.49241622975E+03  0.10893884648E+04  0.89351550409E+02 0.  0.
          4    1    3    3  502    0  0.19519857067E+02  0.17457000195E+03 -0.84742309682E+02  0.19503068849E+03  0.00000000000E+00 0. -1.
         -4    1    3    3    0  502 -0.41465058913E+02  0.71027340095E+03 -0.19402754166E+03  0.73746480739E+03  0.00000000000E+00 0.  1.
         13    1    5    5    0    0 -0.11745899451E+03  0.79704856372E+02  0.15513614745E+03  0.21027768252E+03  0.00000000000E+00 0. -1.
        -13    1    5    5    0    0  0.77962203176E+01 -0.59090545025E+01 -0.33664634266E+01  0.10345581296E+02  0.00000000000E+00 0.  1.
          2    1    6    6  503    0  0.11713168994E+02 -0.38242207922E+03 -0.17554377884E+03  0.42095066610E+03  0.00000000000E+00 0.  1.
         -2    1    6    6    0  503  0.11989480704E+03 -0.57621712555E+03 -0.31687245091E+03  0.66843779866E+03  0.00000000000E+00 0. -1.
<mgrwt>
<rscale>  0 0.21552638E+04</rscale>
<asrwt>0</asrwt>
<pdfrwt beam="1">  1        1 0.22014797E+00 0.21552638E+04</pdfrwt>
<pdfrwt beam="2">  1       -1 0.12485314E+00 0.21552638E+04</pdfrwt>
<totfact> 0.37543669E+00</totfact>
</mgrwt>
</event>
<event>
12    3  0.8686020E-008  0.1545535E+04  0.7818608E-02  0.8854725E-01
         -1   -1    0    0    0  501 -0.00000000000E+00  0.00000000000E+00  0.34421527480E+03  0.34421527480E+03  0.00000000000E+00 0.  1.
          1   -1    0    0  501    0  0.00000000000E+00 -0.00000000000E+00 -0.17348730089E+04  0.17348730089E+04  0.00000000000E+00 0. -1.
         23    2    1    2    0    0  0.24939106246E+03  0.29398724115E+03 -0.24866909361E+02  0.39849599690E+03  0.97756311150E+02 0.  0.
        254    2    1    2    0    0 -0.24939106246E+03 -0.29398724115E+03 -0.13657908248E+04  0.16805922868E+04  0.90021189593E+03 0.  0.
         23    2    4    4    0    0 -0.51147463074E+03 -0.25751868718E+03 -0.12499685951E+04  0.13778980639E+04  0.90881315530E+02 0.  0.
         23    2    4    4    0    0  0.26208356828E+03 -0.36468553970E+02 -0.11582222965E+03  0.30269422297E+03  0.90505533244E+02 0.  0.
          2    1    3    3  502    0  0.70887367226E+02  0.15594609002E+03 -0.22979040257E+02  0.17283587045E+03  0.00000000000E+00 0. -1.
         -2    1    3    3    0  502  0.17850369523E+03  0.13804115113E+03 -0.18878691035E+01  0.22566012645E+03  0.00000000000E+00 0.  1.
         13    1    5    5    0    0 -0.18347448051E+03 -0.10856172683E+03 -0.56685608576E+03  0.60561898541E+03  0.00000000000E+00 0. -1.
        -13    1    5    5    0    0 -0.32800015023E+03 -0.14895696035E+03 -0.68311250935E+03  0.77227907845E+03  0.00000000000E+00 0.  1.
          4    1    6    6  503    0  0.42137705278E+02  0.23848942867E+02 -0.37077731301E+01  0.48560332202E+02  0.00000000000E+00 0. -1.
         -4    1    6    6    0  503  0.21994586300E+03 -0.60317496838E+02 -0.11211445652E+03  0.25413389077E+03  0.00000000000E+00 0.  1.
<mgrwt>
<rscale>  0 0.15455352E+04</rscale>
<asrwt>0</asrwt>
<pdfrwt beam="1">  1        1 0.26690354E+00 0.15455352E+04</pdfrwt>
<pdfrwt beam="2">  1       -1 0.52956196E-01 0.15455352E+04</pdfrwt>
<totfact> 0.15635270E+01</totfact>
</mgrwt>
</event>
<event>
12    3  0.8686020E-008  0.3646103E+04  0.7818608E-02  0.8080012E-01
          1   -1    0    0  501    0  0.00000000000E+00  0.00000000000E+00  0.12457937740E+04  0.12457937740E+04  0.00000000000E+00 0. -1.
         -1   -1    0    0    0  501 -0.00000000000E+00 -0.00000000000E+00 -0.26677898941E+04  0.26677898941E+04  0.00000000000E+00 0.  1.
         23    2    1    2    0    0  0.15975112585E+04  0.49642972042E+03 -0.28087612984E+03  0.16972008475E+04  0.55808851398E+02 0.  0.
        254    2    1    2    0    0 -0.15975112585E+04 -0.49642972042E+03 -0.11411199903E+04  0.22163828206E+04  0.90095132328E+03 0.  0.
         23    2    4    4    0    0 -0.14276267802E+04 -0.12955769418E+03 -0.10807424599E+04  0.17975916030E+04  0.91803522962E+02 0.  0.
         23    2    4    4    0    0 -0.16988447835E+03 -0.36687202623E+03 -0.60377530320E+02  0.41879121763E+03  0.91020976580E+02 0.  0.
          1    1    3    3  502    0  0.54890679917E+03  0.17916306906E+03 -0.12257249978E+03  0.59027290060E+03  0.00000000000E+00 0. -1.
         -1    1    3    3    0  502  0.10486044594E+04  0.31726665136E+03 -0.15830363006E+03  0.11069279469E+04  0.00000000000E+00 0.  1.
         13    1    5    5    0    0 -0.75739168309E+03 -0.75149941186E+02 -0.63043440371E+03  0.98830016324E+03  0.00000000000E+00 0.  1.
        -13    1    5    5    0    0 -0.67023509709E+03 -0.54407752997E+02 -0.45030805623E+03  0.80929143975E+03  0.00000000000E+00 0. -1.
          3    1    6    6  503    0 -0.16033216151E+03 -0.35209978787E+03 -0.77129677364E+02  0.39449923924E+03  0.00000000000E+00 0. -1.
         -3    1    6    6    0  503 -0.95523168424E+01 -0.14772238363E+02  0.16752147044E+02  0.24291978386E+02  0.00000000000E+00 0.  1.
<mgrwt>
<rscale>  0 0.36461026E+04</rscale>
<asrwt>0</asrwt>
<pdfrwt beam="1">  1        1 0.19166058E+00 0.36461026E+04</pdfrwt>
<pdfrwt beam="2">  1       -1 0.41042921E+00 0.36461026E+04</pdfrwt>
<totfact> 0.48354065E-02</totfact>
</mgrwt>
</event>
<event>
12    3  0.8686020E-008  0.1352143E+04  0.7818608E-02  0.8989208E-01
         -1   -1    0    0    0  501 -0.00000000000E+00  0.00000000000E+00  0.74654723942E+03  0.74654723942E+03  0.00000000000E+00 0.  1.
          1   -1    0    0  501    0  0.00000000000E+00 -0.00000000000E+00 -0.61224841885E+03  0.61224841885E+03  0.00000000000E+00 0. -1.
         23    2    1    2    0    0 -0.35480800421E+03 -0.99515411824E+02  0.33512565776E+02  0.38095918148E+03  0.90635362012E+02 0.  0.
        254    2    1    2    0    0  0.35480800421E+03  0.99515411824E+02  0.10078625479E+03  0.97783647680E+03  0.90011903055E+03 0.  0.
         23    2    4    4    0    0 -0.31765050341E+02 -0.21520839475E+03  0.34304082176E+03  0.41589686768E+03  0.89272210438E+02 0.  0.
         23    2    4    4    0    0  0.38657305455E+03  0.31472380657E+03 -0.24225456697E+03  0.56193960912E+03  0.92731052827E+02 0.  0.
          2    1    3    3  502    0 -0.31556257835E+03 -0.68795728968E+02  0.39229234308E+01  0.32299842493E+03  0.00000000000E+00 0. -1.
         -2    1    3    3    0  502 -0.39245425860E+02 -0.30719682857E+02  0.29589642345E+02  0.57960756550E+02  0.00000000000E+00 0.  1.
         13    1    5    5    0    0 -0.40070760336E+02 -0.34385831491E+02  0.97041966697E+02  0.11047712225E+03  0.00000000000E+00 0. -1.
        -13    1    5    5    0    0  0.83057099949E+01 -0.18082256326E+03  0.24599885506E+03  0.30541974542E+03  0.00000000000E+00 0.  1.
          3    1    6    6  503    0  0.43394848206E+02  0.94229537380E+01 -0.42371802012E+01  0.44607831196E+02  0.00000000000E+00 0. -1.
         -3    1    6    6    0  503  0.34317820634E+03  0.30530085284E+03 -0.23801738677E+03  0.51733177793E+03  0.00000000000E+00 0.  1.
<mgrwt>
<rscale>  0 0.13521425E+04</rscale>
<asrwt>0</asrwt>
<pdfrwt beam="1">  1        1 0.94192065E-01 0.13521425E+04</pdfrwt>
<pdfrwt beam="2">  1       -1 0.11485342E+00 0.13521425E+04</pdfrwt>
<totfact> 0.22419081E+01</totfact>
</mgrwt>
</event>
<event>
12    3  0.8686020E-008  0.2946174E+04  0.7818608E-02  0.8259271E-01
         -2   -1    0    0    0  501 -0.00000000000E+00  0.00000000000E+00  0.18408577589E+04  0.18408577589E+04  0.00000000000E+00 0.  1.
          2   -1    0    0  501    0  0.00000000000E+00 -0.00000000000E+00 -0.11787901043E+04  0.11787901043E+04  0.00000000000E+00 0. -1.
         23    2    1    2    0    0  0.10612697164E+03  0.84369182520E+03 -0.74881856040E+03  0.11365637569E+04  0.89269855805E+02 0.  0.
        254    2    1    2    0    0 -0.10612697164E+03 -0.84369182520E+03  0.14108862150E+04  0.18830841062E+04  0.91231957631E+03 0.  0.
         23    2    4    4    0    0  0.19597646687E+03  0.10410771352E+03  0.36378382397E+03  0.43569868720E+03  0.90826669311E+02 0.  0.
         23    2    4    4    0    0 -0.30210343851E+03 -0.94779953873E+03  0.10471023910E+04  0.14473854190E+04  0.94396401770E+02 0.  0.
          3    1    3    3  502    0  0.36373337594E+02  0.58177886369E+03 -0.53710188379E+03  0.79263364772E+03  0.00000000000E+00 0. -1.
         -3    1    3    3    0  502  0.69753634046E+02  0.26191296152E+03 -0.21171667661E+03  0.34393010922E+03  0.00000000000E+00 0.  1.
         13    1    5    5    0    0  0.11907670536E+03  0.10759270757E+03  0.27294462874E+03  0.31662947247E+03  0.00000000000E+00 0. -1.
        -13    1    5    5    0    0  0.76899761509E+02 -0.34849940485E+01  0.90839195238E+02  0.11906921472E+03  0.00000000000E+00 0.  1.
          4    1    6    6  503    0 -0.30242769977E+03 -0.94925154237E+03  0.10402304032E+04  0.14403542259E+04  0.00000000000E+00 0. -1.
         -4    1    6    6    0  503  0.32426125270E+00  0.14520036407E+01  0.68719878393E+01  0.70311931275E+01  0.00000000000E+00 0.  1.
<mgrwt>
<rscale>  0 0.29461737E+04</rscale>
<asrwt>0</asrwt>
<pdfrwt beam="1">  1        2 0.18135232E+00 0.29461737E+04</pdfrwt>
<pdfrwt beam="2">  1       -2 0.28320889E+00 0.29461737E+04</pdfrwt>
<totfact> 0.67507697E-01</totfact>
</mgrwt>
</event>
<event>
12    3  0.8686020E-008  0.2502280E+04  0.7818608E-02  0.8402174E-01
         -2   -1    0    0    0  501 -0.00000000000E+00  0.00000000000E+00  0.83585456547E+03  0.83585456547E+03  0.00000000000E+00 0.  1.
          2   -1    0    0  501    0  0.00000000000E+00 -0.00000000000E+00 -0.18727549475E+04  0.18727549475E+04  0.00000000000E+00 0. -1.
         23    2    1    2    0    0 -0.18864776133E+03  0.10123671295E+04 -0.83654312848E+03  0.13301763685E+04  0.95339304258E+02 0.  0.
        254    2    1    2    0    0  0.18864776133E+03 -0.10123671295E+04 -0.20035725353E+03  0.13784331444E+04  0.89412511538E+03 0.  0.
         23    2    4    4    0    0  0.50483682104E+03 -0.84709599519E+03 -0.91190020671E+02  0.99458974428E+03  0.91985317370E+02 0.  0.
         23    2    4    4    0    0 -0.31618905971E+03 -0.16527113426E+03 -0.10916723286E+03  0.38384340015E+03  0.90156540574E+02 0.  0.
          1    1    3    3  502    0 -0.79687060546E+02  0.56362660204E+03 -0.51347875647E+03  0.76660642281E+03  0.00000000000E+00 0. -1.
         -1    1    3    3    0  502 -0.10896070078E+03  0.44874052741E+03 -0.32306437201E+03  0.56356994572E+03  0.00000000000E+00 0.  1.
         13    1    5    5    0    0  0.30827772434E+02 -0.20882408584E+02  0.33204350102E+01  0.37382507007E+02  0.00000000000E+00 0.  1.
        -13    1    5    5    0    0  0.47400904860E+03 -0.82621358661E+03 -0.94510455681E+02  0.95720723727E+03  0.00000000000E+00 0. -1.
          1    1    6    6  503    0 -0.27236294341E+03 -0.17040308845E+03 -0.80450864849E+02  0.33119650836E+03  0.00000000000E+00 0. -1.
         -1    1    6    6    0  503 -0.43826116297E+02  0.51319541811E+01 -0.28716368009E+02  0.52646891788E+02  0.00000000000E+00 0.  1.
<mgrwt>
<rscale>  0 0.25022796E+04</rscale>
<asrwt>0</asrwt>
<pdfrwt beam="1">  1        2 0.28811614E+00 0.25022796E+04</pdfrwt>
<pdfrwt beam="2">  1       -2 0.12859301E+00 0.25022796E+04</pdfrwt>
<totfact> 0.31302374E+00</totfact>
</mgrwt>
</event>
<event>
12    3  0.8686020E-008  0.3706683E+04  0.7818608E-02  0.8066482E-01
          1   -1    0    0  501    0  0.00000000000E+00  0.00000000000E+00  0.16574944845E+04  0.16574944845E+04  0.00000000000E+00 0. -1.
         -1   -1    0    0    0  501 -0.00000000000E+00 -0.00000000000E+00 -0.20723293197E+04  0.20723293197E+04  0.00000000000E+00 0.  1.
         23    2    1    2    0    0 -0.10004769988E+04 -0.78061721424E+03 -0.13971783001E+04  0.18897558775E+04  0.93555405137E+02 0.  0.
        254    2    1    2    0    0  0.10004769988E+04  0.78061721424E+03  0.98234346496E+03  0.18400679268E+04  0.90029652434E+03 0.  0.
         23    2    4    4    0    0  0.87235681133E+03  0.83077680933E+03  0.11009073861E+04  0.16345648307E+04  0.92782540282E+02 0.  0.
         23    2    4    4    0    0  0.12812018743E+03 -0.50159595082E+02 -0.11856392115E+03  0.20550309607E+03  0.96142351178E+02 0.  0.
          1    1    3    3  502    0 -0.14110012485E+03 -0.12226523672E+03 -0.16073943704E+03  0.24636395832E+03  0.00000000000E+00 0. -1.
         -1    1    3    3    0  502 -0.85937687391E+03 -0.65835197752E+03 -0.12364388631E+04  0.16433919191E+04  0.00000000000E+00 0.  1.
         13    1    5    5    0    0  0.61743350874E+03  0.55422287674E+03  0.70885437555E+03  0.10912660815E+04  0.00000000000E+00 0. -1.
        -13    1    5    5    0    0  0.25492330259E+03  0.27655393258E+03  0.39205301056E+03  0.54329874924E+03  0.00000000000E+00 0.  1.
          1    1    6    6  503    0  0.55899980125E+02 -0.58182290935E+02 -0.10360250458E+03  0.13131437740E+03  0.00000000000E+00 0. -1.
         -1    1    6    6    0  503  0.72220207301E+02  0.80226958522E+01 -0.14961416562E+02  0.74188718663E+02  0.00000000000E+00 0.  1.
<mgrwt>
<rscale>  0 0.37066828E+04</rscale>
<asrwt>0</asrwt>
<pdfrwt beam="1">  1        1 0.25499915E+00 0.37066828E+04</pdfrwt>
<pdfrwt beam="2">  1       -1 0.31881990E+00 0.37066828E+04</pdfrwt>
<totfact> 0.10177982E-01</totfact>
</mgrwt>
</event>
<event>
12    3  0.8686020E-008  0.2116560E+04  0.7818608E-02  0.8553984E-01
          2   -1    0    0  501    0  0.00000000000E+00  0.00000000000E+00  0.78015194699E+03  0.78015194699E+03  0.00000000000E+00 0.  1.
         -2   -1    0    0    0  501 -0.00000000000E+00 -0.00000000000E+00 -0.14355617857E+04  0.14355617857E+04  0.00000000000E+00 0. -1.
         23    2    1    2    0    0 -0.44139332686E+03 -0.34138992481E+03 -0.95988424170E+03  0.11138490264E+04  0.88919887792E+02 0.  0.
        254    2    1    2    0    0  0.44139332686E+03  0.34138992481E+03  0.30447440301E+03  0.11018647062E+04  0.90001445489E+03 0.  0.
         23    2    4    4    0    0 -0.16449724014E+02  0.48529281097E+02  0.50416622057E+03  0.51540019299E+03  0.93957950340E+02 0.  0.
         23    2    4    4    0    0  0.45784305088E+03  0.29286064372E+03 -0.19969181755E+03  0.58646451325E+03  0.93146054315E+02 0.  0.
          4    1    3    3  502    0 -0.25770793826E+03 -0.22147280904E+03 -0.65951406850E+03  0.74190457145E+03  0.00000000000E+00 0. -1.
         -4    1    3    3    0  502 -0.18368538860E+03 -0.11991711577E+03 -0.30037017320E+03  0.37194445498E+03  0.00000000000E+00 0.  1.
         13    1    5    5    0    0  0.31372715993E+02 -0.84287128775E+01  0.14040793074E+03  0.14411688841E+03  0.00000000000E+00 0.  1.
        -13    1    5    5    0    0 -0.47822440007E+02  0.56957993975E+02  0.36375828983E+03  0.37128330459E+03  0.00000000000E+00 0. -1.
          2    1    6    6  503    0  0.11872817610E+02 -0.71180948285E+01 -0.68368812152E+01  0.15439365814E+02  0.00000000000E+00 0.  1.
         -2    1    6    6    0  503  0.44597023327E+03  0.29997873854E+03 -0.19285493634E+03  0.57102514744E+03  0.00000000000E+00 0. -1.
<mgrwt>
<rscale>  0 0.21165598E+04</rscale>
<asrwt>0</asrwt>
<pdfrwt beam="1">  1        2 0.12002338E+00 0.21165598E+04</pdfrwt>
<pdfrwt beam="2">  1       -2 0.22085566E+00 0.21165598E+04</pdfrwt>
<totfact> 0.31977858E+00</totfact>
</mgrwt>
</event>
<event>
12    3  0.8686020E-008  0.1370193E+04  0.7818608E-02  0.8975681E-01
          1   -1    0    0  501    0  0.00000000000E+00  0.00000000000E+00  0.95099561466E+03  0.95099561466E+03  0.00000000000E+00 0.  1.
         -1   -1    0    0    0  501 -0.00000000000E+00 -0.00000000000E+00 -0.49354316508E+03  0.49354316508E+03  0.00000000000E+00 0. -1.
         23    2    1    2    0    0 -0.37633361264E+03  0.72307957721E+02  0.10949288674E+03  0.40889385267E+03  0.91378672294E+02 0.  0.
        254    2    1    2    0    0  0.37633361264E+03 -0.72307957721E+02  0.34795956284E+03  0.10356449271E+04  0.89701122001E+03 0.  0.
         23    2    4    4    0    0  0.14363966992E+01  0.96656142462E+01  0.57401147189E+03  0.58111901093E+03  0.90081339167E+02 0.  0.
         23    2    4    4    0    0  0.37489721594E+03 -0.81973571967E+02 -0.22605190905E+03  0.45452591613E+03  0.90701454378E+02 0.  0.
          4    1    3    3  502    0 -0.57503526623E+02  0.36328996800E+02 -0.50555511226E+01  0.68205646245E+02  0.00000000000E+00 0. -1.
         -4    1    3    3    0  502 -0.31883008602E+03  0.35978960921E+02  0.11454843786E+03  0.34068820642E+03  0.00000000000E+00 0.  1.
         13    1    5    5    0    0  0.77652910269E+01  0.33969743771E+02  0.52398407826E+03  0.52514146428E+03  0.00000000000E+00 0. -1.
        -13    1    5    5    0    0 -0.63288943277E+01 -0.24304129524E+02  0.50027393638E+02  0.55977546656E+02  0.00000000000E+00 0.  1.
          4    1    6    6  503    0  0.20590883895E+03 -0.90939767096E+02 -0.13017386626E+03  0.26002639608E+03  0.00000000000E+00 0. -1.
         -4    1    6    6    0  503  0.16898837699E+03  0.89661951285E+01 -0.95878042786E+02  0.19449952005E+03  0.00000000000E+00 0.  1.
<mgrwt>
<rscale>  0 0.13701933E+04</rscale>
<asrwt>0</asrwt>
<pdfrwt beam="1">  1        1 0.14630702E+00 0.13701933E+04</pdfrwt>
<pdfrwt beam="2">  1       -1 0.75929718E-01 0.13701933E+04</pdfrwt>
<totfact> 0.28178014E+01</totfact>
</mgrwt>
</event>
<event>
12    3  0.8686020E-008  0.3388448E+04  0.7818608E-02  0.8140747E-01
          2   -1    0    0  501    0  0.00000000000E+00  0.00000000000E+00  0.17467649984E+04  0.17467649984E+04  0.00000000000E+00 0. -1.
         -2   -1    0    0    0  501 -0.00000000000E+00 -0.00000000000E+00 -0.16432630929E+04  0.16432630929E+04  0.00000000000E+00 0.  1.
         23    2    1    2    0    0  0.66633935970E+03 -0.13084690654E+04 -0.51468191407E+03  0.15586670040E+04  0.91901682446E+02 0.  0.
        254    2    1    2    0    0 -0.66633935970E+03  0.13084690654E+04  0.61818381957E+03  0.18313610874E+04  0.90312388974E+03 0.  0.
         23    2    4    4    0    0 -0.20852332079E+03 -0.90988402326E+02  0.12394837115E+03  0.27548351885E+03  0.93632824252E+02 0.  0.
         23    2    4    4    0    0 -0.45781603891E+03  0.13994574677E+04  0.49423544842E+03  0.15558775685E+04  0.91703873073E+02 0.  0.
          1    1    3    3  502    0  0.63497718930E+02 -0.17866799937E+03 -0.46902609552E+02  0.19533066603E+03  0.00000000000E+00 0. -1.
         -1    1    3    3    0  502  0.60284164077E+03 -0.11298010660E+04 -0.46777930452E+03  0.13633363380E+04  0.00000000000E+00 0.  1.
         13    1    5    5    0    0 -0.54258246112E+02  0.12990746224E+02  0.82332678429E+01  0.56395952497E+02  0.00000000000E+00 0. -1.
        -13    1    5    5    0    0 -0.15426507468E+03 -0.10397914855E+03  0.11571510330E+03  0.21908756635E+03  0.00000000000E+00 0.  1.
          3    1    6    6  503    0 -0.19722621939E+02  0.21240748007E+02  0.68117734654E+01  0.29775013851E+02  0.00000000000E+00 0. -1.
         -3    1    6    6    0  503 -0.43809341697E+03  0.13782167197E+04  0.48742367496E+03  0.15261025547E+04  0.00000000000E+00 0.  1.
<mgrwt>
<rscale>  0 0.33884477E+04</rscale>
<asrwt>0</asrwt>
<pdfrwt beam="1">  1        2 0.26873308E+00 0.33884477E+04</pdfrwt>
<pdfrwt beam="2">  1       -2 0.25280971E+00 0.33884477E+04</pdfrwt>
<totfact> 0.47301928E-01</totfact>
</mgrwt>
</event>
<event>
12    3  0.8686020E-008  0.2330370E+04  0.7818608E-02  0.8466042E-01
         -2   -1    0    0    0  501 -0.00000000000E+00  0.00000000000E+00  0.21220669965E+04  0.21220669965E+04  0.00000000000E+00 0.  1.
          2   -1    0    0  501    0  0.00000000000E+00 -0.00000000000E+00 -0.63978005627E+03  0.63978005627E+03  0.00000000000E+00 0. -1.
         23    2    1    2    0    0  0.57365622298E+03 -0.28488383193E+03  0.15254882476E+04  0.16569691429E+04  0.90510148677E+02 0.  0.
        254    2    1    2    0    0 -0.57365622298E+03  0.28488383193E+03 -0.43201307410E+02  0.11048779099E+04  0.89924889929E+03 0.  0.
         23    2    4    4    0    0  0.13968397007E+03  0.13941266005E+03 -0.26073938253E+03  0.33966826868E+03  0.91880388926E+02 0.  0.
         23    2    4    4    0    0 -0.71334019305E+03  0.14547117187E+03  0.21753807512E+03  0.76520964118E+03  0.90591875765E+02 0.  0.
          3    1    3    3  502    0  0.28969912592E+03 -0.17128195556E+03  0.70148082439E+03  0.77803498562E+03  0.00000000000E+00 0. -1.
         -3    1    3    3    0  502  0.28395709706E+03 -0.11360187637E+03  0.82400742322E+03  0.87893415726E+03  0.00000000000E+00 0.  1.
         13    1    5    5    0    0  0.10441594760E+03  0.12554960549E+03 -0.14675766578E+03  0.21955228538E+03  0.00000000000E+00 0. -1.
        -13    1    5    5    0    0  0.35268022476E+02  0.13863054563E+02 -0.11398171675E+03  0.12011598330E+03  0.00000000000E+00 0.  1.
          3    1    6    6  503    0 -0.64041699866E+03  0.12853303013E+03  0.16486774026E+03  0.67367354393E+03  0.00000000000E+00 0. -1.
         -3    1    6    6    0  503 -0.72923194387E+02  0.16938141746E+02  0.52670334854E+02  0.91536097246E+02  0.00000000000E+00 0.  1.
<mgrwt>
<rscale>  0 0.23303700E+04</rscale>
<asrwt>0</asrwt>
<pdfrwt beam="1">  1        2 0.98427702E-01 0.23303700E+04</pdfrwt>
<pdfrwt beam="2">  1       -2 0.32647184E+00 0.23303700E+04</pdfrwt>
<totfact> 0.90600246E-01</totfact>
</mgrwt>
</event>
<event>
12    3  0.8686020E-008  0.2682096E+04  0.7818608E-02  0.8340838E-01
         -2   -1    0    0    0  501 -0.00000000000E+00  0.00000000000E+00  0.16624162288E+04  0.16624162288E+04  0.00000000000E+00 0.  1.
          2   -1    0    0  501    0  0.00000000000E+00 -0.00000000000E+00 -0.10818046432E+04  0.10818046432E+04  0.00000000000E+00 0. -1.
         23    2    1    2    0    0  0.49942648502E+02 -0.11653379153E+04  0.21498624225E+02  0.11702098075E+04  0.91771878819E+02 0.  0.
        254    2    1    2    0    0 -0.49942648502E+02  0.11653379153E+04  0.55911296140E+03  0.15740110646E+04  0.89688171065E+03 0.  0.
         23    2    4    4    0    0  0.31213670905E+03  0.80608413347E+03  0.59860671898E+03  0.10553592528E+04  0.90841582052E+02 0.  0.
         23    2    4    4    0    0 -0.36207935756E+03  0.35925378180E+03 -0.39493757579E+02  0.51865181180E+03  0.85294806952E+02 0.  0.
          2    1    3    3  502    0  0.29104289742E+02 -0.14667919550E+03 -0.17709971749E+02  0.15058382773E+03  0.00000000000E+00 0. -1.
         -2    1    3    3    0  502  0.20838358760E+02 -0.10186587198E+04  0.39208595974E+02  0.10196259797E+04  0.00000000000E+00 0.  1.
         13    1    5    5    0    0  0.17946438143E+03  0.45783346075E+03  0.39466147010E+03  0.63053676972E+03  0.00000000000E+00 0. -1.
        -13    1    5    5    0    0  0.13267232762E+03  0.34825067271E+03  0.20394524888E+03  0.42482248305E+03  0.00000000000E+00 0.  1.
          2    1    6    6  503    0 -0.10593816675E+03  0.12865937117E+03 -0.49504633636E+02  0.17385867167E+03  0.00000000000E+00 0. -1.
         -2    1    6    6    0  503 -0.25614119081E+03  0.23059441062E+03  0.10010876057E+02  0.34479314013E+03  0.00000000000E+00 0.  1.
<mgrwt>
<rscale>  0 0.26820959E+04</rscale>
<asrwt>0</asrwt>
<pdfrwt beam="1">  1        2 0.16643148E+00 0.26820959E+04</pdfrwt>
<pdfrwt beam="2">  1       -2 0.25575634E+00 0.26820959E+04</pdfrwt>
<totfact> 0.11635956E+00</totfact>
</mgrwt>
</event>
<event>
12    3  0.8686020E-008  0.1519704E+04  0.7818608E-02  0.8871455E-01
         -1   -1    0    0    0  501 -0.00000000000E+00  0.00000000000E+00  0.55389906337E+03  0.55389906337E+03  0.00000000000E+00 0.  1.
          1   -1    0    0  501    0  0.00000000000E+00 -0.00000000000E+00 -0.10423828082E+04  0.10423828082E+04  0.00000000000E+00 0. -1.
         23    2    1    2    0    0  0.30792735378E+03  0.84285561293E+02  0.22629578017E+03  0.40157696318E+03  0.90171870282E+02 0.  0.
        254    2    1    2    0    0 -0.30792735378E+03 -0.84285561293E+02 -0.71477952497E+03  0.11947049084E+04  0.90248918980E+03 0.  0.
         23    2    4    4    0    0 -0.38012133545E+03 -0.15885752618E+03 -0.88249356771E+03  0.97818765150E+03  0.91259197937E+02 0.  0.
         23    2    4    4    0    0  0.72193981672E+02  0.74571964886E+02  0.16771404274E+03  0.21651725687E+03  0.89323980282E+02 0.  0.
          2    1    3    3  502    0  0.13870347981E+03  0.50034666423E+02  0.52291402050E+02  0.15644971679E+03  0.00000000000E+00 0. -1.
         -2    1    3    3    0  502  0.16922387397E+03  0.34250894870E+02  0.17400437812E+03  0.24512724639E+03  0.00000000000E+00 0.  1.
         13    1    5    5    0    0 -0.28095253325E+03 -0.73159333426E+02 -0.63125142837E+03  0.69481290994E+03  0.00000000000E+00 0. -1.
        -13    1    5    5    0    0 -0.99168802205E+02 -0.85698192754E+02 -0.25124213934E+03  0.28337474155E+03  0.00000000000E+00 0.  1.
          3    1    6    6  503    0  0.76599427671E+02  0.89526635996E+02  0.16108410280E+03  0.19957599818E+03  0.00000000000E+00 0. -1.
         -3    1    6    6    0  503 -0.44054459994E+01 -0.14954671110E+02  0.66299399317E+01  0.16941258689E+02  0.00000000000E+00 0.  1.
<mgrwt>
<rscale>  0 0.15197037E+04</rscale>
<asrwt>0</asrwt>
<pdfrwt beam="1">  1        1 0.16036658E+00 0.15197037E+04</pdfrwt>
<pdfrwt beam="2">  1       -1 0.85215242E-01 0.15197037E+04</pdfrwt>
<totfact> 0.18449953E+01</totfact>
</mgrwt>
</event>
<event>
12    3  0.8686020E-008  0.2377187E+04  0.7818608E-02  0.8448094E-01
          1   -1    0    0  501    0  0.00000000000E+00  0.00000000000E+00  0.83999851054E+03  0.83999851054E+03  0.00000000000E+00 0. -1.
         -1   -1    0    0    0  501 -0.00000000000E+00 -0.00000000000E+00 -0.16818532052E+04  0.16818532052E+04  0.00000000000E+00 0.  1.
         23    2    1    2    0    0 -0.18027020701E+03  0.92756429551E+03 -0.75471447118E+03  0.12126789321E+04  0.90129847470E+02 0.  0.
        254    2    1    2    0    0  0.18027020701E+03 -0.92756429551E+03 -0.87140223486E+02  0.13091727837E+04  0.90192410387E+03 0.  0.
         23    2    4    4    0    0  0.16999821510E+03 -0.50778385586E+03  0.38888107162E+03  0.66821752964E+03  0.92424789109E+02 0.  0.
         23    2    4    4    0    0  0.10271991907E+02 -0.41978043965E+03 -0.47602129511E+03  0.64095525404E+03  0.88917000392E+02 0.  0.
          2    1    3    3  502    0 -0.89314397703E+02  0.48460949003E+03 -0.33621954357E+03  0.59654589173E+03  0.00000000000E+00 0. -1.
         -2    1    3    3    0  502 -0.90955809306E+02  0.44295480548E+03 -0.41849492761E+03  0.61613304033E+03  0.00000000000E+00 0.  1.
         13    1    5    5    0    0  0.11581673969E+03 -0.20374489264E+03  0.15857088687E+03  0.28296682603E+03  0.00000000000E+00 0. -1.
        -13    1    5    5    0    0  0.54181475415E+02 -0.30403896322E+03  0.23031018475E+03  0.38525070361E+03  0.00000000000E+00 0.  1.
          2    1    6    6  503    0 -0.30335641047E+02 -0.11038481235E+03 -0.97332366766E+02  0.15026192976E+03  0.00000000000E+00 0. -1.
         -2    1    6    6    0  503  0.40607632953E+02 -0.30939562730E+03 -0.37868892834E+03  0.49069332428E+03  0.00000000000E+00 0.  1.
<mgrwt>
<rscale>  0 0.23771867E+04</rscale>
<asrwt>0</asrwt>
<pdfrwt beam="1">  1        1 0.12923054E+00 0.23771867E+04</pdfrwt>
<pdfrwt beam="2">  1       -1 0.25874664E+00 0.23771867E+04</pdfrwt>
<totfact> 0.11210801E+00</totfact>
</mgrwt>
</event>
<event>
12    3  0.8686020E-008  0.3883382E+04  0.7818608E-02  0.8028494E-01
         -1   -1    0    0    0  501 -0.00000000000E+00  0.00000000000E+00  0.10977186852E+04  0.10977186852E+04  0.00000000000E+00 0. -1.
          1   -1    0    0  501    0  0.00000000000E+00 -0.00000000000E+00 -0.34345446977E+04  0.34345446977E+04  0.00000000000E+00 0.  1.
         23    2    1    2    0    0  0.42382491188E+03 -0.93159139396E+03  0.67268761382E+03  0.12281537913E+04  0.91449593698E+02 0.  0.
        254    2    1    2    0    0 -0.42382491188E+03  0.93159139396E+03 -0.30095136263E+04  0.33041095915E+04  0.90137552913E+03 0.  0.
         23    2    4    4    0    0 -0.14608936987E+03  0.73467699129E+02 -0.17060277501E+04  0.17163443112E+04  0.92560809907E+02 0.  0.
         23    2    4    4    0    0 -0.27773554200E+03  0.85812369483E+03 -0.13034858762E+04  0.15877652803E+04  0.91705229201E+02 0.  0.
          1    1    3    3  502    0  0.38223662977E+03 -0.83011155101E+03  0.63221009898E+03  0.11112513836E+04  0.00000000000E+00 0. -1.
         -1    1    3    3    0  502  0.41588282102E+02 -0.10147984295E+03  0.40477514832E+02  0.11690240776E+03  0.00000000000E+00 0.  1.
         13    1    5    5    0    0 -0.14102618540E+03  0.92015405781E+02 -0.15003869761E+04  0.15098067088E+04  0.00000000000E+00 0.  1.
        -13    1    5    5    0    0 -0.50631844692E+01 -0.18547706652E+02 -0.20564077401E+03  0.20653760238E+03  0.00000000000E+00 0. -1.
          1    1    6    6  503    0 -0.23202461667E+03  0.69250267525E+03 -0.11131538323E+04  0.13313552615E+04  0.00000000000E+00 0. -1.
         -1    1    6    6    0  503 -0.45710925338E+02  0.16562101958E+03 -0.19033204389E+03  0.25641001883E+03  0.00000000000E+00 0.  1.
<mgrwt>
<rscale>  0 0.38833820E+04</rscale>
<asrwt>0</asrwt>
<pdfrwt beam="1">  1        1 0.52839149E+00 0.38833820E+04</pdfrwt>
<pdfrwt beam="2">  1       -1 0.16887980E+00 0.38833820E+04</pdfrwt>
<totfact> 0.55653258E-02</totfact>
</mgrwt>
</event>
<event>
12    3  0.8686020E-008  0.4040751E+04  0.7818608E-02  0.7996376E-01
          2   -1    0    0  501    0  0.00000000000E+00  0.00000000000E+00  0.27216018450E+04  0.27216018450E+04  0.00000000000E+00 0. -1.
         -2   -1    0    0    0  501 -0.00000000000E+00 -0.00000000000E+00 -0.14998217988E+04  0.14998217988E+04  0.00000000000E+00 0.  1.
         23    2    1    2    0    0 -0.10112188226E+04 -0.11020758702E+04  0.18384409082E+04  0.23712179136E+04  0.75330536533E+02 0.  0.
        254    2    1    2    0    0  0.10112188226E+04  0.11020758702E+04 -0.61666086204E+03  0.18502057302E+04  0.89769476692E+03 0.  0.
         23    2    4    4    0    0  0.10181053631E+03  0.63728000367E+01 -0.38004901751E+03  0.40375523128E+03  0.90415890131E+02 0.  0.
         23    2    4    4    0    0  0.90940828629E+03  0.10957030701E+04 -0.23661184452E+03  0.14464504989E+04  0.92979738797E+02 0.  0.
          3    1    3    3  502    0 -0.37995194772E+03 -0.43855066836E+03  0.76533183729E+03  0.96042854625E+03  0.00000000000E+00 0. -1.
         -3    1    3    3    0  502 -0.63126687488E+03 -0.66352520182E+03  0.10731090709E+04  0.14107893673E+04  0.00000000000E+00 0.  1.
         13    1    5    5    0    0  0.25078226289E+02 -0.12209326736E+02 -0.25047570671E+03  0.25202393685E+03  0.00000000000E+00 0. -1.
        -13    1    5    5    0    0  0.76732310025E+02  0.18582126772E+02 -0.12957331081E+03  0.15173129443E+03  0.00000000000E+00 0.  1.
          3    1    6    6  503    0  0.52934176053E+03  0.68324884256E+03 -0.17883891258E+03  0.88261828496E+03  0.00000000000E+00 0. -1.
         -3    1    6    6    0  503  0.38006652576E+03  0.41245422758E+03 -0.57772931947E+02  0.56383221398E+03  0.00000000000E+00 0.  1.
<mgrwt>
<rscale>  0 0.40407513E+04</rscale>
<asrwt>0</asrwt>
<pdfrwt beam="1">  1        2 0.41870798E+00 0.40407513E+04</pdfrwt>
<pdfrwt beam="2">  1       -2 0.23074181E+00 0.40407513E+04</pdfrwt>
<totfact> 0.17142416E-01</totfact>
</mgrwt>
</event>
<event>
12    3  0.8686020E-008  0.2192817E+04  0.7818608E-02  0.8521424E-01
         -2   -1    0    0    0  501 -0.00000000000E+00  0.00000000000E+00  0.81482883127E+03  0.81482883127E+03  0.00000000000E+00 0.  1.
          2   -1    0    0  501    0  0.00000000000E+00 -0.00000000000E+00 -0.14752938196E+04  0.14752938196E+04  0.00000000000E+00 0. -1.
         23    2    1    2    0    0 -0.33000211514E+02  0.90825236238E+03 -0.26310190901E+03  0.95064100881E+03  0.92110506296E+02 0.  0.
        254    2    1    2    0    0  0.33000211514E+02 -0.90825236238E+03 -0.39736307929E+03  0.13394816420E+04  0.90016792036E+03 0.  0.
         23    2    4    4    0    0 -0.57594168106E+02  0.14691445705E+03 -0.17795702687E+03  0.25420159784E+03  0.89715121606E+02 0.  0.
         23    2    4    4    0    0  0.90594379620E+02 -0.10551668194E+04 -0.21940605242E+03  0.10852800442E+04  0.90052207297E+02 0.  0.
          2    1    3    3  502    0  0.23340999476E+01  0.42462399669E+03 -0.16701802706E+03  0.45629596531E+03  0.00000000000E+00 0. -1.
         -2    1    3    3    0  502 -0.35334311462E+02  0.48362836569E+03 -0.96083881949E+02  0.49434504350E+03  0.00000000000E+00 0.  1.
         13    1    5    5    0    0 -0.69142129582E+02  0.10277344005E+03 -0.16584167604E+03  0.20699390227E+03  0.00000000000E+00 0. -1.
        -13    1    5    5    0    0  0.11547961476E+02  0.44141017003E+02 -0.12115350826E+02  0.47207695579E+02  0.00000000000E+00 0.  1.
          3    1    6    6  503    0  0.10876413535E+03 -0.94046236426E+03 -0.19648646982E+03  0.96690538759E+03  0.00000000000E+00 0. -1.
         -3    1    6    6    0  503 -0.18169755731E+02 -0.11470445517E+03 -0.22919582602E+02  0.11837465660E+03  0.00000000000E+00 0.  1.
<mgrwt>
<rscale>  0 0.21928173E+04</rscale>
<asrwt>0</asrwt>
<pdfrwt beam="1">  1        2 0.22696828E+00 0.21928173E+04</pdfrwt>
<pdfrwt beam="2">  1       -2 0.12535828E+00 0.21928173E+04</pdfrwt>
<totfact> 0.57085375E+00</totfact>
</mgrwt>
</event>
<event>
12    3  0.8686020E-008  0.1809727E+04  0.7818608E-02  0.8701144E-01
          2   -1    0    0  501    0  0.00000000000E+00  0.00000000000E+00  0.81702452750E+03  0.81702452750E+03  0.00000000000E+00 0. -1.
         -2   -1    0    0    0  501 -0.00000000000E+00 -0.00000000000E+00 -0.10021462852E+04  0.10021462852E+04  0.00000000000E+00 0.  1.
         23    2    1    2    0    0 -0.18472110052E+03 -0.61651410632E+03  0.14209720678E+03  0.66502113683E+03  0.88600045089E+02 0.  0.
        254    2    1    2    0    0  0.18472110052E+03  0.61651410632E+03 -0.32721896444E+03  0.11541496758E+04  0.90043194928E+03 0.  0.
         23    2    4    4    0    0 -0.54360388674E+02  0.28074485745E+03  0.28323227111E+03  0.41248013932E+03  0.90258623391E+02 0.  0.
         23    2    4    4    0    0  0.23908148919E+03  0.33576924886E+03 -0.61045123555E+03  0.74166953652E+03  0.86729714971E+02 0.  0.
          3    1    3    3  502    0 -0.15956223917E+03 -0.45442477764E+03  0.13773845188E+03  0.50093299735E+03  0.00000000000E+00 0. -1.
         -3    1    3    3    0  502 -0.25158861343E+02 -0.16208932867E+03  0.43587549027E+01  0.16408813948E+03  0.00000000000E+00 0.  1.
         13    1    5    5    0    0 -0.74552633256E+02  0.23843957788E+03  0.25845135515E+03  0.35945602012E+03  0.00000000000E+00 0.  1.
        -13    1    5    5    0    0  0.20192244582E+02  0.42305279577E+02  0.24780915956E+02  0.53024119200E+02  0.00000000000E+00 0. -1.
          2    1    6    6  503    0  0.17126157185E+03  0.16782548556E+03 -0.33356035996E+03  0.41080218272E+03  0.00000000000E+00 0.  1.
         -2    1    6    6    0  503  0.67819917341E+02  0.16794376330E+03 -0.27689087559E+03  0.33086735379E+03  0.00000000000E+00 0. -1.
<mgrwt>
<rscale>  0 0.18097272E+04</rscale>
<asrwt>0</asrwt>
<pdfrwt beam="1">  1        2 0.12569608E+00 0.18097272E+04</pdfrwt>
<pdfrwt beam="2">  1       -2 0.15417635E+00 0.18097272E+04</pdfrwt>
<totfact> 0.87937284E+00</totfact>
</mgrwt>
</event>
<event>
12    3  0.8686020E-008  0.1810809E+04  0.7818608E-02  0.8700572E-01
         -3   -1    0    0    0  501 -0.00000000000E+00  0.00000000000E+00  0.26849536707E+03  0.26849536707E+03  0.00000000000E+00 0.  1.
          3   -1    0    0  501    0  0.00000000000E+00 -0.00000000000E+00 -0.30531537425E+04  0.30531537425E+04  0.00000000000E+00 0. -1.
         23    2    1    2    0    0 -0.50412350878E+03  0.32010904813E+03 -0.46689922677E+03  0.76334075469E+03  0.89910538980E+02 0.  0.
        254    2    1    2    0    0  0.50412350878E+03 -0.32010904813E+03 -0.23177591487E+04  0.25583083549E+04  0.90350642093E+03 0.  0.
         23    2    4    4    0    0 -0.23597475484E+03 -0.14695455579E+03 -0.89406301707E+03  0.94180715264E+03  0.10184452797E+03 0.  0.
         23    2    4    4    0    0  0.74009826361E+03 -0.17315449234E+03 -0.14236961316E+04  0.16165012023E+04  0.91856103377E+02 0.  0.
          1    1    3    3  502    0 -0.33035108950E+03  0.16102468190E+03 -0.26522643683E+03  0.45321722530E+03  0.00000000000E+00 0. -1.
         -1    1    3    3    0  502 -0.17377241927E+03  0.15908436623E+03 -0.20167278994E+03  0.31012352939E+03  0.00000000000E+00 0.  1.
         13    1    5    5    0    0 -0.49918800251E+02 -0.71787318510E+01 -0.75397607324E+02  0.90709536432E+02  0.00000000000E+00 0. -1.
        -13    1    5    5    0    0 -0.18605595459E+03 -0.13977582394E+03 -0.81866540975E+03  0.85109761621E+03  0.00000000000E+00 0.  1.
          3    1    6    6  503    0  0.22451065478E+02  0.70455583171E+01 -0.69035596708E+02  0.72935614386E+02  0.00000000000E+00 0. -1.
         -3    1    6    6    0  503  0.71764719813E+03 -0.18020005066E+03 -0.13546605349E+04  0.15435655879E+04  0.00000000000E+00 0.  1.
<mgrwt>
<rscale>  0 0.18108094E+04</rscale>
<asrwt>0</asrwt>
<pdfrwt beam="1">  1        3 0.46971593E+00 0.18108094E+04</pdfrwt>
<pdfrwt beam="2">  1       -3 0.41306982E-01 0.18108094E+04</pdfrwt>
<totfact> 0.70180988E-02</totfact>
</mgrwt>
</event>
<event>
12    3  0.8686020E-008  0.2546367E+04  0.7818608E-02  0.8386651E-01
         -1   -1    0    0    0  501 -0.00000000000E+00  0.00000000000E+00  0.79739691460E+03  0.79739691460E+03  0.00000000000E+00 0.  1.
          1   -1    0    0  501    0  0.00000000000E+00 -0.00000000000E+00 -0.20328603396E+04  0.20328603396E+04  0.00000000000E+00 0. -1.
         23    2    1    2    0    0  0.72074874609E+03  0.84331505731E+03 -0.63217951076E+03  0.12801144008E+04  0.91558202272E+02 0.  0.
        254    2    1    2    0    0 -0.72074874609E+03 -0.84331505731E+03 -0.60328391426E+03  0.15501428534E+04  0.89907304706E+03 0.  0.
         23    2    4    4    0    0 -0.76135774431E+03 -0.22222907942E+03 -0.31439304524E+03  0.85804114435E+03  0.91324914098E+02 0.  0.
         23    2    4    4    0    0  0.40608998224E+02 -0.62108597789E+03 -0.28889086901E+03  0.69210170907E+03  0.90277122448E+02 0.  0.
          3    1    3    3  502    0  0.56869770902E+03  0.60737550627E+03 -0.48700948682E+03  0.96410597453E+03  0.00000000000E+00 0. -1.
         -3    1    3    3    0  502  0.15205103707E+03  0.23593955104E+03 -0.14517002395E+03  0.31600842626E+03  0.00000000000E+00 0.  1.
         13    1    5    5    0    0 -0.56827339805E+02 -0.41663298693E+02 -0.37440097491E+02  0.79793094359E+02  0.00000000000E+00 0.  1.
        -13    1    5    5    0    0 -0.70453040451E+03 -0.18056578073E+03 -0.27695294775E+03  0.77824804999E+03  0.00000000000E+00 0. -1.
          2    1    6    6  503    0  0.49708270429E+02 -0.50746843613E+03 -0.26863972671E+03  0.57633534386E+03  0.00000000000E+00 0. -1.
         -2    1    6    6    0  503 -0.90992722044E+01 -0.11361754176E+03 -0.20251142303E+02  0.11576636521E+03  0.00000000000E+00 0.  1.
<mgrwt>
<rscale>  0 0.25463673E+04</rscale>
<asrwt>0</asrwt>
<pdfrwt beam="1">  1        1 0.31274774E+00 0.25463673E+04</pdfrwt>
<pdfrwt beam="2">  1       -1 0.12267645E+00 0.25463673E+04</pdfrwt>
<totfact> 0.14683459E+00</totfact>
</mgrwt>
</event>
<event>
12    3  0.8686020E-008  0.2949224E+04  0.7818608E-02  0.8258381E-01
          2   -1    0    0  501    0  0.00000000000E+00  0.00000000000E+00  0.25058369685E+04  0.25058369685E+04  0.00000000000E+00 0.  1.
         -2   -1    0    0    0  501 -0.00000000000E+00 -0.00000000000E+00 -0.86776611879E+03  0.86776611879E+03  0.00000000000E+00 0. -1.
         23    2    1    2    0    0 -0.46693475640E+03 -0.12504330525E+04  0.78234714740E+03  0.15498861579E+04  0.92028028237E+02 0.  0.
        254    2    1    2    0    0  0.46693475640E+03  0.12504330525E+04  0.85572370226E+03  0.18237169293E+04  0.90114898787E+03 0.  0.
         23    2    4    4    0    0 -0.64327869469E+02  0.20908575804E+03 -0.14884378487E+03  0.27974237758E+03  0.90809671906E+02 0.  0.
         23    2    4    4    0    0  0.53126262587E+03  0.10413472944E+04  0.10045674871E+04  0.15439745518E+04  0.89763105256E+02 0.  0.
          2    1    3    3  502    0 -0.26727841199E+03 -0.84027037672E+03  0.51816264857E+03  0.10227338783E+04  0.00000000000E+00 0. -1.
         -2    1    3    3    0  502 -0.19965634441E+03 -0.41016267574E+03  0.26418449884E+03  0.52715227957E+03  0.00000000000E+00 0.  1.
         13    1    5    5    0    0 -0.48153310959E+02  0.36472703727E+02 -0.19625375887E+02  0.63514997065E+02  0.00000000000E+00 0.  1.
        -13    1    5    5    0    0 -0.16174558510E+02  0.17261305432E+03 -0.12921840898E+03  0.21622738051E+03  0.00000000000E+00 0. -1.
          2    1    6    6  503    0  0.17990621155E+03  0.26487972423E+03  0.27770511966E+03  0.42384861301E+03  0.00000000000E+00 0.  1.
         -2    1    6    6    0  503  0.35135641432E+03  0.77646757019E+03  0.72686236747E+03  0.11201259388E+04  0.00000000000E+00 0. -1.
<mgrwt>
<rscale>  0 0.29492239E+04</rscale>
<asrwt>0</asrwt>
<pdfrwt beam="1">  1        2 0.38551338E+00 0.29492239E+04</pdfrwt>
<pdfrwt beam="2">  1       -2 0.13350248E+00 0.29492239E+04</pdfrwt>
<totfact> 0.12049304E+00</totfact>
</mgrwt>
</event>
<event>
12    3  0.8686020E-008  0.1450271E+04  0.7818608E-02  0.8918213E-01
         -2   -1    0    0    0  501 -0.00000000000E+00  0.00000000000E+00  0.17027689838E+03  0.17027689838E+03  0.00000000000E+00 0.  1.
          2   -1    0    0  501    0  0.00000000000E+00 -0.00000000000E+00 -0.30880381833E+04  0.30880381833E+04  0.00000000000E+00 0. -1.
         23    2    1    2    0    0  0.26833571249E+03  0.34743638386E+03 -0.85404170063E+03  0.96453807020E+03  0.90721370324E+02 0.  0.
        254    2    1    2    0    0 -0.26833571249E+03 -0.34743638386E+03 -0.20637195843E+04  0.22937770115E+04  0.89986574573E+03 0.  0.
         23    2    4    4    0    0 -0.11894387455E+03  0.28878819057E+03 -0.88783152052E+03  0.94552074643E+03  0.90655439946E+02 0.  0.
         23    2    4    4    0    0 -0.14939183794E+03 -0.63622457443E+03 -0.11758880637E+04  0.13482562650E+04  0.89345326414E+02 0.  0.
          3    1    3    3  502    0  0.79134425680E+02  0.56158969385E+02 -0.24333843902E+03  0.26197267620E+03  0.00000000000E+00 0. -1.
         -3    1    3    3    0  502  0.18920128681E+03  0.29127741448E+03 -0.61070326160E+03  0.70256539400E+03  0.00000000000E+00 0.  1.
         13    1    5    5    0    0  0.10726672713E+02  0.68143938736E+02 -0.20573888021E+03  0.21699572513E+03  0.00000000000E+00 0. -1.
        -13    1    5    5    0    0 -0.12967054726E+03  0.22064425183E+03 -0.68209264031E+03  0.72852502130E+03  0.00000000000E+00 0.  1.
          1    1    6    6  503    0 -0.45400436881E+02 -0.13918966462E+03 -0.34049409266E+03  0.37063619567E+03  0.00000000000E+00 0. -1.
         -1    1    6    6    0  503 -0.10399140106E+03 -0.49703490981E+03 -0.83539397109E+03  0.97762006935E+03  0.00000000000E+00 0.  1.
<mgrwt>
<rscale>  0 0.14502711E+04</rscale>
<asrwt>0</asrwt>
<pdfrwt beam="1">  1        2 0.47508276E+00 0.14502711E+04</pdfrwt>
<pdfrwt beam="2">  1       -2 0.26196448E-01 0.14502711E+04</pdfrwt>
<totfact> 0.19751063E+01</totfact>
</mgrwt>
</event>
<event>
12    3  0.8686020E-008  0.2070236E+04  0.7818608E-02  0.8574469E-01
          2   -1    0    0  501    0  0.00000000000E+00  0.00000000000E+00  0.20985800063E+04  0.20985800063E+04  0.00000000000E+00 0. -1.
         -2   -1    0    0    0  501 -0.00000000000E+00 -0.00000000000E+00 -0.51056875162E+03  0.51056875162E+03  0.00000000000E+00 0.  1.
         23    2    1    2    0    0 -0.13215598776E+03  0.48231800769E+03 -0.20005691157E+03  0.54589454664E+03  0.88781881807E+02 0.  0.
        254    2    1    2    0    0  0.13215598776E+03 -0.48231800769E+03  0.17880681663E+04  0.20632542113E+04  0.89985238099E+03 0.  0.
         23    2    4    4    0    0  0.39821959707E+03 -0.21288319265E+03  0.15273659863E+04  0.15952825813E+04  0.90451958213E+02 0.  0.
         23    2    4    4    0    0 -0.26606360931E+03 -0.26943481505E+03  0.26070217992E+03  0.46797163000E+03  0.87446304138E+02 0.  0.
          4    1    3    3  502    0 -0.12692557762E+03  0.43222159925E+03 -0.14976286897E+03  0.47471520940E+03  0.00000000000E+00 0. -1.
         -4    1    3    3    0  502 -0.52304101401E+01  0.50096408448E+02 -0.50294042599E+02  0.71179337244E+02  0.00000000000E+00 0.  1.
         13    1    5    5    0    0  0.95542011504E+02 -0.46717606816E+02  0.50834936788E+03  0.51935526431E+03  0.00000000000E+00 0. -1.
        -13    1    5    5    0    0  0.30267758557E+03 -0.16616558583E+03  0.10190166185E+04  0.10759273170E+04  0.00000000000E+00 0.  1.
          1    1    6    6  503    0 -0.31907237744E+02 -0.81146252907E+02  0.45218297354E+02  0.98221589261E+02  0.00000000000E+00 0. -1.
         -1    1    6    6    0  503 -0.23415637157E+03 -0.18828856214E+03  0.21548388257E+03  0.36975004074E+03  0.00000000000E+00 0.  1.
<mgrwt>
<rscale>  0 0.20702361E+04</rscale>
<asrwt>0</asrwt>
<pdfrwt beam="1">  1        2 0.32285846E+00 0.20702361E+04</pdfrwt>
<pdfrwt beam="2">  1       -2 0.78549040E-01 0.20702361E+04</pdfrwt>
<totfact> 0.78318035E+00</totfact>
</mgrwt>
</event>
<event>
12    3  0.8686020E-008  0.2135669E+04  0.7818608E-02  0.8545691E-01
         -2   -1    0    0    0  501 -0.00000000000E+00  0.00000000000E+00  0.63530762987E+03  0.63530762987E+03  0.00000000000E+00 0.  1.
          2   -1    0    0  501    0  0.00000000000E+00 -0.00000000000E+00 -0.17948326478E+04  0.17948326478E+04  0.00000000000E+00 0. -1.
         23    2    1    2    0    0 -0.28903296845E+03 -0.27744319737E+03 -0.13607012480E+04  0.14210564310E+04  0.85899411897E+02 0.  0.
        254    2    1    2    0    0  0.28903296845E+03  0.27744319737E+03  0.20117623008E+03  0.10090838467E+04  0.90402629917E+03 0.  0.
         23    2    4    4    0    0 -0.30416557961E+03  0.44363453439E+01  0.13912675515E+03  0.34689883515E+03  0.91903029616E+02 0.  0.
         23    2    4    4    0    0  0.59319854805E+03  0.27300685203E+03  0.62049474928E+02  0.66218501159E+03  0.90673003516E+02 0.  0.
          1    1    3    3  502    0 -0.17979421478E+03 -0.14453992689E+03 -0.90570370031E+03  0.93462128313E+03  0.00000000000E+00 0. -1.
         -1    1    3    3    0  502 -0.10923875367E+03 -0.13290327048E+03 -0.45499754771E+03  0.48643514782E+03  0.00000000000E+00 0.  1.
         13    1    5    5    0    0 -0.30284410173E+03 -0.82498628673E+01  0.12463092831E+03  0.32759041268E+03  0.00000000000E+00 0.  1.
        -13    1    5    5    0    0 -0.13214778806E+01  0.12686208211E+02  0.14495826840E+02  0.19308422471E+02  0.00000000000E+00 0. -1.
          1    1    6    6  503    0  0.19888109704E+02  0.82924079902E+01 -0.14671299981E+02  0.26068141111E+02  0.00000000000E+00 0. -1.
         -1    1    6    6    0  503  0.57331043835E+03  0.26471444404E+03  0.76720774909E+02  0.63611687048E+03  0.00000000000E+00 0.  1.
<mgrwt>
<rscale>  0 0.21356693E+04</rscale>
<asrwt>0</asrwt>
<pdfrwt beam="1">  1        2 0.27612810E+00 0.21356693E+04</pdfrwt>
<pdfrwt beam="2">  1       -2 0.97739635E-01 0.21356693E+04</pdfrwt>
<totfact> 0.69584533E+00</totfact>
</mgrwt>
</event>
<event>
12    3  0.8686020E-008  0.4450609E+04  0.7818608E-02  0.7919341E-01
         -2   -1    0    0    0  501 -0.00000000000E+00  0.00000000000E+00  0.17667609579E+04  0.17667609579E+04  0.00000000000E+00 0.  1.
          2   -1    0    0  501    0  0.00000000000E+00 -0.00000000000E+00 -0.28028579651E+04  0.28028579651E+04  0.00000000000E+00 0. -1.
         23    2    1    2    0    0 -0.11149627399E+04  0.18182999474E+04 -0.51087610414E+03  0.21953139510E+04  0.95143783994E+02 0.  0.
        254    2    1    2    0    0  0.11149627399E+04 -0.18182999474E+04 -0.52522090305E+03  0.23743049721E+04  0.90117173355E+03 0.  0.
         23    2    4    4    0    0  0.64690024514E+03 -0.56670726350E+03  0.14491350558E+03  0.87659197005E+03  0.88184512157E+02 0.  0.
         23    2    4    4    0    0  0.46806249481E+03 -0.12515926839E+04 -0.67013440864E+03  0.14977130020E+04  0.92181155569E+02 0.  0.
          2    1    3    3  502    0 -0.31838954037E+03  0.49395407738E+03 -0.18250211314E+03  0.61536131766E+03  0.00000000000E+00 0. -1.
         -2    1    3    3    0  502 -0.79657319958E+03  0.13243458700E+04 -0.32837399101E+03  0.15799526333E+04  0.00000000000E+00 0.  1.
         13    1    5    5    0    0  0.14019722013E+03 -0.77482258709E+02  0.25102036776E+02  0.16213843837E+03  0.00000000000E+00 0. -1.
        -13    1    5    5    0    0  0.50670302501E+03 -0.48922500479E+03  0.11981146881E+03  0.71445353167E+03  0.00000000000E+00 0.  1.
          3    1    6    6  503    0  0.19869178311E+03 -0.65785049743E+03 -0.32982542133E+03  0.76225357342E+03  0.00000000000E+00 0. -1.
         -3    1    6    6    0  503  0.26937071170E+03 -0.59374218645E+03 -0.34030898731E+03  0.73545942861E+03  0.00000000000E+00 0.  1.
<mgrwt>
<rscale>  0 0.44506090E+04</rscale>
<asrwt>0</asrwt>
<pdfrwt beam="1">  1        2 0.43120891E+00 0.44506090E+04</pdfrwt>
<pdfrwt beam="2">  1       -2 0.27180938E+00 0.44506090E+04</pdfrwt>
<totfact> 0.82768012E-02</totfact>
</mgrwt>
</event>
<event>
12    3  0.8686020E-008  0.2169199E+04  0.7818608E-02  0.8531359E-01
          2   -1    0    0  501    0  0.00000000000E+00  0.00000000000E+00  0.13610209440E+04  0.13610209440E+04  0.00000000000E+00 0. -1.
         -2   -1    0    0    0  501 -0.00000000000E+00 -0.00000000000E+00 -0.86431900417E+03  0.86431900417E+03  0.00000000000E+00 0.  1.
         23    2    1    2    0    0  0.89102503430E+02  0.63486573996E+03  0.84479616188E+03  0.10643187959E+04  0.90001001468E+02 0.  0.
        254    2    1    2    0    0 -0.89102503430E+02 -0.63486573996E+03 -0.34809422204E+03  0.11610211523E+04  0.90322021941E+03 0.  0.
         23    2    4    4    0    0 -0.31363657043E+03 -0.24192491175E+03 -0.52743213628E+03  0.66599493844E+03  0.92027378567E+02 0.  0.
         23    2    4    4    0    0  0.22453406700E+03 -0.39294082821E+03  0.17933791424E+03  0.49502621384E+03  0.89837760398E+02 0.  0.
          3    1    3    3  502    0  0.11994242240E+02  0.27402438519E+03  0.42015199090E+03  0.50175783101E+03  0.00000000000E+00 0. -1.
         -3    1    3    3    0  502  0.77108261190E+02  0.36084135477E+03  0.42464417098E+03  0.56256096488E+03  0.00000000000E+00 0.  1.
         13    1    5    5    0    0 -0.91211740373E+02 -0.22155950485E+02 -0.11554383184E+03  0.14886519002E+03  0.00000000000E+00 0. -1.
        -13    1    5    5    0    0 -0.22242483006E+03 -0.21976896127E+03 -0.41188830444E+03  0.51712974842E+03  0.00000000000E+00 0.  1.
          1    1    6    6  503    0  0.51439558416E+02 -0.12077439861E+03  0.12447457830E+02  0.13186137697E+03  0.00000000000E+00 0. -1.
         -1    1    6    6    0  503  0.17309450859E+03 -0.27216642959E+03  0.16689045641E+03  0.36316483687E+03  0.00000000000E+00 0.  1.
<mgrwt>
<rscale>  0 0.21691992E+04</rscale>
<asrwt>0</asrwt>
<pdfrwt beam="1">  1        2 0.20938784E+00 0.21691992E+04</pdfrwt>
<pdfrwt beam="2">  1       -2 0.13297215E+00 0.21691992E+04</pdfrwt>
<totfact> 0.57263866E+00</totfact>
</mgrwt>
</event>
<event>
12    3  0.8686020E-008  0.1992820E+04  0.7818608E-02  0.8609985E-01
         -2   -1    0    0    0  501 -0.00000000000E+00  0.00000000000E+00  0.11795154464E+04  0.11795154464E+04  0.00000000000E+00 0.  1.
          2   -1    0    0  501    0  0.00000000000E+00 -0.00000000000E+00 -0.84172943013E+03  0.84172943013E+03  0.00000000000E+00 0. -1.
         23    2    1    2    0    0  0.30996435387E+03  0.59744864777E+03 -0.28641473422E+03  0.73646700839E+03  0.85600625451E+02 0.  0.
        254    2    1    2    0    0 -0.30996435387E+03 -0.59744864777E+03  0.62420075050E+03  0.12847778682E+04  0.89889087558E+03 0.  0.
         23    2    4    4    0    0 -0.10346341681E+03 -0.28088285439E+03  0.79852128572E+03  0.85766079598E+03  0.91356120294E+02 0.  0.
         23    2    4    4    0    0 -0.20650093706E+03 -0.31656579338E+03 -0.17432053522E+03  0.42711707218E+03  0.95837392510E+02 0.  0.
          2    1    3    3  502    0  0.92870766435E+02  0.24919238537E+03 -0.84031676555E+02  0.27889630125E+03  0.00000000000E+00 0. -1.
         -2    1    3    3    0  502  0.21709358743E+03  0.34825626240E+03 -0.20238305766E+03  0.45757070714E+03  0.00000000000E+00 0.  1.
         13    1    5    5    0    0 -0.63154300742E+01 -0.11173329002E+03  0.21472072185E+03  0.24213467564E+03  0.00000000000E+00 0.  1.
        -13    1    5    5    0    0 -0.97147986736E+02 -0.16914956438E+03  0.58380056387E+03  0.61552612034E+03  0.00000000000E+00 0. -1.
          2    1    6    6  503    0 -0.14016410860E+03 -0.28244198555E+03 -0.13938125303E+03  0.34474133236E+03  0.00000000000E+00 0. -1.
         -2    1    6    6    0  503 -0.66336828458E+02 -0.34123807829E+02 -0.34939282182E+02  0.82375739815E+02  0.00000000000E+00 0.  1.
<mgrwt>
<rscale>  0 0.19928200E+04</rscale>
<asrwt>0</asrwt>
<pdfrwt beam="1">  1        2 0.12949684E+00 0.19928200E+04</pdfrwt>
<pdfrwt beam="2">  1       -2 0.18146392E+00 0.19928200E+04</pdfrwt>
<totfact> 0.52948042E+00</totfact>
</mgrwt>
</event>
<event>
12    3  0.8686020E-008  0.1182732E+04  0.7818608E-02  0.9128107E-01
          2   -1    0    0  501    0  0.00000000000E+00  0.00000000000E+00  0.13076347206E+04  0.13076347206E+04  0.00000000000E+00 0. -1.
         -2   -1    0    0    0  501 -0.00000000000E+00 -0.00000000000E+00 -0.26744007978E+03  0.26744007978E+03  0.00000000000E+00 0.  1.
         23    2    1    2    0    0  0.18531747992E+03  0.10673276062E+03  0.35408125659E+03  0.42339373384E+03  0.90300980208E+02 0.  0.
        254    2    1    2    0    0 -0.18531747992E+03 -0.10673276062E+03  0.68611338419E+03  0.11516810665E+04  0.89993513789E+03 0.  0.
         23    2    4    4    0    0 -0.44001145928E+02 -0.44806202985E+03  0.12737629710E+03  0.47651442452E+03  0.90252935002E+02 0.  0.
         23    2    4    4    0    0 -0.14131633399E+03  0.34132926922E+03  0.55873708708E+03  0.67516664198E+03  0.84775501646E+02 0.  0.
          4    1    3    3  502    0  0.10900647370E+03  0.34854073801E+02  0.11453141099E+03  0.16190942490E+03  0.00000000000E+00 0. -1.
         -4    1    3    3    0  502  0.76311006223E+02  0.71878686822E+02  0.23954984561E+03  0.26148430894E+03  0.00000000000E+00 0.  1.
         13    1    5    5    0    0 -0.54920039472E+02 -0.38170991300E+03  0.78928294233E+02  0.39363478511E+03  0.00000000000E+00 0.  1.
        -13    1    5    5    0    0  0.10918893544E+02 -0.66352116842E+02  0.48448002868E+02  0.82879639403E+02  0.00000000000E+00 0. -1.
          2    1    6    6  503    0 -0.10787159806E+03  0.15288131372E+03  0.25838179204E+03  0.31901430722E+03  0.00000000000E+00 0. -1.
         -2    1    6    6    0  503 -0.33444735933E+02  0.18844795551E+03  0.30035529504E+03  0.35615233476E+03  0.00000000000E+00 0.  1.
<mgrwt>
<rscale>  0 0.11827323E+04</rscale>
<asrwt>0</asrwt>
<pdfrwt beam="1">  1        2 0.20117457E+00 0.11827323E+04</pdfrwt>
<pdfrwt beam="2">  1       -2 0.41144629E-01 0.11827323E+04</pdfrwt>
<totfact> 0.90383088E+01</totfact>
</mgrwt>
</event>
<event>
12    3  0.8686020E-008  0.1224122E+04  0.7818608E-02  0.9092001E-01
          3   -1    0    0  501    0  0.00000000000E+00  0.00000000000E+00  0.55237799382E+03  0.55237799382E+03  0.00000000000E+00 0. -1.
         -3   -1    0    0    0  501 -0.00000000000E+00 -0.00000000000E+00 -0.67819245835E+03  0.67819245835E+03  0.00000000000E+00 0.  1.
         23    2    1    2    0    0  0.25905591784E+02  0.10490129070E+03 -0.28557757282E+03  0.31891469732E+03  0.92068743855E+02 0.  0.
        254    2    1    2    0    0 -0.25905591784E+02 -0.10490129070E+03  0.15976310829E+03  0.91165575485E+03  0.89101996841E+03 0.  0.
         23    2    4    4    0    0  0.59012987135E+02 -0.68964984376E+02 -0.35641500612E+03  0.37852991629E+03  0.89523958903E+02 0.  0.
         23    2    4    4    0    0 -0.84918578919E+02 -0.35936306326E+02  0.51617811441E+03  0.53312583856E+03  0.96336549572E+02 0.  0.
          3    1    3    3  502    0  0.11414401215E+02  0.11168805994E+03 -0.18008059314E+03  0.21221105370E+03  0.00000000000E+00 0. -1.
         -3    1    3    3    0  502  0.14491190569E+02 -0.67867692339E+01 -0.10549697968E+03  0.10670364363E+03  0.00000000000E+00 0.  1.
         13    1    5    5    0    0  0.16632220912E+02 -0.11664464387E+02 -0.63508536499E+01  0.21284356791E+02  0.00000000000E+00 0. -1.
        -13    1    5    5    0    0  0.42380766223E+02 -0.57300519989E+02 -0.35006415247E+03  0.35724555950E+03  0.00000000000E+00 0.  1.
          1    1    6    6  503    0 -0.90586711653E+02 -0.10054607644E+02  0.25865652650E+03  0.27424486533E+03  0.00000000000E+00 0. -1.
         -1    1    6    6    0  503  0.56681327339E+01 -0.25881698683E+02  0.25752158791E+03  0.25888097322E+03  0.00000000000E+00 0.  1.
<mgrwt>
<rscale>  0 0.12241219E+04</rscale>
<asrwt>0</asrwt>
<pdfrwt beam="1">  1        3 0.84981230E-01 0.12241219E+04</pdfrwt>
<pdfrwt beam="2">  1       -3 0.10433730E+00 0.12241219E+04</pdfrwt>
<totfact> 0.25946656E+00</totfact>
</mgrwt>
</event>
<event>
12    3  0.8686020E-008  0.1199052E+04  0.7818608E-02  0.9113686E-01
         -1   -1    0    0    0  501 -0.00000000000E+00  0.00000000000E+00  0.14635237336E+03  0.14635237336E+03  0.00000000000E+00 0.  1.
          1   -1    0    0  501    0  0.00000000000E+00 -0.00000000000E+00 -0.24559331316E+04  0.24559331316E+04  0.00000000000E+00 0. -1.
         23    2    1    2    0    0  0.58969427535E+02  0.12966112519E+03 -0.68629127980E+02  0.18296563922E+03  0.92070989788E+02 0.  0.
        254    2    1    2    0    0 -0.58969427535E+02 -0.12966112519E+03 -0.22409516302E+04  0.24193198657E+04  0.90053040084E+03 0.  0.
         23    2    4    4    0    0  0.23997848582E+03 -0.94335063903E+02 -0.20103690265E+04  0.20290627875E+04  0.94991550197E+02 0.  0.
         23    2    4    4    0    0 -0.29894791336E+03 -0.35326061282E+02 -0.23058260367E+03  0.39025707825E+03  0.92273855995E+02 0.  0.
          2    1    3    3  502    0  0.26929484279E+02  0.90379753211E+02 -0.87722395526E+02  0.12879796423E+03  0.00000000000E+00 0. -1.
         -2    1    3    3    0  502  0.32039943256E+02  0.39281371975E+02  0.19093267546E+02  0.54167674988E+02  0.00000000000E+00 0.  1.
         13    1    5    5    0    0  0.48446250766E+02 -0.51748388338E+02 -0.77181872424E+03  0.77506714419E+03  0.00000000000E+00 0.  1.
        -13    1    5    5    0    0  0.19153223505E+03 -0.42586675565E+02 -0.12385503023E+04  0.12539956433E+04  0.00000000000E+00 0. -1.
          4    1    6    6  503    0 -0.18003221899E+03 -0.90334888723E+01 -0.18995781438E+03  0.26187244040E+03  0.00000000000E+00 0. -1.
         -4    1    6    6    0  503 -0.11891569437E+03 -0.26292572410E+02 -0.40624789291E+02  0.12838463785E+03  0.00000000000E+00 0.  1.
<mgrwt>
<rscale>  0 0.11990524E+04</rscale>
<asrwt>0</asrwt>
<pdfrwt beam="1">  1        1 0.37783585E+00 0.11990524E+04</pdfrwt>
<pdfrwt beam="2">  1       -1 0.22515751E-01 0.11990524E+04</pdfrwt>
<totfact> 0.24237278E+01</totfact>
</mgrwt>
</event>
<event>
12    3  0.8686020E-008  0.2103160E+04  0.7818608E-02  0.8559853E-01
          1   -1    0    0  501    0  0.00000000000E+00  0.00000000000E+00  0.39243796097E+04  0.39243796097E+04  0.00000000000E+00 0. -1.
         -1   -1    0    0    0  501 -0.00000000000E+00 -0.00000000000E+00 -0.28178218265E+03  0.28178218265E+03  0.00000000000E+00 0.  1.
         23    2    1    2    0    0  0.56776789686E+01 -0.79985263891E+03  0.21071860852E+04  0.22557298797E+04  0.91036324982E+02 0.  0.
        254    2    1    2    0    0 -0.56776789686E+01  0.79985263891E+03  0.15354113418E+04  0.19504319126E+04  0.89827622543E+03 0.  0.
         23    2    4    4    0    0  0.10861726026E+02  0.98715320485E+03  0.13064956991E+04  0.16401191305E+04  0.92034359625E+02 0.  0.
         23    2    4    4    0    0 -0.16539404994E+02 -0.18730056595E+03  0.22891564271E+03  0.31031278217E+03  0.92393708527E+02 0.  0.
          1    1    3    3  502    0  0.34634652690E+01 -0.60783528409E+03  0.17034883735E+04  0.18086869179E+04  0.00000000000E+00 0. -1.
         -1    1    3    3    0  502  0.22142136996E+01 -0.19201735482E+03  0.40369771168E+03  0.44704296182E+03  0.00000000000E+00 0.  1.
         13    1    5    5    0    0  0.41327548909E+02  0.81282824761E+03  0.10498783220E+04  0.13283983655E+04  0.00000000000E+00 0.  1.
        -13    1    5    5    0    0 -0.30465822883E+02  0.17432495725E+03  0.25661737707E+03  0.31172076495E+03  0.00000000000E+00 0. -1.
          2    1    6    6  503    0 -0.54919627200E+02 -0.11756156373E+03  0.14741927803E+03  0.19639075908E+03  0.00000000000E+00 0.  1.
         -2    1    6    6    0  503  0.38380222206E+02 -0.69739002222E+02  0.81496364686E+02  0.11392202309E+03  0.00000000000E+00 0. -1.
<mgrwt>
<rscale>  0 0.21031598E+04</rscale>
<asrwt>0</asrwt>
<pdfrwt beam="1">  1        1 0.60375067E+00 0.21031598E+04</pdfrwt>
<pdfrwt beam="2">  1       -1 0.43351108E-01 0.21031598E+04</pdfrwt>
<totfact> 0.54253887E-01</totfact>
</mgrwt>
</event>
<event>
12    3  0.8686020E-008  0.2390963E+04  0.7818608E-02  0.8442894E-01
          1   -1    0    0  501    0  0.00000000000E+00  0.00000000000E+00  0.14386601533E+04  0.14386601533E+04  0.00000000000E+00 0. -1.
         -1   -1    0    0    0  501 -0.00000000000E+00 -0.00000000000E+00 -0.99340798591E+03  0.99340798591E+03  0.00000000000E+00 0.  1.
         23    2    1    2    0    0 -0.35851515454E+03  0.85841450499E+03  0.63066975988E+03  0.11276641312E+04  0.92051444017E+02 0.  0.
        254    2    1    2    0    0  0.35851515454E+03 -0.85841450499E+03 -0.18541759252E+03  0.13044040080E+04  0.89536671482E+03 0.  0.
         23    2    4    4    0    0  0.47007128099E+03 -0.88753444526E+02 -0.18805521844E+03  0.52227949095E+03  0.92557648850E+02 0.  0.
         23    2    4    4    0    0 -0.11155612645E+03 -0.76966106046E+03  0.26376259204E+01  0.78212451702E+03  0.82999311584E+02 0.  0.
          3    1    3    3  502    0 -0.10993391027E+03  0.29533859038E+03  0.16405646515E+03  0.35528139742E+03  0.00000000000E+00 0. -1.
         -3    1    3    3    0  502 -0.24858124427E+03  0.56307591461E+03  0.46661329473E+03  0.77238273377E+03  0.00000000000E+00 0.  1.
         13    1    5    5    0    0  0.12196820152E+03 -0.43576432335E+02 -0.90331330752E+02  0.15790787489E+03  0.00000000000E+00 0. -1.
        -13    1    5    5    0    0  0.34810307947E+03 -0.45177012192E+02 -0.97723887687E+02  0.36437161606E+03  0.00000000000E+00 0.  1.
          4    1    6    6  503    0 -0.72145923357E+02 -0.46281903794E+03  0.41907868561E+02  0.47027945477E+03  0.00000000000E+00 0. -1.
         -4    1    6    6    0  503 -0.39410203092E+02 -0.30684202252E+03 -0.39270242640E+02  0.31184506225E+03  0.00000000000E+00 0.  1.
<mgrwt>
<rscale>  0 0.23909634E+04</rscale>
<asrwt>0</asrwt>
<pdfrwt beam="1">  1        1 0.22133233E+00 0.23909634E+04</pdfrwt>
<pdfrwt beam="2">  1       -1 0.15283200E+00 0.23909634E+04</pdfrwt>
<totfact> 0.21469356E+00</totfact>
</mgrwt>
</event>
<event>
12    3  0.8686020E-008  0.2508760E+04  0.7818608E-02  0.8399872E-01
          2   -1    0    0  501    0  0.00000000000E+00  0.00000000000E+00  0.15309325190E+04  0.15309325190E+04  0.00000000000E+00 0. -1.
         -2   -1    0    0    0  501 -0.00000000000E+00 -0.00000000000E+00 -0.10277844568E+04  0.10277844568E+04  0.00000000000E+00 0.  1.
         23    2    1    2    0    0  0.21343813724E+03 -0.10025395580E+04 -0.15990606941E+03  0.10413273813E+04  0.90284883965E+02 0.  0.
        254    2    1    2    0    0 -0.21343813724E+03  0.10025395580E+04  0.66305413156E+03  0.15173895945E+04  0.90121528852E+03 0.  0.
         23    2    4    4    0    0 -0.30104914355E+03  0.79959664790E+02  0.46255310522E+03  0.56506485841E+03  0.91207369353E+02 0.  0.
         23    2    4    4    0    0  0.87611006314E+02  0.92257989324E+03  0.20050102634E+03  0.95232473609E+03  0.88839144373E+02 0.  0.
          1    1    3    3  502    0  0.13428269802E+02 -0.17668632409E+03 -0.29215468266E+01  0.17721995087E+03  0.00000000000E+00 0. -1.
         -1    1    3    3    0  502  0.20000986744E+03 -0.82585323394E+03 -0.15698452258E+03  0.86410743048E+03  0.00000000000E+00 0.  1.
         13    1    5    5    0    0 -0.24810006185E+03  0.33918613217E+02  0.32139833023E+03  0.40743220256E+03  0.00000000000E+00 0. -1.
        -13    1    5    5    0    0 -0.52949081702E+02  0.46041051574E+02  0.14115477500E+03  0.15763265584E+03  0.00000000000E+00 0.  1.
          4    1    6    6  503    0  0.81266851538E+02  0.67016687878E+03  0.18186952397E+03  0.69914552872E+03  0.00000000000E+00 0. -1.
         -4    1    6    6    0  503  0.63441547760E+01  0.25241301446E+03  0.18631502375E+02  0.25317920737E+03  0.00000000000E+00 0.  1.
<mgrwt>
<rscale>  0 0.25087596E+04</rscale>
<asrwt>0</asrwt>
<pdfrwt beam="1">  1        2 0.23552808E+00 0.25087596E+04</pdfrwt>
<pdfrwt beam="2">  1       -2 0.15812069E+00 0.25087596E+04</pdfrwt>
<totfact> 0.28273087E+00</totfact>
</mgrwt>
</event>
<event>
12    3  0.8686020E-008  0.1743882E+04  0.7818608E-02  0.8736725E-01
          2   -1    0    0  501    0  0.00000000000E+00  0.00000000000E+00  0.14385523256E+04  0.14385523256E+04  0.00000000000E+00 0. -1.
         -2   -1    0    0    0  501 -0.00000000000E+00 -0.00000000000E+00 -0.52850432498E+03  0.52850432498E+03  0.00000000000E+00 0.  1.
         23    2    1    2    0    0 -0.35081886006E+03 -0.50608775702E+03  0.52266545000E+03  0.81322975118E+03  0.94682443967E+02 0.  0.
        254    2    1    2    0    0  0.35081886006E+03  0.50608775702E+03  0.38738255059E+03  0.11538268994E+04  0.89557388464E+03 0.  0.
         23    2    4    4    0    0 -0.26473114596E+03  0.88271841723E+01  0.34890173435E+02  0.28273364960E+03  0.92522935483E+02 0.  0.
         23    2    4    4    0    0  0.61555000602E+03  0.49726057285E+03  0.35249237715E+03  0.87109324978E+03  0.91557013066E+02 0.  0.
          1    1    3    3  502    0 -0.26394438682E+03 -0.41046226352E+03  0.45579836186E+03  0.66775598521E+03  0.00000000000E+00 0. -1.
         -1    1    3    3    0  502 -0.86874473248E+02 -0.95625493495E+02  0.66867088134E+02  0.14547376596E+03  0.00000000000E+00 0.  1.
         13    1    5    5    0    0 -0.17599889440E+03 -0.91113807598E+01  0.64224107858E+02  0.18757229038E+03  0.00000000000E+00 0.  1.
        -13    1    5    5    0    0 -0.88732251561E+02  0.17938564932E+02 -0.29333934423E+02  0.95161359215E+02  0.00000000000E+00 0. -1.
          1    1    6    6  503    0  0.16208726087E+03  0.82728706740E+02  0.89341119509E+02  0.20272679816E+03  0.00000000000E+00 0. -1.
         -1    1    6    6    0  503  0.45346274515E+03  0.41453186611E+03  0.26315125764E+03  0.66836645162E+03  0.00000000000E+00 0.  1.
<mgrwt>
<rscale>  0 0.17438820E+04</rscale>
<asrwt>0</asrwt>
<pdfrwt beam="1">  1        2 0.22131574E+00 0.17438820E+04</pdfrwt>
<pdfrwt beam="2">  1       -2 0.81308358E-01 0.17438820E+04</pdfrwt>
<totfact> 0.17382731E+01</totfact>
</mgrwt>
</event>
<event>
12    3  0.8686020E-008  0.3963872E+04  0.7818608E-02  0.8011875E-01
          2   -1    0    0  501    0  0.00000000000E+00  0.00000000000E+00  0.20045422497E+04  0.20045422497E+04  0.00000000000E+00 0. -1.
         -2   -1    0    0    0  501 -0.00000000000E+00 -0.00000000000E+00 -0.19595848939E+04  0.19595848939E+04  0.00000000000E+00 0.  1.
         23    2    1    2    0    0  0.16328413057E+04 -0.74942774064E+03 -0.52700051971E+03  0.18745084984E+04  0.90773866496E+02 0.  0.
        254    2    1    2    0    0 -0.16328413057E+04  0.74942774064E+03  0.57195787550E+03  0.20896186452E+04  0.90086491937E+03 0.  0.
         23    2    4    4    0    0 -0.78041235019E+03 -0.13613281691E+02 -0.44095171705E+02  0.78706160623E+03  0.91064977138E+02 0.  0.
         23    2    4    4    0    0 -0.85242895554E+03  0.76304102233E+03  0.61605304720E+03  0.13025570390E+04  0.90921707218E+02 0.  0.
          2    1    3    3  502    0  0.10584987184E+04 -0.51820523044E+03 -0.37824183874E+03  0.12377492017E+04  0.00000000000E+00 0.  1.
         -2    1    3    3    0  502  0.57434258733E+03 -0.23122251020E+03 -0.14875868098E+03  0.63675929676E+03  0.00000000000E+00 0. -1.
         13    1    5    5    0    0 -0.50706687716E+03  0.12155580974E+02 -0.66680298499E+02  0.51157681561E+03  0.00000000000E+00 0.  1.
        -13    1    5    5    0    0 -0.27334547303E+03 -0.25768862664E+02  0.22585126794E+02  0.27548479062E+03  0.00000000000E+00 0. -1.
          4    1    6    6  503    0 -0.40087713741E+03  0.30765345863E+03  0.24415846456E+03  0.56121875033E+03  0.00000000000E+00 0. -1.
         -4    1    6    6    0  503 -0.45155181813E+03  0.45538756370E+03  0.37189458265E+03  0.74133828866E+03  0.00000000000E+00 0.  1.
<mgrwt>
<rscale>  0 0.39638722E+04</rscale>
<asrwt>0</asrwt>
<pdfrwt beam="1">  1        2 0.30839112E+00 0.39638722E+04</pdfrwt>
<pdfrwt beam="2">  1       -2 0.30147460E+00 0.39638722E+04</pdfrwt>
<totfact> 0.16360047E-01</totfact>
</mgrwt>
</event>
<event>
12    3  0.8686020E-008  0.1620522E+04  0.7818608E-02  0.8808039E-01
          1   -1    0    0  501    0  0.00000000000E+00  0.00000000000E+00  0.12864126124E+04  0.12864126124E+04  0.00000000000E+00 0. -1.
         -1   -1    0    0    0  501 -0.00000000000E+00 -0.00000000000E+00 -0.51035182075E+03  0.51035182075E+03  0.00000000000E+00 0.  1.
         23    2    1    2    0    0  0.48439745483E+03 -0.11624502155E+03  0.54082966904E+03  0.74086188613E+03  0.90696218939E+02 0.  0.
        254    2    1    2    0    0 -0.48439745483E+03  0.11624502155E+03  0.23523112257E+03  0.10559025470E+04  0.90080114810E+03 0.  0.
         23    2    4    4    0    0 -0.34166368412E+03  0.43050268153E+03 -0.99583498178E+02  0.56627562715E+03  0.93191099006E+02 0.  0.
         23    2    4    4    0    0 -0.14273377071E+03 -0.31425765998E+03  0.33481462075E+03  0.48962691984E+03  0.92211085067E+02 0.  0.
          2    1    3    3  502    0  0.41364414681E+03 -0.99972889628E+02  0.40830169826E+03  0.58975107940E+03  0.00000000000E+00 0.  1.
         -2    1    3    3    0  502  0.70753308020E+02 -0.16272131927E+02  0.13252797077E+03  0.15111080673E+03  0.00000000000E+00 0. -1.
         13    1    5    5    0    0 -0.14026206447E+03  0.23767203919E+03 -0.21979629175E+02  0.27684751948E+03  0.00000000000E+00 0. -1.
        -13    1    5    5    0    0 -0.20140161965E+03  0.19283064235E+03 -0.77603869003E+02  0.28942810767E+03  0.00000000000E+00 0.  1.
          1    1    6    6  503    0 -0.68520390190E+02 -0.23087680266E+03  0.18983296552E+03  0.30665240367E+03  0.00000000000E+00 0. -1.
         -1    1    6    6    0  503 -0.74213380518E+02 -0.83380857320E+02  0.14498165523E+03  0.18297451617E+03  0.00000000000E+00 0.  1.
<mgrwt>
<rscale>  0 0.16205222E+04</rscale>
<asrwt>0</asrwt>
<pdfrwt beam="1">  1        1 0.19790963E+00 0.16205222E+04</pdfrwt>
<pdfrwt beam="2">  1       -1 0.78515666E-01 0.16205222E+04</pdfrwt>
<totfact> 0.14385377E+01</totfact>
</mgrwt>
</event>
<event>
12    3  0.8686020E-008  0.3735402E+04  0.7818608E-02  0.8060161E-01
          2   -1    0    0  501    0  0.00000000000E+00  0.00000000000E+00  0.17206144910E+04  0.17206144910E+04  0.00000000000E+00 0. -1.
         -2   -1    0    0    0  501 -0.00000000000E+00 -0.00000000000E+00 -0.20273613062E+04  0.20273613062E+04  0.00000000000E+00 0.  1.
         23    2    1    2    0    0 -0.83403124406E+03  0.14967031260E+04  0.24910540331E+03  0.17340300847E+04  0.95281001108E+02 0.  0.
        254    2    1    2    0    0  0.83403124406E+03 -0.14967031260E+04 -0.55585221847E+03  0.20139457125E+04  0.90070932084E+03 0.  0.
         23    2    4    4    0    0  0.83951371313E+03 -0.64122926938E+03 -0.43109012886E+03  0.11447513431E+04  0.93052070930E+02 0.  0.
         23    2    4    4    0    0 -0.54824690744E+01 -0.85547385661E+03 -0.12476208961E+03  0.86919436938E+03  0.89820353709E+02 0.  0.
          4    1    3    3  502    0 -0.57395159885E+03  0.99713418235E+03  0.20937064176E+03  0.11694157007E+04  0.00000000000E+00 0. -1.
         -4    1    3    3    0  502 -0.26007964521E+03  0.49956894364E+03  0.39734761548E+02  0.56461438396E+03  0.00000000000E+00 0.  1.
         13    1    5    5    0    0  0.39146695472E+03 -0.32486774639E+03 -0.16246841402E+03  0.53402379613E+03  0.00000000000E+00 0. -1.
        -13    1    5    5    0    0  0.44804675842E+03 -0.31636152299E+03 -0.26862171484E+03  0.61072754698E+03  0.00000000000E+00 0.  1.
          4    1    6    6  503    0 -0.43300247104E+02 -0.63084353381E+03 -0.96760424768E+02  0.63968824856E+03  0.00000000000E+00 0. -1.
         -4    1    6    6    0  503  0.37817778030E+02 -0.22463032280E+03 -0.28001664846E+02  0.22950612081E+03  0.00000000000E+00 0.  1.
<mgrwt>
<rscale>  0 0.37354021E+04</rscale>
<asrwt>0</asrwt>
<pdfrwt beam="1">  1        2 0.26470992E+00 0.37354021E+04</pdfrwt>
<pdfrwt beam="2">  1       -2 0.31190174E+00 0.37354021E+04</pdfrwt>
<totfact> 0.20678460E-01</totfact>
</mgrwt>
</event>
<event>
12    3  0.8686020E-008  0.2335143E+04  0.7818608E-02  0.8464192E-01
          2   -1    0    0  501    0  0.00000000000E+00  0.00000000000E+00  0.24426685713E+04  0.24426685713E+04  0.00000000000E+00 0. -1.
         -2   -1    0    0    0  501 -0.00000000000E+00 -0.00000000000E+00 -0.55808757199E+03  0.55808757199E+03  0.00000000000E+00 0.  1.
         23    2    1    2    0    0  0.73257653481E+03  0.27021830632E+03  0.17465569732E+02  0.78631949404E+03  0.91142680169E+02 0.  0.
        254    2    1    2    0    0 -0.73257653481E+03 -0.27021830632E+03  0.18671154296E+04  0.22144366492E+04  0.89884555609E+03 0.  0.
         23    2    4    4    0    0 -0.87165836209E+03 -0.13128179786E+03  0.10765696649E+04  0.13946028653E+04  0.94295799081E+02 0.  0.
         23    2    4    4    0    0  0.13908182727E+03 -0.13893650846E+03  0.79054576463E+03  0.81983378396E+03  0.92291490859E+02 0.  0.
          4    1    3    3  502    0  0.50613323612E+03  0.17649883802E+03  0.53192804793E+02  0.53865774571E+03  0.00000000000E+00 0. -1.
         -4    1    3    3    0  502  0.22644329869E+03  0.93719468298E+02 -0.35727235061E+02  0.24766174833E+03  0.00000000000E+00 0.  1.
         13    1    5    5    0    0 -0.58857399840E+03 -0.63484331700E+02  0.77801059487E+03  0.97762472232E+03  0.00000000000E+00 0. -1.
        -13    1    5    5    0    0 -0.28308436368E+03 -0.67797466158E+02  0.29855907007E+03  0.41697814295E+03  0.00000000000E+00 0.  1.
          4    1    6    6  503    0  0.95224059762E+02 -0.30157231987E+02  0.36208927823E+03  0.37561379848E+03  0.00000000000E+00 0. -1.
         -4    1    6    6    0  503  0.43857767509E+02 -0.10877927648E+03  0.42845648640E+03  0.44421998548E+03  0.00000000000E+00 0.  1.
<mgrwt>
<rscale>  0 0.23351428E+04</rscale>
<asrwt>0</asrwt>
<pdfrwt beam="1">  1        2 0.37579516E+00 0.23351428E+04</pdfrwt>
<pdfrwt beam="2">  1       -2 0.85859628E-01 0.23351428E+04</pdfrwt>
<totfact> 0.39992715E+00</totfact>
</mgrwt>
</event>
<event>
12    3  0.8686020E-008  0.3517769E+04  0.7818608E-02  0.8109592E-01
          2   -1    0    0  501    0  0.00000000000E+00  0.00000000000E+00  0.14894249676E+04  0.14894249676E+04  0.00000000000E+00 0. -1.
         -2   -1    0    0    0  501 -0.00000000000E+00 -0.00000000000E+00 -0.20770934550E+04  0.20770934550E+04  0.00000000000E+00 0.  1.
         23    2    1    2    0    0 -0.59449276909E+03  0.11141979336E+04  0.78928793019E+03  0.14926117152E+04  0.10027765352E+03 0.  0.
        254    2    1    2    0    0  0.59449276909E+03 -0.11141979336E+04 -0.13769564175E+04  0.20739067074E+04  0.90012297357E+03 0.  0.
         23    2    4    4    0    0  0.77365073891E+03 -0.63220084006E+03 -0.10748081696E+04  0.14702935668E+04  0.91308286430E+02 0.  0.
         23    2    4    4    0    0 -0.17915796982E+03 -0.48199709356E+03 -0.30214824795E+03  0.60361314064E+03  0.92932682383E+02 0.  0.
          3    1    3    3  502    0 -0.39935471591E+03  0.82261286430E+03  0.60323561708E+03  0.10954767562E+04  0.00000000000E+00 0. -1.
         -3    1    3    3    0  502 -0.19513805318E+03  0.29158506933E+03  0.18605231312E+03  0.39713495902E+03  0.00000000000E+00 0.  1.
         13    1    5    5    0    0  0.16298956367E+03 -0.17827343333E+03 -0.28496997258E+03  0.37357047551E+03  0.00000000000E+00 0. -1.
        -13    1    5    5    0    0  0.61066117524E+03 -0.45392740673E+03 -0.78983819700E+03  0.10967230913E+04  0.00000000000E+00 0.  1.
          2    1    6    6  503    0 -0.59097483292E+02 -0.27418007785E+03 -0.18945321139E+03  0.33846675897E+03  0.00000000000E+00 0.  1.
         -2    1    6    6    0  503 -0.12006048653E+03 -0.20781701572E+03 -0.11269503657E+03  0.26514638167E+03  0.00000000000E+00 0. -1.
<mgrwt>
<rscale>  0 0.35177691E+04</rscale>
<asrwt>0</asrwt>
<pdfrwt beam="1">  1        2 0.22914230E+00 0.35177691E+04</pdfrwt>
<pdfrwt beam="2">  1       -2 0.31955284E+00 0.35177691E+04</pdfrwt>
<totfact> 0.25441245E-01</totfact>
</mgrwt>
</event>
<event>
12    3  0.8686020E-008  0.2405667E+04  0.7818608E-02  0.8437385E-01
          2   -1    0    0  501    0  0.00000000000E+00  0.00000000000E+00  0.16084291861E+04  0.16084291861E+04  0.00000000000E+00 0. -1.
         -2   -1    0    0    0  501 -0.00000000000E+00 -0.00000000000E+00 -0.89951613669E+03  0.89951613669E+03  0.00000000000E+00 0.  1.
         23    2    1    2    0    0 -0.87841511347E+03  0.30401197345E+03  0.77215136160E+03  0.12117487557E+04  0.89893994557E+02 0.  0.
        254    2    1    2    0    0  0.87841511347E+03 -0.30401197345E+03 -0.63238312155E+02  0.12961965671E+04  0.90116039906E+03 0.  0.
         23    2    4    4    0    0  0.14392268500E+03 -0.40699459693E+03  0.22477372872E+03  0.49531053407E+03  0.91929075090E+02 0.  0.
         23    2    4    4    0    0  0.73449242847E+03  0.10298262348E+03 -0.28801204088E+03  0.80088603302E+03  0.91558472992E+02 0.  0.
          1    1    3    3  502    0 -0.37729694568E+03  0.15803646234E+03  0.38664462066E+03  0.56286994175E+03  0.00000000000E+00 0. -1.
         -1    1    3    3    0  502 -0.50111816780E+03  0.14597551111E+03  0.38550674094E+03  0.64887881399E+03  0.00000000000E+00 0.  1.
         13    1    5    5    0    0  0.15042725735E+03 -0.35723147252E+03  0.17733415039E+03  0.42625120013E+03  0.00000000000E+00 0. -1.
        -13    1    5    5    0    0 -0.65045723493E+01 -0.49763124407E+02  0.47439578329E+02  0.69059333940E+02  0.00000000000E+00 0.  1.
          4    1    6    6  503    0  0.52557158986E+03  0.11448754619E+03 -0.21505585060E+03  0.57929432344E+03  0.00000000000E+00 0. -1.
         -4    1    6    6    0  503  0.20892083861E+03 -0.11504922703E+02 -0.72956190277E+02  0.22159170958E+03  0.00000000000E+00 0.  1.
<mgrwt>
<rscale>  0 0.24056666E+04</rscale>
<asrwt>0</asrwt>
<pdfrwt beam="1">  1        2 0.24745064E+00 0.24056666E+04</pdfrwt>
<pdfrwt beam="2">  1       -2 0.13838710E+00 0.24056666E+04</pdfrwt>
<totfact> 0.36705290E+00</totfact>
</mgrwt>
</event>
<event>
12    3  0.8751652E-008  0.2485690E+04  0.7818608E-02  0.8408101E-01
          2   -1    0    0  501    0  0.00000000000E+00  0.00000000000E+00  0.24811625531E+04  0.24811625531E+04  0.00000000000E+00 0. -1.
         -2   -1    0    0    0  501 -0.00000000000E+00 -0.00000000000E+00 -0.62255652877E+03  0.62255652877E+03  0.00000000000E+00 0.  1.
         23    2    1    2    0    0 -0.68974751613E+03  0.52828588601E+03  0.12419116395E+02  0.87366976894E+03  0.91142840269E+02 0.  0.
        254    2    1    2    0    0  0.68974751613E+03 -0.52828588601E+03  0.18461869079E+04  0.22300493129E+04  0.89993123389E+03 0.  0.
         23    2    4    4    0    0  0.11754376718E+03 -0.55731319071E+03  0.13452698526E+04  0.14636926794E+04  0.90723501806E+02 0.  0.
         23    2    4    4    0    0  0.57220374895E+03  0.29027304692E+02  0.50091705538E+03  0.76635663355E+03  0.90138108908E+02 0.  0.
          1    1    3    3  502    0 -0.46307178755E+03  0.33253757783E+03  0.47730371190E+02  0.57209694058E+03  0.00000000000E+00 0. -1.
         -1    1    3    3    0  502 -0.22667572859E+03  0.19574830819E+03 -0.35311254795E+02  0.30157282836E+03  0.00000000000E+00 0.  1.
         13    1    5    5    0    0 -0.12081830588E+02 -0.20376040699E+02  0.71263315214E+02  0.75097361873E+02  0.00000000000E+00 0. -1.
        -13    1    5    5    0    0  0.12962559777E+03 -0.53693715001E+03  0.12740065373E+04  0.13885953175E+04  0.00000000000E+00 0.  1.
          4    1    6    6  503    0  0.14826627226E+02  0.19447005135E+01 -0.20646514022E+01  0.15095480132E+02  0.00000000000E+00 0. -1.
         -4    1    6    6    0  503  0.55737712172E+03  0.27082604179E+02  0.50298170678E+03  0.75126115341E+03  0.00000000000E+00 0.  1.
<mgrwt>
<rscale>  0 0.24856902E+04</rscale>
<asrwt>0</asrwt>
<pdfrwt beam="1">  1        2 0.38171731E+00 0.24856902E+04</pdfrwt>
<pdfrwt beam="2">  1       -2 0.95777929E-01 0.24856902E+04</pdfrwt>
<totfact> 0.29141073E+00</totfact>
</mgrwt>
</event>
<event>
12    3  0.8686020E-008  0.1697605E+04  0.7818608E-02  0.8762731E-01
          2   -1    0    0  501    0  0.00000000000E+00  0.00000000000E+00  0.10425929093E+04  0.10425929093E+04  0.00000000000E+00 0. -1.
         -2   -1    0    0    0  501 -0.00000000000E+00 -0.00000000000E+00 -0.69103298947E+03  0.69103298947E+03  0.00000000000E+00 0.  1.
         23    2    1    2    0    0 -0.32668711680E+03  0.35945179269E+03  0.49830027624E+03  0.70184952744E+03  0.91430467067E+02 0.  0.
        254    2    1    2    0    0  0.32668711680E+03 -0.35945179269E+03 -0.14674035640E+03  0.10317763713E+04  0.89838726879E+03 0.  0.
         23    2    4    4    0    0  0.61168036799E+03 -0.26566521109E+03  0.26459562056E+02  0.67362639939E+03  0.91332034712E+02 0.  0.
         23    2    4    4    0    0 -0.28499325120E+03 -0.93786581604E+02 -0.17319991846E+03  0.35814997195E+03  0.90863163826E+02 0.  0.
          4    1    3    3  502    0 -0.34340717169E+02  0.39889648605E+02  0.19273217469E+02  0.56052884253E+02  0.00000000000E+00 0. -1.
         -4    1    3    3    0  502 -0.29234639963E+03  0.31956214409E+03  0.47902705877E+03  0.64579664318E+03  0.00000000000E+00 0.  1.
         13    1    5    5    0    0  0.60324181356E+03 -0.27158021051E+03  0.20830347979E+02  0.66188397757E+03  0.00000000000E+00 0.  1.
        -13    1    5    5    0    0  0.84385544382E+01  0.59149994255E+01  0.56292140769E+01  0.11742421826E+02  0.00000000000E+00 0. -1.
          2    1    6    6  503    0 -0.10664301234E+03  0.48024249084E+01 -0.83347122755E+02  0.13543462717E+03  0.00000000000E+00 0. -1.
         -2    1    6    6    0  503 -0.17835023886E+03 -0.98589006513E+02 -0.89852795702E+02  0.22271534478E+03  0.00000000000E+00 0.  1.
<mgrwt>
<rscale>  0 0.16976055E+04</rscale>
<asrwt>0</asrwt>
<pdfrwt beam="1">  1        2 0.16039891E+00 0.16976055E+04</pdfrwt>
<pdfrwt beam="2">  1       -2 0.10631277E+00 0.16976055E+04</pdfrwt>
<totfact> 0.16068788E+01</totfact>
</mgrwt>
</event>
<event>
12    3  0.8686020E-008  0.2790890E+04  0.7818608E-02  0.8306102E-01
          2   -1    0    0  501    0  0.00000000000E+00  0.00000000000E+00  0.19089699447E+04  0.19089699447E+04  0.00000000000E+00 0.  1.
         -2   -1    0    0    0  501 -0.00000000000E+00 -0.00000000000E+00 -0.10200614420E+04  0.10200614420E+04  0.00000000000E+00 0. -1.
         23    2    1    2    0    0 -0.83921815443E+03  0.82506457345E+03 -0.33364529466E+02  0.11808707980E+04  0.91235895847E+02 0.  0.
        254    2    1    2    0    0  0.83921815443E+03 -0.82506457345E+03  0.92227303224E+03  0.17481605887E+04  0.90579204943E+03 0.  0.
         23    2    4    4    0    0  0.16642615213E+03  0.12396604474E+03 -0.46279190823E+02  0.23149283917E+03  0.91552862999E+02 0.  0.
         23    2    4    4    0    0  0.67279200230E+03 -0.94903061819E+03  0.96855222306E+03  0.15166677495E+04  0.94230892186E+02 0.  0.
          2    1    3    3  502    0 -0.49593049777E+03  0.42420863595E+03 -0.22489475902E+02  0.65299755126E+03  0.00000000000E+00 0. -1.
         -2    1    3    3    0  502 -0.34328765667E+03  0.40085593750E+03 -0.10875053564E+02  0.52787324675E+03  0.00000000000E+00 0.  1.
         13    1    5    5    0    0  0.62635440123E+02  0.83097774242E+02 -0.58336331913E+02  0.11929612762E+03  0.00000000000E+00 0. -1.
        -13    1    5    5    0    0  0.10379071201E+03  0.40868270500E+02  0.12057141090E+02  0.11219671156E+03  0.00000000000E+00 0.  1.
          2    1    6    6  503    0  0.26947865518E+03 -0.33523802526E+03  0.30975068686E+03  0.53004600478E+03  0.00000000000E+00 0. -1.
         -2    1    6    6    0  503  0.40331334713E+03 -0.61379259293E+03  0.65880153620E+03  0.98662174475E+03  0.00000000000E+00 0.  1.
<mgrwt>
<rscale>  0 0.27908899E+04</rscale>
<asrwt>0</asrwt>
<pdfrwt beam="1">  1        2 0.29368768E+00 0.27908899E+04</pdfrwt>
<pdfrwt beam="2">  1       -2 0.15693253E+00 0.27908899E+04</pdfrwt>
<totfact> 0.17357154E+00</totfact>
</mgrwt>
</event>
<event>
12    3  0.8686020E-008  0.3661040E+04  0.7818608E-02  0.8076651E-01
          1   -1    0    0  501    0  0.00000000000E+00  0.00000000000E+00  0.16350487135E+04  0.16350487135E+04  0.00000000000E+00 0.  1.
         -1   -1    0    0    0  501 -0.00000000000E+00 -0.00000000000E+00 -0.20493605270E+04  0.20493605270E+04  0.00000000000E+00 0. -1.
         23    2    1    2    0    0  0.69177600558E+03 -0.12463847316E+04 -0.11611606611E+04  0.18407562014E+04  0.89779567982E+02 0.  0.
        254    2    1    2    0    0 -0.69177600558E+03  0.12463847316E+04  0.74684884755E+03  0.18436530391E+04  0.89958011682E+03 0.  0.
         23    2    4    4    0    0 -0.24458228851E+03  0.15588969637E+03 -0.16982015015E+03  0.34782812434E+03  0.89573586510E+02 0.  0.
         23    2    4    4    0    0 -0.44719371707E+03  0.10904950352E+04  0.91666899770E+03  0.14958249148E+04  0.89713331975E+02 0.  0.
          1    1    3    3  502    0  0.51142774005E+03 -0.84921923405E+03 -0.83437508321E+03  0.12957289146E+04  0.00000000000E+00 0. -1.
         -1    1    3    3    0  502  0.18034826553E+03 -0.39716549756E+03 -0.32678557793E+03  0.54502728672E+03  0.00000000000E+00 0.  1.
         13    1    5    5    0    0 -0.55602447002E+02  0.14233579873E+02 -0.72292408542E+02  0.92306117031E+02  0.00000000000E+00 0. -1.
        -13    1    5    5    0    0 -0.18897984151E+03  0.14165611650E+03 -0.97527741608E+02  0.25552200731E+03  0.00000000000E+00 0.  1.
          3    1    6    6  503    0 -0.38000879379E+03  0.83289355613E+03  0.69525579349E+03  0.11495646905E+04  0.00000000000E+00 0. -1.
         -3    1    6    6    0  503 -0.67184923285E+02  0.25760147910E+03  0.22141320421E+03  0.34626022433E+03  0.00000000000E+00 0.  1.
<mgrwt>
<rscale>  0 0.36610404E+04</rscale>
<asrwt>0</asrwt>
<pdfrwt beam="1">  1        1 0.25154596E+00 0.36610404E+04</pdfrwt>
<pdfrwt beam="2">  1       -1 0.31528623E+00 0.36610404E+04</pdfrwt>
<totfact> 0.11161731E-01</totfact>
</mgrwt>
</event>
<event>
12    3  0.8686020E-008  0.1940635E+04  0.7818608E-02  0.8634890E-01
          1   -1    0    0  501    0  0.00000000000E+00  0.00000000000E+00  0.17220885642E+04  0.17220885642E+04  0.00000000000E+00 0. -1.
         -1   -1    0    0    0  501 -0.00000000000E+00 -0.00000000000E+00 -0.54672901365E+03  0.54672901365E+03  0.00000000000E+00 0.  1.
         23    2    1    2    0    0  0.69182594201E+03 -0.17768668447E+03  0.16551708930E+03  0.73888328451E+03  0.91416133153E+02 0.  0.
        254    2    1    2    0    0 -0.69182594201E+03  0.17768668447E+03  0.10098424613E+04  0.15299342934E+04  0.90040071832E+03 0.  0.
         23    2    4    4    0    0 -0.28830337064E+03  0.48931513910E+03  0.76908759582E+03  0.96037879910E+03  0.91014113379E+02 0.  0.
         23    2    4    4    0    0 -0.40352257137E+03 -0.31162845463E+03  0.24075486545E+03  0.56955549427E+03  0.80546858869E+02 0.  0.
          3    1    3    3  502    0  0.18480015653E+03 -0.79216583365E+02  0.74524432991E+02  0.21443007263E+03  0.00000000000E+00 0. -1.
         -3    1    3    3    0  502  0.50702578548E+03 -0.98470101105E+02  0.90992656310E+02  0.52445321188E+03  0.00000000000E+00 0.  1.
         13    1    5    5    0    0 -0.57725175661E+02  0.52709632912E+02  0.14356141775E+03  0.16346370231E+03  0.00000000000E+00 0. -1.
        -13    1    5    5    0    0 -0.23057819498E+03  0.43660550619E+03  0.62552617808E+03  0.79691509679E+03  0.00000000000E+00 0.  1.
          3    1    6    6  503    0 -0.10202436732E+03 -0.41068385133E+02  0.66885822083E+02  0.12872178129E+03  0.00000000000E+00 0. -1.
         -3    1    6    6    0  503 -0.30149820406E+03 -0.27056006950E+03  0.17386904337E+03  0.44083371298E+03  0.00000000000E+00 0.  1.
<mgrwt>
<rscale>  0 0.19406347E+04</rscale>
<asrwt>0</asrwt>
<pdfrwt beam="1">  1        1 0.26493670E+00 0.19406347E+04</pdfrwt>
<pdfrwt beam="2">  1       -1 0.84112157E-01 0.19406347E+04</pdfrwt>
<totfact> 0.60110502E+00</totfact>
</mgrwt>
</event>
<event>
12    3  0.8686020E-008  0.1187498E+04  0.7818608E-02  0.9123871E-01
         -1   -1    0    0    0  501 -0.00000000000E+00  0.00000000000E+00  0.45681203513E+03  0.45681203513E+03  0.00000000000E+00 0.  1.
          1   -1    0    0  501    0  0.00000000000E+00 -0.00000000000E+00 -0.77173464476E+03  0.77173464476E+03  0.00000000000E+00 0. -1.
         23    2    1    2    0    0 -0.11101086756E+02 -0.21212417833E+03 -0.17984119433E+03  0.29437883580E+03  0.95896520401E+02 0.  0.
        254    2    1    2    0    0  0.11101086756E+02  0.21212417833E+03 -0.13508141530E+03  0.93416784409E+03  0.89961251160E+03 0.  0.
         23    2    4    4    0    0  0.23068848866E+03  0.88425137308E+02 -0.44835587656E+03  0.51963585779E+03  0.89231434772E+02 0.  0.
         23    2    4    4    0    0 -0.21958740190E+03  0.12369904102E+03  0.31327446125E+03  0.41453198630E+03  0.10087516925E+03 0.  0.
          3    1    3    3  502    0  0.29376739530E+02 -0.90116460132E+02 -0.11907337373E+03  0.15219210736E+03  0.00000000000E+00 0. -1.
         -3    1    3    3    0  502 -0.40477826286E+02 -0.12200771820E+03 -0.60767820600E+02  0.14218672843E+03  0.00000000000E+00 0.  1.
         13    1    5    5    0    0  0.89331483389E+02  0.42808712224E+02 -0.99160398901E+02  0.14016235043E+03  0.00000000000E+00 0.  1.
        -13    1    5    5    0    0  0.14135700527E+03  0.45616425084E+02 -0.34919547766E+03  0.37947350736E+03  0.00000000000E+00 0. -1.
          4    1    6    6  503    0 -0.11397966843E+03  0.59770742483E+02  0.23622824142E+03  0.26901243190E+03  0.00000000000E+00 0. -1.
         -4    1    6    6    0  503 -0.10560773347E+03  0.63928298541E+02  0.77046219837E+02  0.14551955441E+03  0.00000000000E+00 0.  1.
<mgrwt>
<rscale>  0 0.11874977E+04</rscale>
<asrwt>0</asrwt>
<pdfrwt beam="1">  1        1 0.11872841E+00 0.11874977E+04</pdfrwt>
<pdfrwt beam="2">  1       -1 0.70278774E-01 0.11874977E+04</pdfrwt>
<totfact> 0.47484326E+01</totfact>
</mgrwt>
</event>
<event>
12    3  0.8686020E-008  0.2632485E+04  0.7818608E-02  0.8357250E-01
         -1   -1    0    0    0  501 -0.00000000000E+00  0.00000000000E+00  0.25054155581E+04  0.25054155581E+04  0.00000000000E+00 0.  1.
          1   -1    0    0  501    0  0.00000000000E+00 -0.00000000000E+00 -0.69149966065E+03  0.69149966065E+03  0.00000000000E+00 0. -1.
         23    2    1    2    0    0 -0.75272786562E+03  0.30221046500E+03  0.18105821505E+04  0.19861016012E+04  0.91986095876E+02 0.  0.
        254    2    1    2    0    0  0.75272786562E+03 -0.30221046500E+03  0.33337469592E+01  0.12108136175E+04  0.89895945277E+03 0.  0.
         23    2    4    4    0    0  0.36435708680E+03 -0.56762579309E+03  0.17329978184E+03  0.70264200200E+03  0.93369378900E+02 0.  0.
         23    2    4    4    0    0  0.38837077883E+03  0.26541532809E+03 -0.16996603488E+03  0.50817161554E+03  0.89848648287E+02 0.  0.
          4    1    3    3  502    0 -0.27832792778E+03  0.94912407770E+02  0.55797512740E+03  0.63072263581E+03  0.00000000000E+00 0. -1.
         -4    1    3    3    0  502 -0.47439993784E+03  0.20729805723E+03  0.12526070231E+04  0.13553789654E+04  0.00000000000E+00 0.  1.
         13    1    5    5    0    0  0.21661105005E+03 -0.30673086491E+03  0.14090676557E+03  0.40107217190E+03  0.00000000000E+00 0. -1.
        -13    1    5    5    0    0  0.14774603674E+03 -0.26089492818E+03  0.32393016269E+02  0.30156983010E+03  0.00000000000E+00 0.  1.
          2    1    6    6  503    0  0.30620758766E+03  0.21545333762E+03 -0.17191015879E+03  0.41199069180E+03  0.00000000000E+00 0. -1.
         -2    1    6    6    0  503  0.82163191170E+02  0.49961990464E+02  0.19441239141E+01  0.96180923744E+02  0.00000000000E+00 0.  1.
<mgrwt>
<rscale>  0 0.26324848E+04</rscale>
<asrwt>0</asrwt>
<pdfrwt beam="1">  1        1 0.10638456E+00 0.26324848E+04</pdfrwt>
<pdfrwt beam="2">  1       -1 0.38544854E+00 0.26324848E+04</pdfrwt>
<totfact> 0.21905207E-01</totfact>
</mgrwt>
</event>
<event>
12    3  0.8686020E-008  0.2609546E+04  0.7818608E-02  0.8364966E-01
          2   -1    0    0  501    0  0.00000000000E+00  0.00000000000E+00  0.16677717945E+04  0.16677717945E+04  0.00000000000E+00 0. -1.
         -2   -1    0    0    0  501 -0.00000000000E+00 -0.00000000000E+00 -0.10207827229E+04  0.10207827229E+04  0.00000000000E+00 0.  1.
         23    2    1    2    0    0 -0.53999859602E+03 -0.99558428819E+03  0.47694716565E+03  0.12322247455E+04  0.90070338915E+02 0.  0.
        254    2    1    2    0    0  0.53999859602E+03  0.99558428819E+03  0.17004190592E+03  0.14563297719E+04  0.89955299799E+03 0.  0.
         23    2    4    4    0    0  0.17033430298E+03 -0.14607175393E+03  0.49066927405E+02  0.24688280729E+03  0.90514225958E+02 0.  0.
         23    2    4    4    0    0  0.36966429304E+03  0.11416560421E+04  0.12097497851E+03  0.12094469646E+04  0.89982257892E+02 0.  0.
          1    1    3    3  502    0 -0.51211590292E+03 -0.96882680666E+03  0.47232056002E+03  0.11933041485E+04  0.00000000000E+00 0. -1.
         -1    1    3    3    0  502 -0.27882693100E+02 -0.26757481534E+02  0.46266056353E+01  0.38920597018E+02  0.00000000000E+00 0.  1.
         13    1    5    5    0    0  0.22336847460E+02 -0.72390904549E+02  0.25227186864E+02  0.79848536448E+02  0.00000000000E+00 0. -1.
        -13    1    5    5    0    0  0.14799745552E+03 -0.73680849386E+02  0.23839740541E+02  0.16703427084E+03  0.00000000000E+00 0.  1.
          4    1    6    6  503    0  0.13066759073E+03  0.29485791288E+03  0.10771346034E+02  0.32269370919E+03  0.00000000000E+00 0. -1.
         -4    1    6    6    0  503  0.23899670232E+03  0.84679812924E+03  0.11020363248E+03  0.88675325543E+03  0.00000000000E+00 0.  1.
<mgrwt>
<rscale>  0 0.26095460E+04</rscale>
<asrwt>0</asrwt>
<pdfrwt beam="1">  1        2 0.25658028E+00 0.26095460E+04</pdfrwt>
<pdfrwt beam="2">  1       -2 0.15704350E+00 0.26095460E+04</pdfrwt>
<totfact> 0.23942211E+00</totfact>
</mgrwt>
</event>
<event>
12    3  0.8686020E-008  0.2602773E+04  0.7818608E-02  0.8367260E-01
          2   -1    0    0  501    0  0.00000000000E+00  0.00000000000E+00  0.27431009003E+04  0.27431009003E+04  0.00000000000E+00 0. -1.
         -2   -1    0    0    0  501 -0.00000000000E+00 -0.00000000000E+00 -0.61740583465E+03  0.61740583465E+03  0.00000000000E+00 0.  1.
         23    2    1    2    0    0  0.41139109629E+03 -0.10649246287E+04  0.95660529071E+03  0.14923433553E+04  0.93208953931E+02 0.  0.
        254    2    1    2    0    0 -0.41139109629E+03  0.10649246287E+04  0.11690897750E+04  0.18681633797E+04  0.90551444616E+03 0.  0.
         23    2    4    4    0    0 -0.59917745028E+03  0.58023963791E+03  0.38523946259E+03  0.92319185787E+03  0.90455008540E+02 0.  0.
         23    2    4    4    0    0  0.18778635399E+03  0.48468499079E+03  0.78385031238E+03  0.94497152178E+03  0.91469173630E+02 0.  0.
          1    1    3    3  502    0  0.31269673504E+02 -0.16651417237E+03  0.12646766263E+03  0.21142098234E+03  0.00000000000E+00 0. -1.
         -1    1    3    3    0  502  0.38012142279E+03 -0.89841045633E+03  0.83013762808E+03  0.12809223730E+04  0.00000000000E+00 0.  1.
         13    1    5    5    0    0 -0.55159850910E+03  0.56318274759E+03  0.36563422766E+03  0.86897877469E+03  0.00000000000E+00 0. -1.
        -13    1    5    5    0    0 -0.47578941175E+02  0.17056890321E+02  0.19605234936E+02  0.54213083178E+02  0.00000000000E+00 0.  1.
          3    1    6    6  503    0  0.47402295218E+02  0.22882422075E+03  0.39226126991E+03  0.45659216536E+03  0.00000000000E+00 0. -1.
         -3    1    6    6    0  503  0.14038405877E+03  0.25586077005E+03  0.39158904247E+03  0.48837935643E+03  0.00000000000E+00 0.  1.
<mgrwt>
<rscale>  0 0.26027728E+04</rscale>
<asrwt>0</asrwt>
<pdfrwt beam="1">  1        2 0.42201551E+00 0.26027728E+04</pdfrwt>
<pdfrwt beam="2">  1       -2 0.94985515E-01 0.26027728E+04</pdfrwt>
<totfact> 0.20628871E+00</totfact>
</mgrwt>
</event>
<event>
12    3  0.8686020E-008  0.1465619E+04  0.7818608E-02  0.8907643E-01
         -2   -1    0    0    0  501 -0.00000000000E+00  0.00000000000E+00  0.58896758890E+03  0.58896758890E+03  0.00000000000E+00 0.  1.
          2   -1    0    0  501    0  0.00000000000E+00 -0.00000000000E+00 -0.91178161366E+03  0.91178161366E+03  0.00000000000E+00 0. -1.
         23    2    1    2    0    0  0.78340224327E+01 -0.36932287198E+03  0.16299200521E+03  0.41341643302E+03  0.88803139877E+02 0.  0.
        254    2    1    2    0    0 -0.78340224327E+01  0.36932287198E+03 -0.48580602997E+03  0.10873327695E+04  0.89990238209E+03 0.  0.
         23    2    4    4    0    0  0.58008113295E+02  0.65516643538E+03 -0.30921252374E+03  0.73220579620E+03  0.88909751406E+02 0.  0.
         23    2    4    4    0    0 -0.65842135727E+02 -0.28584356340E+03 -0.17659350623E+03  0.35512697334E+03  0.94277097838E+02 0.  0.
          3    1    3    3  502    0  0.38984873185E+02 -0.25446073611E+03  0.13694249043E+03  0.29158760646E+03  0.00000000000E+00 0. -1.
         -3    1    3    3    0  502 -0.31150850752E+02 -0.11486213587E+03  0.26049514783E+02  0.12182882656E+03  0.00000000000E+00 0.  1.
         13    1    5    5    0    0 -0.13274228028E+02  0.12259841861E+03 -0.86147089165E+02  0.15042572369E+03  0.00000000000E+00 0.  1.
        -13    1    5    5    0    0  0.71282341323E+02  0.53256801677E+03 -0.22306543457E+03  0.58178007251E+03  0.00000000000E+00 0. -1.
          2    1    6    6  503    0 -0.88377045476E+02 -0.19001225184E+03 -0.12439650557E+03  0.24369991509E+03  0.00000000000E+00 0. -1.
         -2    1    6    6    0  503  0.22534909749E+02 -0.95831311559E+02 -0.52197000668E+02  0.11142705825E+03  0.00000000000E+00 0.  1.
<mgrwt>
<rscale>  0 0.14656191E+04</rscale>
<asrwt>0</asrwt>
<pdfrwt beam="1">  1        2 0.14027409E+00 0.14656191E+04</pdfrwt>
<pdfrwt beam="2">  1       -2 0.90610399E-01 0.14656191E+04</pdfrwt>
<totfact> 0.29022357E+01</totfact>
</mgrwt>
</event>
<event>
12    3  0.8686020E-008  0.3629297E+04  0.7818608E-02  0.8083814E-01
          2   -1    0    0  501    0  0.00000000000E+00  0.00000000000E+00  0.16714640582E+04  0.16714640582E+04  0.00000000000E+00 0. -1.
         -2   -1    0    0    0  501 -0.00000000000E+00 -0.00000000000E+00 -0.19700983285E+04  0.19700983285E+04  0.00000000000E+00 0.  1.
         23    2    1    2    0    0  0.14585321202E+04  0.81888519417E+03 -0.45625552759E+03  0.17362458530E+04  0.92150141456E+02 0.  0.
        254    2    1    2    0    0 -0.14585321202E+04 -0.81888519417E+03  0.15762125724E+03  0.19053165337E+04  0.89860877243E+03 0.  0.
         23    2    4    4    0    0 -0.35692672157E+03 -0.59340337863E+03 -0.19124910755E+03  0.72435134550E+03  0.92652017014E+02 0.  0.
         23    2    4    4    0    0 -0.11016053987E+04 -0.22548181555E+03  0.34887036479E+03  0.11809651882E+04  0.92691643704E+02 0.  0.
          2    1    3    3  502    0  0.85165428646E+03  0.48425379492E+03 -0.22038376169E+03  0.10041841285E+04  0.00000000000E+00 0. -1.
         -2    1    3    3    0  502  0.60687783377E+03  0.33463139925E+03 -0.23587176590E+03  0.73206172447E+03  0.00000000000E+00 0.  1.
         13    1    5    5    0    0 -0.29731324553E+03 -0.52381871519E+03 -0.19368992706E+03  0.63269028774E+03  0.00000000000E+00 0.  1.
        -13    1    5    5    0    0 -0.59613476039E+02 -0.69584663432E+02  0.24408195078E+01  0.91661057763E+02  0.00000000000E+00 0. -1.
          4    1    6    6  503    0 -0.51830641394E+03 -0.58944760239E+02  0.16293120012E+03  0.54650031973E+03  0.00000000000E+00 0. -1.
         -4    1    6    6    0  503 -0.58329898471E+03 -0.16653705531E+03  0.18593916467E+03  0.63446486847E+03  0.00000000000E+00 0.  1.
<mgrwt>
<rscale>  0 0.36292967E+04</rscale>
<asrwt>0</asrwt>
<pdfrwt beam="1">  1        2 0.25714832E+00 0.36292967E+04</pdfrwt>
<pdfrwt beam="2">  1       -2 0.30309205E+00 0.36292967E+04</pdfrwt>
<totfact> 0.25164408E-01</totfact>
</mgrwt>
</event>
<event>
12    3  0.8686020E-008  0.1655087E+04  0.7818608E-02  0.8787403E-01
          1   -1    0    0  501    0  0.00000000000E+00  0.00000000000E+00  0.11813528352E+04  0.11813528352E+04  0.00000000000E+00 0. -1.
         -1   -1    0    0    0  501 -0.00000000000E+00 -0.00000000000E+00 -0.57969837547E+03  0.57969837547E+03  0.00000000000E+00 0.  1.
         23    2    1    2    0    0  0.12793778886E+03  0.34847428719E+03 -0.26497180839E+03  0.46537784216E+03  0.92542261069E+02 0.  0.
        254    2    1    2    0    0 -0.12793778886E+03 -0.34847428719E+03  0.86662626811E+03  0.12956733685E+04  0.88877780272E+03 0.  0.
         23    2    4    4    0    0 -0.26884126891E+03 -0.56389838021E+03  0.79167960098E+03  0.10124368223E+04  0.89524954320E+02 0.  0.
         23    2    4    4    0    0  0.14090348005E+03  0.21542409303E+03  0.74946667128E+02  0.28323654621E+03  0.91348824011E+02 0.  0.
          1    1    3    3  502    0 -0.71068733173E+01  0.31291675658E+02 -0.26713288859E+01  0.32199574715E+02  0.00000000000E+00 0. -1.
         -1    1    3    3    0  502  0.13504466218E+03  0.31718261153E+03 -0.26230047950E+03  0.43317826745E+03  0.00000000000E+00 0.  1.
         13    1    5    5    0    0 -0.16798677131E+02 -0.11542675490E+03  0.14713459350E+03  0.18776080503E+03  0.00000000000E+00 0.  1.
        -13    1    5    5    0    0 -0.25204259178E+03 -0.44847162531E+03  0.64454500748E+03  0.82467601726E+03  0.00000000000E+00 0. -1.
          1    1    6    6  503    0  0.12647219776E+03  0.21298621472E+03  0.47626702469E+02  0.25224323035E+03  0.00000000000E+00 0. -1.
         -1    1    6    6    0  503  0.14431282284E+02  0.24378783059E+01  0.27319964660E+02  0.30993315860E+02  0.00000000000E+00 0.  1.
<mgrwt>
<rscale>  0 0.16550871E+04</rscale>
<asrwt>0</asrwt>
<pdfrwt beam="1">  1        1 0.18174659E+00 0.16550871E+04</pdfrwt>
<pdfrwt beam="2">  1       -1 0.89184366E-01 0.16550871E+04</pdfrwt>
<totfact> 0.12983775E+01</totfact>
</mgrwt>
</event>
<event>
12    3  0.8686020E-008  0.2851325E+04  0.7818608E-02  0.8287509E-01
          2   -1    0    0  501    0  0.00000000000E+00  0.00000000000E+00  0.41825694924E+04  0.41825694924E+04  0.00000000000E+00 0. -1.
         -2   -1    0    0    0  501 -0.00000000000E+00 -0.00000000000E+00 -0.48594842948E+03  0.48594842948E+03  0.00000000000E+00 0.  1.
         23    2    1    2    0    0 -0.39909155251E+03  0.22572831284E+03 -0.29402958594E+03  0.55219634602E+03  0.90774823864E+02 0.  0.
        254    2    1    2    0    0  0.39909155251E+03 -0.22572831284E+03  0.39906506488E+04  0.41163215758E+04  0.89921264232E+03 0.  0.
         23    2    4    4    0    0 -0.26253348976E+03 -0.90100960407E+02  0.17405519599E+04  0.17649726531E+04  0.92549039883E+02 0.  0.
         23    2    4    4    0    0  0.66162504228E+03 -0.13562735243E+03  0.22500986889E+04  0.23513489227E+04  0.98768270004E+02 0.  0.
          2    1    3    3  502    0 -0.40990738928E+02  0.60364116719E+02 -0.46206822502E+02  0.86366299625E+02  0.00000000000E+00 0. -1.
         -2    1    3    3    0  502 -0.35810081359E+03  0.16536419612E+03 -0.24782276344E+03  0.46583004640E+03  0.00000000000E+00 0.  1.
         13    1    5    5    0    0 -0.46454626765E+02 -0.16061149719E+02  0.58507707192E+03  0.58713812086E+03  0.00000000000E+00 0. -1.
        -13    1    5    5    0    0 -0.21607886300E+03 -0.74039810689E+02  0.11554748880E+04  0.11778345323E+04  0.00000000000E+00 0.  1.
          4    1    6    6  503    0  0.16600299595E+02 -0.20657395420E+02  0.11330894050E+03  0.11636672174E+03  0.00000000000E+00 0. -1.
         -4    1    6    6    0  503  0.64502474268E+03 -0.11496995701E+03  0.21367897484E+04  0.22349822010E+04  0.00000000000E+00 0.  1.
<mgrwt>
<rscale>  0 0.28513247E+04</rscale>
<asrwt>0</asrwt>
<pdfrwt beam="1">  1        2 0.64347221E+00 0.28513247E+04</pdfrwt>
<pdfrwt beam="2">  1       -2 0.74761300E-01 0.28513247E+04</pdfrwt>
<totfact> 0.33567912E-01</totfact>
</mgrwt>
</event>
<event>
12    3  0.8686020E-008  0.2002437E+04  0.7818608E-02  0.8605482E-01
         -1   -1    0    0    0  501 -0.00000000000E+00  0.00000000000E+00  0.11567297423E+04  0.11567297423E+04  0.00000000000E+00 0.  1.
          1   -1    0    0  501    0  0.00000000000E+00 -0.00000000000E+00 -0.86661406098E+03  0.86661406098E+03  0.00000000000E+00 0. -1.
         23    2    1    2    0    0  0.35114037338E+03 -0.53649171248E+03 -0.36186827669E+03  0.74183607726E+03  0.90825087192E+02 0.  0.
        254    2    1    2    0    0 -0.35114037338E+03  0.53649171248E+03  0.65198395805E+03  0.12815077261E+04  0.89780624358E+03 0.  0.
         23    2    4    4    0    0 -0.43157077270E+03 -0.49246842299E+01  0.21147508324E+02  0.44136807254E+03  0.89894237763E+02 0.  0.
         23    2    4    4    0    0  0.80430399319E+02  0.54141639671E+03  0.63083644973E+03  0.84013965352E+03  0.90990369524E+02 0.  0.
          2    1    3    3  502    0  0.19487333714E+03 -0.21870398109E+03 -0.14890458949E+03  0.32860253444E+03  0.00000000000E+00 0.  1.
         -2    1    3    3    0  502  0.15626703625E+03 -0.31778773139E+03 -0.21296368721E+03  0.41323354281E+03  0.00000000000E+00 0. -1.
         13    1    5    5    0    0 -0.38687221375E+03 -0.23853035592E+02  0.39188193829E+02  0.38958284307E+03  0.00000000000E+00 0. -1.
        -13    1    5    5    0    0 -0.44698558949E+02  0.18928351362E+02 -0.18040685505E+02  0.51785229467E+02  0.00000000000E+00 0.  1.
          4    1    6    6  503    0  0.20801051751E+02  0.38962309006E+02  0.24817523720E+02  0.50662163008E+02  0.00000000000E+00 0. -1.
         -4    1    6    6    0  503  0.59629347568E+02  0.50245408770E+03  0.60601892601E+03  0.78947749051E+03  0.00000000000E+00 0.  1.
<mgrwt>
<rscale>  0 0.20024368E+04</rscale>
<asrwt>0</asrwt>
<pdfrwt beam="1">  1        1 0.13332524E+00 0.20024368E+04</pdfrwt>
<pdfrwt beam="2">  1       -1 0.17795842E+00 0.20024368E+04</pdfrwt>
<totfact> 0.38721588E+00</totfact>
</mgrwt>
</event>
<event>
12    3  0.8686020E-008  0.1160338E+04  0.7818608E-02  0.9148299E-01
         -2   -1    0    0    0  501 -0.00000000000E+00  0.00000000000E+00  0.23866614910E+03  0.23866614910E+03  0.00000000000E+00 0.  1.
          2   -1    0    0  501    0  0.00000000000E+00 -0.00000000000E+00 -0.14103221479E+04  0.14103221479E+04  0.00000000000E+00 0. -1.
         23    2    1    2    0    0  0.16439117902E+02  0.15914659993E+03 -0.44555992348E+03  0.48221636960E+03  0.91712032092E+02 0.  0.
        254    2    1    2    0    0 -0.16439117902E+02 -0.15914659993E+03 -0.72609607534E+03  0.11667719274E+04  0.89919037756E+03 0.  0.
         23    2    4    4    0    0  0.37239923630E+03 -0.14728559571E+03 -0.97742878108E+02  0.42234275468E+03  0.91899370553E+02 0.  0.
         23    2    4    4    0    0 -0.38883835420E+03 -0.11861004228E+02 -0.62835319723E+03  0.74442917273E+03  0.89504768709E+02 0.  0.
          2    1    3    3  502    0 -0.32765665460E+02  0.37286448881E+02 -0.84728142918E+02  0.98197384413E+02  0.00000000000E+00 0. -1.
         -2    1    3    3    0  502  0.49204783362E+02  0.12186015105E+03 -0.36083178057E+03  0.38401898519E+03  0.00000000000E+00 0.  1.
         13    1    5    5    0    0  0.93670652690E+02  0.35034478595E+01 -0.28383074384E+02  0.97939084301E+02  0.00000000000E+00 0. -1.
        -13    1    5    5    0    0  0.27872858361E+03 -0.15078904357E+03 -0.69359803724E+02  0.32440367038E+03  0.00000000000E+00 0.  1.
          3    1    6    6  503    0 -0.12532373948E+03 -0.40816891588E+02 -0.24730203886E+03  0.28023268321E+03  0.00000000000E+00 0. -1.
         -3    1    6    6    0  503 -0.26351461472E+03  0.28955887360E+02 -0.38105115837E+03  0.46419648952E+03  0.00000000000E+00 0.  1.
<mgrwt>
<rscale>  0 0.11603382E+04</rscale>
<asrwt>0</asrwt>
<pdfrwt beam="1">  1        2 0.21697264E+00 0.11603382E+04</pdfrwt>
<pdfrwt beam="2">  1       -2 0.36717868E-01 0.11603382E+04</pdfrwt>
<totfact> 0.98584582E+01</totfact>
</mgrwt>
</event>
<event>
12    3  0.8686020E-008  0.2863860E+04  0.7818608E-02  0.8283712E-01
         -2   -1    0    0    0  501 -0.00000000000E+00  0.00000000000E+00  0.18196751899E+04  0.18196751899E+04  0.00000000000E+00 0.  1.
          2   -1    0    0  501    0  0.00000000000E+00 -0.00000000000E+00 -0.11268076957E+04  0.11268076957E+04  0.00000000000E+00 0. -1.
         23    2    1    2    0    0 -0.39411132001E+03 -0.10599646587E+04 -0.32220240340E+03  0.11794559951E+04  0.91941532222E+02 0.  0.
        254    2    1    2    0    0  0.39411132001E+03  0.10599646587E+04  0.10150698976E+04  0.17670268905E+04  0.90175846225E+03 0.  0.
         23    2    4    4    0    0 -0.48304908761E+02 -0.10475990092E+03  0.28279276038E+03  0.31906880955E+03  0.92331786771E+02 0.  0.
         23    2    4    4    0    0  0.44241622877E+03  0.11647245597E+04  0.73227713722E+03  0.14479580809E+04  0.89651430694E+02 0.  0.
          2    1    3    3  502    0 -0.31035387384E+03 -0.71246680013E+03 -0.22356377950E+03  0.80864654318E+03  0.00000000000E+00 0.  1.
         -2    1    3    3    0  502 -0.83757446172E+02 -0.34749785862E+03 -0.98638623904E+02  0.37080945196E+03  0.00000000000E+00 0. -1.
         13    1    5    5    0    0 -0.33805115421E+02 -0.11275260411E+03  0.27790372996E+03  0.30180526617E+03  0.00000000000E+00 0. -1.
        -13    1    5    5    0    0 -0.14499793340E+02  0.79927031968E+01  0.48890304227E+01  0.17263543372E+02  0.00000000000E+00 0.  1.
          2    1    6    6  503    0  0.35436109148E+03  0.97727493750E+03  0.57550085461E+03  0.11882084498E+04  0.00000000000E+00 0. -1.
         -2    1    6    6    0  503  0.88055137290E+02  0.18744962216E+03  0.15677628261E+03  0.25974963107E+03  0.00000000000E+00 0.  1.
<mgrwt>
<rscale>  0 0.28638603E+04</rscale>
<asrwt>0</asrwt>
<pdfrwt beam="1">  1        2 0.17335503E+00 0.28638603E+04</pdfrwt>
<pdfrwt beam="2">  1       -2 0.27995003E+00 0.28638603E+04</pdfrwt>
<totfact> 0.76510690E-01</totfact>
</mgrwt>
</event>
<event>
12    3  0.8686020E-008  0.2483388E+04  0.7818608E-02  0.8408928E-01
          2   -1    0    0  501    0  0.00000000000E+00  0.00000000000E+00  0.29753880628E+04  0.29753880628E+04  0.00000000000E+00 0. -1.
         -2   -1    0    0    0  501 -0.00000000000E+00 -0.00000000000E+00 -0.51818580446E+03  0.51818580446E+03  0.00000000000E+00 0.  1.
         23    2    1    2    0    0 -0.47447604419E+03 -0.95821943492E+03  0.95652823358E+03  0.14376417588E+04  0.92496286499E+02 0.  0.
        254    2    1    2    0    0  0.47447604419E+03  0.95821943492E+03  0.15006740248E+04  0.20559321085E+04  0.91187844809E+03 0.  0.
         23    2    4    4    0    0  0.58497326156E+03  0.96621933883E+03  0.92360110132E+03  0.14613790060E+04  0.82559537707E+02 0.  0.
         23    2    4    4    0    0 -0.11049721737E+03 -0.79999039144E+01  0.57707292344E+03  0.59455310250E+03  0.90590282109E+02 0.  0.
          1    1    3    3  502    0 -0.54529523753E+02 -0.66356610051E+02  0.99067229426E+02  0.13111439511E+03  0.00000000000E+00 0. -1.
         -1    1    3    3    0  502 -0.41994652044E+03 -0.89186282486E+03  0.85746100415E+03  0.13065273637E+04  0.00000000000E+00 0.  1.
         13    1    5    5    0    0  0.51462582762E+03  0.82894363170E+03  0.82983689224E+03  0.12808655490E+04  0.00000000000E+00 0. -1.
        -13    1    5    5    0    0  0.70347433942E+02  0.13727570713E+03  0.93764209082E+02  0.18051345694E+03  0.00000000000E+00 0.  1.
          2    1    6    6  503    0 -0.47481834399E+02 -0.48573312816E+02  0.25735898312E+03  0.26617200737E+03  0.00000000000E+00 0. -1.
         -2    1    6    6    0  503 -0.63015382974E+02  0.40573408902E+02  0.31971394031E+03  0.32838109512E+03  0.00000000000E+00 0.  1.
<mgrwt>
<rscale>  0 0.24833879E+04</rscale>
<asrwt>0</asrwt>
<pdfrwt beam="1">  1        2 0.45775200E+00 0.24833879E+04</pdfrwt>
<pdfrwt beam="2">  1       -2 0.79720895E-01 0.24833879E+04</pdfrwt>
<totfact> 0.22450948E+00</totfact>
</mgrwt>
</event>
<event>
12    3  0.8686020E-008  0.1934064E+04  0.7818608E-02  0.8638084E-01
         -1   -1    0    0    0  501 -0.00000000000E+00  0.00000000000E+00  0.10700856625E+04  0.10700856625E+04  0.00000000000E+00 0.  1.
          1   -1    0    0  501    0  0.00000000000E+00 -0.00000000000E+00 -0.87390285358E+03  0.87390285358E+03  0.00000000000E+00 0. -1.
         23    2    1    2    0    0  0.77951526958E+02 -0.73970794647E+03  0.21338630854E+03  0.77907816660E+03  0.90469809204E+02 0.  0.
        254    2    1    2    0    0 -0.77951526958E+02  0.73970794647E+03 -0.17203499663E+02  0.11649103494E+04  0.89636815830E+03 0.  0.
         23    2    4    4    0    0 -0.16079971472E+03  0.75736781343E+03 -0.31679355196E+03  0.84096340652E+03  0.86015948971E+02 0.  0.
         23    2    4    4    0    0  0.82848187765E+02 -0.17659866957E+02  0.29959005230E+03  0.32394694292E+03  0.89508263728E+02 0.  0.
          3    1    3    3  502    0  0.11756337274E+01 -0.41612113252E+03  0.10318717402E+03  0.42872575375E+03  0.00000000000E+00 0. -1.
         -3    1    3    3    0  502  0.76775893230E+02 -0.32358681395E+03  0.11019913452E+03  0.35035241285E+03  0.00000000000E+00 0.  1.
         13    1    5    5    0    0 -0.36420185042E+02  0.26800293161E+03 -0.14957266749E+03  0.30906954572E+03  0.00000000000E+00 0.  1.
        -13    1    5    5    0    0 -0.12437952968E+03  0.48936488181E+03 -0.16722088447E+03  0.53189386080E+03  0.00000000000E+00 0. -1.
          2    1    6    6  503    0  0.77916990988E+01 -0.69645551034E+01 -0.38817721844E+01  0.11148262552E+02  0.00000000000E+00 0. -1.
         -2    1    6    6    0  503  0.75056488666E+02 -0.10695311854E+02  0.30347182448E+03  0.31279868037E+03  0.00000000000E+00 0.  1.
<mgrwt>
<rscale>  0 0.19340640E+04</rscale>
<asrwt>0</asrwt>
<pdfrwt beam="1">  1        1 0.13444659E+00 0.19340640E+04</pdfrwt>
<pdfrwt beam="2">  1       -1 0.16462856E+00 0.19340640E+04</pdfrwt>
<totfact> 0.48118332E+00</totfact>
</mgrwt>
</event>
<event>
12    3  0.8686020E-008  0.2092424E+04  0.7818608E-02  0.8564588E-01
          2   -1    0    0  501    0  0.00000000000E+00  0.00000000000E+00  0.11683841126E+04  0.11683841126E+04  0.00000000000E+00 0. -1.
         -2   -1    0    0    0  501 -0.00000000000E+00 -0.00000000000E+00 -0.93681456282E+03  0.93681456282E+03  0.00000000000E+00 0.  1.
         23    2    1    2    0    0 -0.69446032523E+03 -0.23882516019E+03 -0.33251197220E+03  0.81134815051E+03  0.91700649995E+02 0.  0.
        254    2    1    2    0    0  0.69446032523E+03  0.23882516019E+03  0.56408152199E+03  0.12938505249E+04  0.90363079680E+03 0.  0.
         23    2    4    4    0    0  0.63166515608E+03  0.15698544316E+03  0.79081146071E+03  0.10282770893E+04  0.91245313212E+02 0.  0.
         23    2    4    4    0    0  0.62795169151E+02  0.81839717035E+02 -0.22672993872E+03  0.26557343564E+03  0.92096753761E+02 0.  0.
          3    1    3    3  502    0 -0.45986839327E+03 -0.13058579217E+03 -0.17681199095E+03  0.50969997880E+03  0.00000000000E+00 0. -1.
         -3    1    3    3    0  502 -0.23459193196E+03 -0.10823936802E+03 -0.15569998125E+03  0.30164817171E+03  0.00000000000E+00 0.  1.
         13    1    5    5    0    0  0.36219253906E+03  0.13307122783E+03  0.43898441948E+03  0.58446446220E+03  0.00000000000E+00 0.  1.
        -13    1    5    5    0    0  0.26947261702E+03  0.23914215327E+02  0.35182704123E+03  0.44381262708E+03  0.00000000000E+00 0. -1.
          2    1    6    6  503    0  0.17119864159E+02  0.89708017367E+02 -0.13829353284E+03  0.16572784725E+03  0.00000000000E+00 0. -1.
         -2    1    6    6    0  503  0.45675304992E+02 -0.78683003321E+01 -0.88436405880E+02  0.99845588392E+02  0.00000000000E+00 0.  1.
<mgrwt>
<rscale>  0 0.20924237E+04</rscale>
<asrwt>0</asrwt>
<pdfrwt beam="1">  1        2 0.17975140E+00 0.20924237E+04</pdfrwt>
<pdfrwt beam="2">  1       -2 0.14412532E+00 0.20924237E+04</pdfrwt>
<totfact> 0.60754016E+00</totfact>
</mgrwt>
</event>
<event>
12    3  0.8686020E-008  0.1556514E+04  0.7818608E-02  0.8847718E-01
          1   -1    0    0  501    0  0.00000000000E+00  0.00000000000E+00  0.60433813104E+03  0.60433813104E+03  0.00000000000E+00 0. -1.
         -1   -1    0    0    0  501 -0.00000000000E+00 -0.00000000000E+00 -0.10022272747E+04  0.10022272747E+04  0.00000000000E+00 0.  1.
         23    2    1    2    0    0 -0.10714697472E+03  0.50022948614E+03 -0.15326612496E+03  0.54184594625E+03  0.91632480111E+02 0.  0.
        254    2    1    2    0    0  0.10714697472E+03 -0.50022948614E+03 -0.24462301874E+03  0.10647194595E+04  0.90115320185E+03 0.  0.
         23    2    4    4    0    0  0.11647695087E+03  0.81010458380E+02  0.24585555372E+03  0.29879266462E+03  0.93287344708E+02 0.  0.
         23    2    4    4    0    0 -0.93299761544E+01 -0.58123994452E+03 -0.49047857246E+03  0.76592679491E+03  0.90264630715E+02 0.  0.
          3    1    3    3  502    0 -0.60377915818E+02  0.24755347716E+03 -0.29145048694E+02  0.25647153962E+03  0.00000000000E+00 0. -1.
         -3    1    3    3    0  502 -0.46769058901E+02  0.25267600898E+03 -0.12412107627E+03  0.28537440663E+03  0.00000000000E+00 0.  1.
         13    1    5    5    0    0  0.53001316311E+02 -0.13553699542E+02  0.63760303503E+02  0.84013204943E+02  0.00000000000E+00 0.  1.
        -13    1    5    5    0    0  0.63475634563E+02  0.94564157922E+02  0.18209525021E+03  0.21477945967E+03  0.00000000000E+00 0. -1.
          3    1    6    6  503    0 -0.26429582670E+02 -0.54406642984E+03 -0.43554178858E+03  0.69742630615E+03  0.00000000000E+00 0. -1.
         -3    1    6    6    0  503  0.17099606515E+02 -0.37173514684E+02 -0.54936783879E+02  0.68500488757E+02  0.00000000000E+00 0.  1.
<mgrwt>
<rscale>  0 0.15565143E+04</rscale>
<asrwt>0</asrwt>
<pdfrwt beam="1">  1        1 0.92975098E-01 0.15565143E+04</pdfrwt>
<pdfrwt beam="2">  1       -1 0.15418881E+00 0.15565143E+04</pdfrwt>
<totfact> 0.10566223E+01</totfact>
</mgrwt>
</event>
<event>
12    3  0.8686020E-008  0.1423268E+04  0.7818608E-02  0.8937146E-01
         -2   -1    0    0    0  501 -0.00000000000E+00  0.00000000000E+00  0.64721237799E+03  0.64721237799E+03  0.00000000000E+00 0. -1.
          2   -1    0    0  501    0  0.00000000000E+00 -0.00000000000E+00 -0.78246764564E+03  0.78246764564E+03  0.00000000000E+00 0.  1.
         23    2    1    2    0    0  0.37761151025E+03  0.36119751082E+02 -0.22316223494E+03  0.44934211315E+03  0.90619327143E+02 0.  0.
        254    2    1    2    0    0 -0.37761151025E+03 -0.36119751082E+02  0.87906967290E+02  0.98033791048E+03  0.89968866545E+03 0.  0.
         23    2    4    4    0    0 -0.44289435497E+03 -0.93544184656E+02  0.42021668515E+03  0.62458358945E+03  0.92826039349E+02 0.  0.
         23    2    4    4    0    0  0.65282844720E+02  0.57424433573E+02 -0.33230971786E+03  0.35575432103E+03  0.92584949977E+02 0.  0.
          3    1    3    3  502    0  0.10827300265E+03 -0.20429927995E+02 -0.33704377403E+02  0.11522330544E+03  0.00000000000E+00 0. -1.
         -3    1    3    3    0  502  0.26933850761E+03  0.56549679077E+02 -0.18945785754E+03  0.33411880771E+03  0.00000000000E+00 0.  1.
         13    1    5    5    0    0 -0.48905282237E+02 -0.66928028005E+00  0.13448379375E+02  0.50725077374E+02  0.00000000000E+00 0. -1.
        -13    1    5    5    0    0 -0.39398907273E+03 -0.92874904376E+02  0.40676830578E+03  0.57385851208E+03  0.00000000000E+00 0.  1.
          4    1    6    6  503    0  0.72219749981E+01 -0.19993739681E+02 -0.21528420549E+02  0.30255238235E+02  0.00000000000E+00 0. -1.
         -4    1    6    6    0  503  0.58060869722E+02  0.77418173255E+02 -0.31078129731E+03  0.32549908280E+03  0.00000000000E+00 0.  1.
<mgrwt>
<rscale>  0 0.14232677E+04</rscale>
<asrwt>0</asrwt>
<pdfrwt beam="1">  1        2 0.12037964E+00 0.14232677E+04</pdfrwt>
<pdfrwt beam="2">  1       -2 0.99571135E-01 0.14232677E+04</pdfrwt>
<totfact> 0.28770055E+01</totfact>
</mgrwt>
</event>
<event>
12    3  0.8686020E-008  0.1249844E+04  0.7818608E-02  0.9070313E-01
         -2   -1    0    0    0  501 -0.00000000000E+00  0.00000000000E+00  0.23223678067E+03  0.23223678067E+03  0.00000000000E+00 0.  1.
          2   -1    0    0  501    0  0.00000000000E+00 -0.00000000000E+00 -0.16815926827E+04  0.16815926827E+04  0.00000000000E+00 0. -1.
         23    2    1    2    0    0  0.48227518026E+02 -0.28233254135E+03 -0.32326712004E+03  0.44354363369E+03  0.10095428016E+03 0.  0.
        254    2    1    2    0    0 -0.48227518026E+02  0.28233254135E+03 -0.11260887820E+04  0.14702858297E+04  0.90090339030E+03 0.  0.
         23    2    4    4    0    0 -0.64178312677E+02  0.60290018024E+03 -0.71937006337E+03  0.94462529387E+03  0.84948070010E+02 0.  0.
         23    2    4    4    0    0  0.15950794651E+02 -0.32056763889E+03 -0.40671871861E+03  0.52566053581E+03  0.88774117206E+02 0.  0.
          3    1    3    3  502    0  0.44703008350E+02 -0.20240798851E+03 -0.29100061892E+03  0.35727960057E+03  0.00000000000E+00 0. -1.
         -3    1    3    3    0  502  0.35245096764E+01 -0.79924552843E+02 -0.32266501120E+02  0.86264033120E+02  0.00000000000E+00 0.  1.
         13    1    5    5    0    0 -0.28282304610E+02  0.52398236865E+03 -0.60000050679E+03  0.79709348232E+03  0.00000000000E+00 0.  1.
        -13    1    5    5    0    0 -0.35896008067E+02  0.78917811587E+02 -0.11936955658E+03  0.14753181155E+03  0.00000000000E+00 0. -1.
          1    1    6    6  503    0 -0.11868163341E+02 -0.55186720550E+01 -0.41887199332E+01  0.13742431263E+02  0.00000000000E+00 0. -1.
         -1    1    6    6    0  503  0.27818957992E+02 -0.31504896683E+03 -0.40252999868E+03  0.51191810455E+03  0.00000000000E+00 0.  1.
<mgrwt>
<rscale>  0 0.12498443E+04</rscale>
<asrwt>0</asrwt>
<pdfrwt beam="1">  1        2 0.25870656E+00 0.12498443E+04</pdfrwt>
<pdfrwt beam="2">  1       -2 0.35728736E-01 0.12498443E+04</pdfrwt>
<totfact> 0.72705945E+01</totfact>
</mgrwt>
</event>
<event>
12    3  0.8686020E-008  0.2547205E+04  0.7818608E-02  0.8386359E-01
         -2   -1    0    0    0  501 -0.00000000000E+00  0.00000000000E+00  0.11090358377E+04  0.11090358377E+04  0.00000000000E+00 0.  1.
          2   -1    0    0  501    0  0.00000000000E+00 -0.00000000000E+00 -0.14625891248E+04  0.14625891248E+04  0.00000000000E+00 0. -1.
         23    2    1    2    0    0 -0.20711651687E+02  0.10450254557E+04 -0.54289118513E+03  0.11811535988E+04  0.88802079689E+02 0.  0.
        254    2    1    2    0    0  0.20711651687E+02 -0.10450254557E+04  0.18933789808E+03  0.13904713637E+04  0.89724834808E+03 0.  0.
         23    2    4    4    0    0 -0.22793670150E+03 -0.10567241864E+04  0.38676518190E+02  0.10854166363E+04  0.89511202754E+02 0.  0.
         23    2    4    4    0    0  0.24864835319E+03  0.11698730674E+02  0.15066137989E+03  0.30505472739E+03  0.91633353500E+02 0.  0.
          4    1    3    3  502    0  0.33272775643E+02  0.49233675629E+03 -0.26744557036E+03  0.56127505940E+03  0.00000000000E+00 0. -1.
         -4    1    3    3    0  502 -0.53984427330E+02  0.55268869942E+03 -0.27544561477E+03  0.61987853936E+03  0.00000000000E+00 0.  1.
         13    1    5    5    0    0 -0.69322372867E+02 -0.32467628586E+03 -0.29407343933E+02  0.33329427516E+03  0.00000000000E+00 0. -1.
        -13    1    5    5    0    0 -0.15861432863E+03 -0.73204790053E+03  0.68083862123E+02  0.75212236119E+03  0.00000000000E+00 0.  1.
          4    1    6    6  503    0  0.34521119355E+02 -0.54269727391E+01  0.64991498353E+02  0.73790613040E+02  0.00000000000E+00 0. -1.
         -4    1    6    6    0  503  0.21412723383E+03  0.17125703413E+02  0.85669881536E+02  0.23126411435E+03  0.00000000000E+00 0.  1.
<mgrwt>
<rscale>  0 0.25472053E+04</rscale>
<asrwt>0</asrwt>
<pdfrwt beam="1">  1        2 0.22501371E+00 0.25472053E+04</pdfrwt>
<pdfrwt beam="2">  1       -2 0.17062090E+00 0.25472053E+04</pdfrwt>
<totfact> 0.24986359E+00</totfact>
</mgrwt>
</event>
<event>
12    3  0.8686020E-008  0.4509288E+04  0.7818608E-02  0.7909013E-01
         -1   -1    0    0    0  501 -0.00000000000E+00  0.00000000000E+00  0.25732946436E+04  0.25732946436E+04  0.00000000000E+00 0.  1.
          1   -1    0    0  501    0  0.00000000000E+00 -0.00000000000E+00 -0.19754522274E+04  0.19754522274E+04  0.00000000000E+00 0. -1.
         23    2    1    2    0    0  0.22965310120E+03  0.12167876915E+04 -0.15029188282E+04  0.19490585823E+04  0.82167633568E+02 0.  0.
        254    2    1    2    0    0 -0.22965310120E+03 -0.12167876915E+04  0.21007612444E+04  0.25996882887E+04  0.90103749057E+03 0.  0.
         23    2    4    4    0    0 -0.21384337348E+01 -0.90115237128E+01  0.80751183590E+03  0.81328353266E+03  0.96275432556E+02 0.  0.
         23    2    4    4    0    0 -0.22751466746E+03 -0.12077761678E+04  0.12932494085E+04  0.17864047560E+04  0.90894028702E+02 0.  0.
          4    1    3    3  502    0  0.23845495141E+01  0.94037047875E+02 -0.90873540091E+02  0.13079240321E+03  0.00000000000E+00 0.  1.
         -4    1    3    3    0  502  0.22726855169E+03  0.11227506436E+04 -0.14120452881E+04  0.18182661791E+04  0.00000000000E+00 0. -1.
         13    1    5    5    0    0 -0.17670062658E+02 -0.16876691625E+02  0.50795772438E+02  0.56367227466E+02  0.00000000000E+00 0. -1.
        -13    1    5    5    0    0  0.15531628923E+02  0.78651679127E+01  0.75671606346E+03  0.75691630519E+03  0.00000000000E+00 0.  1.
          4    1    6    6  503    0 -0.53881900323E+02 -0.17142717590E+03  0.15532389258E+03  0.23752062526E+03  0.00000000000E+00 0. -1.
         -4    1    6    6    0  503 -0.17363276714E+03 -0.10363489919E+04  0.11379255159E+04  0.15488841308E+04  0.00000000000E+00 0.  1.
<mgrwt>
<rscale>  0 0.45092885E+04</rscale>
<asrwt>0</asrwt>
<pdfrwt beam="1">  1        1 0.30391573E+00 0.45092885E+04</pdfrwt>
<pdfrwt beam="2">  1       -1 0.39589149E+00 0.45092885E+04</pdfrwt>
<totfact> 0.17740705E-02</totfact>
</mgrwt>
</event>
<event>
12    3  0.8686020E-008  0.3413705E+04  0.7818608E-02  0.8134551E-01
         -2   -1    0    0    0  501 -0.00000000000E+00  0.00000000000E+00  0.10939266095E+04  0.10939266095E+04  0.00000000000E+00 0.  1.
          2   -1    0    0  501    0  0.00000000000E+00 -0.00000000000E+00 -0.26632006878E+04  0.26632006878E+04  0.00000000000E+00 0. -1.
         23    2    1    2    0    0  0.13212477377E+04  0.78210142116E+03 -0.29309039309E+03  0.15659060353E+04  0.93709741841E+02 0.  0.
        254    2    1    2    0    0 -0.13212477377E+04 -0.78210142116E+03 -0.12761836852E+04  0.21912212619E+04  0.90301030070E+03 0.  0.
         23    2    4    4    0    0 -0.11508544232E+04 -0.20571477736E+03 -0.84439990516E+03  0.14456969514E+04  0.10121265954E+03 0.  0.
         23    2    4    4    0    0 -0.17039331447E+03 -0.57638664380E+03 -0.43178377999E+03  0.74552431051E+03  0.90076745803E+02 0.  0.
          3    1    3    3  502    0  0.31926087252E+03  0.14354380740E+03 -0.70255990651E+02  0.35702693678E+03  0.00000000000E+00 0. -1.
         -3    1    3    3    0  502  0.10019868652E+04  0.63855761376E+03 -0.22283440244E+03  0.12088790986E+04  0.00000000000E+00 0.  1.
         13    1    5    5    0    0 -0.32314307242E+03 -0.11873241463E+02 -0.23176101007E+03  0.39783864180E+03  0.00000000000E+00 0. -1.
        -13    1    5    5    0    0 -0.82771135079E+03 -0.19384153589E+03 -0.61263889510E+03  0.10478583096E+04  0.00000000000E+00 0.  1.
          4    1    6    6  503    0 -0.64019270274E+01 -0.16001756676E+03 -0.12013577137E+03  0.20019792683E+03  0.00000000000E+00 0. -1.
         -4    1    6    6    0  503 -0.16399138744E+03 -0.41636907703E+03 -0.31164800862E+03  0.54532638368E+03  0.00000000000E+00 0.  1.
<mgrwt>
<rscale>  0 0.34137054E+04</rscale>
<asrwt>0</asrwt>
<pdfrwt beam="1">  1        2 0.40972318E+00 0.34137054E+04</pdfrwt>
<pdfrwt beam="2">  1       -2 0.16829640E+00 0.34137054E+04</pdfrwt>
<totfact> 0.50640203E-01</totfact>
</mgrwt>
</event>
<event>
12    3  0.8686020E-008  0.2941720E+04  0.7818608E-02  0.8260572E-01
          2   -1    0    0  501    0  0.00000000000E+00  0.00000000000E+00  0.14549791554E+04  0.14549791554E+04  0.00000000000E+00 0. -1.
         -2   -1    0    0    0  501 -0.00000000000E+00 -0.00000000000E+00 -0.14869143642E+04  0.14869143642E+04  0.00000000000E+00 0.  1.
         23    2    1    2    0    0 -0.12179240862E+04  0.34981770684E+03 -0.42352810498E+03  0.13390607829E+04  0.89421568229E+02 0.  0.
        254    2    1    2    0    0  0.12179240862E+04 -0.34981770684E+03  0.39159289615E+03  0.16028327367E+04  0.90000904318E+03 0.  0.
         23    2    4    4    0    0  0.32428215469E+03 -0.21592041796E+02  0.53825526509E+03  0.63542020679E+03  0.91733182029E+02 0.  0.
         23    2    4    4    0    0  0.89364193150E+03 -0.32822566505E+03 -0.14666236894E+03  0.96741252991E+03  0.89717131231E+02 0.  0.
          4    1    3    3  502    0 -0.51579182835E+03  0.19072953254E+03 -0.20132664487E+03  0.58562051084E+03  0.00000000000E+00 0. -1.
         -4    1    3    3    0  502 -0.70213225784E+03  0.15908817430E+03 -0.22220146011E+03  0.75344027207E+03  0.00000000000E+00 0.  1.
         13    1    5    5    0    0  0.33661649177E+02 -0.15074896803E+02  0.12384148122E+03  0.12921714905E+03  0.00000000000E+00 0. -1.
        -13    1    5    5    0    0  0.29062050551E+03 -0.65171449928E+01  0.41441378387E+03  0.50620305774E+03  0.00000000000E+00 0.  1.
          4    1    6    6  503    0  0.71217755360E+03 -0.28339818747E+03 -0.88128778009E+02  0.77154266377E+03  0.00000000000E+00 0. -1.
         -4    1    6    6    0  503  0.18146437790E+03 -0.44827477575E+02 -0.58533590932E+02  0.19586986614E+03  0.00000000000E+00 0.  1.
<mgrwt>
<rscale>  0 0.29417202E+04</rscale>
<asrwt>0</asrwt>
<pdfrwt beam="1">  1        2 0.22384295E+00 0.29417202E+04</pdfrwt>
<pdfrwt beam="2">  1       -2 0.22875605E+00 0.29417202E+04</pdfrwt>
<totfact> 0.10079743E+00</totfact>
</mgrwt>
</event>
<event>
12    3  0.8686020E-008  0.1483429E+04  0.7818608E-02  0.8895548E-01
          1   -1    0    0  501    0  0.00000000000E+00  0.00000000000E+00  0.32486404281E+04  0.32486404281E+04  0.00000000000E+00 0. -1.
         -1   -1    0    0    0  501 -0.00000000000E+00 -0.00000000000E+00 -0.16934478881E+03  0.16934478881E+03  0.00000000000E+00 0.  1.
         23    2    1    2    0    0 -0.12089502497E+03  0.15624522235E+03  0.14580584400E+02  0.21770872943E+03  0.90312351664E+02 0.  0.
        254    2    1    2    0    0  0.12089502497E+03 -0.15624522235E+03  0.30647150549E+04  0.32002764875E+04  0.90014612818E+03 0.  0.
         23    2    4    4    0    0 -0.26807561542E+03 -0.32390629949E+03  0.96963075568E+03  0.10608083890E+04  0.91382762646E+02 0.  0.
         23    2    4    4    0    0  0.38897064038E+03  0.16766107714E+03  0.20950842992E+04  0.21394680985E+04  0.92396579423E+02 0.  0.
          3    1    3    3  502    0 -0.53660562160E+02  0.61592025001E+02  0.50669332339E+02  0.96127075867E+02  0.00000000000E+00 0. -1.
         -3    1    3    3    0  502 -0.67234462806E+02  0.94653197344E+02 -0.36088747939E+02  0.12158165357E+03  0.00000000000E+00 0.  1.
         13    1    5    5    0    0 -0.74330990411E+02 -0.56215936125E+02  0.14424679161E+03  0.17173370228E+03  0.00000000000E+00 0.  1.
        -13    1    5    5    0    0 -0.19374462501E+03 -0.26769036336E+03  0.82538396407E+03  0.88907468668E+03  0.00000000000E+00 0. -1.
          2    1    6    6  503    0  0.21086924975E+03  0.13997214684E+03  0.11923712255E+04  0.12189369064E+04  0.00000000000E+00 0. -1.
         -2    1    6    6    0  503  0.17810139064E+03  0.27688930299E+02  0.90271307375E+03  0.92053119216E+03  0.00000000000E+00 0.  1.
<mgrwt>
<rscale>  0 0.14834289E+04</rscale>
<asrwt>0</asrwt>
<pdfrwt beam="1">  1        1 0.49979079E+00 0.14834289E+04</pdfrwt>
<pdfrwt beam="2">  1       -1 0.26053047E-01 0.14834289E+04</pdfrwt>
<totfact> 0.49819544E+00</totfact>
</mgrwt>
</event>
<event>
12    3  0.8686020E-008  0.2827898E+04  0.7818608E-02  0.8294659E-01
         -1   -1    0    0    0  501 -0.00000000000E+00  0.00000000000E+00  0.13238908334E+04  0.13238908334E+04  0.00000000000E+00 0.  1.
          1   -1    0    0  501    0  0.00000000000E+00 -0.00000000000E+00 -0.15101329328E+04  0.15101329328E+04  0.00000000000E+00 0. -1.
         23    2    1    2    0    0  0.10231471501E+04  0.37129444501E+03  0.56724561005E+03  0.12309166327E+04  0.93265851287E+02 0.  0.
        254    2    1    2    0    0 -0.10231471501E+04 -0.37129444501E+03 -0.75348770945E+03  0.16031071335E+04  0.90416762689E+03 0.  0.
         23    2    4    4    0    0 -0.11291845773E+04 -0.13754833831E+03 -0.57778602142E+03  0.12790233684E+04  0.89926277559E+02 0.  0.
         23    2    4    4    0    0  0.10603742723E+03 -0.23374610670E+03 -0.17570168803E+03  0.32408376507E+03  0.90983653687E+02 0.  0.
          2    1    3    3  502    0  0.30199009750E+03  0.15265154496E+03  0.19258621083E+03  0.38934555573E+03  0.00000000000E+00 0. -1.
         -2    1    3    3    0  502  0.72115705256E+03  0.21864290005E+03  0.37465939922E+03  0.84157107699E+03  0.00000000000E+00 0.  1.
         13    1    5    5    0    0 -0.11194615282E+04 -0.13473966174E+03 -0.56092766759E+03  0.12593604479E+04  0.00000000000E+00 0. -1.
        -13    1    5    5    0    0 -0.97230491264E+01 -0.28086765713E+01 -0.16858353827E+02  0.19662920489E+02  0.00000000000E+00 0.  1.
          1    1    6    6  503    0  0.10777336890E+03 -0.19652556089E+03 -0.17876717187E+03  0.28669687279E+03  0.00000000000E+00 0. -1.
         -1    1    6    6    0  503 -0.17359416674E+01 -0.37220545802E+02  0.30654838453E+01  0.37386892282E+02  0.00000000000E+00 0.  1.
<mgrwt>
<rscale>  0 0.28278976E+04</rscale>
<asrwt>0</asrwt>
<pdfrwt beam="1">  1        1 0.23232814E+00 0.28278976E+04</pdfrwt>
<pdfrwt beam="2">  1       -1 0.20367551E+00 0.28278976E+04</pdfrwt>
<totfact> 0.78937092E-01</totfact>
</mgrwt>
</event>
<event>
12    3  0.8686020E-008  0.2047603E+04  0.7818608E-02  0.8584683E-01
         -1   -1    0    0    0  501 -0.00000000000E+00  0.00000000000E+00  0.11483928513E+04  0.11483928513E+04  0.00000000000E+00 0.  1.
          1   -1    0    0  501    0  0.00000000000E+00 -0.00000000000E+00 -0.91272695569E+03  0.91272695569E+03  0.00000000000E+00 0. -1.
         23    2    1    2    0    0  0.79277907816E+03 -0.21379737112E+03  0.15221480222E+03  0.83982623688E+03  0.89054923967E+02 0.  0.
        254    2    1    2    0    0 -0.79277907816E+03  0.21379737112E+03  0.83451093368E+02  0.12212935701E+04  0.90021437263E+03 0.  0.
         23    2    4    4    0    0 -0.83353517734E+03  0.32243724640E+03 -0.18165482970E+03  0.91662477518E+03  0.91955595742E+02 0.  0.
         23    2    4    4    0    0  0.40756099186E+02 -0.10863987528E+03  0.26510592307E+03  0.30466879491E+03  0.95279809113E+02 0.  0.
          4    1    3    3  502    0  0.62112400079E+03 -0.13252178340E+03  0.13349035171E+03  0.64898129513E+03  0.00000000000E+00 0. -1.
         -4    1    3    3    0  502  0.17165507737E+03 -0.81275587720E+02  0.18724450509E+02  0.19084494175E+03  0.00000000000E+00 0.  1.
         13    1    5    5    0    0 -0.95647197294E+00  0.79854830678E+01  0.96431878700E+00  0.81001659973E+01  0.00000000000E+00 0. -1.
        -13    1    5    5    0    0 -0.83257870537E+03  0.31445176333E+03 -0.18261914849E+03  0.90852460918E+03  0.00000000000E+00 0.  1.
          4    1    6    6  503    0  0.73386622485E+01  0.15085283656E+02  0.10962092059E+02  0.20039690838E+02  0.00000000000E+00 0. -1.
         -4    1    6    6    0  503  0.33417436938E+02 -0.12372515893E+03  0.25414383101E+03  0.28462910407E+03  0.00000000000E+00 0.  1.
<mgrwt>
<rscale>  0 0.20476026E+04</rscale>
<asrwt>0</asrwt>
<pdfrwt beam="1">  1        1 0.14041953E+00 0.20476026E+04</pdfrwt>
<pdfrwt beam="2">  1       -1 0.17667582E+00 0.20476026E+04</pdfrwt>
<totfact> 0.36096423E+00</totfact>
</mgrwt>
</event>
<event>
12    3  0.8686020E-008  0.1753159E+04  0.7818608E-02  0.8731613E-01
         -2   -1    0    0    0  501 -0.00000000000E+00  0.00000000000E+00  0.41567014143E+03  0.41567014143E+03  0.00000000000E+00 0.  1.
          2   -1    0    0  501    0  0.00000000000E+00 -0.00000000000E+00 -0.18485608034E+04  0.18485608034E+04  0.00000000000E+00 0. -1.
         23    2    1    2    0    0 -0.39120815628E+03 -0.50205657516E+03 -0.64180407267E+03  0.90874400043E+03  0.93800663168E+02 0.  0.
        254    2    1    2    0    0  0.39120815628E+03  0.50205657516E+03 -0.79108658930E+03  0.13554869444E+04  0.89801015499E+03 0.  0.
         23    2    4    4    0    0  0.22134312968E+03  0.65178149327E+03 -0.20929017622E+03  0.72528524933E+03  0.91784633801E+02 0.  0.
         23    2    4    4    0    0  0.16986502660E+03 -0.14972491811E+03 -0.58179641308E+03  0.63020169507E+03  0.85996696637E+02 0.  0.
          1    1    3    3  502    0 -0.16840422878E+03 -0.16177686064E+03 -0.27782368543E+03  0.36292938307E+03  0.00000000000E+00 0. -1.
         -1    1    3    3    0  502 -0.22280392750E+03 -0.34027971452E+03 -0.36398038724E+03  0.54581461736E+03  0.00000000000E+00 0.  1.
         13    1    5    5    0    0  0.15413663714E+03  0.41264849644E+03 -0.89435111694E+02  0.44948361897E+03  0.00000000000E+00 0. -1.
        -13    1    5    5    0    0  0.67206492548E+02  0.23913299684E+03 -0.11985506452E+03  0.27580163036E+03  0.00000000000E+00 0.  1.
          4    1    6    6  503    0  0.94223122515E+02 -0.10379240249E+03 -0.45097273213E+03  0.47225762541E+03  0.00000000000E+00 0. -1.
         -4    1    6    6    0  503  0.75641904080E+02 -0.45932515618E+02 -0.13082368095E+03  0.15794406966E+03  0.00000000000E+00 0.  1.
<mgrwt>
<rscale>  0 0.17531589E+04</rscale>
<asrwt>0</asrwt>
<pdfrwt beam="1">  1        2 0.28439397E+00 0.17531589E+04</pdfrwt>
<pdfrwt beam="2">  1       -2 0.63949253E-01 0.17531589E+04</pdfrwt>
<totfact> 0.17372733E+01</totfact>
</mgrwt>
</event>
<event>
12    3  0.8686020E-008  0.2709326E+04  0.7818608E-02  0.8331985E-01
         -1   -1    0    0    0  501 -0.00000000000E+00  0.00000000000E+00  0.15780568155E+04  0.15780568155E+04  0.00000000000E+00 0.  1.
          1   -1    0    0  501    0  0.00000000000E+00 -0.00000000000E+00 -0.11628934369E+04  0.11628934369E+04  0.00000000000E+00 0. -1.
         23    2    1    2    0    0 -0.11899655901E+04 -0.95102408008E+02  0.38740736857E+02  0.11984239628E+04  0.98267880506E+02 0.  0.
        254    2    1    2    0    0  0.11899655901E+04  0.95102408008E+02  0.37642264176E+03  0.15425262895E+04  0.90146035687E+03 0.  0.
         23    2    4    4    0    0 -0.40777158301E+01  0.14877608584E+01 -0.19287646724E+03  0.21330076257E+03  0.90978252903E+02 0.  0.
         23    2    4    4    0    0  0.11940433059E+04  0.93614647149E+02  0.56929910900E+03  0.13292255269E+04  0.90751900187E+02 0.  0.
          1    1    3    3  502    0 -0.20011962464E+03 -0.31897711788E+02 -0.26743069154E+02  0.20440283738E+03  0.00000000000E+00 0. -1.
         -1    1    3    3    0  502 -0.98984596546E+03 -0.63204696219E+02  0.65483806011E+02  0.99402112543E+03  0.00000000000E+00 0.  1.
         13    1    5    5    0    0  0.21082626780E+02 -0.27206910759E+01 -0.27083643128E+01  0.21429291848E+02  0.00000000000E+00 0. -1.
        -13    1    5    5    0    0 -0.25160342610E+02  0.42084519343E+01 -0.19016810293E+03  0.19187147073E+03  0.00000000000E+00 0.  1.
          4    1    6    6  503    0  0.23743843675E+02  0.11896872980E+02  0.35784085102E+01  0.26797587702E+02  0.00000000000E+00 0. -1.
         -4    1    6    6    0  503  0.11702994622E+04  0.81717774169E+02  0.56572070049E+03  0.13024279392E+04  0.00000000000E+00 0.  1.
<mgrwt>
<rscale>  0 0.27093261E+04</rscale>
<asrwt>0</asrwt>
<pdfrwt beam="1">  1        1 0.17890668E+00 0.27093261E+04</pdfrwt>
<pdfrwt beam="2">  1       -1 0.24277797E+00 0.27093261E+04</pdfrwt>
<totfact> 0.77175273E-01</totfact>
</mgrwt>
</event>
<event>
12    3  0.8686020E-008  0.3194651E+04  0.7818608E-02  0.8190231E-01
         -2   -1    0    0    0  501 -0.00000000000E+00  0.00000000000E+00  0.94532132962E+03  0.94532132962E+03  0.00000000000E+00 0. -1.
          2   -1    0    0  501    0  0.00000000000E+00 -0.00000000000E+00 -0.26990279322E+04  0.26990279322E+04  0.00000000000E+00 0.  1.
         23    2    1    2    0    0 -0.13297865271E+04  0.54361651880E+03 -0.45899880404E+03  0.15109270825E+04  0.91485623234E+02 0.  0.
        254    2    1    2    0    0  0.13297865271E+04 -0.54361651880E+03 -0.12947077985E+04  0.21334221793E+04  0.90076122500E+03 0.  0.
         23    2    4    4    0    0  0.53086486283E+03 -0.18731090582E+03 -0.10908325798E+04  0.12308204603E+04  0.90002279179E+02 0.  0.
         23    2    4    4    0    0  0.79892166428E+03 -0.35630561298E+03 -0.20387521875E+03  0.90260171906E+03  0.88855179605E+02 0.  0.
          3    1    3    3  502    0 -0.92743556496E+03  0.40050619836E+03 -0.28365754496E+03  0.10492871604E+04  0.00000000000E+00 0. -1.
         -3    1    3    3    0  502 -0.40235096215E+03  0.14311032044E+03 -0.17534125908E+03  0.46163992212E+03  0.00000000000E+00 0.  1.
         13    1    5    5    0    0  0.35100049558E+03 -0.15762728170E+03 -0.67892610393E+03  0.78037706426E+03  0.00000000000E+00 0.  1.
        -13    1    5    5    0    0  0.17986436725E+03 -0.29683624117E+02 -0.41190647586E+03  0.45044339600E+03  0.00000000000E+00 0. -1.
          3    1    6    6  503    0  0.66784903967E+03 -0.26091028119E+03 -0.17289088243E+03  0.73755526698E+03  0.00000000000E+00 0. -1.
         -3    1    6    6    0  503  0.13107262461E+03 -0.95395331792E+02 -0.30984336321E+02  0.16504645209E+03  0.00000000000E+00 0.  1.
<mgrwt>
<rscale>  0 0.31946510E+04</rscale>
<asrwt>0</asrwt>
<pdfrwt beam="1">  1        2 0.41523506E+00 0.31946510E+04</pdfrwt>
<pdfrwt beam="2">  1       -2 0.14543405E+00 0.31946510E+04</pdfrwt>
<totfact> 0.72800062E-01</totfact>
</mgrwt>
</event>
<event>
12    3  0.8686020E-008  0.1936763E+04  0.7818608E-02  0.8636771E-01
          2   -1    0    0  501    0  0.00000000000E+00  0.00000000000E+00  0.16167707153E+04  0.16167707153E+04  0.00000000000E+00 0. -1.
         -2   -1    0    0    0  501 -0.00000000000E+00 -0.00000000000E+00 -0.58002191077E+03  0.58002191077E+03  0.00000000000E+00 0.  1.
         23    2    1    2    0    0  0.54502377311E+03 -0.44229785752E+03  0.12667317265E+03  0.71877663299E+03  0.88968800388E+02 0.  0.
        254    2    1    2    0    0 -0.54502377311E+03  0.44229785752E+03  0.91007563190E+03  0.14780159931E+04  0.92930905090E+03 0.  0.
         23    2    4    4    0    0 -0.53062550353E+03  0.51516340357E+03  0.10543283939E+04  0.12912055978E+04  0.92988043797E+02 0.  0.
         23    2    4    4    0    0 -0.14398269578E+02 -0.72865546052E+02 -0.14425276197E+03  0.18681039531E+03  0.92588155249E+02 0.  0.
          4    1    3    3  502    0  0.27583860713E+03 -0.16688172882E+03  0.60294240547E+02  0.32798146905E+03  0.00000000000E+00 0. -1.
         -4    1    3    3    0  502  0.26918516598E+03 -0.27541612870E+03  0.66378932105E+02  0.39079516394E+03  0.00000000000E+00 0.  1.
         13    1    5    5    0    0 -0.42594615683E+03  0.45930186754E+03  0.90011246551E+03  0.10966270034E+04  0.00000000000E+00 0.  1.
        -13    1    5    5    0    0 -0.10467934671E+03  0.55861536030E+02  0.15421592835E+03  0.19457859438E+03  0.00000000000E+00 0. -1.
          2    1    6    6  503    0  0.10550874372E+02  0.14928996578E+02 -0.28383825526E+01  0.18500062280E+02  0.00000000000E+00 0. -1.
         -2    1    6    6    0  503 -0.24949143950E+02 -0.87794542630E+02 -0.14141437941E+03  0.16831033303E+03  0.00000000000E+00 0.  1.
<mgrwt>
<rscale>  0 0.19367627E+04</rscale>
<asrwt>0</asrwt>
<pdfrwt beam="1">  1        2 0.24873395E+00 0.19367627E+04</pdfrwt>
<pdfrwt beam="2">  1       -2 0.89234141E-01 0.19367627E+04</pdfrwt>
<totfact> 0.10984664E+01</totfact>
</mgrwt>
</event>
<event>
12    3  0.8686020E-008  0.1624208E+04  0.7818608E-02  0.8805813E-01
         -1   -1    0    0    0  501 -0.00000000000E+00  0.00000000000E+00  0.13288976054E+04  0.13288976054E+04  0.00000000000E+00 0.  1.
          1   -1    0    0  501    0  0.00000000000E+00 -0.00000000000E+00 -0.49628544378E+03  0.49628544378E+03  0.00000000000E+00 0. -1.
         23    2    1    2    0    0 -0.31764373781E+03  0.44667765051E+03  0.41140981501E+03  0.69144253162E+03  0.91740236642E+02 0.  0.
        254    2    1    2    0    0  0.31764373781E+03 -0.44667765051E+03  0.42120234665E+03  0.11337405176E+04  0.89863100144E+03 0.  0.
         23    2    4    4    0    0  0.14291320837E+03 -0.58969634924E+03  0.57879712134E+03  0.84380623633E+03  0.94004719922E+02 0.  0.
         23    2    4    4    0    0  0.17473052944E+03  0.14301869872E+03 -0.15759477469E+03  0.28993428125E+03  0.90778126954E+02 0.  0.
          2    1    3    3  502    0 -0.21621497864E+03  0.22892042168E+03  0.24951366360E+03  0.40175931199E+03  0.00000000000E+00 0. -1.
         -2    1    3    3    0  502 -0.10142875917E+03  0.21775722884E+03  0.16189615141E+03  0.28968321964E+03  0.00000000000E+00 0.  1.
         13    1    5    5    0    0  0.12266889930E+03 -0.40052163386E+03  0.44549902322E+03  0.61150193600E+03  0.00000000000E+00 0. -1.
        -13    1    5    5    0    0  0.20244309068E+02 -0.18917471538E+03  0.13329809812E+03  0.23230430033E+03  0.00000000000E+00 0.  1.
          3    1    6    6  503    0  0.19026591076E+02  0.22119067152E+02 -0.66811319314E+02  0.72904160979E+02  0.00000000000E+00 0. -1.
         -3    1    6    6    0  503  0.15570393836E+03  0.12089963157E+03 -0.90783455377E+02  0.21703012027E+03  0.00000000000E+00 0.  1.
<mgrwt>
<rscale>  0 0.16242075E+04</rscale>
<asrwt>0</asrwt>
<pdfrwt beam="1">  1        1 0.76351607E-01 0.16242075E+04</pdfrwt>
<pdfrwt beam="2">  1       -1 0.20444578E+00 0.16242075E+04</pdfrwt>
<totfact> 0.60144071E+00</totfact>
</mgrwt>
</event>
<event>
12    3  0.8686020E-008  0.2278264E+04  0.7818608E-02  0.8486541E-01
          1   -1    0    0  501    0  0.00000000000E+00  0.00000000000E+00  0.12564581175E+04  0.12564581175E+04  0.00000000000E+00 0. -1.
         -1   -1    0    0    0  501 -0.00000000000E+00 -0.00000000000E+00 -0.10327619253E+04  0.10327619253E+04  0.00000000000E+00 0.  1.
         23    2    1    2    0    0 -0.35962494478E+03  0.67090419468E+03  0.68102192556E+03  0.10256890879E+04  0.93833376705E+02 0.  0.
        254    2    1    2    0    0  0.35962494478E+03 -0.67090419468E+03 -0.45732573334E+03  0.12635309549E+04  0.89884431819E+03 0.  0.
         23    2    4    4    0    0 -0.11870242631E+03 -0.67306288624E+03 -0.23194078458E+03  0.72726958957E+03  0.89557878032E+02 0.  0.
         23    2    4    4    0    0  0.47832737109E+03  0.21586915599E+01 -0.22538494877E+03  0.53626136536E+03  0.89309254652E+02 0.  0.
          2    1    3    3  502    0 -0.31564337834E+03  0.54325491118E+03  0.59679797503E+03  0.86655897884E+03  0.00000000000E+00 0. -1.
         -2    1    3    3    0  502 -0.43981566436E+02  0.12764928349E+03  0.84223950537E+02  0.15913010905E+03  0.00000000000E+00 0.  1.
         13    1    5    5    0    0 -0.71844691510E+02 -0.37591471938E+03 -0.17619020558E+03  0.42132709916E+03  0.00000000000E+00 0. -1.
        -13    1    5    5    0    0 -0.46857734803E+02 -0.29714816686E+03 -0.55750578993E+02  0.30594249041E+03  0.00000000000E+00 0.  1.
          4    1    6    6  503    0  0.35824891756E+03 -0.32378533955E+02 -0.14587982978E+03  0.38816437386E+03  0.00000000000E+00 0. -1.
         -4    1    6    6    0  503  0.12007845353E+03  0.34537225515E+02 -0.79505118985E+02  0.14809699151E+03  0.00000000000E+00 0.  1.
<mgrwt>
<rscale>  0 0.22782643E+04</rscale>
<asrwt>0</asrwt>
<pdfrwt beam="1">  1        1 0.19330125E+00 0.22782643E+04</pdfrwt>
<pdfrwt beam="2">  1       -1 0.15888645E+00 0.22782643E+04</pdfrwt>
<totfact> 0.26236405E+00</totfact>
</mgrwt>
</event>
<event>
12    3  0.8686020E-008  0.1525248E+04  0.7818608E-02  0.8867835E-01
          2   -1    0    0  501    0  0.00000000000E+00  0.00000000000E+00  0.20600876379E+04  0.20600876379E+04  0.00000000000E+00 0. -1.
         -2   -1    0    0    0  501 -0.00000000000E+00 -0.00000000000E+00 -0.28231568367E+03  0.28231568367E+03  0.00000000000E+00 0.  1.
         23    2    1    2    0    0 -0.69267735371E+02 -0.43683614389E+03  0.90785991083E+03  0.10143625830E+04  0.95383417538E+02 0.  0.
        254    2    1    2    0    0  0.69267735371E+02  0.43683614389E+03  0.86991204339E+03  0.13280407386E+04  0.90073381431E+03 0.  0.
         23    2    4    4    0    0 -0.21724046651E+03  0.17695321400E+03  0.88254825736E+03  0.93064406488E+03  0.93279626360E+02 0.  0.
         23    2    4    4    0    0  0.28650820188E+03  0.25988292990E+03 -0.12636213969E+02  0.39739667367E+03  0.90212833605E+02 0.  0.
          4    1    3    3  502    0 -0.10121863551E+02 -0.17097843367E+02  0.11823464324E+02  0.23121044054E+02  0.00000000000E+00 0.  1.
         -4    1    3    3    0  502 -0.59145871820E+02 -0.41973830053E+03  0.89603644650E+03  0.99124153895E+03  0.00000000000E+00 0. -1.
         13    1    5    5    0    0 -0.20232369129E+03  0.11979298741E+03  0.73565954432E+03  0.77232130687E+03  0.00000000000E+00 0. -1.
        -13    1    5    5    0    0 -0.14916775216E+02  0.57160226587E+02  0.14688871304E+03  0.15832275801E+03  0.00000000000E+00 0.  1.
          4    1    6    6  503    0  0.10174954713E+03  0.15029253723E+03  0.74125366762E+01  0.18164735833E+03  0.00000000000E+00 0. -1.
         -4    1    6    6    0  503  0.18475865474E+03  0.10959039267E+03 -0.20048750646E+02  0.21574931534E+03  0.00000000000E+00 0.  1.
<mgrwt>
<rscale>  0 0.15252476E+04</rscale>
<asrwt>0</asrwt>
<pdfrwt beam="1">  1        2 0.31693655E+00 0.15252476E+04</pdfrwt>
<pdfrwt beam="2">  1       -2 0.43433183E-01 0.15252476E+04</pdfrwt>
<totfact> 0.29997804E+01</totfact>
</mgrwt>
</event>
<event>
12    3  0.8686020E-008  0.3124716E+04  0.7818608E-02  0.8208987E-01
          2   -1    0    0  501    0  0.00000000000E+00  0.00000000000E+00  0.27917358061E+04  0.27917358061E+04  0.00000000000E+00 0. -1.
         -2   -1    0    0    0  501 -0.00000000000E+00 -0.00000000000E+00 -0.87435285164E+03  0.87435285164E+03  0.00000000000E+00 0.  1.
         23    2    1    2    0    0 -0.12678062909E+04  0.94482206838E+02  0.16563887591E+04  0.20900307567E+04  0.91351869245E+02 0.  0.
        254    2    1    2    0    0  0.12678062909E+04 -0.94482206838E+02  0.26099419534E+03  0.15760579011E+04  0.89419285332E+03 0.  0.
         23    2    4    4    0    0  0.69106867916E+03 -0.10593222837E+03  0.57716027571E+03  0.91100439249E+03  0.89540286774E+02 0.  0.
         23    2    4    4    0    0  0.57673761170E+03  0.11450021528E+02 -0.31616608037E+03  0.66505350857E+03  0.97866251272E+02 0.  0.
          3    1    3    3  502    0 -0.17647613472E+03 -0.90151526609E+01  0.26849800159E+03  0.32142849276E+03  0.00000000000E+00 0. -1.
         -3    1    3    3    0  502 -0.10913301561E+04  0.10349735950E+03  0.13878907576E+04  0.17686022639E+04  0.00000000000E+00 0.  1.
         13    1    5    5    0    0  0.39100432762E+03 -0.10262921252E+03  0.31390043290E+03  0.51181111873E+03  0.00000000000E+00 0.  1.
        -13    1    5    5    0    0  0.30006435154E+03 -0.33030158412E+01  0.26325984280E+03  0.39919327376E+03  0.00000000000E+00 0. -1.
          3    1    6    6  503    0  0.18613370398E+03 -0.22290900860E+02 -0.14622318335E+03  0.23774746974E+03  0.00000000000E+00 0. -1.
         -3    1    6    6    0  503  0.39060390772E+03  0.33740922387E+02 -0.16994289701E+03  0.42730603883E+03  0.00000000000E+00 0.  1.
<mgrwt>
<rscale>  0 0.31247158E+04</rscale>
<asrwt>0</asrwt>
<pdfrwt beam="1">  1        2 0.42949781E+00 0.31247158E+04</pdfrwt>
<pdfrwt beam="2">  1       -2 0.13451582E+00 0.31247158E+04</pdfrwt>
<totfact> 0.78876972E-01</totfact>
</mgrwt>
</event>
<event>
12    3  0.8686020E-008  0.1126685E+04  0.7818608E-02  0.9179567E-01
         -2   -1    0    0    0  501 -0.00000000000E+00  0.00000000000E+00  0.51654072819E+03  0.51654072819E+03  0.00000000000E+00 0.  1.
          2   -1    0    0  501    0  0.00000000000E+00 -0.00000000000E+00 -0.61438438489E+03  0.61438438489E+03  0.00000000000E+00 0. -1.
         23    2    1    2    0    0 -0.17115399182E+03  0.80322346753E+02 -0.51832560056E+02  0.21619009830E+03  0.91138224778E+02 0.  0.
        254    2    1    2    0    0  0.17115399182E+03 -0.80322346753E+02 -0.46011096639E+02  0.91473501479E+03  0.89379961846E+03 0.  0.
         23    2    4    4    0    0 -0.35642809005E+03 -0.38333117006E+02  0.34819253282E+02  0.37133835461E+03  0.90384633482E+02 0.  0.
         23    2    4    4    0    0  0.52758208187E+03 -0.41989229747E+02 -0.80830349921E+02  0.54339666018E+03  0.92953947200E+02 0.  0.
          1    1    3    3  502    0 -0.25675816908E+02  0.31438265813E+02 -0.47740447939E+02  0.62663885139E+02  0.00000000000E+00 0. -1.
         -1    1    3    3    0  502 -0.14547817491E+03  0.48884080940E+02 -0.40921121165E+01  0.15352621316E+03  0.00000000000E+00 0.  1.
         13    1    5    5    0    0 -0.35025224586E+03 -0.21321763109E+02  0.28064344852E+02  0.35202110841E+03  0.00000000000E+00 0.  1.
        -13    1    5    5    0    0 -0.61758441849E+01 -0.17011353897E+02  0.67549084296E+01  0.19317246199E+02  0.00000000000E+00 0. -1.
          2    1    6    6  503    0  0.20390286436E+03 -0.55390564386E+02 -0.55451173676E+02  0.21844753462E+03  0.00000000000E+00 0. -1.
         -2    1    6    6    0  503  0.32367921751E+03  0.13401334640E+02 -0.25379176245E+02  0.32494912556E+03  0.00000000000E+00 0.  1.
<mgrwt>
<rscale>  0 0.11266846E+04</rscale>
<asrwt>0</asrwt>
<pdfrwt beam="1">  1        2 0.94520674E-01 0.11266846E+04</pdfrwt>
<pdfrwt beam="2">  1       -2 0.79467805E-01 0.11266846E+04</pdfrwt>
<totfact> 0.67068570E+01</totfact>
</mgrwt>
</event>
<event>
12    3  0.8686020E-008  0.2028466E+04  0.7818608E-02  0.8593426E-01
          1   -1    0    0  501    0  0.00000000000E+00  0.00000000000E+00  0.17918125903E+04  0.17918125903E+04  0.00000000000E+00 0. -1.
         -1   -1    0    0    0  501 -0.00000000000E+00 -0.00000000000E+00 -0.57409383861E+03  0.57409383861E+03  0.00000000000E+00 0.  1.
         23    2    1    2    0    0 -0.17535352394E+03  0.79175986028E+03  0.48700486474E+03  0.95045387914E+03  0.92500288566E+02 0.  0.
        254    2    1    2    0    0  0.17535352394E+03 -0.79175986028E+03  0.73071388692E+03  0.14154525497E+04  0.90107191794E+03 0.  0.
         23    2    4    4    0    0  0.51961835828E+03 -0.31352467335E+03  0.32440736611E+03  0.69420288567E+03  0.91523484545E+02 0.  0.
         23    2    4    4    0    0 -0.34426483434E+03 -0.47823518693E+03  0.40630652081E+03  0.72124966406E+03  0.88819586141E+02 0.  0.
          3    1    3    3  502    0 -0.22386846590E+02  0.14714512527E+03  0.13136513074E+03  0.19851865496E+03  0.00000000000E+00 0. -1.
         -3    1    3    3    0  502 -0.15296667735E+03  0.64461473501E+03  0.35563973400E+03  0.75193522419E+03  0.00000000000E+00 0.  1.
         13    1    5    5    0    0  0.20587456278E+02  0.50415058295E+01  0.63105995299E+01  0.22115239168E+02  0.00000000000E+00 0.  1.
        -13    1    5    5    0    0  0.49903090200E+03 -0.31856617918E+03  0.31809676658E+03  0.67208764650E+03  0.00000000000E+00 0. -1.
          1    1    6    6  503    0 -0.23705256504E+03 -0.30146178797E+03  0.31023526843E+03  0.49327380832E+03  0.00000000000E+00 0. -1.
         -1    1    6    6    0  503 -0.10721226929E+03 -0.17677339896E+03  0.96071252376E+02  0.22797585574E+03  0.00000000000E+00 0.  1.
<mgrwt>
<rscale>  0 0.20284660E+04</rscale>
<asrwt>0</asrwt>
<pdfrwt beam="1">  1        1 0.27566347E+00 0.20284660E+04</pdfrwt>
<pdfrwt beam="2">  1       -1 0.88322130E-01 0.20284660E+04</pdfrwt>
<totfact> 0.48075155E+00</totfact>
</mgrwt>
</event>
<event>
12    3  0.8686020E-008  0.3725802E+04  0.7818608E-02  0.8062268E-01
          1   -1    0    0  501    0  0.00000000000E+00  0.00000000000E+00  0.99035860764E+03  0.99035860764E+03  0.00000000000E+00 0. -1.
         -1   -1    0    0    0  501 -0.00000000000E+00 -0.00000000000E+00 -0.35041862268E+04  0.35041862268E+04  0.00000000000E+00 0.  1.
         23    2    1    2    0    0  0.65293498573E+03  0.16228948600E+04 -0.10524424575E+04  0.20434947326E+04  0.90131978316E+02 0.  0.
        254    2    1    2    0    0 -0.65293498573E+03 -0.16228948600E+04 -0.14613851616E+04  0.24510501018E+04  0.90104838301E+03 0.  0.
         23    2    4    4    0    0 -0.60913356173E+03 -0.38733449457E+03 -0.56592457005E+03  0.92177809963E+03  0.91282743547E+02 0.  0.
         23    2    4    4    0    0 -0.43801424002E+02 -0.12355603655E+04 -0.89546059159E+03  0.15292720022E+04  0.91078010840E+02 0.  0.
          3    1    3    3  502    0  0.29844164421E+03  0.72679774160E+03 -0.42092842020E+03  0.89133781874E+03  0.00000000000E+00 0. -1.
         -3    1    3    3    0  502  0.35449334152E+03  0.89609711845E+03 -0.63151403727E+03  0.11521569139E+04  0.00000000000E+00 0.  1.
         13    1    5    5    0    0 -0.15743599279E+02 -0.15003976887E+02 -0.40959938701E+02  0.46375605862E+02  0.00000000000E+00 0. -1.
        -13    1    5    5    0    0 -0.59338996245E+03 -0.37233051769E+03 -0.52496463135E+03  0.87540249377E+03  0.00000000000E+00 0.  1.
          1    1    6    6  503    0  0.24990902524E+02 -0.30067054922E+03 -0.23800279686E+03  0.38428200022E+03  0.00000000000E+00 0. -1.
         -1    1    6    6    0  503 -0.68792326526E+02 -0.93488981625E+03 -0.65745779473E+03  0.11449900020E+04  0.00000000000E+00 0.  1.
<mgrwt>
<rscale>  0 0.37258025E+04</rscale>
<asrwt>0</asrwt>
<pdfrwt beam="1">  1        1 0.15236286E+00 0.37258025E+04</pdfrwt>
<pdfrwt beam="2">  1       -1 0.53910558E+00 0.37258025E+04</pdfrwt>
<totfact> 0.10616185E-02</totfact>
</mgrwt>
</event>
<event>
12    3  0.8686020E-008  0.1587525E+04  0.7818608E-02  0.8828248E-01
          2   -1    0    0  501    0  0.00000000000E+00  0.00000000000E+00  0.33942473800E+04  0.33942473800E+04  0.00000000000E+00 0. -1.
         -2   -1    0    0    0  501 -0.00000000000E+00 -0.00000000000E+00 -0.18562561445E+03  0.18562561445E+03  0.00000000000E+00 0.  1.
         23    2    1    2    0    0  0.37819812797E+03  0.32315713182E+03  0.15134039310E+04  0.15956355699E+04  0.90537604335E+02 0.  0.
        254    2    1    2    0    0 -0.37819812797E+03 -0.32315713182E+03  0.16952178346E+04  0.19842374246E+04  0.90331074081E+03 0.  0.
         23    2    4    4    0    0  0.76076211543E+02 -0.45932783102E+03  0.12108205684E+04  0.13004849394E+04  0.91678691945E+02 0.  0.
         23    2    4    4    0    0 -0.45427433951E+03  0.13617069921E+03  0.48439726619E+03  0.68375248511E+03  0.89269897187E+02 0.  0.
          2    1    3    3  502    0  0.21742751892E+03  0.24177016217E+03  0.99872181172E+03  0.10503203295E+04  0.00000000000E+00 0. -1.
         -2    1    3    3    0  502  0.16077060904E+03  0.81386969649E+02  0.51468211923E+03  0.54531524040E+03  0.00000000000E+00 0.  1.
         13    1    5    5    0    0 -0.32295472156E+01 -0.14487806018E+03  0.46896515727E+03  0.49084457930E+03  0.00000000000E+00 0.  1.
        -13    1    5    5    0    0  0.79305758759E+02 -0.31444977084E+03  0.74185541113E+03  0.80964036014E+03  0.00000000000E+00 0. -1.
          4    1    6    6  503    0 -0.21744793401E+03  0.26299932901E+02  0.18680078247E+03  0.28787119134E+03  0.00000000000E+00 0.  1.
         -4    1    6    6    0  503 -0.23682640550E+03  0.10987076631E+03  0.29759648372E+03  0.39588129377E+03  0.00000000000E+00 0. -1.
<mgrwt>
<rscale>  0 0.15875254E+04</rscale>
<asrwt>0</asrwt>
<pdfrwt beam="1">  1        2 0.52219186E+00 0.15875254E+04</pdfrwt>
<pdfrwt beam="2">  1       -2 0.28557789E-01 0.15875254E+04</pdfrwt>
<totfact> 0.10490055E+01</totfact>
</mgrwt>
</event>
<event>
12    3  0.8686020E-008  0.2237965E+04  0.7818608E-02  0.8502790E-01
          2   -1    0    0  501    0  0.00000000000E+00  0.00000000000E+00  0.10567395967E+04  0.10567395967E+04  0.00000000000E+00 0. -1.
         -2   -1    0    0    0  501 -0.00000000000E+00 -0.00000000000E+00 -0.11848913876E+04  0.11848913876E+04  0.00000000000E+00 0.  1.
         23    2    1    2    0    0  0.77265990292E+03  0.42178673582E+03  0.26059492777E+03  0.92254014952E+03  0.90902337662E+02 0.  0.
        254    2    1    2    0    0 -0.77265990292E+03 -0.42178673582E+03 -0.38874671870E+03  0.13190908348E+04  0.90220244015E+03 0.  0.
         23    2    4    4    0    0 -0.47173730617E+03 -0.39173578021E+03  0.19816568765E+03  0.65092617198E+03  0.91881630775E+02 0.  0.
         23    2    4    4    0    0 -0.30092259676E+03 -0.30050955615E+02 -0.58691240635E+03  0.66816466281E+03  0.10256887797E+03 0.  0.
          4    1    3    3  502    0  0.33501674935E+03  0.13782628732E+03  0.85127311397E+02  0.37212762188E+03  0.00000000000E+00 0. -1.
         -4    1    3    3    0  502  0.43764315357E+03  0.28396044850E+03  0.17546761637E+03  0.55041252764E+03  0.00000000000E+00 0.  1.
         13    1    5    5    0    0 -0.14230383395E+03 -0.15665741457E+03  0.10205891895E+03  0.23496371983E+03  0.00000000000E+00 0. -1.
        -13    1    5    5    0    0 -0.32943347221E+03 -0.23507836564E+03  0.96106768696E+02  0.41596245215E+03  0.00000000000E+00 0.  1.
          1    1    6    6  503    0 -0.19054700811E+03 -0.35848057867E+02 -0.26905042353E+03  0.33163440104E+03  0.00000000000E+00 0. -1.
         -1    1    6    6    0  503 -0.11037558865E+03  0.57971022525E+01 -0.31786198282E+03  0.33653026177E+03  0.00000000000E+00 0.  1.
<mgrwt>
<rscale>  0 0.22379648E+04</rscale>
<asrwt>0</asrwt>
<pdfrwt beam="1">  1        2 0.16257532E+00 0.22379648E+04</pdfrwt>
<pdfrwt beam="2">  1       -2 0.18229098E+00 0.22379648E+04</pdfrwt>
<totfact> 0.36928726E+00</totfact>
</mgrwt>
</event>
<event>
12    3  0.8686020E-008  0.1416206E+04  0.7818608E-02  0.8942171E-01
          1   -1    0    0  501    0  0.00000000000E+00  0.00000000000E+00  0.13504687506E+04  0.13504687506E+04  0.00000000000E+00 0. -1.
         -1   -1    0    0    0  501 -0.00000000000E+00 -0.00000000000E+00 -0.37128587613E+03  0.37128587613E+03  0.00000000000E+00 0.  1.
         23    2    1    2    0    0 -0.36850075137E+03 -0.14643393055E+03  0.43999762069E+03  0.59882143388E+03  0.88053981616E+02 0.  0.
        254    2    1    2    0    0  0.36850075137E+03  0.14643393055E+03  0.53918525376E+03  0.11229331928E+04  0.90167761308E+03 0.  0.
         23    2    4    4    0    0  0.10877437752E+03 -0.19259816620E+03 -0.16744367251E+03  0.29219980857E+03  0.91746530352E+02 0.  0.
         23    2    4    4    0    0  0.25972637385E+03  0.33903209676E+03  0.70662892627E+03  0.83073338427E+03  0.91613123496E+02 0.  0.
          3    1    3    3  502    0 -0.28893848751E+03 -0.89067885398E+02  0.37244797155E+03  0.47972495170E+03  0.00000000000E+00 0. -1.
         -3    1    3    3    0  502 -0.79562263863E+02 -0.57366045155E+02  0.67549649143E+02  0.11909648218E+03  0.00000000000E+00 0.  1.
         13    1    5    5    0    0  0.57091893245E+02 -0.17239234999E+03 -0.14481521545E+03  0.23227150759E+03  0.00000000000E+00 0. -1.
        -13    1    5    5    0    0  0.51682484273E+02 -0.20205816212E+02 -0.22628457064E+02  0.59928300981E+02  0.00000000000E+00 0.  1.
          1    1    6    6  503    0  0.16073370655E+03  0.19979973122E+03  0.33639650512E+03  0.42298683865E+03  0.00000000000E+00 0. -1.
         -1    1    6    6    0  503  0.98992667302E+02  0.13923236553E+03  0.37023242116E+03  0.40774654562E+03  0.00000000000E+00 0.  1.
<mgrwt>
<rscale>  0 0.14162062E+04</rscale>
<asrwt>0</asrwt>
<pdfrwt beam="1">  1        1 0.20776442E+00 0.14162062E+04</pdfrwt>
<pdfrwt beam="2">  1       -1 0.57120905E-01 0.14162062E+04</pdfrwt>
<totfact> 0.25162819E+01</totfact>
</mgrwt>
</event>
<event>
12    3  0.8686020E-008  0.1695335E+04  0.7818608E-02  0.8764030E-01
         -2   -1    0    0    0  501 -0.00000000000E+00  0.00000000000E+00  0.45189778465E+03  0.45189778465E+03  0.00000000000E+00 0.  1.
          2   -1    0    0  501    0  0.00000000000E+00 -0.00000000000E+00 -0.15900500853E+04  0.15900500853E+04  0.00000000000E+00 0. -1.
         23    2    1    2    0    0  0.55516365745E+03 -0.22844729061E+03 -0.50779823967E+03  0.79052907862E+03  0.81745463404E+02 0.  0.
        254    2    1    2    0    0 -0.55516365745E+03  0.22844729061E+03 -0.63035406100E+03  0.12514187914E+04  0.89905945187E+03 0.  0.
         23    2    4    4    0    0 -0.13676324078E+03  0.88629502295E+02  0.22034437463E+03  0.28881017631E+03  0.91105992128E+02 0.  0.
         23    2    4    4    0    0 -0.41840041667E+03  0.13981778832E+03 -0.85069843563E+03  0.96260861505E+03  0.91211812757E+02 0.  0.
          4    1    3    3  502    0  0.47643695821E+03 -0.21360663883E+03 -0.40849613489E+03  0.66293971334E+03  0.00000000000E+00 0.  1.
         -4    1    3    3    0  502  0.78726699234E+02 -0.14840651782E+02 -0.99302104781E+02  0.12758936528E+03  0.00000000000E+00 0. -1.
         13    1    5    5    0    0 -0.11545625555E+03  0.23857746320E+02  0.12802003190E+03  0.17403582267E+03  0.00000000000E+00 0.  1.
        -13    1    5    5    0    0 -0.21306985226E+02  0.64771755975E+02  0.92324342733E+02  0.11477435364E+03  0.00000000000E+00 0. -1.
          4    1    6    6  503    0 -0.36065663199E+03  0.15045591994E+03 -0.71679709798E+03  0.81639957723E+03  0.00000000000E+00 0.  1.
         -4    1    6    6    0  503 -0.57743784680E+02 -0.10638131618E+02 -0.13390133765E+03  0.14620903782E+03  0.00000000000E+00 0. -1.
<mgrwt>
<rscale>  0 0.16953349E+04</rscale>
<asrwt>0</asrwt>
<pdfrwt beam="1">  1        2 0.24462309E+00 0.16953349E+04</pdfrwt>
<pdfrwt beam="2">  1       -2 0.69522736E-01 0.16953349E+04</pdfrwt>
<totfact> 0.20287388E+01</totfact>
</mgrwt>
</event>
<event>
12    3  0.8686020E-008  0.4901966E+04  0.7818608E-02  0.7843810E-01
         -2   -1    0    0    0  501 -0.00000000000E+00  0.00000000000E+00  0.36600497423E+04  0.36600497423E+04  0.00000000000E+00 0.  1.
          2   -1    0    0  501    0  0.00000000000E+00 -0.00000000000E+00 -0.16413210324E+04  0.16413210324E+04  0.00000000000E+00 0. -1.
         23    2    1    2    0    0  0.21676916483E+04  0.94715492617E+03  0.85853199313E+03  0.25181888030E+04  0.90598719546E+02 0.  0.
        254    2    1    2    0    0 -0.21676916483E+04 -0.94715492617E+03  0.11601967168E+04  0.27831819718E+04  0.89669165845E+03 0.  0.
         23    2    4    4    0    0 -0.21250295765E+04 -0.90394944891E+03  0.12610626878E+04  0.26328369081E+04  0.93143839305E+02 0.  0.
         23    2    4    4    0    0 -0.42662071818E+02 -0.43205477250E+02 -0.10086597107E+03  0.15034506373E+03  0.93503627906E+02 0.  0.
          4    1    3    3  502    0  0.32425804579E+03  0.14395061099E+03  0.16355713307E+03  0.39066097123E+03  0.00000000000E+00 0.  1.
         -4    1    3    3    0  502  0.18434336025E+04  0.80320431517E+03  0.69497486006E+03  0.21275278317E+04  0.00000000000E+00 0. -1.
         13    1    5    5    0    0 -0.20657244545E+04 -0.87675276178E+03  0.12069093213E+04  0.25480469064E+04  0.00000000000E+00 0. -1.
        -13    1    5    5    0    0 -0.59305121945E+02 -0.27196687140E+02  0.54153366493E+02  0.84790001668E+02  0.00000000000E+00 0.  1.
          1    1    6    6  503    0 -0.66124610952E+02 -0.79936869667E+01 -0.76830514133E+02  0.10168230479E+03  0.00000000000E+00 0. -1.
         -1    1    6    6    0  503  0.23462539134E+02 -0.35211790284E+02 -0.24035456933E+02  0.48662758939E+02  0.00000000000E+00 0.  1.
<mgrwt>
<rscale>  0 0.49019656E+04</rscale>
<asrwt>0</asrwt>
<pdfrwt beam="1">  1        2 0.25251093E+00 0.49019656E+04</pdfrwt>
<pdfrwt beam="2">  1       -2 0.56308457E+00 0.49019656E+04</pdfrwt>
<totfact> 0.57552315E-03</totfact>
</mgrwt>
</event>
<event>
12    3  0.8686020E-008  0.2110255E+04  0.7818608E-02  0.8556739E-01
         -3   -1    0    0    0  501 -0.00000000000E+00  0.00000000000E+00  0.94206034062E+03  0.94206034062E+03  0.00000000000E+00 0.  1.
          3   -1    0    0  501    0  0.00000000000E+00 -0.00000000000E+00 -0.11817648316E+04  0.11817648316E+04  0.00000000000E+00 0. -1.
         23    2    1    2    0    0 -0.70133909557E+03 -0.48701108716E+03 -0.19160830173E+03  0.88099810137E+03  0.10191951405E+03 0.  0.
        254    2    1    2    0    0  0.70133909557E+03  0.48701108716E+03 -0.48096189211E+02  0.12428270708E+04  0.90180350328E+03 0.  0.
         23    2    4    4    0    0  0.84355841720E+03  0.35715458295E+03  0.17220103150E+03  0.93650139520E+03  0.90727441366E+02 0.  0.
         23    2    4    4    0    0 -0.14221932163E+03  0.12985650421E+03 -0.22029722071E+03  0.30632567561E+03  0.90639433766E+02 0.  0.
          1    1    3    3  502    0 -0.33188149698E+03 -0.17390187888E+03 -0.10399633233E+03  0.38884756481E+03  0.00000000000E+00 0. -1.
         -1    1    3    3    0  502 -0.36945759859E+03 -0.31310920828E+03 -0.87611969394E+02  0.49215053657E+03  0.00000000000E+00 0.  1.
         13    1    5    5    0    0  0.28216915048E+03  0.73880633263E+02  0.50387687998E+02  0.29600117662E+03  0.00000000000E+00 0. -1.
        -13    1    5    5    0    0  0.56138926672E+03  0.28327394969E+03  0.12181334350E+03  0.64050021859E+03  0.00000000000E+00 0.  1.
          2    1    6    6  503    0  0.10838446943E+02  0.21776593424E+02 -0.36462605867E+02  0.43831650436E+02  0.00000000000E+00 0. -1.
         -2    1    6    6    0  503 -0.15305776858E+03  0.10807991078E+03 -0.18383461484E+03  0.26249402517E+03  0.00000000000E+00 0.  1.
<mgrwt>
<rscale>  0 0.21102548E+04</rscale>
<asrwt>0</asrwt>
<pdfrwt beam="1">  1        3 0.18180997E+00 0.21102548E+04</pdfrwt>
<pdfrwt beam="2">  1       -3 0.14493236E+00 0.21102548E+04</pdfrwt>
<totfact> 0.16368214E-01</totfact>
</mgrwt>
</event>
<event>
12    3  0.8686020E-008  0.1657723E+04  0.7818608E-02  0.8785851E-01
         -2   -1    0    0    0  501 -0.00000000000E+00  0.00000000000E+00  0.58119982527E+03  0.58119982527E+03  0.00000000000E+00 0.  1.
          2   -1    0    0  501    0  0.00000000000E+00 -0.00000000000E+00 -0.11820576136E+04  0.11820576136E+04  0.00000000000E+00 0. -1.
         23    2    1    2    0    0 -0.56596261417E+03  0.99584682231E+02 -0.29398914343E+03  0.65199936074E+03  0.91884494768E+02 0.  0.
        254    2    1    2    0    0  0.56596261417E+03 -0.99584682231E+02 -0.30686864489E+03  0.11112580781E+04  0.90027515871E+03 0.  0.
         23    2    4    4    0    0  0.69398821551E+03  0.17293288961E+03 -0.84623189303E+02  0.72587759419E+03  0.90618817067E+02 0.  0.
         23    2    4    4    0    0 -0.12802560134E+03 -0.27251757184E+03 -0.22224545559E+03  0.38538048392E+03  0.92025503510E+02 0.  0.
          4    1    3    3  502    0 -0.45777069941E+03  0.10483360430E+03 -0.26759777809E+03  0.54051148801E+03  0.00000000000E+00 0.  1.
         -4    1    3    3    0  502 -0.10819191476E+03 -0.52489220699E+01 -0.26391365341E+02  0.11148787273E+03  0.00000000000E+00 0. -1.
         13    1    5    5    0    0  0.41790178572E+03  0.73699479775E+02 -0.83547488171E+02  0.43249705040E+03  0.00000000000E+00 0.  1.
        -13    1    5    5    0    0  0.27608642979E+03  0.99233409833E+02 -0.10757011321E+01  0.29338054379E+03  0.00000000000E+00 0. -1.
          1    1    6    6  503    0 -0.34281016291E+02 -0.15512082696E+03 -0.15073994262E+03  0.21899814917E+03  0.00000000000E+00 0. -1.
         -1    1    6    6    0  503 -0.93744585053E+02 -0.11739674487E+03 -0.71505512966E+02  0.16638233475E+03  0.00000000000E+00 0.  1.
<mgrwt>
<rscale>  0 0.16577234E+04</rscale>
<asrwt>0</asrwt>
<pdfrwt beam="1">  1        2 0.18185502E+00 0.16577234E+04</pdfrwt>
<pdfrwt beam="2">  1       -2 0.89415358E-01 0.16577234E+04</pdfrwt>
<totfact> 0.19889644E+01</totfact>
</mgrwt>
</event>
<event>
12    3  0.8686020E-008  0.3711139E+04  0.7818608E-02  0.8065498E-01
         -2   -1    0    0    0  501 -0.00000000000E+00  0.00000000000E+00  0.15378509829E+04  0.15378509829E+04  0.00000000000E+00 0.  1.
          2   -1    0    0  501    0  0.00000000000E+00 -0.00000000000E+00 -0.22389283781E+04  0.22389283781E+04  0.00000000000E+00 0. -1.
         23    2    1    2    0    0 -0.33179202010E+03 -0.10893676965E+04 -0.16759809033E+04  0.20283301234E+04  0.91668850731E+02 0.  0.
        254    2    1    2    0    0  0.33179202010E+03  0.10893676965E+04  0.97490350814E+03  0.17484492377E+04  0.89990553043E+03 0.  0.
         23    2    4    4    0    0 -0.30332176994E+02  0.17496071102E+03  0.69278655526E+03  0.72110303380E+03  0.92223006043E+02 0.  0.
         23    2    4    4    0    0  0.36212419710E+03  0.91440698547E+03  0.28211695288E+03  0.10273462039E+04  0.92607657675E+02 0.  0.
          1    1    3    3  502    0 -0.36443922385E+02 -0.17658715841E+03 -0.21626004403E+03  0.28156631660E+03  0.00000000000E+00 0. -1.
         -1    1    3    3    0  502 -0.29534809772E+03 -0.91278053807E+03 -0.14597208593E+04  0.17467638068E+04  0.00000000000E+00 0.  1.
         13    1    5    5    0    0 -0.49978972876E+02  0.82803522144E+02  0.24275861049E+03  0.26131602319E+03  0.00000000000E+00 0. -1.
        -13    1    5    5    0    0  0.19646795882E+02  0.92157188871E+02  0.45002794478E+03  0.45978701061E+03  0.00000000000E+00 0.  1.
          4    1    6    6  503    0  0.13522876976E+03  0.30336722739E+03  0.52430464162E+02  0.33625503476E+03  0.00000000000E+00 0. -1.
         -4    1    6    6    0  503  0.22689542734E+03  0.61103975808E+03  0.22968648872E+03  0.69109116910E+03  0.00000000000E+00 0.  1.
<mgrwt>
<rscale>  0 0.37111390E+04</rscale>
<asrwt>0</asrwt>
<pdfrwt beam="1">  1        2 0.34445052E+00 0.37111390E+04</pdfrwt>
<pdfrwt beam="2">  1       -2 0.23659246E+00 0.37111390E+04</pdfrwt>
<totfact> 0.30838839E-01</totfact>
</mgrwt>
</event>
<event>
12    3  0.8686020E-008  0.1669704E+04  0.7818608E-02  0.8778835E-01
         -2   -1    0    0    0  501 -0.00000000000E+00  0.00000000000E+00  0.49125388326E+03  0.49125388326E+03  0.00000000000E+00 0.  1.
          2   -1    0    0  501    0  0.00000000000E+00 -0.00000000000E+00 -0.14187724239E+04  0.14187724239E+04  0.00000000000E+00 0. -1.
         23    2    1    2    0    0 -0.43836031748E+02  0.58541252541E+03 -0.38037939818E+03  0.70551901957E+03  0.91864997795E+02 0.  0.
        254    2    1    2    0    0  0.43836031748E+02 -0.58541252541E+03 -0.54713914250E+03  0.12045072876E+04  0.89824670449E+03 0.  0.
         23    2    4    4    0    0  0.26919931252E+03 -0.73460589483E+03 -0.40895271525E+03  0.88750425872E+03  0.91144914011E+02 0.  0.
         23    2    4    4    0    0 -0.22536328077E+03  0.14919336942E+03 -0.13818642725E+03  0.31700302892E+03  0.91368276044E+02 0.  0.
          1    1    3    3  502    0 -0.63002726637E+02  0.43857641738E+03 -0.31504209811E+03  0.54366362857E+03  0.00000000000E+00 0. -1.
         -1    1    3    3    0  502  0.19166694889E+02  0.14683610803E+03 -0.65337300074E+02  0.16185539100E+03  0.00000000000E+00 0.  1.
         13    1    5    5    0    0  0.14428999644E+03 -0.45212036105E+03 -0.29207103357E+03  0.55725928668E+03  0.00000000000E+00 0.  1.
        -13    1    5    5    0    0  0.12490931608E+03 -0.28248553378E+03 -0.11688168168E+03  0.33024497204E+03  0.00000000000E+00 0. -1.
          3    1    6    6  503    0 -0.15915556086E+03  0.53662590714E+02 -0.67839954478E+02  0.18114200401E+03  0.00000000000E+00 0. -1.
         -3    1    6    6    0  503 -0.66207719912E+02  0.95530778706E+02 -0.70346472774E+02  0.13586102490E+03  0.00000000000E+00 0.  1.
<mgrwt>
<rscale>  0 0.16697035E+04</rscale>
<asrwt>0</asrwt>
<pdfrwt beam="1">  1        2 0.21827268E+00 0.16697035E+04</pdfrwt>
<pdfrwt beam="2">  1       -2 0.75577522E-01 0.16697035E+04</pdfrwt>
<totfact> 0.21137501E+01</totfact>
</mgrwt>
</event>
<event>
12    3  0.8686020E-008  0.1407593E+04  0.7818608E-02  0.8948341E-01
          2   -1    0    0  501    0  0.00000000000E+00  0.00000000000E+00  0.12816168542E+04  0.12816168542E+04  0.00000000000E+00 0. -1.
         -2   -1    0    0    0  501 -0.00000000000E+00 -0.00000000000E+00 -0.38648781975E+03  0.38648781975E+03  0.00000000000E+00 0.  1.
         23    2    1    2    0    0  0.87012754170E+02 -0.39408624721E+03  0.19090215769E+03  0.45561028007E+03  0.90895015648E+02 0.  0.
        254    2    1    2    0    0 -0.87012754170E+02  0.39408624721E+03  0.70422687679E+03  0.12124943939E+04  0.90073968028E+03 0.  0.
         23    2    4    4    0    0 -0.11665325984E+03  0.61176268056E+03  0.73968887829E+03  0.97114072763E+03  0.90072836266E+02 0.  0.
         23    2    4    4    0    0  0.29640505668E+02 -0.21767643335E+03 -0.35462001506E+02  0.24135366627E+03  0.93447576005E+02 0.  0.
          1    1    3    3  502    0 -0.99590338252E+01 -0.14329385091E+03  0.82884047550E+02  0.16583749697E+03  0.00000000000E+00 0. -1.
         -1    1    3    3    0  502  0.96971787995E+02 -0.25079239630E+03  0.10801811014E+03  0.28977278311E+03  0.00000000000E+00 0.  1.
         13    1    5    5    0    0 -0.63107497801E+02  0.13255610603E+03  0.16089858104E+03  0.21781191635E+03  0.00000000000E+00 0. -1.
        -13    1    5    5    0    0 -0.53545762037E+02  0.47920657452E+03  0.57879029726E+03  0.75332881128E+03  0.00000000000E+00 0.  1.
          2    1    6    6  503    0 -0.25762590212E+02 -0.47121718414E+02  0.13670536498E+02  0.55417063878E+02  0.00000000000E+00 0.  1.
         -2    1    6    6    0  503  0.55403095880E+02 -0.17055471493E+03 -0.49132538005E+02  0.18593660239E+03  0.00000000000E+00 0. -1.
<mgrwt>
<rscale>  0 0.14075927E+04</rscale>
<asrwt>0</asrwt>
<pdfrwt beam="1">  1        2 0.19717182E+00 0.14075927E+04</pdfrwt>
<pdfrwt beam="2">  1       -2 0.59459665E-01 0.14075927E+04</pdfrwt>
<totfact> 0.43516232E+01</totfact>
</mgrwt>
</event>
<event>
12    3  0.8686020E-008  0.4391343E+04  0.7818608E-02  0.7929941E-01
         -2   -1    0    0    0  501 -0.00000000000E+00  0.00000000000E+00  0.25852813117E+04  0.25852813117E+04  0.00000000000E+00 0. -1.
          2   -1    0    0  501    0  0.00000000000E+00 -0.00000000000E+00 -0.18647767120E+04  0.18647767120E+04  0.00000000000E+00 0.  1.
         23    2    1    2    0    0  0.20262216348E+04  0.47418808289E+03  0.62525053338E+03  0.21747474224E+04  0.90330893645E+02 0.  0.
        254    2    1    2    0    0 -0.20262216348E+04 -0.47418808289E+03  0.95254066297E+02  0.22753106013E+04  0.91517022678E+03 0.  0.
         23    2    4    4    0    0 -0.19736260943E+04 -0.54908140178E+03 -0.86794398282E+02  0.20525336416E+04  0.93116789244E+02 0.  0.
         23    2    4    4    0    0 -0.52595540524E+02  0.74893318882E+02  0.18204846458E+03  0.22277695973E+03  0.90070140646E+02 0.  0.
          2    1    3    3  502    0  0.71837652761E+03  0.16445532420E+03  0.26655222720E+03  0.78368391518E+03  0.00000000000E+00 0. -1.
         -2    1    3    3    0  502  0.13078451072E+04  0.30973275869E+03  0.35869830618E+03  0.13910635072E+04  0.00000000000E+00 0.  1.
         13    1    5    5    0    0 -0.77854266699E+03 -0.26290236341E+03 -0.44382127568E+02  0.82293141285E+03  0.00000000000E+00 0. -1.
        -13    1    5    5    0    0 -0.11950834273E+04 -0.28617903837E+03 -0.42412270714E+02  0.12296022287E+04  0.00000000000E+00 0.  1.
          3    1    6    6  503    0 -0.38439144528E+02  0.88204569165E+02  0.10125221767E+03  0.13967686078E+03  0.00000000000E+00 0. -1.
         -3    1    6    6    0  503 -0.14156395995E+02 -0.13311250283E+02  0.80796246909E+02  0.83100098955E+02  0.00000000000E+00 0.  1.
<mgrwt>
<rscale>  0 0.43913426E+04</rscale>
<asrwt>0</asrwt>
<pdfrwt beam="1">  1        2 0.28688872E+00 0.43913426E+04</pdfrwt>
<pdfrwt beam="2">  1       -2 0.39773559E+00 0.43913426E+04</pdfrwt>
<totfact> 0.46627034E-02</totfact>
</mgrwt>
</event>
<event>
12    3  0.8686020E-008  0.2127930E+04  0.7818608E-02  0.8549039E-01
         -2   -1    0    0    0  501 -0.00000000000E+00  0.00000000000E+00  0.11311541589E+04  0.11311541589E+04  0.00000000000E+00 0.  1.
          2   -1    0    0  501    0  0.00000000000E+00 -0.00000000000E+00 -0.10007667200E+04  0.10007667200E+04  0.00000000000E+00 0. -1.
         23    2    1    2    0    0  0.10172491016E+03  0.86444850679E+03  0.45058821264E+02  0.87623708679E+03  0.90232791479E+02 0.  0.
        254    2    1    2    0    0 -0.10172491016E+03 -0.86444850679E+03  0.85328617692E+02  0.12556837921E+04  0.90102254936E+03 0.  0.
         23    2    4    4    0    0 -0.40379161557E+03 -0.10015232463E+03  0.27974850680E+02  0.42683551176E+03  0.91256807393E+02 0.  0.
         23    2    4    4    0    0  0.30206670540E+03 -0.76429618216E+03  0.57353767013E+02  0.82884828032E+03  0.91143121686E+02 0.  0.
          4    1    3    3  502    0  0.11505334664E+03  0.74709318199E+03  0.24116878351E+02  0.75628507784E+03  0.00000000000E+00 0. -1.
         -4    1    3    3    0  502 -0.13328436475E+02  0.11735532480E+03  0.20941942913E+02  0.11995200895E+03  0.00000000000E+00 0.  1.
         13    1    5    5    0    0 -0.62611991568E+02  0.10224986095E+02  0.25121871832E+02  0.68234304225E+02  0.00000000000E+00 0. -1.
        -13    1    5    5    0    0 -0.34117962400E+03 -0.11037731073E+03  0.28529788478E+01  0.35860120753E+03  0.00000000000E+00 0.  1.
          3    1    6    6  503    0  0.13839204400E+03 -0.47185368075E+03  0.33248311906E+02  0.49285261907E+03  0.00000000000E+00 0. -1.
         -3    1    6    6    0  503  0.16367466140E+03 -0.29244250141E+03  0.24105455107E+02  0.33599566125E+03  0.00000000000E+00 0.  1.
<mgrwt>
<rscale>  0 0.21279299E+04</rscale>
<asrwt>0</asrwt>
<pdfrwt beam="1">  1        2 0.15396411E+00 0.21279299E+04</pdfrwt>
<pdfrwt beam="2">  1       -2 0.17402372E+00 0.21279299E+04</pdfrwt>
<totfact> 0.46167663E+00</totfact>
</mgrwt>
</event>
<event>
12    3  0.8686020E-008  0.2472232E+04  0.7818608E-02  0.8412945E-01
         -2   -1    0    0    0  501 -0.00000000000E+00  0.00000000000E+00  0.76800312606E+03  0.76800312606E+03  0.00000000000E+00 0.  1.
          2   -1    0    0  501    0  0.00000000000E+00 -0.00000000000E+00 -0.19895527402E+04  0.19895527402E+04  0.00000000000E+00 0. -1.
         23    2    1    2    0    0  0.27673040867E+03  0.99438086645E+03 -0.21655758180E+03  0.10586700180E+04  0.92260469165E+02 0.  0.
        254    2    1    2    0    0 -0.27673040867E+03 -0.99438086645E+03 -0.10049920323E+04  0.16988858482E+04  0.90046161143E+03 0.  0.
         23    2    4    4    0    0  0.88416076384E+02 -0.83195563513E+03 -0.97770390244E+03  0.12900371727E+04  0.91232695085E+02 0.  0.
         23    2    4    4    0    0 -0.36514648505E+03 -0.16242523131E+03 -0.27288129903E+02  0.40884867557E+03  0.81845501818E+02 0.  0.
          4    1    3    3  502    0  0.52397069875E+02  0.10955789710E+03 -0.47095096160E+02  0.13025488026E+03  0.00000000000E+00 0. -1.
         -4    1    3    3    0  502  0.22433333879E+03  0.88482296934E+03 -0.16946248564E+03  0.92841513775E+03  0.00000000000E+00 0.  1.
         13    1    5    5    0    0  0.81692398502E+02 -0.77537412131E+03 -0.94197629319E+03  0.12227828969E+04  0.00000000000E+00 0. -1.
        -13    1    5    5    0    0  0.67236778814E+01 -0.56581513818E+02 -0.35727609256E+02  0.67254275800E+02  0.00000000000E+00 0.  1.
          3    1    6    6  503    0 -0.28634425530E+03 -0.14077684093E+03  0.95188851741E+01  0.31922055175E+03  0.00000000000E+00 0. -1.
         -3    1    6    6    0  503 -0.78802229752E+02 -0.21648390382E+02 -0.36807015077E+02  0.89628123817E+02  0.00000000000E+00 0.  1.
<mgrwt>
<rscale>  0 0.24722320E+04</rscale>
<asrwt>0</asrwt>
<pdfrwt beam="1">  1        2 0.30608503E+00 0.24722320E+04</pdfrwt>
<pdfrwt beam="2">  1       -2 0.11815433E+00 0.24722320E+04</pdfrwt>
<totfact> 0.33401331E+00</totfact>
</mgrwt>
</event>
<event>
12    3  0.8686020E-008  0.1167309E+04  0.7818608E-02  0.9141962E-01
         -1   -1    0    0    0  501 -0.00000000000E+00  0.00000000000E+00  0.57013776447E+03  0.57013776447E+03  0.00000000000E+00 0.  1.
          1   -1    0    0  501    0  0.00000000000E+00 -0.00000000000E+00 -0.59749137320E+03  0.59749137320E+03  0.00000000000E+00 0. -1.
         23    2    1    2    0    0  0.47552973152E+02  0.14114227876E+01 -0.22171150506E+03  0.24486414090E+03  0.92407676362E+02 0.  0.
        254    2    1    2    0    0 -0.47552973152E+02 -0.14114227876E+01  0.19435789632E+03  0.92276499677E+03  0.90080906414E+03 0.  0.
         23    2    4    4    0    0  0.16304788319E+03  0.39446188910E+03  0.15877706676E+03  0.46432308227E+03  0.90559227240E+02 0.  0.
         23    2    4    4    0    0 -0.21060085634E+03 -0.39587331188E+03  0.35580829563E+02  0.45844191450E+03  0.88513240743E+02 0.  0.
          4    1    3    3  502    0  0.33738309536E+02  0.15964591638E+02 -0.22167792509E+03  0.22479822995E+03  0.00000000000E+00 0. -1.
         -4    1    3    3    0  502  0.13814663616E+02 -0.14553168850E+02 -0.33579968923E-01  0.20065910944E+02  0.00000000000E+00 0.  1.
         13    1    5    5    0    0  0.10229442179E+03  0.16503760876E+03  0.10590575523E+03  0.22117321272E+03  0.00000000000E+00 0.  1.
        -13    1    5    5    0    0  0.60753461403E+02  0.22942428033E+03  0.52871311532E+02  0.24314986955E+03  0.00000000000E+00 0. -1.
          1    1    6    6  503    0 -0.19345735445E+02 -0.72674237062E+02 -0.22341706847E+02  0.78453515391E+02  0.00000000000E+00 0. -1.
         -1    1    6    6    0  503 -0.19125512090E+03 -0.32319907482E+03  0.57922536410E+02  0.37998839911E+03  0.00000000000E+00 0.  1.
<mgrwt>
<rscale>  0 0.11673087E+04</rscale>
<asrwt>0</asrwt>
<pdfrwt beam="1">  1        1 0.91921749E-01 0.11673087E+04</pdfrwt>
<pdfrwt beam="2">  1       -1 0.87713503E-01 0.11673087E+04</pdfrwt>
<totfact> 0.43720027E+01</totfact>
</mgrwt>
</event>
<event>
12    3  0.8686020E-008  0.2075809E+04  0.7818608E-02  0.8571975E-01
         -2   -1    0    0    0  501 -0.00000000000E+00  0.00000000000E+00  0.24779858144E+04  0.24779858144E+04  0.00000000000E+00 0.  1.
          2   -1    0    0  501    0  0.00000000000E+00 -0.00000000000E+00 -0.43472653532E+03  0.43472653532E+03  0.00000000000E+00 0. -1.
         23    2    1    2    0    0  0.34607710704E+03  0.72457448150E+03  0.48982207611E+03  0.94495975187E+03  0.90805964273E+02 0.  0.
        254    2    1    2    0    0 -0.34607710704E+03 -0.72457448150E+03  0.15534372030E+04  0.19677525979E+04  0.90227800568E+03 0.  0.
         23    2    4    4    0    0  0.16663059840E+03  0.90984997809E+02  0.46562007570E+03  0.51196091723E+03  0.96217980305E+02 0.  0.
         23    2    4    4    0    0 -0.51270770544E+03 -0.81555947931E+03  0.10878171273E+04  0.14557916806E+04  0.89313265971E+02 0.  0.
          3    1    3    3  502    0  0.27067726025E+03  0.50966887173E+03  0.31210661778E+03  0.65607856152E+03  0.00000000000E+00 0. -1.
         -3    1    3    3    0  502  0.75399846793E+02  0.21490560977E+03  0.17771545833E+03  0.28888119034E+03  0.00000000000E+00 0.  1.
         13    1    5    5    0    0  0.13467443455E+03  0.22501754640E+02  0.27898920403E+03  0.31060989722E+03  0.00000000000E+00 0.  1.
        -13    1    5    5    0    0  0.31956163846E+02  0.68483243169E+02  0.18663087166E+03  0.20135102001E+03  0.00000000000E+00 0. -1.
          1    1    6    6  503    0  0.34488007696E+01 -0.66736078754E+01  0.51274848669E+01  0.90951838839E+01  0.00000000000E+00 0. -1.
         -1    1    6    6    0  503 -0.51615650621E+03 -0.80888587143E+03  0.10826896424E+04  0.14466964968E+04  0.00000000000E+00 0.  1.
<mgrwt>
<rscale>  0 0.20758094E+04</rscale>
<asrwt>0</asrwt>
<pdfrwt beam="1">  1        2 0.66881007E-01 0.20758094E+04</pdfrwt>
<pdfrwt beam="2">  1       -2 0.38122858E+00 0.20758094E+04</pdfrwt>
<totfact> 0.65831461E-01</totfact>
</mgrwt>
</event>
<event>
12    3  0.8686020E-008  0.1316612E+04  0.7818608E-02  0.9016494E-01
          2   -1    0    0  501    0  0.00000000000E+00  0.00000000000E+00  0.99596967920E+03  0.99596967920E+03  0.00000000000E+00 0. -1.
         -2   -1    0    0    0  501 -0.00000000000E+00 -0.00000000000E+00 -0.43512051935E+03  0.43512051935E+03  0.00000000000E+00 0.  1.
         23    2    1    2    0    0 -0.33077588816E+03 -0.86982296832E+01  0.19618545034E+03  0.39856650748E+03  0.10429852623E+03 0.  0.
        254    2    1    2    0    0  0.33077588816E+03  0.86982296832E+01  0.36466370951E+03  0.10325236911E+04  0.90754460177E+03 0.  0.
         23    2    4    4    0    0  0.63353439444E+03 -0.55412478581E+02  0.26111739928E+03  0.69342236892E+03  0.90641677956E+02 0.  0.
         23    2    4    4    0    0 -0.30275850628E+03  0.64110708264E+02  0.10354631023E+03  0.33910132216E+03  0.92168173949E+02 0.  0.
          4    1    3    3  502    0 -0.76811350321E+01 -0.13703628384E+02  0.33037589653E+02  0.36582394623E+02  0.00000000000E+00 0. -1.
         -4    1    3    3    0  502 -0.32309475313E+03  0.50053987009E+01  0.16314786069E+03  0.36198411286E+03  0.00000000000E+00 0.  1.
         13    1    5    5    0    0  0.20795443496E+03 -0.58591780838E+02  0.72321503236E+02  0.22783424596E+03  0.00000000000E+00 0. -1.
        -13    1    5    5    0    0  0.42557995948E+03  0.31793022572E+01  0.18879589605E+03  0.46558812296E+03  0.00000000000E+00 0.  1.
          3    1    6    6  503    0 -0.14484432072E+03  0.41177741399E+02  0.97546304596E+02  0.17941785076E+03  0.00000000000E+00 0. -1.
         -3    1    6    6    0  503 -0.15791418556E+03  0.22932966864E+02  0.60000056341E+01  0.15968347139E+03  0.00000000000E+00 0.  1.
<mgrwt>
<rscale>  0 0.13166121E+04</rscale>
<asrwt>0</asrwt>
<pdfrwt beam="1">  1        2 0.15322610E+00 0.13166121E+04</pdfrwt>
<pdfrwt beam="2">  1       -2 0.66941618E-01 0.13166121E+04</pdfrwt>
<totfact> 0.50837365E+01</totfact>
</mgrwt>
</event>
<event>
12    3  0.8686020E-008  0.2540483E+04  0.7818608E-02  0.8388704E-01
          1   -1    0    0  501    0  0.00000000000E+00  0.00000000000E+00  0.11347222216E+04  0.11347222216E+04  0.00000000000E+00 0. -1.
         -1   -1    0    0    0  501 -0.00000000000E+00 -0.00000000000E+00 -0.14219453740E+04  0.14219453740E+04  0.00000000000E+00 0.  1.
         23    2    1    2    0    0 -0.10255382096E+04 -0.40308351438E+03 -0.24616867435E+03  0.11334817316E+04  0.99884336855E+02 0.  0.
        254    2    1    2    0    0  0.10255382096E+04  0.40308351438E+03 -0.41054478053E+02  0.14231858640E+04  0.89975974272E+03 0.  0.
         23    2    4    4    0    0  0.35413313499E+03  0.46820396180E+03  0.29588843186E+03  0.66367464139E+03  0.91043057821E+02 0.  0.
         23    2    4    4    0    0  0.67140507457E+03 -0.65120447415E+02 -0.33694290991E+03  0.75951122265E+03  0.91111612697E+02 0.  0.
          1    1    3    3  502    0 -0.59684430420E+03 -0.18143190867E+03 -0.13631126593E+03  0.63853067440E+03  0.00000000000E+00 0. -1.
         -1    1    3    3    0  502 -0.42869390536E+03 -0.22165160571E+03 -0.10985740842E+03  0.49495105717E+03  0.00000000000E+00 0.  1.
         13    1    5    5    0    0  0.78830410806E+02  0.55899004584E+02  0.30470567898E+02  0.10132811993E+03  0.00000000000E+00 0. -1.
        -13    1    5    5    0    0  0.27530272419E+03  0.41230495721E+03  0.26541786396E+03  0.56234652146E+03  0.00000000000E+00 0.  1.
          3    1    6    6  503    0  0.24512386911E+03 -0.52796085017E+02 -0.88170015685E+02  0.26579520211E+03  0.00000000000E+00 0. -1.
         -3    1    6    6    0  503  0.42628120546E+03 -0.12324362398E+02 -0.24877289423E+03  0.49371602054E+03  0.00000000000E+00 0.  1.
<mgrwt>
<rscale>  0 0.25404826E+04</rscale>
<asrwt>0</asrwt>
<pdfrwt beam="1">  1        1 0.17457265E+00 0.25404826E+04</pdfrwt>
<pdfrwt beam="2">  1       -1 0.21876082E+00 0.25404826E+04</pdfrwt>
<totfact> 0.11858424E+00</totfact>
</mgrwt>
</event>
<event>
12    3  0.8686020E-008  0.1221122E+04  0.7818608E-02  0.9094567E-01
         -2   -1    0    0    0  501 -0.00000000000E+00  0.00000000000E+00  0.26926025789E+03  0.26926025789E+03  0.00000000000E+00 0.  1.
          2   -1    0    0  501    0  0.00000000000E+00 -0.00000000000E+00 -0.13844775969E+04  0.13844775969E+04  0.00000000000E+00 0. -1.
         23    2    1    2    0    0  0.92686219736E+01 -0.13405566625E+03 -0.56943783229E+03  0.59220502285E+03  0.91599755654E+02 0.  0.
        254    2    1    2    0    0 -0.92686219736E+01  0.13405566625E+03 -0.54577950667E+03  0.10615328319E+04  0.90051088515E+03 0.  0.
         23    2    4    4    0    0  0.12425098522E+03  0.40547750925E+03 -0.26788593508E+01  0.43318448918E+03  0.88268383625E+02 0.  0.
         23    2    4    4    0    0 -0.13351960720E+03 -0.27142184300E+03 -0.54310064732E+03  0.62834834271E+03  0.91465973499E+02 0.  0.
          4    1    3    3  502    0  0.38060474057E+02 -0.78661512729E+02 -0.43879744675E+03  0.44741416221E+03  0.00000000000E+00 0. -1.
         -4    1    3    3    0  502 -0.28791852084E+02 -0.55394153519E+02 -0.13064038554E+03  0.14479086064E+03  0.00000000000E+00 0.  1.
         13    1    5    5    0    0  0.84571130562E+02  0.36958554454E+03  0.47424420107E+01  0.37916782777E+03  0.00000000000E+00 0.  1.
        -13    1    5    5    0    0  0.39679854662E+02  0.35891964702E+02 -0.74213013615E+01  0.54016661412E+02  0.00000000000E+00 0. -1.
          4    1    6    6  503    0 -0.13665875230E+01 -0.99402729506E+00 -0.54180045832E+02  0.54206392779E+02  0.00000000000E+00 0. -1.
         -4    1    6    6    0  503 -0.13215301968E+03 -0.27042781570E+03 -0.48892060148E+03  0.57414194993E+03  0.00000000000E+00 0.  1.
<mgrwt>
<rscale>  0 0.12211221E+04</rscale>
<asrwt>0</asrwt>
<pdfrwt beam="1">  1        2 0.21299656E+00 0.12211221E+04</pdfrwt>
<pdfrwt beam="2">  1       -2 0.41424654E-01 0.12211221E+04</pdfrwt>
<totfact> 0.80310419E+01</totfact>
</mgrwt>
</event>
<event>
12    3  0.8686020E-008  0.1857035E+04  0.7818608E-02  0.8676544E-01
          1   -1    0    0  501    0  0.00000000000E+00  0.00000000000E+00  0.20871826357E+04  0.20871826357E+04  0.00000000000E+00 0. -1.
         -1   -1    0    0    0  501 -0.00000000000E+00 -0.00000000000E+00 -0.41306605736E+03  0.41306605736E+03  0.00000000000E+00 0.  1.
         23    2    1    2    0    0  0.38966818088E+03  0.10603675016E+03 -0.13364154896E+03  0.43684049422E+03  0.99420672942E+02 0.  0.
        254    2    1    2    0    0 -0.38966818088E+03 -0.10603675016E+03  0.18077581273E+04  0.20634081989E+04  0.90916382721E+03 0.  0.
         23    2    4    4    0    0 -0.33206428507E+03 -0.48022133808E+03  0.12563117310E+04  0.13883317748E+04  0.90921551417E+02 0.  0.
         23    2    4    4    0    0 -0.57603895801E+02  0.37418458792E+03  0.55144639632E+03  0.67507642406E+03  0.91119348444E+02 0.  0.
          4    1    3    3  502    0  0.25802911683E+03  0.45048838408E+02 -0.12828807868E+03  0.29166119746E+03  0.00000000000E+00 0.  1.
         -4    1    3    3    0  502  0.13163906405E+03  0.60987911752E+02 -0.53534702860E+01  0.14517929676E+03  0.00000000000E+00 0. -1.
         13    1    5    5    0    0 -0.30092682655E+03 -0.46999767820E+03  0.11832875831E+04  0.13082905934E+04  0.00000000000E+00 0.  1.
        -13    1    5    5    0    0 -0.31137458524E+02 -0.10223659886E+02  0.73024147964E+02  0.80041181468E+02  0.00000000000E+00 0. -1.
          4    1    6    6  503    0 -0.65505163006E+01  0.27838424329E+03  0.42886948878E+03  0.51134111372E+03  0.00000000000E+00 0. -1.
         -4    1    6    6    0  503 -0.51053379501E+02  0.95800344635E+02  0.12257690753E+03  0.16373531034E+03  0.00000000000E+00 0.  1.
<mgrwt>
<rscale>  0 0.18570345E+04</rscale>
<asrwt>0</asrwt>
<pdfrwt beam="1">  1        1 0.32110502E+00 0.18570345E+04</pdfrwt>
<pdfrwt beam="2">  1       -1 0.63548625E-01 0.18570345E+04</pdfrwt>
<totfact> 0.61325371E+00</totfact>
</mgrwt>
</event>
<event>
12    3  0.8686020E-008  0.2899891E+04  0.7818608E-02  0.8272910E-01
         -2   -1    0    0    0  501 -0.00000000000E+00  0.00000000000E+00  0.15951342137E+04  0.15951342137E+04  0.00000000000E+00 0. -1.
          2   -1    0    0  501    0  0.00000000000E+00 -0.00000000000E+00 -0.13179717629E+04  0.13179717629E+04  0.00000000000E+00 0.  1.
         23    2    1    2    0    0 -0.12856328439E+04 -0.80775721431E+02 -0.10452340082E+03  0.12962209033E+04  0.99433206403E+02 0.  0.
        254    2    1    2    0    0  0.12856328439E+04  0.80775721431E+02  0.38168585163E+03  0.16168850732E+04  0.89958697432E+03 0.  0.
         23    2    4    4    0    0 -0.61311783202E+02  0.18596327386E+03  0.34919248041E+02  0.21918193045E+03  0.92086322373E+02 0.  0.
         23    2    4    4    0    0  0.13469446271E+04 -0.10518755243E+03  0.34676660359E+03  0.13977031428E+04  0.89458082122E+02 0.  0.
          3    1    3    3  502    0 -0.50300155538E+03 -0.49356073494E+02  0.43001879624E+01  0.50543553330E+03  0.00000000000E+00 0. -1.
         -3    1    3    3    0  502 -0.78263128847E+03 -0.31419647937E+02 -0.10882358878E+03  0.79078537003E+03  0.00000000000E+00 0.  1.
         13    1    5    5    0    0  0.15810399197E+02  0.75838768752E+02 -0.84187228901E+01  0.77925364700E+02  0.00000000000E+00 0.  1.
        -13    1    5    5    0    0 -0.77122182398E+02  0.11012450511E+03  0.43337970931E+02  0.14125656575E+03  0.00000000000E+00 0. -1.
          1    1    6    6  503    0  0.12876629682E+04 -0.86413908087E+02  0.34322007018E+03  0.13354187731E+04  0.00000000000E+00 0. -1.
         -1    1    6    6    0  503  0.59281658888E+02 -0.18773644343E+02  0.35465334121E+01  0.62284369642E+02  0.00000000000E+00 0.  1.
<mgrwt>
<rscale>  0 0.28998909E+04</rscale>
<asrwt>0</asrwt>
<pdfrwt beam="1">  1        2 0.20276489E+00 0.28998909E+04</pdfrwt>
<pdfrwt beam="2">  1       -2 0.24540526E+00 0.28998909E+04</pdfrwt>
<totfact> 0.95532920E-01</totfact>
</mgrwt>
</event>
<event>
12    3  0.8686020E-008  0.2938264E+04  0.7818608E-02  0.8261583E-01
          1   -1    0    0  501    0  0.00000000000E+00  0.00000000000E+00  0.38035894709E+04  0.38035894709E+04  0.00000000000E+00 0. -1.
         -1   -1    0    0    0  501 -0.00000000000E+00 -0.00000000000E+00 -0.56745043602E+03  0.56745043602E+03  0.00000000000E+00 0.  1.
         23    2    1    2    0    0  0.12841685980E+04  0.29160714457E+03  0.17405278910E+04  0.21845073396E+04  0.92256505635E+02 0.  0.
        254    2    1    2    0    0 -0.12841685980E+04 -0.29160714457E+03  0.14956111439E+04  0.21865325673E+04  0.89997125455E+03 0.  0.
         23    2    4    4    0    0 -0.13958533708E+04 -0.32380107564E+03  0.12695478235E+04  0.19165490503E+04  0.90304023455E+02 0.  0.
         23    2    4    4    0    0  0.11168477275E+03  0.32193931068E+02  0.22606332046E+03  0.26998351702E+03  0.90975474412E+02 0.  0.
          4    1    3    3  502    0  0.42868987645E+03  0.12667793177E+03  0.53636997467E+03  0.69822278557E+03  0.00000000000E+00 0. -1.
         -4    1    3    3    0  502  0.85547872158E+03  0.16492921281E+03  0.12041579163E+04  0.14862845541E+04  0.00000000000E+00 0.  1.
         13    1    5    5    0    0 -0.58257199232E+03 -0.11620570167E+03  0.47245630679E+03  0.75901834837E+03  0.00000000000E+00 0.  1.
        -13    1    5    5    0    0 -0.81328137846E+03 -0.20759537397E+03  0.79709151667E+03  0.11575307019E+04  0.00000000000E+00 0. -1.
          1    1    6    6  503    0  0.95956726377E+01  0.38269609122E+02  0.32713210777E+02  0.51252259219E+02  0.00000000000E+00 0. -1.
         -1    1    6    6    0  503  0.10208910012E+03 -0.60756780539E+01  0.19335010968E+03  0.21873125781E+03  0.00000000000E+00 0.  1.
<mgrwt>
<rscale>  0 0.29382638E+04</rscale>
<asrwt>0</asrwt>
<pdfrwt beam="1">  1        1 0.58516760E+00 0.29382638E+04</pdfrwt>
<pdfrwt beam="2">  1       -1 0.87300069E-01 0.29382638E+04</pdfrwt>
<totfact> 0.15632554E-01</totfact>
</mgrwt>
</event>
<event>
12    3  0.8686020E-008  0.2290308E+04  0.7818608E-02  0.8481752E-01
         -2   -1    0    0    0  501 -0.00000000000E+00  0.00000000000E+00  0.10100876686E+04  0.10100876686E+04  0.00000000000E+00 0.  1.
          2   -1    0    0  501    0  0.00000000000E+00 -0.00000000000E+00 -0.12982807317E+04  0.12982807317E+04  0.00000000000E+00 0. -1.
         23    2    1    2    0    0 -0.79692352926E+03 -0.47782345403E+02  0.42628941121E+03  0.90940755248E+03  0.89045889240E+02 0.  0.
        254    2    1    2    0    0  0.79692352926E+03  0.47782345403E+02 -0.71448247432E+03  0.13989608478E+04  0.89957544624E+03 0.  0.
         23    2    4    4    0    0  0.59052032136E+03  0.22717912114E+03 -0.12121557414E+02  0.63968901866E+03  0.93437173639E+02 0.  0.
         23    2    4    4    0    0  0.20640320790E+03 -0.17939677574E+03 -0.70236091691E+03  0.75927182912E+03  0.91637140512E+02 0.  0.
          2    1    3    3  502    0 -0.53703240263E+03 -0.30346398726E+00  0.25459170404E+03  0.59432384213E+03  0.00000000000E+00 0. -1.
         -2    1    3    3    0  502 -0.25989112663E+03 -0.47478881415E+02  0.17169770717E+03  0.31508371035E+03  0.00000000000E+00 0.  1.
         13    1    5    5    0    0  0.43434902985E+02  0.63279863157E+01 -0.23110220898E+02  0.49605609743E+02  0.00000000000E+00 0. -1.
        -13    1    5    5    0    0  0.54708541837E+03  0.22085113482E+03  0.10988663483E+02  0.59008340891E+03  0.00000000000E+00 0.  1.
          2    1    6    6  503    0  0.93844793035E+02 -0.94349123239E+02 -0.45978664947E+03  0.47865683455E+03  0.00000000000E+00 0.  1.
         -2    1    6    6    0  503  0.11255841487E+03 -0.85047652498E+02 -0.24257426744E+03  0.28061499457E+03  0.00000000000E+00 0. -1.
<mgrwt>
<rscale>  0 0.22903077E+04</rscale>
<asrwt>0</asrwt>
<pdfrwt beam="1">  1        2 0.19973550E+00 0.22903077E+04</pdfrwt>
<pdfrwt beam="2">  1       -2 0.15539810E+00 0.22903077E+04</pdfrwt>
<totfact> 0.40993276E+00</totfact>
</mgrwt>
</event>
<event>
12    3  0.8686020E-008  0.2107434E+04  0.7818608E-02  0.8557976E-01
          2   -1    0    0  501    0  0.00000000000E+00  0.00000000000E+00  0.16659326677E+04  0.16659326677E+04  0.00000000000E+00 0. -1.
         -2   -1    0    0    0  501 -0.00000000000E+00 -0.00000000000E+00 -0.66648519552E+03  0.66648519552E+03  0.00000000000E+00 0.  1.
         23    2    1    2    0    0 -0.46481981639E+03 -0.71946140656E+03  0.45994632419E+03  0.97831014682E+03  0.10889419175E+03 0.  0.
        254    2    1    2    0    0  0.46481981639E+03  0.71946140656E+03  0.53950114795E+03  0.13541077164E+04  0.89936869059E+03 0.  0.
         23    2    4    4    0    0  0.30951170184E+03  0.91767790891E+03  0.45074174189E+03  0.10723553535E+04  0.94061938790E+02 0.  0.
         23    2    4    4    0    0  0.15530811455E+03 -0.19821650234E+03  0.88759406058E+02  0.28175236281E+03  0.89976494363E+02 0.  0.
          3    1    3    3  502    0 -0.16473764784E+03 -0.29834474637E+03  0.12913770963E+03  0.36445113301E+03  0.00000000000E+00 0. -1.
         -3    1    3    3    0  502 -0.30008216854E+03 -0.42111666020E+03  0.33080861456E+03  0.61385901382E+03  0.00000000000E+00 0.  1.
         13    1    5    5    0    0  0.22570185168E+03  0.72645733664E+03  0.39034016797E+03  0.85501288560E+03  0.00000000000E+00 0. -1.
        -13    1    5    5    0    0  0.83809850164E+02  0.19122057226E+03  0.60401573922E+02  0.21734246795E+03  0.00000000000E+00 0.  1.
          1    1    6    6  503    0  0.95873263867E+02 -0.15050603569E+03  0.20832673357E+02  0.17966009513E+03  0.00000000000E+00 0. -1.
         -1    1    6    6    0  503  0.59434850681E+02 -0.47710466655E+02  0.67926732701E+02  0.10209226768E+03  0.00000000000E+00 0.  1.
<mgrwt>
<rscale>  0 0.21074339E+04</rscale>
<asrwt>0</asrwt>
<pdfrwt beam="1">  1        2 0.25629733E+00 0.21074339E+04</pdfrwt>
<pdfrwt beam="2">  1       -2 0.10253618E+00 0.21074339E+04</pdfrwt>
<totfact> 0.73426042E+00</totfact>
</mgrwt>
</event>
<event>
12    3  0.8686020E-008  0.1036523E+04  0.7818608E-02  0.9269369E-01
          2   -1    0    0  501    0  0.00000000000E+00  0.00000000000E+00  0.16669540700E+04  0.16669540700E+04  0.00000000000E+00 0. -1.
         -2   -1    0    0    0  501 -0.00000000000E+00 -0.00000000000E+00 -0.16112933707E+03  0.16112933707E+03  0.00000000000E+00 0.  1.
         23    2    1    2    0    0  0.10425935204E+02  0.74129118034E+02  0.31574991736E+03  0.33687504192E+03  0.90459699796E+02 0.  0.
        254    2    1    2    0    0 -0.10425935204E+02 -0.74129118034E+02  0.11900748156E+04  0.14912083652E+04  0.89544430057E+03 0.  0.
         23    2    4    4    0    0 -0.31165253793E+03 -0.29212262804E+03  0.32188403655E+03  0.54243524523E+03  0.90353351163E+02 0.  0.
         23    2    4    4    0    0  0.30122660272E+03  0.21799351001E+03  0.86819077906E+03  0.94877311998E+03  0.90313718476E+02 0.  0.
          1    1    3    3  502    0 -0.20942673269E+02  0.46196187307E+01  0.17915630453E+03  0.18043535655E+03  0.00000000000E+00 0. -1.
         -1    1    3    3    0  502  0.31368608473E+02  0.69509499303E+02  0.13659361283E+03  0.15643968537E+03  0.00000000000E+00 0.  1.
         13    1    5    5    0    0 -0.13627886983E+03 -0.68816785800E+02  0.11216783178E+03  0.18944472243E+03  0.00000000000E+00 0. -1.
        -13    1    5    5    0    0 -0.17537366810E+03 -0.22330584224E+03  0.20971620477E+03  0.35299052280E+03  0.00000000000E+00 0.  1.
          1    1    6    6  503    0  0.10230259737E+01  0.17591324395E+01  0.58778560408E+02  0.58813776386E+02  0.00000000000E+00 0. -1.
         -1    1    6    6    0  503  0.30020357675E+03  0.21623437757E+03  0.80941221865E+03  0.88995934359E+03  0.00000000000E+00 0.  1.
<mgrwt>
<rscale>  0 0.10365234E+04</rscale>
<asrwt>0</asrwt>
<pdfrwt beam="1">  1        2 0.25645446E+00 0.10365234E+04</pdfrwt>
<pdfrwt beam="2">  1       -2 0.24789130E-01 0.10365234E+04</pdfrwt>
<totfact> 0.14852450E+02</totfact>
</mgrwt>
</event>
<event>
12    3  0.8686020E-008  0.1809727E+04  0.7818608E-02  0.8701144E-01
          1   -1    0    0  501    0  0.00000000000E+00  0.00000000000E+00  0.37568821771E+03  0.37568821771E+03  0.00000000000E+00 0. -1.
         -1   -1    0    0    0  501 -0.00000000000E+00 -0.00000000000E+00 -0.21794071879E+04  0.21794071879E+04  0.00000000000E+00 0.  1.
         23    2    1    2    0    0 -0.19493033680E+03 -0.62612537978E+03 -0.91989059295E+03  0.11333845586E+04  0.91274461094E+02 0.  0.
        254    2    1    2    0    0  0.19493033680E+03  0.62612537978E+03 -0.88382837728E+03  0.14217108471E+04  0.90004350158E+03 0.  0.
         23    2    4    4    0    0  0.42710707782E+03  0.39985012612E+03 -0.14521065032E+03  0.60986824071E+03  0.92480045257E+02 0.  0.
         23    2    4    4    0    0 -0.23217674103E+03  0.22627525366E+03 -0.73861772696E+03  0.81184260635E+03  0.91791837417E+02 0.  0.
          3    1    3    3  502    0 -0.12915754494E+03 -0.26684396737E+03 -0.39312102916E+03  0.49237335215E+03  0.00000000000E+00 0. -1.
         -3    1    3    3    0  502 -0.65772791855E+02 -0.35928141240E+03 -0.52676956379E+03  0.64101120644E+03  0.00000000000E+00 0.  1.
         13    1    5    5    0    0  0.39080640335E+03  0.37116772713E+03 -0.10617229777E+03  0.54933385421E+03  0.00000000000E+00 0. -1.
        -13    1    5    5    0    0  0.36300674471E+02  0.28682398985E+02 -0.39038352551E+02  0.60534386496E+02  0.00000000000E+00 0.  1.
          3    1    6    6  503    0 -0.89776926668E+02  0.13444184431E+03 -0.43615742417E+03  0.46515352812E+03  0.00000000000E+00 0. -1.
         -3    1    6    6    0  503 -0.14239981436E+03  0.91833409346E+02 -0.30246030279E+03  0.34668907823E+03  0.00000000000E+00 0.  1.
<mgrwt>
<rscale>  0 0.18097266E+04</rscale>
<asrwt>0</asrwt>
<pdfrwt beam="1">  1        1 0.57798188E-01 0.18097266E+04</pdfrwt>
<pdfrwt beam="2">  1       -1 0.33529341E+00 0.18097266E+04</pdfrwt>
<totfact> 0.11973120E+00</totfact>
</mgrwt>
</event>
<event>
12    3  0.8686020E-008  0.1328712E+04  0.7818608E-02  0.9007101E-01
          2   -1    0    0  501    0  0.00000000000E+00  0.00000000000E+00  0.63895967450E+03  0.63895967450E+03  0.00000000000E+00 0. -1.
         -2   -1    0    0    0  501 -0.00000000000E+00 -0.00000000000E+00 -0.69076221326E+03  0.69076221326E+03  0.00000000000E+00 0.  1.
         23    2    1    2    0    0 -0.65434952783E+02 -0.26291524756E+03 -0.23762285775E+03  0.37090855267E+03  0.87763155567E+02 0.  0.
        254    2    1    2    0    0  0.65434952783E+02  0.26291524756E+03  0.18582031899E+03  0.95881333509E+03  0.90077059241E+03 0.  0.
         23    2    4    4    0    0  0.10902928497E+03  0.23358087411E+03 -0.33230505630E+03  0.43034660458E+03  0.91236724549E+02 0.  0.
         23    2    4    4    0    0 -0.43594332192E+02  0.29334373451E+02  0.51812537528E+03  0.52846673051E+03  0.89789807207E+02 0.  0.
          4    1    3    3  502    0 -0.74760004737E+02 -0.14432978967E+03 -0.10896215193E+03  0.19568570987E+03  0.00000000000E+00 0. -1.
         -4    1    3    3    0  502  0.93250519547E+01 -0.11858545788E+03 -0.12866070582E+03  0.17522284280E+03  0.00000000000E+00 0.  1.
         13    1    5    5    0    0  0.36213427407E+02  0.17851280016E+03 -0.22090543791E+03  0.28631703519E+03  0.00000000000E+00 0. -1.
        -13    1    5    5    0    0  0.72815857568E+02  0.55068073951E+02 -0.11139961839E+03  0.14402956939E+03  0.00000000000E+00 0.  1.
          3    1    6    6  503    0 -0.32401895467E+02  0.36790413727E+02  0.51081031418E+03  0.51315747529E+03  0.00000000000E+00 0. -1.
         -3    1    6    6    0  503 -0.11192436726E+02 -0.74560402755E+01  0.73150611010E+01  0.15309255219E+02  0.00000000000E+00 0.  1.
<mgrwt>
<rscale>  0 0.13287125E+04</rscale>
<asrwt>0</asrwt>
<pdfrwt beam="1">  1        2 0.98301489E-01 0.13287125E+04</pdfrwt>
<pdfrwt beam="2">  1       -2 0.10627111E+00 0.13287125E+04</pdfrwt>
<totfact> 0.32085473E+01</totfact>
</mgrwt>
</event>
<event>
12    3  0.8686020E-008  0.1372169E+04  0.7818608E-02  0.8974214E-01
         -1   -1    0    0    0  501 -0.00000000000E+00  0.00000000000E+00  0.96811625777E+03  0.96811625777E+03  0.00000000000E+00 0.  1.
          1   -1    0    0  501    0  0.00000000000E+00 -0.00000000000E+00 -0.48621424576E+03  0.48621424576E+03  0.00000000000E+00 0. -1.
         23    2    1    2    0    0 -0.11631251121E+03  0.32205980444E+03 -0.37022804162E+02  0.35632654680E+03  0.91360834198E+02 0.  0.
        254    2    1    2    0    0  0.11631251121E+03 -0.32205980444E+03  0.51892481617E+03  0.10980039567E+04  0.90502961623E+03 0.  0.
         23    2    4    4    0    0  0.35600242115E+03 -0.52475257515E+03  0.33693840518E+03  0.72405823806E+03  0.92897008660E+02 0.  0.
         23    2    4    4    0    0 -0.23968990994E+03  0.20269277071E+03  0.18198641099E+03  0.37394571867E+03  0.90447412905E+02 0.  0.
          3    1    3    3  502    0 -0.11412943163E+03  0.21477688044E+03 -0.12656480293E+01  0.24322055300E+03  0.00000000000E+00 0. -1.
         -3    1    3    3    0  502 -0.21830795763E+01  0.10728292400E+03 -0.35757156133E+02  0.11310599380E+03  0.00000000000E+00 0.  1.
         13    1    5    5    0    0  0.22737751702E+03 -0.38998157073E+03  0.27049896709E+03  0.52626595173E+03  0.00000000000E+00 0. -1.
        -13    1    5    5    0    0  0.12862490413E+03 -0.13477100443E+03  0.66439438088E+02  0.19779228633E+03  0.00000000000E+00 0.  1.
          1    1    6    6  503    0 -0.21453860599E+03  0.15723144566E+03  0.11657255112E+03  0.29040953951E+03  0.00000000000E+00 0. -1.
         -1    1    6    6    0  503 -0.25151303952E+02  0.45461325053E+02  0.65413859865E+02  0.83536179159E+02  0.00000000000E+00 0.  1.
<mgrwt>
<rscale>  0 0.13721690E+04</rscale>
<asrwt>0</asrwt>
<pdfrwt beam="1">  1        1 0.74802192E-01 0.13721690E+04</pdfrwt>
<pdfrwt beam="2">  1       -1 0.14894096E+00 0.13721690E+04</pdfrwt>
<totfact> 0.16009491E+01</totfact>
</mgrwt>
</event>
<event>
12    3  0.8686020E-008  0.1704553E+04  0.7818608E-02  0.8758772E-01
          2   -1    0    0  501    0  0.00000000000E+00  0.00000000000E+00  0.11271583543E+04  0.11271583543E+04  0.00000000000E+00 0. -1.
         -2   -1    0    0    0  501 -0.00000000000E+00 -0.00000000000E+00 -0.64443039104E+03  0.64443039104E+03  0.00000000000E+00 0.  1.
         23    2    1    2    0    0  0.49244449739E+03 -0.32860164519E+03  0.33992668422E+03  0.68918978793E+03  0.94613893844E+02 0.  0.
        254    2    1    2    0    0 -0.49244449739E+03  0.32860164519E+03  0.14280127899E+03  0.10823989574E+04  0.89482661640E+03 0.  0.
         23    2    4    4    0    0 -0.48740439094E+03  0.12934751995E+03  0.46542955121E+03  0.69200079341E+03  0.89143758699E+02 0.  0.
         23    2    4    4    0    0 -0.50401064510E+01  0.19925412524E+03 -0.32262827222E+03  0.39039816397E+03  0.92704451346E+02 0.  0.
          1    1    3    3  502    0  0.24259341303E+03 -0.11323087403E+03  0.17998971600E+03  0.32259741590E+03  0.00000000000E+00 0. -1.
         -1    1    3    3    0  502  0.24985108436E+03 -0.21537077116E+03  0.15993696822E+03  0.36659237203E+03  0.00000000000E+00 0.  1.
         13    1    5    5    0    0 -0.18311943622E+02  0.23256534826E+02  0.15507061271E+02  0.33416502519E+02  0.00000000000E+00 0. -1.
        -13    1    5    5    0    0 -0.46909244732E+03  0.10609098513E+03  0.44992248994E+03  0.65858429089E+03  0.00000000000E+00 0.  1.
          1    1    6    6  503    0  0.27910925724E+02  0.11873985412E+03 -0.12592075167E+03  0.17531174642E+03  0.00000000000E+00 0. -1.
         -1    1    6    6    0  503 -0.32951032175E+02  0.80514271116E+02 -0.19670752055E+03  0.21508641755E+03  0.00000000000E+00 0.  1.
<mgrwt>
<rscale>  0 0.17045528E+04</rscale>
<asrwt>0</asrwt>
<pdfrwt beam="1">  1        2 0.17340898E+00 0.17045528E+04</pdfrwt>
<pdfrwt beam="2">  1       -2 0.99143137E-01 0.17045528E+04</pdfrwt>
<totfact> 0.16813732E+01</totfact>
</mgrwt>
</event>
<event>
12    3  0.8686020E-008  0.1288440E+04  0.7818608E-02  0.9038783E-01
         -1   -1    0    0    0  501 -0.00000000000E+00  0.00000000000E+00  0.25425107181E+03  0.25425107181E+03  0.00000000000E+00 0.  1.
          1   -1    0    0  501    0  0.00000000000E+00 -0.00000000000E+00 -0.16323205412E+04  0.16323205412E+04  0.00000000000E+00 0. -1.
         23    2    1    2    0    0 -0.13357960641E+03 -0.24085555090E+03 -0.11706653064E+03  0.31265645632E+03  0.90523916391E+02 0.  0.
        254    2    1    2    0    0  0.13357960641E+03  0.24085555090E+03 -0.12610029388E+04  0.15739151567E+04  0.90068063225E+03 0.  0.
         23    2    4    4    0    0  0.39477145751E+01  0.51788298960E+03 -0.10928447799E+04  0.12136727557E+04  0.10233997019E+03 0.  0.
         23    2    4    4    0    0  0.12963189183E+03 -0.27702743871E+03 -0.16815815886E+03  0.36024240105E+03  0.89155997810E+02 0.  0.
          2    1    3    3  502    0 -0.39756715129E+01 -0.42249403823E+02 -0.51252502134E+02  0.66540491901E+02  0.00000000000E+00 0. -1.
         -2    1    3    3    0  502 -0.12960393490E+03 -0.19860614707E+03 -0.65814028510E+02  0.24611596442E+03  0.00000000000E+00 0.  1.
         13    1    5    5    0    0  0.16798490491E+02  0.93733873766E+01 -0.38934758094E+02  0.43427699243E+02  0.00000000000E+00 0. -1.
        -13    1    5    5    0    0 -0.12850775916E+02  0.50850960223E+03 -0.10539100218E+04  0.11702450564E+04  0.00000000000E+00 0.  1.
          3    1    6    6  503    0  0.44888955443E+02 -0.50797861128E+02 -0.75588196946E+02  0.10153332721E+03  0.00000000000E+00 0. -1.
         -3    1    6    6    0  503  0.84742936390E+02 -0.22622957758E+03 -0.92569961909E+02  0.25870907384E+03  0.00000000000E+00 0.  1.
<mgrwt>
<rscale>  0 0.12884397E+04</rscale>
<asrwt>0</asrwt>
<pdfrwt beam="1">  1        1 0.25112624E+00 0.12884397E+04</pdfrwt>
<pdfrwt beam="2">  1       -1 0.39115550E-01 0.12884397E+04</pdfrwt>
<totfact> 0.33086103E+01</totfact>
</mgrwt>
</event>
<event>
12    3  0.8686020E-008  0.1664100E+04  0.7818608E-02  0.8782109E-01
          1   -1    0    0  501    0  0.00000000000E+00  0.00000000000E+00  0.12828948289E+04  0.12828948289E+04  0.00000000000E+00 0. -1.
         -1   -1    0    0    0  501 -0.00000000000E+00 -0.00000000000E+00 -0.53964453471E+03  0.53964453471E+03  0.00000000000E+00 0.  1.
         23    2    1    2    0    0 -0.40326374775E+03  0.95207639048E+02  0.70715805995E+03  0.82483988448E+03  0.92747875928E+02 0.  0.
        254    2    1    2    0    0  0.40326374775E+03 -0.95207639048E+02  0.36092234250E+02  0.99769947915E+03  0.90687124584E+03 0.  0.
         23    2    4    4    0    0  0.67162694997E+03 -0.54485900475E+02 -0.88425046494E+02  0.68589016235E+03  0.92600500505E+02 0.  0.
         23    2    4    4    0    0 -0.26836320221E+03 -0.40721738573E+02  0.12451728074E+03  0.31180931680E+03  0.89685163452E+02 0.  0.
          3    1    3    3  502    0 -0.13387623423E+03  0.10082430099E+02  0.15851371359E+03  0.20772842580E+03  0.00000000000E+00 0.  1.
         -3    1    3    3    0  502 -0.26938751352E+03  0.85125208949E+02  0.54864434636E+03  0.61711145868E+03  0.00000000000E+00 0. -1.
         13    1    5    5    0    0  0.58888322903E+03 -0.54970156968E+02 -0.10710439790E+03  0.60106283169E+03  0.00000000000E+00 0. -1.
        -13    1    5    5    0    0  0.82743720940E+02  0.48425649303E+00  0.18679351402E+02  0.84827330667E+02  0.00000000000E+00 0.  1.
          1    1    6    6  503    0 -0.22265171008E+03  0.21598054230E+01  0.10489434698E+03  0.24613263252E+03  0.00000000000E+00 0. -1.
         -1    1    6    6    0  503 -0.45711492130E+02 -0.42881543996E+02  0.19622933760E+02  0.65676684277E+02  0.00000000000E+00 0.  1.
<mgrwt>
<rscale>  0 0.16641000E+04</rscale>
<asrwt>0</asrwt>
<pdfrwt beam="1">  1        1 0.19736843E+00 0.16641000E+04</pdfrwt>
<pdfrwt beam="2">  1       -1 0.83022237E-01 0.16641000E+04</pdfrwt>
<totfact> 0.12795165E+01</totfact>
</mgrwt>
</event>
<event>
12    3  0.8686020E-008  0.4405132E+04  0.7818608E-02  0.7927459E-01
          2   -1    0    0  501    0  0.00000000000E+00  0.00000000000E+00  0.31131473556E+04  0.31131473556E+04  0.00000000000E+00 0.  1.
         -2   -1    0    0    0  501 -0.00000000000E+00 -0.00000000000E+00 -0.15583254344E+04  0.15583254344E+04  0.00000000000E+00 0. -1.
         23    2    1    2    0    0 -0.72590063684E+02  0.21086919605E+04  0.79141970715E+03  0.22553352133E+04  0.91327268319E+02 0.  0.
        254    2    1    2    0    0  0.72590063684E+02 -0.21086919605E+04  0.76340221411E+03  0.24161375767E+04  0.89615107385E+03 0.  0.
         23    2    4    4    0    0 -0.16674284314E+03 -0.47821594397E+03  0.54780157756E+03  0.75162717549E+03  0.91450411476E+02 0.  0.
         23    2    4    4    0    0  0.23933290682E+03 -0.16304760166E+04  0.21560063655E+03  0.16645104012E+04  0.91536660958E+02 0.  0.
          2    1    3    3  502    0 -0.20610807258E+02  0.88990963980E+03  0.38094448684E+03  0.96823688963E+03  0.00000000000E+00 0. -1.
         -2    1    3    3    0  502 -0.51979256426E+02  0.12187823207E+04  0.41047522030E+03  0.12870983237E+04  0.00000000000E+00 0.  1.
         13    1    5    5    0    0 -0.14992780849E+03 -0.46040356155E+03  0.54134553973E+03  0.72629524343E+03  0.00000000000E+00 0. -1.
        -13    1    5    5    0    0 -0.16815034641E+02 -0.17812382420E+02  0.64560378303E+01  0.25331932061E+02  0.00000000000E+00 0.  1.
          1    1    6    6  503    0  0.14404158486E+03 -0.83536680856E+03  0.69970188119E+02  0.85057716301E+03  0.00000000000E+00 0. -1.
         -1    1    6    6    0  503  0.95291321955E+02 -0.79510920801E+03  0.14563044843E+03  0.81393323818E+03  0.00000000000E+00 0.  1.
<mgrwt>
<rscale>  0 0.44051319E+04</rscale>
<asrwt>0</asrwt>
<pdfrwt beam="1">  1        2 0.47894575E+00 0.44051319E+04</pdfrwt>
<pdfrwt beam="2">  1       -2 0.23974238E+00 0.44051319E+04</pdfrwt>
<totfact> 0.83720353E-02</totfact>
</mgrwt>
</event>
<event>
12    3  0.8686020E-008  0.3019599E+04  0.7818608E-02  0.8238156E-01
         -1   -1    0    0    0  501 -0.00000000000E+00  0.00000000000E+00  0.14818842519E+04  0.14818842519E+04  0.00000000000E+00 0.  1.
          1   -1    0    0  501    0  0.00000000000E+00 -0.00000000000E+00 -0.15382405604E+04  0.15382405604E+04  0.00000000000E+00 0. -1.
         23    2    1    2    0    0  0.11061657021E+04  0.61341850007E+03  0.51399381395E+03  0.13683079166E+04  0.90510203375E+02 0.  0.
        254    2    1    2    0    0 -0.11061657021E+04 -0.61341850007E+03 -0.57035012247E+03  0.16518168958E+04  0.89627840446E+03 0.  0.
         23    2    4    4    0    0 -0.84779852363E+03 -0.54142740147E+03 -0.79867899161E+03  0.12876684941E+04  0.91082662208E+02 0.  0.
         23    2    4    4    0    0 -0.25836717851E+03 -0.71991098599E+02  0.22832886914E+03  0.36414840171E+03  0.92377858690E+02 0.  0.
          3    1    3    3  502    0  0.59978668087E+03  0.28123566249E+03  0.26307433738E+03  0.71277322297E+03  0.00000000000E+00 0. -1.
         -3    1    3    3    0  502  0.50637902128E+03  0.33218283758E+03  0.25091947657E+03  0.65553469359E+03  0.00000000000E+00 0.  1.
         13    1    5    5    0    0 -0.33845757377E+02 -0.98383603779E+01 -0.47254282851E+02  0.58951640139E+02  0.00000000000E+00 0.  1.
        -13    1    5    5    0    0 -0.81395276626E+03 -0.53158904109E+03 -0.75142470876E+03  0.12287168540E+04  0.00000000000E+00 0. -1.
          3    1    6    6  503    0 -0.14058791441E+03 -0.57022775813E+02  0.18141022413E+03  0.23648726828E+03  0.00000000000E+00 0. -1.
         -3    1    6    6    0  503 -0.11777926410E+03 -0.14968322785E+02  0.46918645010E+02  0.12766113343E+03  0.00000000000E+00 0.  1.
<mgrwt>
<rscale>  0 0.30195990E+04</rscale>
<asrwt>0</asrwt>
<pdfrwt beam="1">  1        1 0.23665239E+00 0.30195990E+04</pdfrwt>
<pdfrwt beam="2">  1       -1 0.22798219E+00 0.30195990E+04</pdfrwt>
<totfact> 0.50908605E-01</totfact>
</mgrwt>
</event>
<event>
12    3  0.8686020E-008  0.1813565E+04  0.7818608E-02  0.8699119E-01
         -2   -1    0    0    0  501 -0.00000000000E+00  0.00000000000E+00  0.53299667831E+03  0.53299667831E+03  0.00000000000E+00 0.  1.
          2   -1    0    0  501    0  0.00000000000E+00 -0.00000000000E+00 -0.15427012756E+04  0.15427012756E+04  0.00000000000E+00 0. -1.
         23    2    1    2    0    0  0.27185777104E+03 -0.52232545820E+03 -0.76971040958E+03  0.97356788499E+03  0.93004194021E+02 0.  0.
        254    2    1    2    0    0 -0.27185777104E+03  0.52232545820E+03 -0.23999418771E+03  0.11021300689E+04  0.90020161449E+03 0.  0.
         23    2    4    4    0    0 -0.20236534142E+03  0.30347606986E+01  0.28020549039E+03  0.35823627730E+03  0.94112551495E+02 0.  0.
         23    2    4    4    0    0 -0.69492429614E+02  0.51929069750E+03 -0.52019967810E+03  0.74389379162E+03  0.90984843958E+02 0.  0.
          4    1    3    3  502    0  0.97915382395E+02 -0.28510859202E+03 -0.41004507549E+03  0.50893152318E+03  0.00000000000E+00 0. -1.
         -4    1    3    3    0  502  0.17394238864E+03 -0.23721686618E+03 -0.35966533409E+03  0.46463636181E+03  0.00000000000E+00 0.  1.
         13    1    5    5    0    0 -0.90291035509E+02  0.41575094556E+02  0.89799219050E+02  0.13395842386E+03  0.00000000000E+00 0.  1.
        -13    1    5    5    0    0 -0.11207430592E+03 -0.38540333857E+02  0.19040627134E+03  0.22427785344E+03  0.00000000000E+00 0. -1.
          1    1    6    6  503    0 -0.84121383238E+02  0.50014169024E+03 -0.48943980562E+03  0.70481872901E+03  0.00000000000E+00 0. -1.
         -1    1    6    6    0  503  0.14628953624E+02  0.19149007262E+02 -0.30759872476E+02  0.39075062610E+02  0.00000000000E+00 0.  1.
<mgrwt>
<rscale>  0 0.18135652E+04</rscale>
<asrwt>0</asrwt>
<pdfrwt beam="1">  1        2 0.23733866E+00 0.18135652E+04</pdfrwt>
<pdfrwt beam="2">  1       -2 0.81999489E-01 0.18135652E+04</pdfrwt>
<totfact> 0.14806044E+01</totfact>
</mgrwt>
</event>
<event>
12    3  0.8686020E-008  0.2396282E+04  0.7818608E-02  0.8440897E-01
          2   -1    0    0  501    0  0.00000000000E+00  0.00000000000E+00  0.16118288743E+04  0.16118288743E+04  0.00000000000E+00 0. -1.
         -2   -1    0    0    0  501 -0.00000000000E+00 -0.00000000000E+00 -0.89062906298E+03  0.89062906298E+03  0.00000000000E+00 0.  1.
         23    2    1    2    0    0 -0.36318102328E+03 -0.95645549960E+03  0.39737152443E+03  0.11017194663E+04  0.95781395218E+02 0.  0.
        254    2    1    2    0    0  0.36318102328E+03  0.95645549960E+03  0.32382828689E+03  0.14007384710E+04  0.90027547244E+03 0.  0.
         23    2    4    4    0    0  0.48169136863E+03  0.74023994442E+03  0.55801572563E+03  0.10489055507E+04  0.94018903600E+02 0.  0.
         23    2    4    4    0    0 -0.11851034535E+03  0.21621555517E+03 -0.23418743874E+03  0.35183292030E+03  0.90270588198E+02 0.  0.
          1    1    3    3  502    0 -0.33404585869E+03 -0.78371354707E+03  0.34166964384E+03  0.91789525824E+03  0.00000000000E+00 0. -1.
         -1    1    3    3    0  502 -0.29135164590E+02 -0.17274195252E+03  0.55701880594E+02  0.18382420809E+03  0.00000000000E+00 0.  1.
         13    1    5    5    0    0  0.35677963468E+03  0.47974818333E+03  0.40344033477E+03  0.72125871285E+03  0.00000000000E+00 0.  1.
        -13    1    5    5    0    0  0.12491173394E+03  0.26049176109E+03  0.15457539086E+03  0.32764683782E+03  0.00000000000E+00 0. -1.
          1    1    6    6  503    0 -0.30311407221E+02  0.97387854981E+02 -0.15055682820E+03  0.18185305668E+03  0.00000000000E+00 0. -1.
         -1    1    6    6    0  503 -0.88198938127E+02  0.11882770019E+03 -0.83630610541E+02  0.16997986363E+03  0.00000000000E+00 0.  1.
<mgrwt>
<rscale>  0 0.23962818E+04</rscale>
<asrwt>0</asrwt>
<pdfrwt beam="1">  1        2 0.24797367E+00 0.23962818E+04</pdfrwt>
<pdfrwt beam="2">  1       -2 0.13701986E+00 0.23962818E+04</pdfrwt>
<totfact> 0.37525083E+00</totfact>
</mgrwt>
</event>
<event>
12    3  0.8686020E-008  0.3839174E+04  0.7818608E-02  0.8037800E-01
         -2   -1    0    0    0  501 -0.00000000000E+00  0.00000000000E+00  0.14599965254E+04  0.14599965254E+04  0.00000000000E+00 0. -1.
          2   -1    0    0  501    0  0.00000000000E+00 -0.00000000000E+00 -0.25238509718E+04  0.25238509718E+04  0.00000000000E+00 0.  1.
         23    2    1    2    0    0  0.12404493236E+04 -0.13058118664E+04 -0.28922243485E+03  0.18263605200E+04  0.89910941903E+02 0.  0.
        254    2    1    2    0    0 -0.12404493236E+04  0.13058118664E+04 -0.77463201163E+03  0.21574869772E+04  0.90046440720E+03 0.  0.
         23    2    4    4    0    0 -0.57889973334E+03  0.10641469141E+04 -0.78677619350E+03  0.14472668737E+04  0.89616232907E+02 0.  0.
         23    2    4    4    0    0 -0.66154959022E+03  0.24166495235E+03  0.12144181874E+02  0.71022010347E+03  0.90638318137E+02 0.  0.
          1    1    3    3  502    0  0.39823144114E+03 -0.44321414319E+03 -0.56325169076E+02  0.59849777118E+03  0.00000000000E+00 0. -1.
         -1    1    3    3    0  502  0.84221788242E+03 -0.86259772320E+03 -0.23289726578E+03  0.12278627488E+04  0.00000000000E+00 0.  1.
         13    1    5    5    0    0 -0.25580848287E+03  0.49789375781E+03 -0.31276126099E+03  0.64121430142E+03  0.00000000000E+00 0.  1.
        -13    1    5    5    0    0 -0.32309125047E+03  0.56625315624E+03 -0.47401493252E+03  0.80605257231E+03  0.00000000000E+00 0. -1.
          4    1    6    6  503    0 -0.42882382839E+03  0.18782705710E+03 -0.23293071818E+02  0.46873387585E+03  0.00000000000E+00 0. -1.
         -4    1    6    6    0  503 -0.23272576183E+03  0.53837895246E+02  0.35437253692E+02  0.24148622763E+03  0.00000000000E+00 0.  1.
<mgrwt>
<rscale>  0 0.38391737E+04</rscale>
<asrwt>0</asrwt>
<pdfrwt beam="1">  1        2 0.38828476E+00 0.38391737E+04</pdfrwt>
<pdfrwt beam="2">  1       -2 0.22461485E+00 0.38391737E+04</pdfrwt>
<totfact> 0.24904765E-01</totfact>
</mgrwt>
</event>
<event>
12    3  0.8686020E-008  0.1507769E+04  0.7818608E-02  0.8879303E-01
         -2   -1    0    0    0  501 -0.00000000000E+00  0.00000000000E+00  0.16489748047E+03  0.16489748047E+03  0.00000000000E+00 0.  1.
          2   -1    0    0  501    0  0.00000000000E+00 -0.00000000000E+00 -0.34466370735E+04  0.34466370735E+04  0.00000000000E+00 0. -1.
         23    2    1    2    0    0 -0.44780266977E+03  0.10038233075E+03 -0.75312120800E+03  0.88676162707E+03  0.92470459703E+02 0.  0.
        254    2    1    2    0    0  0.44780266977E+03 -0.10038233075E+03 -0.25286183851E+04  0.27247729269E+04  0.90546823393E+03 0.  0.
         23    2    4    4    0    0  0.28981984776E+03  0.20140750909E+03 -0.22408314564E+04  0.22698834587E+04  0.80528075512E+02 0.  0.
         23    2    4    4    0    0  0.15798282201E+03 -0.30178983984E+03 -0.28778692864E+03  0.45488946827E+03  0.89818887549E+02 0.  0.
          1    1    3    3  502    0 -0.23280942290E+03  0.48081478513E+01 -0.37379007134E+03  0.44038887714E+03  0.00000000000E+00 0. -1.
         -1    1    3    3    0  502 -0.21499324687E+03  0.95574182896E+02 -0.37933113667E+03  0.44637274993E+03  0.00000000000E+00 0.  1.
         13    1    5    5    0    0  0.14643789997E+02 -0.74389980055E+01 -0.11470438188E+03  0.11587439104E+03  0.00000000000E+00 0.  1.
        -13    1    5    5    0    0  0.27517605776E+03  0.20884650710E+03 -0.21261270745E+04  0.21540090676E+04  0.00000000000E+00 0. -1.
          3    1    6    6  503    0  0.13494336151E+03 -0.24891585076E+03 -0.18876561264E+03  0.34029585377E+03  0.00000000000E+00 0. -1.
         -3    1    6    6    0  503  0.23039460501E+02 -0.52873989081E+02 -0.99021316000E+02  0.11459361450E+03  0.00000000000E+00 0.  1.
<mgrwt>
<rscale>  0 0.15077689E+04</rscale>
<asrwt>0</asrwt>
<pdfrwt beam="1">  1        2 0.53025179E+00 0.15077689E+04</pdfrwt>
<pdfrwt beam="2">  1       -2 0.25368846E-01 0.15077689E+04</pdfrwt>
<totfact> 0.12103651E+01</totfact>
</mgrwt>
</event>
<event>
12    3  0.8686020E-008  0.1925633E+04  0.7818608E-02  0.8642201E-01
         -2   -1    0    0    0  501 -0.00000000000E+00  0.00000000000E+00  0.34329687705E+03  0.34329687705E+03  0.00000000000E+00 0.  1.
          2   -1    0    0  501    0  0.00000000000E+00 -0.00000000000E+00 -0.27003335743E+04  0.27003335743E+04  0.00000000000E+00 0. -1.
         23    2    1    2    0    0  0.21135289654E+03  0.69624463304E+03 -0.11972167958E+04  0.14040218238E+04  0.92317871697E+02 0.  0.
        254    2    1    2    0    0 -0.21135289654E+03 -0.69624463304E+03 -0.11598199015E+04  0.16396086276E+04  0.90205743280E+03 0.  0.
         23    2    4    4    0    0 -0.35788788133E+03 -0.45273263131E+03 -0.17391439471E+03  0.60969398535E+03  0.91814857304E+02 0.  0.
         23    2    4    4    0    0  0.14653498479E+03 -0.24351200173E+03 -0.98590550676E+03  0.10299146423E+04  0.89128589137E+02 0.  0.
          4    1    3    3  502    0  0.16907017969E+03  0.42164913704E+03 -0.70125218143E+03  0.83554015007E+03  0.00000000000E+00 0. -1.
         -4    1    3    3    0  502  0.42282716856E+02  0.27459549600E+03 -0.49596461440E+03  0.56848167368E+03  0.00000000000E+00 0.  1.
         13    1    5    5    0    0 -0.34431751948E+03 -0.43183558805E+03 -0.14400586403E+03  0.57076634291E+03  0.00000000000E+00 0. -1.
        -13    1    5    5    0    0 -0.13570361855E+02 -0.20897043258E+02 -0.29908530683E+02  0.38927642434E+02  0.00000000000E+00 0.  1.
          1    1    6    6  503    0  0.45668623426E+02 -0.15946274830E+03 -0.51546646434E+03  0.54149761506E+03  0.00000000000E+00 0. -1.
         -1    1    6    6    0  503  0.10086636136E+03 -0.84049253431E+02 -0.47043904242E+03  0.48841702723E+03  0.00000000000E+00 0.  1.
<mgrwt>
<rscale>  0 0.19256335E+04</rscale>
<asrwt>0</asrwt>
<pdfrwt beam="1">  1        2 0.41543595E+00 0.19256335E+04</pdfrwt>
<pdfrwt beam="2">  1       -2 0.52814902E-01 0.19256335E+04</pdfrwt>
<totfact> 0.84012402E+00</totfact>
</mgrwt>
</event>
<event>
12    3  0.8686020E-008  0.2214737E+04  0.7818608E-02  0.8512319E-01
         -2   -1    0    0    0  501 -0.00000000000E+00  0.00000000000E+00  0.77714994602E+03  0.77714994602E+03  0.00000000000E+00 0.  1.
          2   -1    0    0  501    0  0.00000000000E+00 -0.00000000000E+00 -0.15779000332E+04  0.15779000332E+04  0.00000000000E+00 0. -1.
         23    2    1    2    0    0 -0.37032084232E+03 -0.26678503012E+02  0.56232985961E+03  0.67975475077E+03  0.89456030621E+02 0.  0.
        254    2    1    2    0    0  0.37032084232E+03  0.26678503012E+02 -0.13630799468E+04  0.16752952285E+04  0.90043205872E+03 0.  0.
         23    2    4    4    0    0  0.28476394977E+03  0.13268211433E+03 -0.26036653834E+02  0.32820821882E+03  0.91365622670E+02 0.  0.
         23    2    4    4    0    0  0.85556892544E+02 -0.10600361132E+03 -0.13370432930E+04  0.13470870097E+04  0.91661861138E+02 0.  0.
          3    1    3    3  502    0 -0.10545687289E+03  0.53616681688E+01  0.97085587554E+02  0.14344166353E+03  0.00000000000E+00 0. -1.
         -3    1    3    3    0  502 -0.26486396943E+03 -0.32040171181E+02  0.46524427205E+03  0.53631308724E+03  0.00000000000E+00 0.  1.
         13    1    5    5    0    0  0.41652055910E+01 -0.26795182556E+01 -0.15734892431E+02  0.16495926634E+02  0.00000000000E+00 0.  1.
        -13    1    5    5    0    0  0.28059874418E+03  0.13536163259E+03 -0.10301761403E+02  0.31171229219E+03  0.00000000000E+00 0. -1.
          3    1    6    6  503    0  0.58472999832E+02 -0.97245037789E+02 -0.12574040287E+04  0.12625135962E+04  0.00000000000E+00 0. -1.
         -3    1    6    6    0  503  0.27083892712E+02 -0.87585735337E+01 -0.79639264249E+02  0.84573413464E+02  0.00000000000E+00 0.  1.
<mgrwt>
<rscale>  0 0.22147369E+04</rscale>
<asrwt>0</asrwt>
<pdfrwt beam="1">  1        2 0.24275385E+00 0.22147369E+04</pdfrwt>
<pdfrwt beam="2">  1       -2 0.11956153E+00 0.22147369E+04</pdfrwt>
<totfact> 0.56142250E+00</totfact>
</mgrwt>
</event>
<event>
12    3  0.8686020E-008  0.2799365E+04  0.7818608E-02  0.8303465E-01
          1   -1    0    0  501    0  0.00000000000E+00  0.00000000000E+00  0.14811483203E+04  0.14811483203E+04  0.00000000000E+00 0. -1.
         -1   -1    0    0    0  501 -0.00000000000E+00 -0.00000000000E+00 -0.13226978502E+04  0.13226978502E+04  0.00000000000E+00 0.  1.
         23    2    1    2    0    0 -0.58610288842E+03  0.89319531162E+03  0.73064060344E+03  0.12975310613E+04  0.91851528104E+02 0.  0.
        254    2    1    2    0    0  0.58610288842E+03 -0.89319531162E+03 -0.57219013333E+03  0.15063151092E+04  0.89457766513E+03 0.  0.
         23    2    4    4    0    0  0.40452393613E+03 -0.68461761583E+02  0.88960161071E+02  0.42995304847E+03  0.92839032386E+02 0.  0.
         23    2    4    4    0    0  0.18157895230E+03 -0.82473355003E+03 -0.66115029440E+03  0.10763620607E+04  0.90990271322E+02 0.  0.
          4    1    3    3  502    0 -0.23009848601E+03  0.31789754579E+03  0.31779492195E+03  0.50497304413E+03  0.00000000000E+00 0. -1.
         -4    1    3    3    0  502 -0.35600440242E+03  0.57529776583E+03  0.41284568149E+03  0.79255801720E+03  0.00000000000E+00 0.  1.
         13    1    5    5    0    0  0.35858649790E+02 -0.17530192341E+02  0.36537565826E+02  0.54112328769E+02  0.00000000000E+00 0.  1.
        -13    1    5    5    0    0  0.36866528634E+03 -0.50931569242E+02  0.52422595245E+02  0.37584071970E+03  0.00000000000E+00 0. -1.
          3    1    6    6  503    0  0.15096984781E+03 -0.78350887936E+03 -0.62517369378E+03  0.10136667137E+04  0.00000000000E+00 0. -1.
         -3    1    6    6    0  503  0.30609104482E+02 -0.41224670678E+02 -0.35976600617E+02  0.62695347049E+02  0.00000000000E+00 0.  1.
<mgrwt>
<rscale>  0 0.27993654E+04</rscale>
<asrwt>0</asrwt>
<pdfrwt beam="1">  1        1 0.22786897E+00 0.27993654E+04</pdfrwt>
<pdfrwt beam="2">  1       -1 0.20349198E+00 0.27993654E+04</pdfrwt>
<totfact> 0.83123297E-01</totfact>
</mgrwt>
</event>
<event>
12    3  0.8686020E-008  0.3872488E+04  0.7818608E-02  0.8030776E-01
         -2   -1    0    0    0  501 -0.00000000000E+00  0.00000000000E+00  0.10596770337E+04  0.10596770337E+04  0.00000000000E+00 0.  1.
          2   -1    0    0  501    0  0.00000000000E+00 -0.00000000000E+00 -0.35379087845E+04  0.35379087845E+04  0.00000000000E+00 0. -1.
         23    2    1    2    0    0  0.10946351793E+03 -0.17939407544E+04 -0.76000349815E+03  0.19533364844E+04  0.87820338564E+02 0.  0.
        254    2    1    2    0    0 -0.10946351793E+03  0.17939407544E+04 -0.17182282527E+04  0.26442493338E+04  0.89974469648E+03 0.  0.
         23    2    4    4    0    0 -0.82313181247E+02  0.69253906968E+03 -0.12705863606E+04  0.14522368119E+04  0.90643450237E+02 0.  0.
         23    2    4    4    0    0 -0.27150336687E+02  0.11014016848E+04 -0.44764189205E+03  0.11920125219E+04  0.81778829740E+02 0.  0.
          2    1    3    3  502    0  0.23513510533E+02 -0.10145227933E+04 -0.40624131389E+03  0.10930880058E+04  0.00000000000E+00 0. -1.
         -2    1    3    3    0  502  0.85950007401E+02 -0.77941796117E+03 -0.35376218426E+03  0.86024847863E+03  0.00000000000E+00 0.  1.
         13    1    5    5    0    0 -0.44567355112E+02  0.45663696918E+03 -0.74573252352E+03  0.87556871084E+03  0.00000000000E+00 0. -1.
        -13    1    5    5    0    0 -0.37745826135E+02  0.23590210050E+03 -0.52485383710E+03  0.57666810102E+03  0.00000000000E+00 0.  1.
          4    1    6    6  503    0  0.67775579027E+01  0.71874265564E+03 -0.25879824253E+03  0.76394598674E+03  0.00000000000E+00 0. -1.
         -4    1    6    6    0  503 -0.33927894590E+02  0.38265902911E+03 -0.18884364952E+03  0.42806653520E+03  0.00000000000E+00 0.  1.
<mgrwt>
<rscale>  0 0.38724879E+04</rscale>
<asrwt>0</asrwt>
<pdfrwt beam="1">  1        2 0.54429368E+00 0.38724879E+04</pdfrwt>
<pdfrwt beam="2">  1       -2 0.16302723E+00 0.38724879E+04</pdfrwt>
<totfact> 0.14554722E-01</totfact>
</mgrwt>
</event>
<event>
12    3  0.8686020E-008  0.1501389E+04  0.7818608E-02  0.8883530E-01
         -1   -1    0    0    0  501 -0.00000000000E+00  0.00000000000E+00  0.86797388413E+03  0.86797388413E+03  0.00000000000E+00 0.  1.
          1   -1    0    0  501    0  0.00000000000E+00 -0.00000000000E+00 -0.64926172870E+03  0.64926172870E+03  0.00000000000E+00 0. -1.
         23    2    1    2    0    0 -0.26412769535E+02 -0.42323058462E+03  0.25411911995E+03  0.50298651075E+03  0.92720767436E+02 0.  0.
        254    2    1    2    0    0  0.26412769535E+02  0.42323058462E+03 -0.35406964521E+02  0.10142491021E+04  0.92066596864E+03 0.  0.
         23    2    4    4    0    0 -0.15029089756E+03  0.53534796703E+02 -0.41130291721E+03  0.45060175523E+03  0.91752513641E+02 0.  0.
         23    2    4    4    0    0  0.17670366709E+03  0.36969578792E+03  0.37589595269E+03  0.56364734687E+03  0.92203052070E+02 0.  0.
          2    1    3    3  502    0 -0.11148786906E+02 -0.32548642169E+03  0.14744225417E+03  0.35749814611E+03  0.00000000000E+00 0. -1.
         -2    1    3    3    0  502 -0.15263982629E+02 -0.97744162928E+02  0.10667686578E+03  0.14548836464E+03  0.00000000000E+00 0.  1.
         13    1    5    5    0    0 -0.57849434244E+00 -0.90601353326E+01 -0.71032050055E+00  0.91063309385E+01  0.00000000000E+00 0. -1.
        -13    1    5    5    0    0 -0.14971240321E+03  0.62594932036E+02 -0.41059259671E+03  0.44149542429E+03  0.00000000000E+00 0.  1.
          4    1    6    6  503    0  0.14693727614E+03  0.23244821302E+03  0.20824659880E+03  0.34494837407E+03  0.00000000000E+00 0.  1.
         -4    1    6    6    0  503  0.29766390952E+02  0.13724757489E+03  0.16764935389E+03  0.21869897280E+03  0.00000000000E+00 0. -1.
<mgrwt>
<rscale>  0 0.15013890E+04</rscale>
<asrwt>0</asrwt>
<pdfrwt beam="1">  1        1 0.99886419E-01 0.15013890E+04</pdfrwt>
<pdfrwt beam="2">  1       -1 0.13353444E+00 0.15013890E+04</pdfrwt>
<totfact> 0.13981432E+01</totfact>
</mgrwt>
</event>
<event>
12    3  0.8686020E-008  0.2384322E+04  0.7818608E-02  0.8445396E-01
         -2   -1    0    0    0  501 -0.00000000000E+00  0.00000000000E+00  0.19351785520E+04  0.19351785520E+04  0.00000000000E+00 0.  1.
          2   -1    0    0  501    0  0.00000000000E+00 -0.00000000000E+00 -0.73442740071E+03  0.73442740071E+03  0.00000000000E+00 0. -1.
         23    2    1    2    0    0  0.86718483559E+03  0.23191282724E+03  0.10552816455E+04  0.13884699722E+04  0.91849952372E+02 0.  0.
        254    2    1    2    0    0 -0.86718483559E+03 -0.23191282724E+03  0.14546950572E+03  0.12811359805E+04  0.90241615948E+03 0.  0.
         23    2    4    4    0    0 -0.95981867792E+03  0.39515509958E+02  0.55787574789E+02  0.96703460144E+03  0.96074433980E+02 0.  0.
         23    2    4    4    0    0  0.92633842329E+02 -0.27142833720E+03  0.89681930934E+02  0.31410137905E+03  0.91446468519E+02 0.  0.
          1    1    3    3  502    0  0.28469772413E+03  0.33122263519E+02  0.35074022382E+03  0.45295538751E+03  0.00000000000E+00 0. -1.
         -1    1    3    3    0  502  0.58248711146E+03  0.19879056372E+03  0.70454142170E+03  0.93551458468E+03  0.00000000000E+00 0.  1.
         13    1    5    5    0    0 -0.11170807379E+03  0.34549241818E+02  0.15517473252E+02  0.11795395642E+03  0.00000000000E+00 0.  1.
        -13    1    5    5    0    0 -0.84811060413E+03  0.49662681399E+01  0.40270101537E+02  0.84908064502E+03  0.00000000000E+00 0. -1.
          2    1    6    6  503    0  0.10407889124E+03 -0.24242576529E+03  0.98640963977E+02  0.28166062389E+03  0.00000000000E+00 0. -1.
         -2    1    6    6    0  503 -0.11445048910E+02 -0.29002571909E+02 -0.89590330436E+01  0.32440755154E+02  0.00000000000E+00 0.  1.
<mgrwt>
<rscale>  0 0.23843223E+04</rscale>
<asrwt>0</asrwt>
<pdfrwt beam="1">  1        2 0.11298883E+00 0.23843223E+04</pdfrwt>
<pdfrwt beam="2">  1       -2 0.29771977E+00 0.23843223E+04</pdfrwt>
<totfact> 0.11390294E+00</totfact>
</mgrwt>
</event>
<event>
12    3  0.8686020E-008  0.2997974E+04  0.7818608E-02  0.8244310E-01
         -2   -1    0    0    0  501 -0.00000000000E+00  0.00000000000E+00  0.82260337040E+03  0.82260337040E+03  0.00000000000E+00 0.  1.
          2   -1    0    0  501    0  0.00000000000E+00 -0.00000000000E+00 -0.27315261348E+04  0.27315261348E+04  0.00000000000E+00 0. -1.
         23    2    1    2    0    0  0.27818266602E+03  0.12915732440E+04 -0.47136887107E+03  0.14058033823E+04  0.92452673762E+02 0.  0.
        254    2    1    2    0    0 -0.27818266602E+03 -0.12915732440E+04 -0.14375538933E+04  0.21483261229E+04  0.89621252721E+03 0.  0.
         23    2    4    4    0    0 -0.53556873060E+03 -0.50248451608E+03 -0.50025328254E+03  0.89297782031E+03  0.88495687789E+02 0.  0.
         23    2    4    4    0    0  0.25738606459E+03 -0.78908872788E+03 -0.93730061080E+03  0.12553483026E+04  0.91969120607E+02 0.  0.
          1    1    3    3  502    0  0.10265239431E+03  0.43387019093E+03 -0.11398942839E+03  0.46018957661E+03  0.00000000000E+00 0. -1.
         -1    1    3    3    0  502  0.17553027171E+03  0.85770305303E+03 -0.35737944268E+03  0.94561380569E+03  0.00000000000E+00 0.  1.
         13    1    5    5    0    0 -0.12434466047E+03 -0.10655572948E+03 -0.69722405039E+02  0.17798014451E+03  0.00000000000E+00 0.  1.
        -13    1    5    5    0    0 -0.41122407013E+03 -0.39592878660E+03 -0.43053087751E+03  0.71499767580E+03  0.00000000000E+00 0. -1.
          2    1    6    6  503    0  0.24760064559E+03 -0.77051537136E+03 -0.88642869128E+03  0.12003148928E+04  0.00000000000E+00 0. -1.
         -2    1    6    6    0  503  0.97854189930E+01 -0.18573356519E+02 -0.50871919520E+02  0.55033409788E+02  0.00000000000E+00 0.  1.
<mgrwt>
<rscale>  0 0.29979744E+04</rscale>
<asrwt>0</asrwt>
<pdfrwt beam="1">  1        2 0.42023479E+00 0.29979744E+04</pdfrwt>
<pdfrwt beam="2">  1       -2 0.12655436E+00 0.29979744E+04</pdfrwt>
<totfact> 0.10114868E+00</totfact>
</mgrwt>
</event>
<event>
12    3  0.8686020E-008  0.1672876E+04  0.7818608E-02  0.8776987E-01
         -4   -1    0    0    0  501 -0.00000000000E+00  0.00000000000E+00  0.40453834955E+03  0.40453834955E+03  0.00000000000E+00 0. -1.
          4   -1    0    0  501    0  0.00000000000E+00 -0.00000000000E+00 -0.17294490560E+04  0.17294490560E+04  0.00000000000E+00 0.  1.
         23    2    1    2    0    0  0.55323470682E+03  0.36198946246E+02 -0.73119907285E+03  0.92225856396E+03  0.92356754539E+02 0.  0.
        254    2    1    2    0    0 -0.55323470682E+03 -0.36198946246E+02 -0.59371163361E+03  0.12117288416E+04  0.89911861129E+03 0.  0.
         23    2    4    4    0    0 -0.25250095011E+03  0.42131369402E+03 -0.31275482941E+03  0.58938306935E+03  0.91076124967E+02 0.  0.
         23    2    4    4    0    0 -0.30073375672E+03 -0.45751264027E+03 -0.28095680420E+03  0.62234577226E+03  0.92838170972E+02 0.  0.
          1    1    3    3  502    0  0.18315787495E+03 -0.30444143247E+02 -0.25732531332E+03  0.31731682888E+03  0.00000000000E+00 0. -1.
         -1    1    3    3    0  502  0.37007683188E+03  0.66643089494E+02 -0.47387375953E+03  0.60494173508E+03  0.00000000000E+00 0.  1.
         13    1    5    5    0    0 -0.52593926447E+02  0.11078633706E+03 -0.35778603188E+02  0.12774913708E+03  0.00000000000E+00 0.  1.
        -13    1    5    5    0    0 -0.19990702366E+03  0.31052735697E+03 -0.27697622622E+03  0.46163393227E+03  0.00000000000E+00 0. -1.
          1    1    6    6  503    0 -0.20373473939E+03 -0.35022656586E+03 -0.16712384737E+03  0.43828857141E+03  0.00000000000E+00 0. -1.
         -1    1    6    6    0  503 -0.96999017331E+02 -0.10728607441E+03 -0.11383295683E+03  0.18405720085E+03  0.00000000000E+00 0.  1.
<mgrwt>
<rscale>  0 0.16728759E+04</rscale>
<asrwt>0</asrwt>
<pdfrwt beam="1">  1        4 0.26606909E+00 0.16728759E+04</pdfrwt>
<pdfrwt beam="2">  1       -4 0.62236669E-01 0.16728759E+04</pdfrwt>
<totfact> 0.23246326E-01</totfact>
</mgrwt>
</event>
<event>
12    3  0.8686020E-008  0.3712770E+04  0.7818608E-02  0.8065138E-01
         -2   -1    0    0    0  501 -0.00000000000E+00  0.00000000000E+00  0.16460946554E+04  0.16460946554E+04  0.00000000000E+00 0.  1.
          2   -1    0    0  501    0  0.00000000000E+00 -0.00000000000E+00 -0.20935403716E+04  0.20935403716E+04  0.00000000000E+00 0. -1.
         23    2    1    2    0    0 -0.73112694608E+03  0.14525543443E+04  0.43043039947E+03  0.16848184151E+04  0.94244516028E+02 0.  0.
        254    2    1    2    0    0  0.73112694608E+03 -0.14525543443E+04 -0.87787611569E+03  0.20548166119E+04  0.89841198775E+03 0.  0.
         23    2    4    4    0    0 -0.27874551882E+02 -0.19472805134E+03 -0.48462832429E+03  0.53096598962E+03  0.91456354688E+02 0.  0.
         23    2    4    4    0    0  0.75900149796E+03 -0.12578262929E+04 -0.39324779140E+03  0.15238506223E+04  0.96263370571E+02 0.  0.
          1    1    3    3  502    0 -0.13620004567E+03  0.35531847893E+03  0.88467884504E+02  0.39067664443E+03  0.00000000000E+00 0. -1.
         -1    1    3    3    0  502 -0.59492690041E+03  0.10972358653E+04  0.34196251496E+03  0.12941417707E+04  0.00000000000E+00 0.  1.
         13    1    5    5    0    0 -0.19662902550E+02 -0.17648944623E+03 -0.47795763194E+03  0.50988101778E+03  0.00000000000E+00 0.  1.
        -13    1    5    5    0    0 -0.82116493320E+01 -0.18238605107E+02 -0.66706923488E+01  0.21084971838E+02  0.00000000000E+00 0. -1.
          1    1    6    6  503    0  0.94133893146E+02 -0.22416403918E+03 -0.70921743366E+02  0.25325994548E+03  0.00000000000E+00 0. -1.
         -1    1    6    6    0  503  0.66486760482E+03 -0.10336622537E+04 -0.32232604804E+03  0.12705906768E+04  0.00000000000E+00 0.  1.
<mgrwt>
<rscale>  0 0.37127702E+04</rscale>
<asrwt>0</asrwt>
<pdfrwt beam="1">  1        2 0.32208313E+00 0.37127702E+04</pdfrwt>
<pdfrwt beam="2">  1       -2 0.25324533E+00 0.37127702E+04</pdfrwt>
<totfact> 0.29368501E-01</totfact>
</mgrwt>
</event>
<event>
12    3  0.8686020E-008  0.1921271E+04  0.7818608E-02  0.8644341E-01
          2   -1    0    0  501    0  0.00000000000E+00  0.00000000000E+00  0.13695824661E+04  0.13695824661E+04  0.00000000000E+00 0. -1.
         -2   -1    0    0    0  501 -0.00000000000E+00 -0.00000000000E+00 -0.67379671438E+03  0.67379671438E+03  0.00000000000E+00 0.  1.
         23    2    1    2    0    0 -0.10293526671E+03 -0.69861923167E+03  0.52855707153E+03  0.88629758195E+03  0.86523557020E+02 0.  0.
        254    2    1    2    0    0  0.10293526671E+03  0.69861923167E+03  0.16722868015E+03  0.11570815985E+04  0.90122577310E+03 0.  0.
         23    2    4    4    0    0  0.12485583003E+03  0.53194471045E+03  0.51752572751E+03  0.75815326967E+03  0.91702499435E+02 0.  0.
         23    2    4    4    0    0 -0.21920563318E+02  0.16667452122E+03 -0.35029704736E+03  0.39892832882E+03  0.90415059726E+02 0.  0.
          1    1    3    3  502    0 -0.68752533461E+02 -0.53669899150E+03  0.44680203970E+03  0.70171559838E+03  0.00000000000E+00 0. -1.
         -1    1    3    3    0  502 -0.34182733253E+02 -0.16192024017E+03  0.81755031831E+02  0.18458198357E+03  0.00000000000E+00 0.  1.
         13    1    5    5    0    0  0.28446612231E+02  0.11704443819E+03  0.65720077928E+02  0.13721420809E+03  0.00000000000E+00 0.  1.
        -13    1    5    5    0    0  0.96409217801E+02  0.41490027226E+03  0.45180564958E+03  0.62093906158E+03  0.00000000000E+00 0. -1.
          1    1    6    6  503    0  0.98203023774E+01  0.17627953685E+02 -0.39817736828E+01  0.20567878149E+02  0.00000000000E+00 0. -1.
         -1    1    6    6    0  503 -0.31740865696E+02  0.14904656753E+03 -0.34631527368E+03  0.37836045067E+03  0.00000000000E+00 0.  1.
<mgrwt>
<rscale>  0 0.19212706E+04</rscale>
<asrwt>0</asrwt>
<pdfrwt beam="1">  1        2 0.21070499E+00 0.19212706E+04</pdfrwt>
<pdfrwt beam="2">  1       -2 0.10366103E+00 0.19212706E+04</pdfrwt>
<totfact> 0.10679203E+01</totfact>
</mgrwt>
</event>
<event>
12    3  0.8686020E-008  0.1347100E+04  0.7818608E-02  0.8993026E-01
         -1   -1    0    0    0  501 -0.00000000000E+00  0.00000000000E+00  0.45625003211E+03  0.45625003211E+03  0.00000000000E+00 0.  1.
          1   -1    0    0  501    0  0.00000000000E+00 -0.00000000000E+00 -0.99434454871E+03  0.99434454871E+03  0.00000000000E+00 0. -1.
         23    2    1    2    0    0 -0.19846382880E+03 -0.30543031917E+03 -0.15965091134E+03  0.40826087827E+03  0.92265703413E+02 0.  0.
        254    2    1    2    0    0  0.19846382880E+03  0.30543031917E+03 -0.37844360526E+03  0.10423337026E+04  0.90031350867E+03 0.  0.
         23    2    4    4    0    0 -0.27989447539E+03 -0.11411309961E+03 -0.45007881439E+02  0.31854878394E+03  0.89916080333E+02 0.  0.
         23    2    4    4    0    0  0.47835830419E+03  0.41954341878E+03 -0.33343572382E+03  0.72378491861E+03  0.88554384798E+02 0.  0.
          1    1    3    3  502    0 -0.55209182971E+02 -0.16002030180E+03 -0.95173033281E+02  0.19419695450E+03  0.00000000000E+00 0. -1.
         -1    1    3    3    0  502 -0.14325464583E+03 -0.14541001737E+03 -0.64477878061E+02  0.21406392377E+03  0.00000000000E+00 0.  1.
         13    1    5    5    0    0 -0.27720356998E+03 -0.12456691994E+03 -0.39598845883E+02  0.30647480378E+03  0.00000000000E+00 0. -1.
        -13    1    5    5    0    0 -0.26909054056E+01  0.10453820329E+02 -0.54090355560E+01  0.12073980164E+02  0.00000000000E+00 0.  1.
          1    1    6    6  503    0  0.40601401563E+03  0.34163713814E+03 -0.31126364875E+03  0.61518157814E+03  0.00000000000E+00 0. -1.
         -1    1    6    6    0  503  0.72344288555E+02  0.77906280637E+02 -0.22172075068E+02  0.10860334047E+03  0.00000000000E+00 0.  1.
<mgrwt>
<rscale>  0 0.13471002E+04</rscale>
<asrwt>0</asrwt>
<pdfrwt beam="1">  1        1 0.15297608E+00 0.13471002E+04</pdfrwt>
<pdfrwt beam="2">  1       -1 0.70192313E-01 0.13471002E+04</pdfrwt>
<totfact> 0.30709613E+01</totfact>
</mgrwt>
</event>
<event>
12    3  0.8686020E-008  0.3556134E+04  0.7818608E-02  0.8100614E-01
         -2   -1    0    0    0  501 -0.00000000000E+00  0.00000000000E+00  0.19721141953E+04  0.19721141953E+04  0.00000000000E+00 0.  1.
          2   -1    0    0  501    0  0.00000000000E+00 -0.00000000000E+00 -0.16031134997E+04  0.16031134997E+04  0.00000000000E+00 0. -1.
         23    2    1    2    0    0 -0.83096665928E+02  0.15976473071E+04 -0.28516367872E+03  0.16274871766E+04  0.89522134537E+02 0.  0.
        254    2    1    2    0    0  0.83096665928E+02 -0.15976473071E+04  0.65416437430E+03  0.19477405185E+04  0.89798670636E+03 0.  0.
         23    2    4    4    0    0 -0.11566955886E+03 -0.13598518393E+04  0.18930727342E+03  0.13808687353E+04  0.91568272948E+02 0.  0.
         23    2    4    4    0    0  0.19876622479E+03 -0.23779546784E+03  0.46485710087E+03  0.56687178320E+03  0.95899935924E+02 0.  0.
          1    1    3    3  502    0 -0.46574649820E+02  0.27599558734E+03 -0.60890878001E+02  0.28644451689E+03  0.00000000000E+00 0. -1.
         -1    1    3    3    0  502 -0.36522016107E+02  0.13216517198E+04 -0.22427280072E+03  0.13410426597E+04  0.00000000000E+00 0.  1.
         13    1    5    5    0    0 -0.10902711165E+02 -0.25593457440E+02  0.13771949548E+02  0.31041275245E+02  0.00000000000E+00 0. -1.
        -13    1    5    5    0    0 -0.10476684769E+03 -0.13342583818E+04  0.17553532387E+03  0.13498274600E+04  0.00000000000E+00 0.  1.
          3    1    6    6  503    0  0.26786600354E+01  0.47388551478E+01  0.37037778082E+02  0.37435664452E+02  0.00000000000E+00 0. -1.
         -3    1    6    6    0  503  0.19608756475E+03 -0.24253432299E+03  0.42781932279E+03  0.52943611875E+03  0.00000000000E+00 0.  1.
<mgrwt>
<rscale>  0 0.35561344E+04</rscale>
<asrwt>0</asrwt>
<pdfrwt beam="1">  1        2 0.24663285E+00 0.35561344E+04</pdfrwt>
<pdfrwt beam="2">  1       -2 0.30340218E+00 0.35561344E+04</pdfrwt>
<totfact> 0.27519971E-01</totfact>
</mgrwt>
</event>
<event>
12    3  0.8686020E-008  0.2077958E+04  0.7818608E-02  0.8571016E-01
          1   -1    0    0  501    0  0.00000000000E+00  0.00000000000E+00  0.85210514959E+03  0.85210514959E+03  0.00000000000E+00 0. -1.
         -1   -1    0    0    0  501 -0.00000000000E+00 -0.00000000000E+00 -0.12668362189E+04  0.12668362189E+04  0.00000000000E+00 0.  1.
         23    2    1    2    0    0 -0.83989550721E+03 -0.27871783429E+02 -0.12641027574E+03  0.85410531968E+03  0.85528006733E+02 0.  0.
        254    2    1    2    0    0  0.83989550721E+03  0.27871783429E+02 -0.28832079356E+03  0.12648360488E+04  0.90026665550E+03 0.  0.
         23    2    4    4    0    0 -0.83654232013E+02  0.20972973772E+03  0.67828592493E+02  0.25452316960E+03  0.95899595866E+02 0.  0.
         23    2    4    4    0    0  0.92354973923E+03 -0.18185795429E+03 -0.35614938605E+03  0.10103128792E+04  0.88731574627E+02 0.  0.
          4    1    3    3  502    0 -0.49716254966E+03 -0.77395901029E+01 -0.33079539255E+02  0.49832194208E+03  0.00000000000E+00 0. -1.
         -4    1    3    3    0  502 -0.34273295755E+03 -0.20132193326E+02 -0.93330736483E+02  0.35578337760E+03  0.00000000000E+00 0.  1.
         13    1    5    5    0    0 -0.13291866553E+02  0.15653114762E+03  0.42102235217E+02  0.16263847055E+03  0.00000000000E+00 0. -1.
        -13    1    5    5    0    0 -0.70362365460E+02  0.53198590099E+02  0.25726357276E+02  0.91884699055E+02  0.00000000000E+00 0.  1.
          2    1    6    6  503    0  0.85314174359E+03 -0.18970032635E+03 -0.33901856975E+03  0.93742767140E+03  0.00000000000E+00 0. -1.
         -2    1    6    6    0  503  0.70407995643E+02  0.78423720607E+01 -0.17130816296E+02  0.72885207806E+02  0.00000000000E+00 0.  1.
<mgrwt>
<rscale>  0 0.20779583E+04</rscale>
<asrwt>0</asrwt>
<pdfrwt beam="1">  1        1 0.13109310E+00 0.20779583E+04</pdfrwt>
<pdfrwt beam="2">  1       -1 0.19489788E+00 0.20779583E+04</pdfrwt>
<totfact> 0.30007810E+00</totfact>
</mgrwt>
</event>
<event>
12    3  0.8686020E-008  0.3198146E+04  0.7818608E-02  0.8189307E-01
         -2   -1    0    0    0  501 -0.00000000000E+00  0.00000000000E+00  0.71164785200E+03  0.71164785200E+03  0.00000000000E+00 0.  1.
          2   -1    0    0  501    0  0.00000000000E+00 -0.00000000000E+00 -0.35931174605E+04  0.35931174605E+04  0.00000000000E+00 0. -1.
         23    2    1    2    0    0 -0.14484486833E+04 -0.25535031699E+03 -0.13160248245E+04  0.19760291291E+04  0.97787566291E+02 0.  0.
        254    2    1    2    0    0  0.14484486833E+04  0.25535031699E+03 -0.15654447841E+04  0.23287361834E+04  0.89954847968E+03 0.  0.
         23    2    4    4    0    0  0.10881209643E+04  0.55049001394E+03 -0.13025488397E+04  0.17865921541E+04  0.90727927145E+02 0.  0.
         23    2    4    4    0    0  0.36032771903E+03 -0.29513969695E+03 -0.26289594433E+03  0.54214402931E+03  0.88669978865E+02 0.  0.
          1    1    3    3  502    0 -0.81261125099E+03 -0.19245699466E+03 -0.74643802185E+03  0.11200653822E+04  0.00000000000E+00 0. -1.
         -1    1    3    3    0  502 -0.63583743231E+03 -0.62893322332E+02 -0.56958680260E+03  0.85596374691E+03  0.00000000000E+00 0.  1.
         13    1    5    5    0    0  0.43506950290E+03  0.25307744576E+03 -0.58642590738E+03  0.77280593344E+03  0.00000000000E+00 0. -1.
        -13    1    5    5    0    0  0.65305146137E+03  0.29741256818E+03 -0.71612293236E+03  0.10137862206E+04  0.00000000000E+00 0.  1.
          1    1    6    6  503    0  0.35653670056E+03 -0.28030318128E+03 -0.23615555676E+03  0.51132938432E+03  0.00000000000E+00 0. -1.
         -1    1    6    6    0  503  0.37910184717E+01 -0.14836515668E+02 -0.26740387571E+02  0.30814644987E+02  0.00000000000E+00 0.  1.
<mgrwt>
<rscale>  0 0.31981459E+04</rscale>
<asrwt>0</asrwt>
<pdfrwt beam="1">  1        2 0.55278729E+00 0.31981459E+04</pdfrwt>
<pdfrwt beam="2">  1       -2 0.10948429E+00 0.31981459E+04</pdfrwt>
<totfact> 0.39028541E-01</totfact>
</mgrwt>
</event>
<event>
12    3  0.8686020E-008  0.2203300E+04  0.7818608E-02  0.8517056E-01
          1   -1    0    0  501    0  0.00000000000E+00  0.00000000000E+00  0.26972542065E+04  0.26972542065E+04  0.00000000000E+00 0. -1.
         -1   -1    0    0    0  501 -0.00000000000E+00 -0.00000000000E+00 -0.44995117891E+03  0.44995117891E+03  0.00000000000E+00 0.  1.
         23    2    1    2    0    0 -0.21119907179E+01  0.83018179886E+03  0.38706507785E+03  0.92053511159E+03  0.91428865922E+02 0.  0.
        254    2    1    2    0    0  0.21119907179E+01 -0.83018179886E+03  0.18602379497E+04  0.22266702738E+04  0.89909343172E+03 0.  0.
         23    2    4    4    0    0 -0.22439369412E+03 -0.91563384877E+03  0.16064615087E+04  0.18643660077E+04  0.80025974437E+02 0.  0.
         23    2    4    4    0    0  0.22650568484E+03  0.85452049911E+02  0.25377644098E+03  0.36230426611E+03  0.90857146910E+02 0.  0.
          4    1    3    3  502    0 -0.20524611827E+02  0.64211378861E+03  0.33493778853E+03  0.72450997191E+03  0.00000000000E+00 0. -1.
         -4    1    3    3    0  502  0.18412621109E+02  0.18806801025E+03  0.52127289315E+02  0.19602513968E+03  0.00000000000E+00 0.  1.
         13    1    5    5    0    0 -0.20428062979E+03 -0.80492109995E+03  0.13611390222E+04  0.15944679334E+04  0.00000000000E+00 0.  1.
        -13    1    5    5    0    0 -0.20113064335E+02 -0.11071274881E+03  0.24532248652E+03  0.26989807428E+03  0.00000000000E+00 0. -1.
          3    1    6    6  503    0  0.42119120508E+02  0.23407950290E+02  0.79948132636E+01  0.48845363017E+02  0.00000000000E+00 0. -1.
         -3    1    6    6    0  503  0.18438656433E+03  0.62044099621E+02  0.24578162771E+03  0.31345890309E+03  0.00000000000E+00 0.  1.
<mgrwt>
<rscale>  0 0.22033000E+04</rscale>
<asrwt>0</asrwt>
<pdfrwt beam="1">  1        1 0.41496218E+00 0.22033000E+04</pdfrwt>
<pdfrwt beam="2">  1       -1 0.69223260E-01 0.22033000E+04</pdfrwt>
<totfact> 0.18973159E+00</totfact>
</mgrwt>
</event>
<event>
12    3  0.8686020E-008  0.1533515E+04  0.7818608E-02  0.8862467E-01
         -2   -1    0    0    0  501 -0.00000000000E+00  0.00000000000E+00  0.28635556986E+03  0.28635556986E+03  0.00000000000E+00 0.  1.
          2   -1    0    0  501    0  0.00000000000E+00 -0.00000000000E+00 -0.20531010456E+04  0.20531010456E+04  0.00000000000E+00 0. -1.
         23    2    1    2    0    0  0.19962399242E+03 -0.38743410204E+03 -0.21401009227E+03  0.49281828730E+03  0.84348224228E+02 0.  0.
        254    2    1    2    0    0 -0.19962399242E+03  0.38743410204E+03 -0.15527353835E+04  0.18466383282E+04  0.89951710500E+03 0.  0.
         23    2    4    4    0    0  0.18462278587E+03  0.50691059857E+03 -0.62083896060E+03  0.82749608139E+03  0.90911064825E+02 0.  0.
         23    2    4    4    0    0 -0.38424677828E+03 -0.11947649653E+03 -0.93189642286E+03  0.10191422468E+04  0.91102998684E+02 0.  0.
          3    1    3    3  502    0  0.10357873110E+03 -0.20980450574E+03 -0.16107338909E+03  0.28406182573E+03  0.00000000000E+00 0. -1.
         -3    1    3    3    0  502  0.96045261315E+02 -0.17762959629E+03 -0.52936703184E+02  0.20875646156E+03  0.00000000000E+00 0.  1.
         13    1    5    5    0    0  0.95097599627E+02  0.13885893390E+03 -0.18913386492E+03  0.25317380560E+03  0.00000000000E+00 0. -1.
        -13    1    5    5    0    0  0.89525186239E+02  0.36805166466E+03 -0.43170509568E+03  0.57432227579E+03  0.00000000000E+00 0.  1.
          3    1    6    6  503    0 -0.48334915790E+02  0.15185842649E+02 -0.11723335011E+03  0.12771269428E+03  0.00000000000E+00 0. -1.
         -3    1    6    6    0  503 -0.33591186249E+03 -0.13466233918E+03 -0.81466307275E+03  0.89142955249E+03  0.00000000000E+00 0.  1.
<mgrwt>
<rscale>  0 0.15335148E+04</rscale>
<asrwt>0</asrwt>
<pdfrwt beam="1">  1        2 0.31586169E+00 0.15335148E+04</pdfrwt>
<pdfrwt beam="2">  1       -2 0.44054704E-01 0.15335148E+04</pdfrwt>
<totfact> 0.29404130E+01</totfact>
</mgrwt>
</event>
<event>
12    3  0.8686020E-008  0.2161974E+04  0.7818608E-02  0.8534424E-01
         -3   -1    0    0    0  501 -0.00000000000E+00  0.00000000000E+00  0.46784383608E+03  0.46784383608E+03  0.00000000000E+00 0.  1.
          3   -1    0    0  501    0  0.00000000000E+00 -0.00000000000E+00 -0.24976980494E+04  0.24976980494E+04  0.00000000000E+00 0. -1.
         23    2    1    2    0    0  0.35812796081E+03 -0.81353148411E+03 -0.79021387208E+03  0.11934197620E+04  0.98608584092E+02 0.  0.
        254    2    1    2    0    0 -0.35812796081E+03  0.81353148411E+03 -0.12396403413E+04  0.17721221235E+04  0.90200861017E+03 0.  0.
         23    2    4    4    0    0 -0.13836087029E+03  0.13373870756E+03 -0.98678861513E+03  0.10094597713E+04  0.90705493184E+02 0.  0.
         23    2    4    4    0    0 -0.21976709052E+03  0.67979277656E+03 -0.25285172614E+03  0.76266235222E+03  0.85463880942E+02 0.  0.
          3    1    3    3  502    0  0.14553380683E+03 -0.33321642910E+03 -0.38882098583E+03  0.53234860437E+03  0.00000000000E+00 0. -1.
         -3    1    3    3    0  502  0.21259415398E+03 -0.48031505501E+03 -0.40139288625E+03  0.66107115768E+03  0.00000000000E+00 0.  1.
         13    1    5    5    0    0 -0.28982555612E+02  0.40191397415E+02 -0.10625431800E+03  0.11724042413E+03  0.00000000000E+00 0.  1.
        -13    1    5    5    0    0 -0.10937831468E+03  0.93547310143E+02 -0.88053429713E+03  0.89221934712E+03  0.00000000000E+00 0. -1.
          1    1    6    6  503    0 -0.20784725832E+03  0.61672062453E+03 -0.20409333100E+03  0.68205490928E+03  0.00000000000E+00 0. -1.
         -1    1    6    6    0  503 -0.11919832202E+02  0.63072152022E+02 -0.48758395136E+02  0.80607442936E+02  0.00000000000E+00 0.  1.
<mgrwt>
<rscale>  0 0.21619738E+04</rscale>
<asrwt>0</asrwt>
<pdfrwt beam="1">  1        3 0.38426124E+00 0.21619738E+04</pdfrwt>
<pdfrwt beam="2">  1       -3 0.71975974E-01 0.21619738E+04</pdfrwt>
<totfact> 0.59430611E-02</totfact>
</mgrwt>
</event>
<event>
12    3  0.8686020E-008  0.1389504E+04  0.7818608E-02  0.8961452E-01
          2   -1    0    0  501    0  0.00000000000E+00  0.00000000000E+00  0.81774799325E+03  0.81774799325E+03  0.00000000000E+00 0. -1.
         -2   -1    0    0    0  501 -0.00000000000E+00 -0.00000000000E+00 -0.59025526760E+03  0.59025526760E+03  0.00000000000E+00 0.  1.
         23    2    1    2    0    0 -0.19039819250E+03 -0.33309388750E+03 -0.36020470391E+02  0.39586211402E+03  0.90588793065E+02 0.  0.
        254    2    1    2    0    0  0.19039819250E+03  0.33309388750E+03  0.26351319604E+03  0.10121411468E+04  0.89876998560E+03 0.  0.
         23    2    4    4    0    0 -0.17267168795E+03 -0.82359230863E+02  0.38563720741E+03  0.44022173725E+03  0.92089996656E+02 0.  0.
         23    2    4    4    0    0  0.36306988045E+03  0.41545311837E+03 -0.12212401137E+03  0.57191940957E+03  0.88071023867E+02 0.  0.
          3    1    3    3  502    0 -0.15298369116E+03 -0.18118016574E+03 -0.32703202111E+02  0.23937368621E+03  0.00000000000E+00 0. -1.
         -3    1    3    3    0  502 -0.37414501334E+02 -0.15191372176E+03 -0.33172682802E+01  0.15648842781E+03  0.00000000000E+00 0.  1.
         13    1    5    5    0    0 -0.51625538902E+02  0.17982793359E+02  0.11201416543E+03  0.12464249027E+03  0.00000000000E+00 0. -1.
        -13    1    5    5    0    0 -0.12104614905E+03 -0.10034202422E+03  0.27362304198E+03  0.31557924699E+03  0.00000000000E+00 0.  1.
          3    1    6    6  503    0  0.11092380760E+02  0.41464736852E+02 -0.23600435616E+02  0.48983118259E+02  0.00000000000E+00 0. -1.
         -3    1    6    6    0  503  0.35197749969E+03  0.37398838152E+03 -0.98523575750E+02  0.52293629131E+03  0.00000000000E+00 0.  1.
<mgrwt>
<rscale>  0 0.13895036E+04</rscale>
<asrwt>0</asrwt>
<pdfrwt beam="1">  1        2 0.12580738E+00 0.13895036E+04</pdfrwt>
<pdfrwt beam="2">  1       -2 0.90808502E-01 0.13895036E+04</pdfrwt>
<totfact> 0.33737413E+01</totfact>
</mgrwt>
</event>
<event>
12    3  0.8686020E-008  0.2590287E+04  0.7818608E-02  0.8371508E-01
         -2   -1    0    0    0  501 -0.00000000000E+00  0.00000000000E+00  0.10880535668E+04  0.10880535668E+04  0.00000000000E+00 0.  1.
          2   -1    0    0  501    0  0.00000000000E+00 -0.00000000000E+00 -0.15416487340E+04  0.15416487340E+04  0.00000000000E+00 0. -1.
         23    2    1    2    0    0  0.83087127263E+03  0.49970110098E+03 -0.80193308883E+03  0.12615036397E+04  0.90810198151E+02 0.  0.
        254    2    1    2    0    0 -0.83087127263E+03 -0.49970110098E+03  0.34833792156E+03  0.13681986611E+04  0.90032216822E+03 0.  0.
         23    2    4    4    0    0 -0.51412112130E+03 -0.58673556415E+03 -0.11377540167E+03  0.79377297285E+03  0.92474541274E+02 0.  0.
         23    2    4    4    0    0 -0.31675015132E+03  0.87034463175E+02  0.46211332323E+03  0.57442568823E+03  0.92252326017E+02 0.  0.
          4    1    3    3  502    0  0.42018870353E+03  0.24308602418E+03 -0.34360646910E+03  0.59473924315E+03  0.00000000000E+00 0. -1.
         -4    1    3    3    0  502  0.41068256909E+03  0.25661507680E+03 -0.45832661973E+03  0.66676439658E+03  0.00000000000E+00 0.  1.
         13    1    5    5    0    0 -0.18222354387E+02 -0.31134642154E+02  0.12986741067E+02  0.38341564718E+02  0.00000000000E+00 0. -1.
        -13    1    5    5    0    0 -0.49589876692E+03 -0.55560092200E+03 -0.12676214274E+03  0.75543140813E+03  0.00000000000E+00 0.  1.
          2    1    6    6  503    0 -0.14925156377E+03  0.87651674499E+02  0.21763851441E+03  0.27807439343E+03  0.00000000000E+00 0. -1.
         -2    1    6    6    0  503 -0.16749858755E+03 -0.61721132376E+00  0.24447480882E+03  0.29635129480E+03  0.00000000000E+00 0.  1.
<mgrwt>
<rscale>  0 0.25902868E+04</rscale>
<asrwt>0</asrwt>
<pdfrwt beam="1">  1        2 0.23717673E+00 0.25902868E+04</pdfrwt>
<pdfrwt beam="2">  1       -2 0.16739286E+00 0.25902868E+04</pdfrwt>
<totfact> 0.23689333E+00</totfact>
</mgrwt>
</event>
<event>
12    3  0.8686020E-008  0.1707597E+04  0.7818608E-02  0.8757044E-01
         -2   -1    0    0    0  501 -0.00000000000E+00  0.00000000000E+00  0.86979737684E+03  0.86979737684E+03  0.00000000000E+00 0. -1.
          2   -1    0    0  501    0  0.00000000000E+00 -0.00000000000E+00 -0.83809344909E+03  0.83809344909E+03  0.00000000000E+00 0.  1.
         23    2    1    2    0    0  0.40555390845E+03 -0.40446118403E+03 -0.20335537121E+03  0.61449678152E+03  0.90498980385E+02 0.  0.
        254    2    1    2    0    0 -0.40555390845E+03  0.40446118403E+03  0.23505929896E+03  0.10933940444E+04  0.90121853080E+03 0.  0.
         23    2    4    4    0    0  0.13530228531E+03  0.35501372540E+03  0.35721278145E+03  0.52979230473E+03  0.93474388447E+02 0.  0.
         23    2    4    4    0    0 -0.54085619377E+03  0.49447458638E+02 -0.12215348249E+03  0.56360173967E+03  0.88062331160E+02 0.  0.
          3    1    3    3  502    0  0.35082149093E+03 -0.31735418631E+03 -0.13864614196E+03  0.49296262612E+03  0.00000000000E+00 0. -1.
         -3    1    3    3    0  502  0.54732417523E+02 -0.87106997719E+02 -0.64709229251E+02  0.12153415540E+03  0.00000000000E+00 0.  1.
         13    1    5    5    0    0  0.13406306843E+03  0.33131999969E+03  0.29575837086E+03  0.46391687019E+03  0.00000000000E+00 0.  1.
        -13    1    5    5    0    0  0.12392168848E+01  0.23693725710E+02  0.61454410584E+02  0.65875434547E+02  0.00000000000E+00 0. -1.
          4    1    6    6  503    0 -0.34586910213E+03  0.71418835098E+02 -0.93195716781E+02  0.36525542767E+03  0.00000000000E+00 0. -1.
         -4    1    6    6    0  503 -0.19498709164E+03 -0.21971376459E+02 -0.28957765707E+02  0.19834631200E+03  0.00000000000E+00 0.  1.
<mgrwt>
<rscale>  0 0.17075965E+04</rscale>
<asrwt>0</asrwt>
<pdfrwt beam="1">  1        2 0.12893745E+00 0.17075965E+04</pdfrwt>
<pdfrwt beam="2">  1       -2 0.13381498E+00 0.17075965E+04</pdfrwt>
<totfact> 0.12413107E+01</totfact>
</mgrwt>
</event>
<event>
12    3  0.8686020E-008  0.2871162E+04  0.7818608E-02  0.8281510E-01
          2   -1    0    0  501    0  0.00000000000E+00  0.00000000000E+00  0.82516426774E+03  0.82516426774E+03  0.00000000000E+00 0. -1.
         -2   -1    0    0    0  501 -0.00000000000E+00 -0.00000000000E+00 -0.24975553344E+04  0.24975553344E+04  0.00000000000E+00 0.  1.
         23    2    1    2    0    0  0.84570724803E+03  0.64206226426E+03 -0.16110380052E+04  0.19315710165E+04  0.89768798552E+02 0.  0.
        254    2    1    2    0    0 -0.84570724803E+03 -0.64206226426E+03 -0.61353061446E+02  0.13911485856E+04  0.89669698808E+03 0.  0.
         23    2    4    4    0    0 -0.89756480511E+03 -0.41903463057E+03  0.21825455189E+03  0.10186485071E+04  0.93793020034E+02 0.  0.
         23    2    4    4    0    0  0.51857557077E+02 -0.22302763369E+03 -0.27960761333E+03  0.37250007847E+03  0.90251644923E+02 0.  0.
          4    1    3    3  502    0  0.35669214840E+03  0.22291462748E+03 -0.59742312716E+03  0.73063986528E+03  0.00000000000E+00 0. -1.
         -4    1    3    3    0  502  0.48901509964E+03  0.41914763678E+03 -0.10136148780E+04  0.12009311513E+04  0.00000000000E+00 0.  1.
         13    1    5    5    0    0 -0.46897088572E+03 -0.25901025911E+03  0.87541026647E+02  0.54284752677E+03  0.00000000000E+00 0. -1.
        -13    1    5    5    0    0 -0.42859391939E+03 -0.16002437147E+03  0.13071352524E+03  0.47580098033E+03  0.00000000000E+00 0.  1.
          4    1    6    6  503    0 -0.94957414517E+01 -0.11694014681E+03 -0.95228464238E+02  0.15110799927E+03  0.00000000000E+00 0.  1.
         -4    1    6    6    0  503  0.61353298528E+02 -0.10608748688E+03 -0.18437914910E+03  0.22139207921E+03  0.00000000000E+00 0. -1.
<mgrwt>
<rscale>  0 0.28711624E+04</rscale>
<asrwt>0</asrwt>
<pdfrwt beam="1">  1        2 0.12694835E+00 0.28711624E+04</pdfrwt>
<pdfrwt beam="2">  1       -2 0.38423928E+00 0.28711624E+04</pdfrwt>
<totfact> 0.26861370E-01</totfact>
</mgrwt>
</event>
<event>
12    3  0.8686020E-008  0.1326185E+04  0.7818608E-02  0.9009054E-01
          2   -1    0    0  501    0  0.00000000000E+00  0.00000000000E+00  0.77042072347E+03  0.77042072347E+03  0.00000000000E+00 0. -1.
         -2   -1    0    0    0  501 -0.00000000000E+00 -0.00000000000E+00 -0.57071654514E+03  0.57071654514E+03  0.00000000000E+00 0.  1.
         23    2    1    2    0    0 -0.12560658548E+03  0.16218001676E+03 -0.23028395176E+03  0.32168112952E+03  0.91480481517E+02 0.  0.
        254    2    1    2    0    0  0.12560658548E+03 -0.16218001676E+03  0.42998813009E+03  0.10194561391E+04  0.90128888564E+03 0.  0.
         23    2    4    4    0    0 -0.87505155436E+02 -0.49226083776E+03  0.15710336143E+03  0.53287962839E+03  0.96443494158E+02 0.  0.
         23    2    4    4    0    0  0.21311174091E+03  0.33008082099E+03  0.27288476866E+03  0.48657651070E+03  0.88997984805E+02 0.  0.
          3    1    3    3  502    0 -0.19502688366E+02  0.62912769908E+02 -0.25596124829E+02  0.70664935274E+02  0.00000000000E+00 0. -1.
         -3    1    3    3    0  502 -0.10610389711E+03  0.99267246857E+02 -0.20468782693E+03  0.25101619425E+03  0.00000000000E+00 0.  1.
         13    1    5    5    0    0  0.12874653283E+02 -0.48592393401E+02  0.36974017583E+02  0.62402366701E+02  0.00000000000E+00 0.  1.
        -13    1    5    5    0    0 -0.10037980872E+03 -0.44366844436E+03  0.12012934385E+03  0.47047726169E+03  0.00000000000E+00 0. -1.
          4    1    6    6  503    0  0.14972403555E+03  0.28885937636E+03  0.23907364807E+03  0.40374897564E+03  0.00000000000E+00 0. -1.
         -4    1    6    6    0  503  0.63387705358E+02  0.41221444635E+02  0.33811120590E+02  0.82827535059E+02  0.00000000000E+00 0.  1.
<mgrwt>
<rscale>  0 0.13261853E+04</rscale>
<asrwt>0</asrwt>
<pdfrwt beam="1">  1        2 0.11852626E+00 0.13261853E+04</pdfrwt>
<pdfrwt beam="2">  1       -2 0.87802546E-01 0.13261853E+04</pdfrwt>
<totfact> 0.39645571E+01</totfact>
</mgrwt>
</event>
<event>
12    3  0.8686020E-008  0.2740271E+04  0.7818608E-02  0.8322056E-01
          1   -1    0    0  501    0  0.00000000000E+00  0.00000000000E+00  0.20247314450E+04  0.20247314450E+04  0.00000000000E+00 0. -1.
         -1   -1    0    0    0  501 -0.00000000000E+00 -0.00000000000E+00 -0.92717035506E+03  0.92717035506E+03  0.00000000000E+00 0.  1.
         23    2    1    2    0    0 -0.55475204780E+03 -0.36732281026E+03  0.15925731298E+04  0.17283492752E+04  0.90698190715E+02 0.  0.
        254    2    1    2    0    0  0.55475204780E+03  0.36732281026E+03 -0.49501203987E+03  0.12235525249E+04  0.89964880928E+03 0.  0.
         23    2    4    4    0    0 -0.86435746594E+02  0.44140122151E+03 -0.13129091538E+03  0.47727853430E+03  0.90836766820E+02 0.  0.
         23    2    4    4    0    0  0.64118779439E+03 -0.74078411247E+02 -0.36372112449E+03  0.74627399057E+03  0.89567929047E+02 0.  0.
          1    1    3    3  502    0 -0.23079091604E+03 -0.20381940276E+03  0.77053755038E+03  0.82978003858E+03  0.00000000000E+00 0. -1.
         -1    1    3    3    0  502 -0.32396113176E+03 -0.16350340749E+03  0.82203557944E+03  0.89856923663E+03  0.00000000000E+00 0.  1.
         13    1    5    5    0    0 -0.30512326431E+01  0.30461120312E+02  0.13787924130E+02  0.33575239733E+02  0.00000000000E+00 0.  1.
        -13    1    5    5    0    0 -0.83384513950E+02  0.41094010119E+03 -0.14507883951E+03  0.44370329457E+03  0.00000000000E+00 0. -1.
          4    1    6    6  503    0  0.16847986085E+03  0.16604611834E+02 -0.11318218477E+03  0.20364523956E+03  0.00000000000E+00 0.  1.
         -4    1    6    6    0  503  0.47270793354E+03 -0.90683023081E+02 -0.25053893972E+03  0.54262875101E+03  0.00000000000E+00 0. -1.
<mgrwt>
<rscale>  0 0.27402708E+04</rscale>
<asrwt>0</asrwt>
<pdfrwt beam="1">  1        1 0.31149714E+00 0.27402708E+04</pdfrwt>
<pdfrwt beam="2">  1       -1 0.14264159E+00 0.27402708E+04</pdfrwt>
<totfact> 0.99538771E-01</totfact>
</mgrwt>
</event>
<event>
12    3  0.8686020E-008  0.2752697E+04  0.7818608E-02  0.8318106E-01
          2   -1    0    0  501    0  0.00000000000E+00  0.00000000000E+00  0.15691562419E+04  0.15691562419E+04  0.00000000000E+00 0. -1.
         -2   -1    0    0    0  501 -0.00000000000E+00 -0.00000000000E+00 -0.12072320232E+04  0.12072320232E+04  0.00000000000E+00 0.  1.
         23    2    1    2    0    0 -0.31877752568E+03  0.10063163080E+04 -0.46894201701E+03  0.11587591640E+04  0.92328555932E+02 0.  0.
        254    2    1    2    0    0  0.31877752568E+03 -0.10063163080E+04  0.83086623573E+03  0.16176291010E+04  0.90116235167E+03 0.  0.
         23    2    4    4    0    0  0.41853173329E+03 -0.91973302369E+03  0.97072252617E+03  0.14042053321E+04  0.91721018166E+02 0.  0.
         23    2    4    4    0    0 -0.99754207607E+02 -0.86583284323E+02 -0.13985629044E+03  0.21342376892E+03  0.92424867365E+02 0.  0.
          2    1    3    3  502    0 -0.22730753369E+03  0.68899115951E+03 -0.36749412098E+03  0.81328313748E+03  0.00000000000E+00 0.  1.
         -2    1    3    3    0  502 -0.91469991988E+02  0.31732514851E+03 -0.10144789603E+03  0.34547602654E+03  0.00000000000E+00 0. -1.
         13    1    5    5    0    0  0.48640083478E+02 -0.18178779606E+03  0.20501853350E+03  0.27828988410E+03  0.00000000000E+00 0. -1.
        -13    1    5    5    0    0  0.36989164981E+03 -0.73794522763E+03  0.76570399267E+03  0.11259154480E+04  0.00000000000E+00 0.  1.
          2    1    6    6  503    0  0.57914663347E+01 -0.37219828714E+02 -0.10035618580E+02  0.38981667128E+02  0.00000000000E+00 0. -1.
         -2    1    6    6    0  503 -0.10554567394E+03 -0.49363455609E+02 -0.12982067186E+03  0.17444210180E+03  0.00000000000E+00 0.  1.
<mgrwt>
<rscale>  0 0.27526973E+04</rscale>
<asrwt>0</asrwt>
<pdfrwt beam="1">  1        2 0.24140865E+00 0.27526973E+04</pdfrwt>
<pdfrwt beam="2">  1       -2 0.18572800E+00 0.27526973E+04</pdfrwt>
<totfact> 0.16794848E+00</totfact>
</mgrwt>
</event>
<event>
12    3  0.8686020E-008  0.1815067E+04  0.7818608E-02  0.8698328E-01
         -2   -1    0    0    0  501 -0.00000000000E+00  0.00000000000E+00  0.26551974334E+03  0.26551974334E+03  0.00000000000E+00 0.  1.
          2   -1    0    0  501    0  0.00000000000E+00 -0.00000000000E+00 -0.31019061331E+04  0.31019061331E+04  0.00000000000E+00 0. -1.
         23    2    1    2    0    0  0.39562444355E+03 -0.45780322564E+03 -0.16501263936E+04  0.17598790721E+04  0.90303598768E+02 0.  0.
        254    2    1    2    0    0 -0.39562444355E+03  0.45780322564E+03 -0.11862599962E+04  0.16075468043E+04  0.90049511705E+03 0.  0.
         23    2    4    4    0    0 -0.38123643742E+03  0.62332621387E+03 -0.12093598524E+04  0.14159492343E+04  0.92109670416E+02 0.  0.
         23    2    4    4    0    0 -0.14388006125E+02 -0.16552298823E+03  0.23099856216E+02  0.19159757003E+03  0.92580511617E+02 0.  0.
          3    1    3    3  502    0  0.30935631972E+03 -0.35827630515E+03 -0.13885209154E+04  0.14669879263E+04  0.00000000000E+00 0. -1.
         -3    1    3    3    0  502  0.86268123827E+02 -0.99526920487E+02 -0.26160547822E+03  0.29289114586E+03  0.00000000000E+00 0.  1.
         13    1    5    5    0    0 -0.27789454938E+03  0.51354062283E+03 -0.91978495407E+03  0.10894740537E+04  0.00000000000E+00 0. -1.
        -13    1    5    5    0    0 -0.10334188804E+03  0.10978559104E+03 -0.28957489836E+03  0.32647518065E+03  0.00000000000E+00 0.  1.
          3    1    6    6  503    0  0.23521427020E+02 -0.81417762536E+02 -0.23911253159E+02  0.88055991352E+02  0.00000000000E+00 0. -1.
         -3    1    6    6    0  503 -0.37909433145E+02 -0.84105225696E+02  0.47011109374E+02  0.10354157868E+03  0.00000000000E+00 0.  1.
<mgrwt>
<rscale>  0 0.18150673E+04</rscale>
<asrwt>0</asrwt>
<pdfrwt beam="1">  1        2 0.47721634E+00 0.18150673E+04</pdfrwt>
<pdfrwt beam="2">  1       -2 0.40849190E-01 0.18150673E+04</pdfrwt>
<totfact> 0.80662127E+00</totfact>
</mgrwt>
</event>
<event>
12    3  0.8686020E-008  0.2917351E+04  0.7818608E-02  0.8267734E-01
         -2   -1    0    0    0  501 -0.00000000000E+00  0.00000000000E+00  0.19091912262E+04  0.19091912262E+04  0.00000000000E+00 0.  1.
          2   -1    0    0  501    0  0.00000000000E+00 -0.00000000000E+00 -0.11144685587E+04  0.11144685587E+04  0.00000000000E+00 0. -1.
         23    2    1    2    0    0 -0.63800545059E+03 -0.83117173398E+03 -0.46810601029E+03  0.11513215884E+04  0.92307944639E+02 0.  0.
        254    2    1    2    0    0  0.63800545059E+03  0.83117173398E+03  0.12628286778E+04  0.18723381966E+04  0.90167435734E+03 0.  0.
         23    2    4    4    0    0 -0.61243737161E+01  0.71394214838E+03  0.61303065335E+03  0.94532769412E+03  0.89927571630E+02 0.  0.
         23    2    4    4    0    0  0.64412982431E+03  0.11722958560E+03  0.64979802441E+03  0.92701050247E+03  0.92005395838E+02 0.  0.
          1    1    3    3  502    0 -0.53573014350E+03 -0.64040316202E+03 -0.35769462697E+03  0.90833278194E+03  0.00000000000E+00 0. -1.
         -1    1    3    3    0  502 -0.10227530709E+03 -0.19076857195E+03 -0.11041138332E+03  0.24298880644E+03  0.00000000000E+00 0.  1.
         13    1    5    5    0    0  0.20491258653E+02  0.12124370742E+03  0.72630045926E+02  0.14281124550E+03  0.00000000000E+00 0. -1.
        -13    1    5    5    0    0 -0.26615632370E+02  0.59269844096E+03  0.54040060743E+03  0.80251644862E+03  0.00000000000E+00 0.  1.
          1    1    6    6  503    0  0.35107177013E+03  0.10330523839E+03  0.39443189737E+03  0.53805193218E+03  0.00000000000E+00 0. -1.
         -1    1    6    6    0  503  0.29305805418E+03  0.13924347217E+02  0.25536612704E+03  0.38895857029E+03  0.00000000000E+00 0.  1.
<mgrwt>
<rscale>  0 0.29173506E+04</rscale>
<asrwt>0</asrwt>
<pdfrwt beam="1">  1        2 0.17145670E+00 0.29173506E+04</pdfrwt>
<pdfrwt beam="2">  1       -2 0.29372173E+00 0.29173506E+04</pdfrwt>
<totfact> 0.63867745E-01</totfact>
</mgrwt>
</event>
<event>
12    3  0.8686020E-008  0.1262649E+04  0.7818608E-02  0.9059720E-01
          2   -1    0    0  501    0  0.00000000000E+00  0.00000000000E+00  0.12518147695E+04  0.12518147695E+04  0.00000000000E+00 0. -1.
         -2   -1    0    0    0  501 -0.00000000000E+00 -0.00000000000E+00 -0.31839445087E+03  0.31839445087E+03  0.00000000000E+00 0.  1.
         23    2    1    2    0    0 -0.10865360121E+03  0.26309465270E+03  0.14190394969E+03  0.33162500155E+03  0.93882955765E+02 0.  0.
        254    2    1    2    0    0  0.10865360121E+03 -0.26309465270E+03  0.79151636897E+03  0.12385842188E+04  0.90915801898E+03 0.  0.
         23    2    4    4    0    0  0.45786208269E+03 -0.19376790310E+02  0.21017967136E+03  0.51236860599E+03  0.91284978950E+02 0.  0.
         23    2    4    4    0    0 -0.34920848149E+03 -0.24371786239E+03  0.58133669761E+03  0.72621561285E+03  0.89954434953E+02 0.  0.
          3    1    3    3  502    0 -0.45301699537E+02  0.21602428941E+03  0.10107543974E+03  0.24276528194E+03  0.00000000000E+00 0.  1.
         -3    1    3    3    0  502 -0.63351901668E+02  0.47070363290E+02  0.40828509953E+02  0.88859719616E+02  0.00000000000E+00 0. -1.
         13    1    5    5    0    0  0.17472031265E+03 -0.37901332989E+02  0.11720563893E+03  0.21377759586E+03  0.00000000000E+00 0.  1.
        -13    1    5    5    0    0  0.28314177004E+03  0.18524542679E+02  0.92974032427E+02  0.29859101013E+03  0.00000000000E+00 0. -1.
          1    1    6    6  503    0 -0.33209401462E+03 -0.25090139675E+03  0.54914053884E+03  0.68905244854E+03  0.00000000000E+00 0. -1.
         -1    1    6    6    0  503 -0.17114466866E+02  0.71835343634E+01  0.32196158765E+02  0.37163164307E+02  0.00000000000E+00 0.  1.
<mgrwt>
<rscale>  0 0.12626494E+04</rscale>
<asrwt>0</asrwt>
<pdfrwt beam="1">  1        2 0.19258689E+00 0.12626494E+04</pdfrwt>
<pdfrwt beam="2">  1       -2 0.48983762E-01 0.12626494E+04</pdfrwt>
<totfact> 0.68397040E+01</totfact>
</mgrwt>
</event>
<event>
12    3  0.8686020E-008  0.2240031E+04  0.7818608E-02  0.8501949E-01
          2   -1    0    0  501    0  0.00000000000E+00  0.00000000000E+00  0.22103201739E+04  0.22103201739E+04  0.00000000000E+00 0.  1.
         -2   -1    0    0    0  501 -0.00000000000E+00 -0.00000000000E+00 -0.56753541886E+03  0.56753541886E+03  0.00000000000E+00 0. -1.
         23    2    1    2    0    0  0.90861394502E+03  0.15020260103E+03  0.89969761206E+03  0.12902076730E+04  0.83904253795E+02 0.  0.
        254    2    1    2    0    0 -0.90861394502E+03 -0.15020260103E+03  0.74308714297E+03  0.14876479198E+04  0.90154185079E+03 0.  0.
         23    2    4    4    0    0 -0.44944359663E+03 -0.51815028599E+03  0.43513382544E+03  0.81742276911E+03  0.91429054387E+02 0.  0.
         23    2    4    4    0    0 -0.45917034839E+03  0.36794768497E+03  0.30795331753E+03  0.67022515067E+03  0.90241892160E+02 0.  0.
          2    1    3    3  502    0  0.59823340867E+03  0.90111711981E+02  0.53553051659E+03  0.80795808436E+03  0.00000000000E+00 0. -1.
         -2    1    3    3    0  502  0.31038053635E+03  0.60090889045E+02  0.36416709547E+03  0.48224958861E+03  0.00000000000E+00 0.  1.
         13    1    5    5    0    0 -0.46816619225E+02 -0.78008191184E+02  0.91374388081E+02  0.12894321434E+03  0.00000000000E+00 0. -1.
        -13    1    5    5    0    0 -0.40262697740E+03 -0.44014209481E+03  0.34375943736E+03  0.68847955477E+03  0.00000000000E+00 0.  1.
          4    1    6    6  503    0 -0.17191168995E+03  0.10435609101E+03  0.67324713745E+02  0.21207649552E+03  0.00000000000E+00 0. -1.
         -4    1    6    6    0  503 -0.28725865844E+03  0.26359159396E+03  0.24062860379E+03  0.45814865515E+03  0.00000000000E+00 0.  1.
<mgrwt>
<rscale>  0 0.22400312E+04</rscale>
<asrwt>0</asrwt>
<pdfrwt beam="1">  1        2 0.34004925E+00 0.22400312E+04</pdfrwt>
<pdfrwt beam="2">  1       -2 0.87313143E-01 0.22400312E+04</pdfrwt>
<totfact> 0.52594311E+00</totfact>
</mgrwt>
</event>
<event>
12    3  0.8686020E-008  0.1817350E+04  0.7818608E-02  0.8697127E-01
         -1   -1    0    0    0  501 -0.00000000000E+00  0.00000000000E+00  0.45599966902E+03  0.45599966902E+03  0.00000000000E+00 0.  1.
          1   -1    0    0  501    0  0.00000000000E+00 -0.00000000000E+00 -0.18107253560E+04  0.18107253560E+04  0.00000000000E+00 0. -1.
         23    2    1    2    0    0 -0.39320134771E+02 -0.68357408246E+03 -0.51904122122E+03  0.86372634540E+03  0.88316539843E+02 0.  0.
        254    2    1    2    0    0  0.39320134771E+02  0.68357408246E+03 -0.83568446572E+03  0.14029986796E+04  0.89510735080E+03 0.  0.
         23    2    4    4    0    0  0.34081456592E+03 -0.16958498700E+02 -0.33054752231E+03  0.48390236494E+03  0.91965620062E+02 0.  0.
         23    2    4    4    0    0 -0.30149443115E+03  0.70053258116E+03 -0.50513694342E+03  0.91909631464E+03  0.89050068497E+02 0.  0.
          4    1    3    3  502    0 -0.50699691510E+02 -0.59529023323E+03 -0.48063735257E+03  0.76678105427E+03  0.00000000000E+00 0. -1.
         -4    1    3    3    0  502  0.11379556739E+02 -0.88283849227E+02 -0.38403868654E+02  0.96945291136E+02  0.00000000000E+00 0.  1.
         13    1    5    5    0    0  0.28818082242E+02  0.47989396876E+01 -0.73423171254E+02  0.79021982785E+02  0.00000000000E+00 0.  1.
        -13    1    5    5    0    0  0.31199648368E+03 -0.21757438387E+02 -0.25712435105E+03  0.40488038216E+03  0.00000000000E+00 0. -1.
          3    1    6    6  503    0 -0.16574495972E+03  0.27512677688E+03 -0.21876138313E+03  0.38861636324E+03  0.00000000000E+00 0. -1.
         -3    1    6    6    0  503 -0.13574947143E+03  0.42540580428E+03 -0.28637556029E+03  0.53047995140E+03  0.00000000000E+00 0.  1.
<mgrwt>
<rscale>  0 0.18173499E+04</rscale>
<asrwt>0</asrwt>
<pdfrwt beam="1">  1        1 0.27857313E+00 0.18173499E+04</pdfrwt>
<pdfrwt beam="2">  1       -1 0.70153795E-01 0.18173499E+04</pdfrwt>
<totfact> 0.77525923E+00</totfact>
</mgrwt>
</event>
<event>
12    3  0.8686020E-008  0.2268701E+04  0.7818608E-02  0.8490365E-01
         -2   -1    0    0    0  501 -0.00000000000E+00  0.00000000000E+00  0.10102946965E+04  0.10102946965E+04  0.00000000000E+00 0.  1.
          2   -1    0    0  501    0  0.00000000000E+00 -0.00000000000E+00 -0.12736394678E+04  0.12736394678E+04  0.00000000000E+00 0. -1.
         23    2    1    2    0    0  0.73891001247E+03  0.40836759884E+02 -0.71505075811E+03  0.10330815245E+04  0.91127394641E+02 0.  0.
        254    2    1    2    0    0 -0.73891001247E+03 -0.40836759884E+02  0.45170598687E+03  0.12508526398E+04  0.90163095580E+03 0.  0.
         23    2    4    4    0    0  0.98129649886E+02  0.12705578283E+03  0.33733738520E+03  0.38474956206E+03  0.91995184187E+02 0.  0.
         23    2    4    4    0    0 -0.83703966235E+03 -0.16789254271E+03  0.11436860167E+03  0.86610307775E+03  0.90725200394E+02 0.  0.
          4    1    3    3  502    0  0.58393556197E+03 -0.42071371567E+01 -0.54822444229E+03  0.80096721509E+03  0.00000000000E+00 0. -1.
         -4    1    3    3    0  502  0.15497445050E+03  0.45043897041E+02 -0.16682631583E+03  0.23211430938E+03  0.00000000000E+00 0.  1.
         13    1    5    5    0    0  0.57045950746E+02  0.45723695265E+02  0.24229266105E+03  0.25308226015E+03  0.00000000000E+00 0. -1.
        -13    1    5    5    0    0  0.41083699140E+02  0.81332087564E+02  0.95044724151E+02  0.13166730191E+03  0.00000000000E+00 0.  1.
          2    1    6    6  503    0 -0.68015744114E+03 -0.10295767818E+03  0.76545210027E+02  0.69215142665E+03  0.00000000000E+00 0. -1.
         -2    1    6    6    0  503 -0.15688222121E+03 -0.64934864535E+02  0.37823391641E+02  0.17395165110E+03  0.00000000000E+00 0.  1.
<mgrwt>
<rscale>  0 0.22687011E+04</rscale>
<asrwt>0</asrwt>
<pdfrwt beam="1">  1        2 0.19594453E+00 0.22687011E+04</pdfrwt>
<pdfrwt beam="2">  1       -2 0.15542995E+00 0.22687011E+04</pdfrwt>
<totfact> 0.42429314E+00</totfact>
</mgrwt>
</event>
<event>
12    3  0.8686020E-008  0.2778474E+04  0.7818608E-02  0.8309983E-01
         -2   -1    0    0    0  501 -0.00000000000E+00  0.00000000000E+00  0.52734663810E+03  0.52734663810E+03  0.00000000000E+00 0.  1.
          2   -1    0    0  501    0  0.00000000000E+00 -0.00000000000E+00 -0.36597932135E+04  0.36597932135E+04  0.00000000000E+00 0. -1.
         23    2    1    2    0    0  0.59282716281E+03 -0.28401259209E+03  0.18400197873E+03  0.68872599485E+03  0.91539993329E+02 0.  0.
        254    2    1    2    0    0 -0.59282716281E+03  0.28401259209E+03 -0.33164485541E+04  0.34984138567E+04  0.89886667727E+03 0.  0.
         23    2    4    4    0    0 -0.76680378627E+03  0.41394287587E+03 -0.27549095407E+04  0.28908987078E+04  0.91825978407E+02 0.  0.
         23    2    4    4    0    0  0.17397662346E+03 -0.12993028378E+03 -0.56153901338E+03  0.60751514889E+03  0.81233296269E+02 0.  0.
          2    1    3    3  502    0  0.19639163686E+03 -0.13773704226E+03  0.46387524852E+02  0.24432144872E+03  0.00000000000E+00 0. -1.
         -2    1    3    3    0  502  0.39643552594E+03 -0.14627554982E+03  0.13761445388E+03  0.44440454613E+03  0.00000000000E+00 0.  1.
         13    1    5    5    0    0 -0.52812822439E+03  0.26007563711E+03 -0.17325338471E+04  0.18298175564E+04  0.00000000000E+00 0. -1.
        -13    1    5    5    0    0 -0.23867556188E+03  0.15386723876E+03 -0.10223756936E+04  0.10610811514E+04  0.00000000000E+00 0.  1.
          3    1    6    6  503    0  0.53410837152E+02  0.14135765229E+01 -0.12147117309E+03  0.13270253056E+03  0.00000000000E+00 0. -1.
         -3    1    6    6    0  503  0.12056578631E+03 -0.13134386031E+03 -0.44006784029E+03  0.47481261833E+03  0.00000000000E+00 0.  1.
<mgrwt>
<rscale>  0 0.27784741E+04</rscale>
<asrwt>0</asrwt>
<pdfrwt beam="1">  1        2 0.56304510E+00 0.27784741E+04</pdfrwt>
<pdfrwt beam="2">  1       -2 0.81130253E-01 0.27784741E+04</pdfrwt>
<totfact> 0.72951487E-01</totfact>
</mgrwt>
</event>
<event>
12    3  0.8686020E-008  0.3695188E+04  0.7818608E-02  0.8069029E-01
         -2   -1    0    0    0  501 -0.00000000000E+00  0.00000000000E+00  0.13223999050E+04  0.13223999050E+04  0.00000000000E+00 0.  1.
          2   -1    0    0  501    0  0.00000000000E+00 -0.00000000000E+00 -0.25813705791E+04  0.25813705791E+04  0.00000000000E+00 0. -1.
         23    2    1    2    0    0  0.19130809267E+03  0.17259281314E+04 -0.62151676307E+03  0.18470665209E+04  0.99724344786E+02 0.  0.
        254    2    1    2    0    0 -0.19130809267E+03 -0.17259281314E+04 -0.63745391101E+03  0.20567039631E+04  0.89903114643E+03 0.  0.
         23    2    4    4    0    0  0.17724255423E+03 -0.10678965809E+04 -0.70370974212E+03  0.12943387460E+04  0.91034926074E+02 0.  0.
         23    2    4    4    0    0 -0.36855064691E+03 -0.65803155049E+03  0.66255831109E+02  0.76236521711E+03  0.89307269210E+02 0.  0.
          3    1    3    3  502    0 -0.96925022997E+01  0.19201068397E+03 -0.63389437954E+02  0.20243583725E+03  0.00000000000E+00 0. -1.
         -3    1    3    3    0  502  0.20100059497E+03  0.15339174474E+04 -0.55812732512E+03  0.16446306837E+04  0.00000000000E+00 0.  1.
         13    1    5    5    0    0  0.17595250926E+03 -0.10689868587E+04 -0.70468296554E+03  0.12923893653E+04  0.00000000000E+00 0.  1.
        -13    1    5    5    0    0  0.12900449676E+01  0.10902777474E+01  0.97322341840E+00  0.19493807753E+01  0.00000000000E+00 0. -1.
          4    1    6    6  503    0 -0.15102338839E+03 -0.22586900595E+03 -0.13369118041E+02  0.27203603623E+03  0.00000000000E+00 0. -1.
         -4    1    6    6    0  503 -0.21752725852E+03 -0.43216254454E+03  0.79624949150E+02  0.49032918088E+03  0.00000000000E+00 0.  1.
<mgrwt>
<rscale>  0 0.36951883E+04</rscale>
<asrwt>0</asrwt>
<pdfrwt beam="1">  1        2 0.39713393E+00 0.36951883E+04</pdfrwt>
<pdfrwt beam="2">  1       -2 0.20344614E+00 0.36951883E+04</pdfrwt>
<totfact> 0.31864128E-01</totfact>
</mgrwt>
</event>
<event>
12    3  0.8686020E-008  0.4017312E+04  0.7818608E-02  0.8001063E-01
          2   -1    0    0  501    0  0.00000000000E+00  0.00000000000E+00  0.17082368358E+04  0.17082368358E+04  0.00000000000E+00 0. -1.
         -2   -1    0    0    0  501 -0.00000000000E+00 -0.00000000000E+00 -0.23619081358E+04  0.23619081358E+04  0.00000000000E+00 0.  1.
         23    2    1    2    0    0  0.15214346317E+04 -0.99549709905E+03 -0.89203146762E+03  0.20272049584E+04  0.89788592907E+02 0.  0.
        254    2    1    2    0    0 -0.15214346317E+04  0.99549709905E+03  0.23836016761E+03  0.20429400132E+04  0.90056122234E+03 0.  0.
         23    2    4    4    0    0 -0.15809536106E+04  0.10430815604E+04  0.27942441107E+03  0.19166877305E+04  0.90445533231E+02 0.  0.
         23    2    4    4    0    0  0.59518978882E+02 -0.47584461303E+02 -0.41064243459E+02  0.12625228265E+03  0.91905260889E+02 0.  0.
          4    1    3    3  502    0  0.13258434322E+04 -0.90177189823E+03 -0.79093466219E+03  0.17879124707E+04  0.00000000000E+00 0. -1.
         -4    1    3    3    0  502  0.19559119949E+03 -0.93725200824E+02 -0.10109680542E+03  0.23929248766E+03  0.00000000000E+00 0.  1.
         13    1    5    5    0    0 -0.12059988008E+04  0.82221328295E+03  0.18385441227E+03  0.14711458919E+04  0.00000000000E+00 0.  1.
        -13    1    5    5    0    0 -0.37495480975E+03  0.22086827740E+03  0.95569998797E+02  0.44554183865E+03  0.00000000000E+00 0. -1.
          1    1    6    6  503    0 -0.23999350785E+02 -0.18899847324E+02 -0.15855881233E+02  0.34417757577E+02  0.00000000000E+00 0. -1.
         -1    1    6    6    0  503  0.83518329666E+02 -0.28684613978E+02 -0.25208362227E+02  0.91834525074E+02  0.00000000000E+00 0.  1.
<mgrwt>
<rscale>  0 0.40173118E+04</rscale>
<asrwt>0</asrwt>
<pdfrwt beam="1">  1        2 0.26280567E+00 0.40173118E+04</pdfrwt>
<pdfrwt beam="2">  1       -2 0.36337048E+00 0.40173118E+04</pdfrwt>
<totfact> 0.97813300E-02</totfact>
</mgrwt>
</event>
<event>
12    3  0.8686020E-008  0.2924426E+04  0.7818608E-02  0.8265647E-01
         -1   -1    0    0    0  501 -0.00000000000E+00  0.00000000000E+00  0.18205547739E+04  0.18205547739E+04  0.00000000000E+00 0.  1.
          1   -1    0    0  501    0  0.00000000000E+00 -0.00000000000E+00 -0.11744037799E+04  0.11744037799E+04  0.00000000000E+00 0. -1.
         23    2    1    2    0    0 -0.10385977848E+04  0.56504305165E+03 -0.31321953708E+03  0.12262314295E+04  0.87051890101E+02 0.  0.
        254    2    1    2    0    0  0.10385977848E+04 -0.56504305165E+03  0.95937053110E+03  0.17687271243E+04  0.90002489714E+03 0.  0.
         23    2    4    4    0    0  0.19440970597E+03 -0.44811300337E+03  0.20136340812E+02  0.49717905579E+03  0.90449675101E+02 0.  0.
         23    2    4    4    0    0  0.84418807882E+03 -0.11693004828E+03  0.93923419029E+03  0.12715480685E+04  0.91364531990E+02 0.  0.
          1    1    3    3  502    0 -0.49848673775E+03  0.22393076021E+03 -0.15745598091E+03  0.56870589852E+03  0.00000000000E+00 0. -1.
         -1    1    3    3    0  502 -0.54011104703E+03  0.34111229144E+03 -0.15576355617E+03  0.65752553101E+03  0.00000000000E+00 0.  1.
         13    1    5    5    0    0  0.19387361886E+03 -0.39781521422E+03 -0.11900731288E+01  0.44254416845E+03  0.00000000000E+00 0.  1.
        -13    1    5    5    0    0  0.53608711250E+00 -0.50297789150E+02  0.21326413941E+02  0.54634887337E+02  0.00000000000E+00 0. -1.
          3    1    6    6  503    0  0.19164210470E+01 -0.74039979558E+01  0.65019708943E+01  0.10038300696E+02  0.00000000000E+00 0. -1.
         -3    1    6    6    0  503  0.84227165777E+03 -0.10952605033E+03  0.93273221940E+03  0.12615097678E+04  0.00000000000E+00 0.  1.
<mgrwt>
<rscale>  0 0.29244257E+04</rscale>
<asrwt>0</asrwt>
<pdfrwt beam="1">  1        1 0.18067750E+00 0.29244257E+04</pdfrwt>
<pdfrwt beam="2">  1       -1 0.28008535E+00 0.29244257E+04</pdfrwt>
<totfact> 0.42482924E-01</totfact>
</mgrwt>
</event>
<event>
12    3  0.8686020E-008  0.2929476E+04  0.7818608E-02  0.8264161E-01
          2   -1    0    0  501    0  0.00000000000E+00  0.00000000000E+00  0.14059093221E+04  0.14059093221E+04  0.00000000000E+00 0.  1.
         -2   -1    0    0    0  501 -0.00000000000E+00 -0.00000000000E+00 -0.15260283021E+04  0.15260283021E+04  0.00000000000E+00 0. -1.
         23    2    1    2    0    0  0.96069275526E+03  0.55925979323E+03  0.66743147297E+03  0.12999618846E+04  0.93456107114E+02 0.  0.
        254    2    1    2    0    0 -0.96069275526E+03 -0.55925979323E+03 -0.78755045299E+03  0.16319757396E+04  0.89855829663E+03 0.  0.
         23    2    4    4    0    0 -0.61272515187E+03 -0.63745089100E+03 -0.88170541539E+03  0.12520591415E+04  0.92042947089E+02 0.  0.
         23    2    4    4    0    0 -0.34796760339E+03  0.78191097775E+02  0.94154962395E+02  0.37991659815E+03  0.90973423730E+02 0.  0.
          3    1    3    3  502    0  0.41299540122E+03  0.22319508051E+03  0.33300368883E+03  0.57556294370E+03  0.00000000000E+00 0. -1.
         -3    1    3    3    0  502  0.54769735405E+03  0.33606471271E+03  0.33442778414E+03  0.72439894089E+03  0.00000000000E+00 0.  1.
         13    1    5    5    0    0 -0.35009530753E+03 -0.42308976838E+03 -0.51922054106E+03  0.75575237130E+03  0.00000000000E+00 0. -1.
        -13    1    5    5    0    0 -0.26262984435E+03 -0.21436112262E+03 -0.36248487432E+03  0.49630677020E+03  0.00000000000E+00 0.  1.
          2    1    6    6  503    0 -0.20622914287E+02 -0.60422314699E+01 -0.13259188338E+02  0.25251123346E+02  0.00000000000E+00 0. -1.
         -2    1    6    6    0  503 -0.32734468910E+03  0.84233329245E+02  0.10741415073E+03  0.35466547480E+03  0.00000000000E+00 0.  1.
<mgrwt>
<rscale>  0 0.29294760E+04</rscale>
<asrwt>0</asrwt>
<pdfrwt beam="1">  1        2 0.21629374E+00 0.29294760E+04</pdfrwt>
<pdfrwt beam="2">  1       -2 0.23477359E+00 0.29294760E+04</pdfrwt>
<totfact> 0.98685852E-01</totfact>
</mgrwt>
</event>
<event>
12    3  0.8686020E-008  0.1857698E+04  0.7818608E-02  0.8676204E-01
          3   -1    0    0  501    0  0.00000000000E+00  0.00000000000E+00  0.79906981031E+03  0.79906981031E+03  0.00000000000E+00 0. -1.
         -3   -1    0    0    0  501 -0.00000000000E+00 -0.00000000000E+00 -0.10797057749E+04  0.10797057749E+04  0.00000000000E+00 0.  1.
         23    2    1    2    0    0 -0.39345731560E+03  0.20793522621E+03 -0.66373249442E+03  0.80430384095E+03  0.91203765928E+02 0.  0.
        254    2    1    2    0    0  0.39345731560E+03 -0.20793522621E+03  0.38309652984E+03  0.10744717442E+04  0.89982268281E+03 0.  0.
         23    2    4    4    0    0 -0.13070738962E+03 -0.38524710557E+03  0.28402235937E+03  0.50485618355E+03  0.93334406295E+02 0.  0.
         23    2    4    4    0    0  0.52416470523E+03  0.17731187936E+03  0.99074170470E+02  0.56961556069E+03  0.91967684331E+02 0.  0.
          4    1    3    3  502    0 -0.12616737374E+03  0.51291434466E+02 -0.13675634514E+03  0.19300599830E+03  0.00000000000E+00 0. -1.
         -4    1    3    3    0  502 -0.26728994187E+03  0.15664379174E+03 -0.52697614928E+03  0.61129784265E+03  0.00000000000E+00 0.  1.
         13    1    5    5    0    0 -0.57515755490E+02 -0.29353596486E+03  0.21889356033E+03  0.37065592609E+03  0.00000000000E+00 0.  1.
        -13    1    5    5    0    0 -0.73191634134E+02 -0.91711140707E+02  0.65128799040E+02  0.13420025746E+03  0.00000000000E+00 0. -1.
          1    1    6    6  503    0  0.24317514927E+03  0.37079587458E+02  0.59623717358E+02  0.25310874481E+03  0.00000000000E+00 0. -1.
         -1    1    6    6    0  503  0.28098955596E+03  0.14023229190E+03  0.39450453111E+02  0.31650681588E+03  0.00000000000E+00 0.  1.
<mgrwt>
<rscale>  0 0.18576978E+04</rscale>
<asrwt>0</asrwt>
<pdfrwt beam="1">  1        3 0.12293382E+00 0.18576978E+04</pdfrwt>
<pdfrwt beam="2">  1       -3 0.16610858E+00 0.18576978E+04</pdfrwt>
<totfact> 0.32310421E-01</totfact>
</mgrwt>
</event>
<event>
12    3  0.8686020E-008  0.4154372E+04  0.7818608E-02  0.7974109E-01
          1   -1    0    0  501    0  0.00000000000E+00  0.00000000000E+00  0.40822346062E+04  0.40822346062E+04  0.00000000000E+00 0. -1.
         -1   -1    0    0    0  501 -0.00000000000E+00 -0.00000000000E+00 -0.10569459325E+04  0.10569459325E+04  0.00000000000E+00 0.  1.
         23    2    1    2    0    0 -0.91790065110E+02  0.16795234267E+04  0.15316290902E+03  0.16910642533E+04  0.83756046608E+02 0.  0.
        254    2    1    2    0    0  0.91790065110E+02 -0.16795234267E+04  0.28721257647E+04  0.34481162854E+04  0.90065262591E+03 0.  0.
         23    2    4    4    0    0 -0.88677766143E+02 -0.12566379565E+04  0.13208791147E+04  0.18275530906E+04  0.90697096414E+02 0.  0.
         23    2    4    4    0    0  0.18046783125E+03 -0.42288547016E+03  0.15512466500E+04  0.16205631948E+04  0.91968148000E+02 0.  0.
          2    1    3    3  502    0 -0.25960345718E+02  0.11724726266E+04  0.10081163780E+03  0.11770849527E+04  0.00000000000E+00 0. -1.
         -2    1    3    3    0  502 -0.65829719392E+02  0.50705080007E+03  0.52351271227E+02  0.51397930056E+03  0.00000000000E+00 0.  1.
         13    1    5    5    0    0 -0.29335939973E+02 -0.32891803116E+03  0.29072899195E+03  0.43996706167E+03  0.00000000000E+00 0.  1.
        -13    1    5    5    0    0 -0.59341826169E+02 -0.92771992533E+03  0.10301501227E+04  0.13875860289E+04  0.00000000000E+00 0. -1.
          3    1    6    6  503    0  0.16659099197E+03 -0.39831658635E+03  0.15105521183E+04  0.15710430815E+04  0.00000000000E+00 0. -1.
         -3    1    6    6    0  503  0.13876839280E+02 -0.24568883811E+02  0.40694531698E+02  0.49520113391E+02  0.00000000000E+00 0.  1.
<mgrwt>
<rscale>  0 0.41543718E+04</rscale>
<asrwt>0</asrwt>
<pdfrwt beam="1">  1        1 0.62803608E+00 0.41543718E+04</pdfrwt>
<pdfrwt beam="2">  1       -1 0.16260707E+00 0.41543718E+04</pdfrwt>
<totfact> 0.17431596E-02</totfact>
</mgrwt>
</event>
<event>
12    3  0.8686020E-008  0.2963413E+04  0.7818608E-02  0.8254256E-01
         -2   -1    0    0    0  501 -0.00000000000E+00  0.00000000000E+00  0.10602035795E+04  0.10602035795E+04  0.00000000000E+00 0.  1.
          2   -1    0    0  501    0  0.00000000000E+00 -0.00000000000E+00 -0.20707854270E+04  0.20707854270E+04  0.00000000000E+00 0. -1.
         23    2    1    2    0    0 -0.10555199154E+04 -0.67106911194E+03 -0.97731408322E+03  0.15899470196E+04  0.91283421052E+02 0.  0.
        254    2    1    2    0    0  0.10555199154E+04  0.67106911194E+03 -0.33267764290E+02  0.15410419869E+04  0.89958191208E+03 0.  0.
         23    2    4    4    0    0  0.81222311615E+03  0.11466416896E+03 -0.29106176001E+03  0.87475002932E+03  0.87272009260E+02 0.  0.
         23    2    4    4    0    0  0.24329679924E+03  0.55640494298E+03  0.25779399572E+03  0.66629195761E+03  0.93313640197E+02 0.  0.
          1    1    3    3  502    0 -0.32205154451E+03 -0.21489487907E+03 -0.35583923520E+03  0.52585032821E+03  0.00000000000E+00 0. -1.
         -1    1    3    3    0  502 -0.73346837088E+03 -0.45617423286E+03 -0.62147484802E+03  0.10640966913E+04  0.00000000000E+00 0.  1.
         13    1    5    5    0    0  0.48135045290E+03  0.77581494334E+02 -0.12834971418E+03  0.50417337881E+03  0.00000000000E+00 0.  1.
        -13    1    5    5    0    0  0.33087266325E+03  0.37082674625E+02 -0.16271204583E+03  0.37057665051E+03  0.00000000000E+00 0. -1.
          4    1    6    6  503    0  0.14133644252E+03  0.21555467735E+03  0.12583020384E+03  0.28683278946E+03  0.00000000000E+00 0. -1.
         -4    1    6    6    0  503  0.10196035673E+03  0.34085026562E+03  0.13196379189E+03  0.37945916814E+03  0.00000000000E+00 0.  1.
<mgrwt>
<rscale>  0 0.29634130E+04</rscale>
<asrwt>0</asrwt>
<pdfrwt beam="1">  1        2 0.31858237E+00 0.29634130E+04</pdfrwt>
<pdfrwt beam="2">  1       -2 0.16310825E+00 0.29634130E+04</pdfrwt>
<totfact> 0.12518803E+00</totfact>
</mgrwt>
</event>
<event>
12    3  0.8686020E-008  0.3383377E+04  0.7818608E-02  0.8141998E-01
         -1   -1    0    0    0  501 -0.00000000000E+00  0.00000000000E+00  0.18220245188E+04  0.18220245188E+04  0.00000000000E+00 0.  1.
          1   -1    0    0  501    0  0.00000000000E+00 -0.00000000000E+00 -0.15706763125E+04  0.15706763125E+04  0.00000000000E+00 0. -1.
         23    2    1    2    0    0 -0.14716033313E+04 -0.10987171204E+03 -0.42348171191E+03  0.15376496950E+04  0.85683524504E+02 0.  0.
        254    2    1    2    0    0  0.14716033313E+04  0.10987171204E+03  0.67482991825E+03  0.18550511363E+04  0.89896114595E+03 0.  0.
         23    2    4    4    0    0  0.10200613655E+04  0.12191697897E+02  0.87104837924E+03  0.13444140172E+04  0.89721479127E+02 0.  0.
         23    2    4    4    0    0  0.45154196581E+03  0.97680014144E+02 -0.19621846099E+03  0.51063711910E+03  0.93899152910E+02 0.  0.
          4    1    3    3  502    0 -0.56820858143E+03 -0.13733096547E+02 -0.13152020168E+03  0.58339279512E+03  0.00000000000E+00 0. -1.
         -4    1    3    3    0  502 -0.90339474987E+03 -0.96138615494E+02 -0.29196151023E+03  0.95425689986E+03  0.00000000000E+00 0.  1.
         13    1    5    5    0    0  0.24333742087E+03  0.23712560182E+02  0.16751958250E+03  0.29637509414E+03  0.00000000000E+00 0. -1.
        -13    1    5    5    0    0  0.77672394462E+03 -0.11520862285E+02  0.70352879674E+03  0.10480389231E+04  0.00000000000E+00 0.  1.
          1    1    6    6  503    0  0.23694796747E+03  0.47624024062E+02 -0.15311610606E+03  0.28610649921E+03  0.00000000000E+00 0. -1.
         -1    1    6    6    0  503  0.21459399834E+03  0.50055990081E+02 -0.43102354933E+02  0.22453061989E+03  0.00000000000E+00 0.  1.
<mgrwt>
<rscale>  0 0.33833775E+04</rscale>
<asrwt>0</asrwt>
<pdfrwt beam="1">  1        1 0.24164251E+00 0.33833775E+04</pdfrwt>
<pdfrwt beam="2">  1       -1 0.28031147E+00 0.33833775E+04</pdfrwt>
<totfact> 0.21333030E-01</totfact>
</mgrwt>
</event>
<event>
12    3  0.8686020E-008  0.2169827E+04  0.7818608E-02  0.8531093E-01
         -2   -1    0    0    0  501 -0.00000000000E+00  0.00000000000E+00  0.45469587246E+03  0.45469587246E+03  0.00000000000E+00 0.  1.
          2   -1    0    0  501    0  0.00000000000E+00 -0.00000000000E+00 -0.25886243837E+04  0.25886243837E+04  0.00000000000E+00 0. -1.
         23    2    1    2    0    0  0.83136946762E+03 -0.23338498720E+03 -0.52848174119E+03  0.10163390384E+04  0.89489364085E+02 0.  0.
        254    2    1    2    0    0 -0.83136946762E+03  0.23338498720E+03 -0.16054467701E+04  0.20269812178E+04  0.88631246279E+03 0.  0.
         23    2    4    4    0    0 -0.77421693916E+03  0.42082014097E+03 -0.80140391517E+03  0.11947536072E+04  0.93201323314E+02 0.  0.
         23    2    4    4    0    0 -0.57152528458E+02 -0.18743515376E+03 -0.80404285491E+03  0.83222761061E+03  0.87860884032E+02 0.  0.
          4    1    3    3  502    0  0.37755420802E+03 -0.11162116232E+03 -0.29297543746E+03  0.49075561212E+03  0.00000000000E+00 0. -1.
         -4    1    3    3    0  502  0.45381525960E+03 -0.12176382488E+03 -0.23550630373E+03  0.52558342629E+03  0.00000000000E+00 0.  1.
         13    1    5    5    0    0 -0.12109335238E+03  0.10355408302E+03 -0.12674047782E+03  0.20359321408E+03  0.00000000000E+00 0.  1.
        -13    1    5    5    0    0 -0.65312358678E+03  0.31726605794E+03 -0.67466343735E+03  0.99116039309E+03  0.00000000000E+00 0. -1.
          1    1    6    6  503    0 -0.28612318667E+02 -0.38041462806E+01 -0.10204666916E+03  0.10605026636E+03  0.00000000000E+00 0.  1.
         -1    1    6    6    0  503 -0.28540209791E+02 -0.18363100748E+03 -0.70199618575E+03  0.72617734425E+03  0.00000000000E+00 0. -1.
<mgrwt>
<rscale>  0 0.21698266E+04</rscale>
<asrwt>0</asrwt>
<pdfrwt beam="1">  1        2 0.39824991E+00 0.21698266E+04</pdfrwt>
<pdfrwt beam="2">  1       -2 0.69953211E-01 0.21698266E+04</pdfrwt>
<totfact> 0.52732909E+00</totfact>
</mgrwt>
</event>
<event>
12    3  0.8686020E-008  0.2162361E+04  0.7818608E-02  0.8534259E-01
          1   -1    0    0  501    0  0.00000000000E+00  0.00000000000E+00  0.70013947967E+03  0.70013947967E+03  0.00000000000E+00 0. -1.
         -1   -1    0    0    0  501 -0.00000000000E+00 -0.00000000000E+00 -0.16695984458E+04  0.16695984458E+04  0.00000000000E+00 0.  1.
         23    2    1    2    0    0 -0.85019618524E+03  0.91328583353E+02 -0.12671973762E+03  0.86920505494E+03  0.91022371381E+02 0.  0.
        254    2    1    2    0    0  0.85019618524E+03 -0.91328583353E+02 -0.84273922855E+03  0.15005328706E+04  0.90011945028E+03 0.  0.
         23    2    4    4    0    0  0.99882282457E+03 -0.18690292849E+03 -0.59250511049E+03  0.11798378005E+04  0.91516063776E+02 0.  0.
         23    2    4    4    0    0 -0.14862663933E+03  0.95574345137E+02 -0.25023411807E+03  0.32069507009E+03  0.94888781042E+02 0.  0.
          1    1    3    3  502    0 -0.62336362198E+03  0.92140470773E+02 -0.12472872184E+03  0.64236230090E+03  0.00000000000E+00 0. -1.
         -1    1    3    3    0  502 -0.22683256326E+03 -0.81188742079E+00 -0.19910157783E+01  0.22684275404E+03  0.00000000000E+00 0.  1.
         13    1    5    5    0    0  0.65063816967E+03 -0.15585021391E+03 -0.42083000075E+03  0.79039054052E+03  0.00000000000E+00 0. -1.
        -13    1    5    5    0    0  0.34818465490E+03 -0.31052714585E+02 -0.17167510974E+03  0.38944725996E+03  0.00000000000E+00 0.  1.
          2    1    6    6  503    0 -0.14352458623E+03  0.83723445778E+02 -0.25706920257E+03  0.30609393515E+03  0.00000000000E+00 0.  1.
         -2    1    6    6    0  503 -0.51020530953E+01  0.11850899359E+02  0.68350844999E+01  0.14601134939E+02  0.00000000000E+00 0. -1.
<mgrwt>
<rscale>  0 0.21623615E+04</rscale>
<asrwt>0</asrwt>
<pdfrwt beam="1">  1        1 0.10771377E+00 0.21623615E+04</pdfrwt>
<pdfrwt beam="2">  1       -1 0.25686130E+00 0.21623615E+04</pdfrwt>
<totfact> 0.15667892E+00</totfact>
</mgrwt>
</event>
<event>
12    3  0.8686020E-008  0.1369613E+04  0.7818608E-02  0.8976112E-01
         -1   -1    0    0    0  501 -0.00000000000E+00  0.00000000000E+00  0.18143405561E+03  0.18143405561E+03  0.00000000000E+00 0.  1.
          1   -1    0    0  501    0  0.00000000000E+00 -0.00000000000E+00 -0.25847423071E+04  0.25847423071E+04  0.00000000000E+00 0. -1.
         23    2    1    2    0    0  0.34303482986E+03 -0.29591905828E+01 -0.10027916886E+04  0.10638995349E+04  0.92786843388E+02 0.  0.
        254    2    1    2    0    0 -0.34303482986E+03  0.29591905828E+01 -0.14005165628E+04  0.17022768278E+04  0.90477516780E+03 0.  0.
         23    2    4    4    0    0  0.24757846620E+03 -0.13319512993E+03 -0.75894112666E+03  0.81449543164E+03  0.91515762935E+02 0.  0.
         23    2    4    4    0    0 -0.59061329606E+03  0.13615432052E+03 -0.64157543618E+03  0.88778139612E+03  0.95784667439E+02 0.  0.
          3    1    3    3  502    0  0.14033773792E+03 -0.36735906032E+02 -0.50330715017E+03  0.52379604321E+03  0.00000000000E+00 0. -1.
         -3    1    3    3    0  502  0.20269709194E+03  0.33776715449E+02 -0.49948453847E+03  0.54010349171E+03  0.00000000000E+00 0.  1.
         13    1    5    5    0    0  0.22316115192E+03 -0.13239025079E+03 -0.73810767136E+03  0.78238801930E+03  0.00000000000E+00 0.  1.
        -13    1    5    5    0    0  0.24417314288E+02 -0.80487914408E+00 -0.20833455303E+02  0.32107412343E+02  0.00000000000E+00 0. -1.
          1    1    6    6  503    0 -0.89918797501E+02  0.46387667320E+02 -0.14579422209E+03  0.17746312580E+03  0.00000000000E+00 0. -1.
         -1    1    6    6    0  503 -0.50069449856E+03  0.89766653197E+02 -0.49578121409E+03  0.71031827032E+03  0.00000000000E+00 0.  1.
<mgrwt>
<rscale>  0 0.13696135E+04</rscale>
<asrwt>0</asrwt>
<pdfrwt beam="1">  1        1 0.39765263E+00 0.13696135E+04</pdfrwt>
<pdfrwt beam="2">  1       -1 0.27912934E-01 0.13696135E+04</pdfrwt>
<totfact> 0.13439596E+01</totfact>
</mgrwt>
</event>
<event>
12    3  0.8686020E-008  0.1997956E+04  0.7818608E-02  0.8607577E-01
         -4   -1    0    0    0  501 -0.00000000000E+00  0.00000000000E+00  0.76488642342E+03  0.76488642342E+03  0.00000000000E+00 0.  1.
          4   -1    0    0  501    0  0.00000000000E+00 -0.00000000000E+00 -0.13047128926E+04  0.13047128926E+04  0.00000000000E+00 0. -1.
         23    2    1    2    0    0 -0.52646693454E+03  0.29161796596E+03  0.31917609580E+03  0.68743152715E+03  0.92088290012E+02 0.  0.
        254    2    1    2    0    0  0.52646693454E+03 -0.29161796596E+03 -0.85900256498E+03  0.13821677889E+04  0.90016327336E+03 0.  0.
         23    2    4    4    0    0  0.41574540660E+03  0.50155088367E+02  0.18937471834E+02  0.42897816001E+03  0.91125506490E+02 0.  0.
         23    2    4    4    0    0  0.11072152794E+03 -0.34177305433E+03 -0.87794003681E+03  0.95318962886E+03  0.93400657938E+02 0.  0.
          3    1    3    3  502    0 -0.44458937594E+03  0.27393002175E+03  0.25083336867E+03  0.57932266385E+03  0.00000000000E+00 0. -1.
         -3    1    3    3    0  502 -0.81877558606E+02  0.17687944215E+02  0.68342727128E+02  0.10810886331E+03  0.00000000000E+00 0.  1.
         13    1    5    5    0    0  0.68439481828E+02  0.17272675656E+02  0.36915985275E+02  0.79656123217E+02  0.00000000000E+00 0.  1.
        -13    1    5    5    0    0  0.34730592477E+03  0.32882412711E+02 -0.17978513441E+02  0.34932203680E+03  0.00000000000E+00 0. -1.
          4    1    6    6  503    0  0.64648746747E+02 -0.23439928387E+03 -0.47451958044E+03  0.53318975698E+03  0.00000000000E+00 0. -1.
         -4    1    6    6    0  503  0.46072781198E+02 -0.10737377046E+03 -0.40342045638E+03  0.41999987187E+03  0.00000000000E+00 0.  1.
<mgrwt>
<rscale>  0 0.19979561E+04</rscale>
<asrwt>0</asrwt>
<pdfrwt beam="1">  1        4 0.20072506E+00 0.19979561E+04</pdfrwt>
<pdfrwt beam="2">  1       -4 0.11767484E+00 0.19979561E+04</pdfrwt>
<totfact> 0.13443549E-01</totfact>
</mgrwt>
</event>
<event>
12    3  0.8686020E-008  0.1487243E+04  0.7818608E-02  0.8892981E-01
          1   -1    0    0  501    0  0.00000000000E+00  0.00000000000E+00  0.15310664697E+04  0.15310664697E+04  0.00000000000E+00 0. -1.
         -1   -1    0    0    0  501 -0.00000000000E+00 -0.00000000000E+00 -0.36116834134E+03  0.36116834134E+03  0.00000000000E+00 0.  1.
         23    2    1    2    0    0 -0.27198691643E+03 -0.35073009842E+03  0.19927731219E+03  0.49483710651E+03  0.90353916198E+02 0.  0.
        254    2    1    2    0    0  0.27198691643E+03  0.35073009842E+03  0.97062081619E+03  0.13973977046E+04  0.90201279992E+03 0.  0.
         23    2    4    4    0    0  0.46677777054E+03  0.40498806191E+02  0.16133926473E+03  0.50415100540E+03  0.92823690550E+02 0.  0.
         23    2    4    4    0    0 -0.19479085411E+03  0.31023129223E+03  0.80928155146E+03  0.89324669915E+03  0.93627477230E+02 0.  0.
          2    1    3    3  502    0 -0.15178138211E+03 -0.13216757515E+03  0.64658948996E+02  0.21139213694E+03  0.00000000000E+00 0. -1.
         -2    1    3    3    0  502 -0.12020553432E+03 -0.21856252328E+03  0.13461836319E+03  0.28344496956E+03  0.00000000000E+00 0.  1.
         13    1    5    5    0    0  0.41147112547E+03  0.58870176046E+02  0.16133350212E+03  0.44587294561E+03  0.00000000000E+00 0. -1.
        -13    1    5    5    0    0  0.55306645071E+02 -0.18371369855E+02  0.57626123381E-02  0.58278059787E+02  0.00000000000E+00 0.  1.
          1    1    6    6  503    0 -0.17609769873E+03  0.21983782973E+03  0.54823281944E+03  0.61635890128E+03  0.00000000000E+00 0. -1.
         -1    1    6    6    0  503 -0.18693155377E+02  0.90393462499E+02  0.26104873202E+03  0.27688779787E+03  0.00000000000E+00 0.  1.
<mgrwt>
<rscale>  0 0.14872427E+04</rscale>
<asrwt>0</asrwt>
<pdfrwt beam="1">  1        1 0.23554868E+00 0.14872427E+04</pdfrwt>
<pdfrwt beam="2">  1       -1 0.55564361E-01 0.14872427E+04</pdfrwt>
<totfact> 0.19743996E+01</totfact>
</mgrwt>
</event>
<event>
12    3  0.8686020E-008  0.2902085E+04  0.7818608E-02  0.8272257E-01
         -2   -1    0    0    0  501 -0.00000000000E+00  0.00000000000E+00  0.11250561993E+04  0.11250561993E+04  0.00000000000E+00 0.  1.
          2   -1    0    0  501    0  0.00000000000E+00 -0.00000000000E+00 -0.18714833438E+04  0.18714833438E+04  0.00000000000E+00 0. -1.
         23    2    1    2    0    0  0.11855178634E+04 -0.37661006874E+03 -0.74060778592E+03  0.14503278019E+04  0.87539088118E+02 0.  0.
        254    2    1    2    0    0 -0.11855178634E+04  0.37661006874E+03 -0.58193586566E+01  0.15462117412E+04  0.91839486902E+03 0.  0.
         23    2    4    4    0    0 -0.11378257063E+04  0.60871221513E+03 -0.38565926982E+01  0.12936414519E+04  0.91189001642E+02 0.  0.
         23    2    4    4    0    0 -0.47692157059E+02 -0.23210214639E+03 -0.19627659584E+01  0.25257028928E+03  0.87418249642E+02 0.  0.
          1    1    3    3  502    0  0.10076934650E+04 -0.35148920327E+03 -0.64180850532E+03  0.12453549442E+04  0.00000000000E+00 0. -1.
         -1    1    3    3    0  502  0.17782439839E+03 -0.25120865470E+02 -0.98799280603E+02  0.20497285770E+03  0.00000000000E+00 0.  1.
         13    1    5    5    0    0 -0.33876454284E+03  0.13479715287E+03 -0.32668350630E+01  0.36461261651E+03  0.00000000000E+00 0. -1.
        -13    1    5    5    0    0 -0.79906116350E+03  0.47391506226E+03 -0.58975763518E+00  0.92902883543E+03  0.00000000000E+00 0.  1.
          3    1    6    6  503    0 -0.73626998986E+02 -0.17224972275E+03 -0.22900079621E+01  0.18733965439E+03  0.00000000000E+00 0.  1.
         -3    1    6    6    0  503  0.25934841927E+02 -0.59852423639E+02  0.32724200372E+00  0.65230634893E+02  0.00000000000E+00 0. -1.
<mgrwt>
<rscale>  0 0.29020847E+04</rscale>
<asrwt>0</asrwt>
<pdfrwt beam="1">  1        2 0.28792051E+00 0.29020847E+04</pdfrwt>
<pdfrwt beam="2">  1       -2 0.17308557E+00 0.29020847E+04</pdfrwt>
<totfact> 0.13774986E+00</totfact>
</mgrwt>
</event>
<event>
12    3  0.8686020E-008  0.1839583E+04  0.7818608E-02  0.8685529E-01
          1   -1    0    0  501    0  0.00000000000E+00  0.00000000000E+00  0.14199502649E+04  0.14199502649E+04  0.00000000000E+00 0. -1.
         -1   -1    0    0    0  501 -0.00000000000E+00 -0.00000000000E+00 -0.59580675162E+03  0.59580675162E+03  0.00000000000E+00 0.  1.
         23    2    1    2    0    0  0.49657027388E+03  0.50252931160E+02  0.85111163217E+03  0.99076447600E+03  0.90087970948E+02 0.  0.
        254    2    1    2    0    0 -0.49657027388E+03 -0.50252931160E+02 -0.26968118931E+02  0.10249925405E+04  0.89486034362E+03 0.  0.
         23    2    4    4    0    0 -0.49446258245E+03  0.24812694669E+03 -0.27734198477E+03  0.62558326679E+03  0.91518413788E+02 0.  0.
         23    2    4    4    0    0 -0.21076914361E+01 -0.29837987785E+03  0.25037386584E+03  0.39940927367E+03  0.88349880199E+02 0.  0.
          1    1    3    3  502    0  0.19015769710E+03 -0.16393224283E+02  0.37296804162E+03  0.41896759736E+03  0.00000000000E+00 0. -1.
         -1    1    3    3    0  502  0.30641257678E+03  0.66646155442E+02  0.47814359055E+03  0.57179687864E+03  0.00000000000E+00 0.  1.
         13    1    5    5    0    0 -0.15635621086E+03  0.12125296952E+03 -0.12208602497E+03  0.23249633284E+03  0.00000000000E+00 0.  1.
        -13    1    5    5    0    0 -0.33810637158E+03  0.12687397717E+03 -0.15525595980E+03  0.39308693395E+03  0.00000000000E+00 0. -1.
          1    1    6    6  503    0  0.33131356774E+02 -0.23678777827E+03  0.17822120343E+03  0.29820955063E+03  0.00000000000E+00 0. -1.
         -1    1    6    6    0  503 -0.35239048210E+02 -0.61592099583E+02  0.72152662418E+02  0.10119972304E+03  0.00000000000E+00 0.  1.
<mgrwt>
<rscale>  0 0.18395825E+04</rscale>
<asrwt>0</asrwt>
<pdfrwt beam="1">  1        1 0.21845389E+00 0.18395825E+04</pdfrwt>
<pdfrwt beam="2">  1       -1 0.91662577E-01 0.18395825E+04</pdfrwt>
<totfact> 0.81144193E+00</totfact>
</mgrwt>
</event>
<event>
12    3  0.8686020E-008  0.2413306E+04  0.7818608E-02  0.8434539E-01
          2   -1    0    0  501    0  0.00000000000E+00  0.00000000000E+00  0.22602752750E+04  0.22602752750E+04  0.00000000000E+00 0. -1.
         -2   -1    0    0    0  501 -0.00000000000E+00 -0.00000000000E+00 -0.64417438569E+03  0.64417438569E+03  0.00000000000E+00 0.  1.
         23    2    1    2    0    0  0.81359047852E+03 -0.62818363360E+03  0.54043980726E+03  0.11646558481E+04  0.88339769990E+02 0.  0.
        254    2    1    2    0    0 -0.81359047852E+03  0.62818363360E+03  0.10756610820E+04  0.17397938126E+04  0.90182681410E+03 0.  0.
         23    2    4    4    0    0 -0.25523373943E+03 -0.19563418910E+03  0.45154378722E+03  0.56186657324E+03  0.91571047063E+02 0.  0.
         23    2    4    4    0    0 -0.55835673909E+03  0.82381782270E+03  0.62411729478E+03  0.11779272393E+04  0.86902994196E+02 0.  0.
          4    1    3    3  502    0  0.68161670438E+03 -0.48288434650E+03  0.43295568319E+03  0.94086622184E+03  0.00000000000E+00 0. -1.
         -4    1    3    3    0  502  0.13197377413E+03 -0.14529928710E+03  0.10748412407E+03  0.22378962625E+03  0.00000000000E+00 0.  1.
         13    1    5    5    0    0 -0.91960493894E+02 -0.12794983908E+03  0.21783004129E+03  0.26884534708E+03  0.00000000000E+00 0.  1.
        -13    1    5    5    0    0 -0.16327324553E+03 -0.67684350026E+02  0.23371374592E+03  0.29302122616E+03  0.00000000000E+00 0. -1.
          4    1    6    6  503    0 -0.43778549630E+03  0.69962191155E+03  0.50027523241E+03  0.96509184436E+03  0.00000000000E+00 0. -1.
         -4    1    6    6    0  503 -0.12057124279E+03  0.12419591115E+03  0.12384206237E+03  0.21283539496E+03  0.00000000000E+00 0.  1.
<mgrwt>
<rscale>  0 0.24133060E+04</rscale>
<asrwt>0</asrwt>
<pdfrwt beam="1">  1        2 0.34773465E+00 0.24133060E+04</pdfrwt>
<pdfrwt beam="2">  1       -2 0.99103753E-01 0.24133060E+04</pdfrwt>
<totfact> 0.36185352E+00</totfact>
</mgrwt>
</event>
<event>
12    3  0.8686020E-008  0.1431194E+04  0.7818608E-02  0.8931543E-01
         -1   -1    0    0    0  501 -0.00000000000E+00  0.00000000000E+00  0.51132412511E+03  0.51132412511E+03  0.00000000000E+00 0.  1.
          1   -1    0    0  501    0  0.00000000000E+00 -0.00000000000E+00 -0.10014770534E+04  0.10014770534E+04  0.00000000000E+00 0. -1.
         23    2    1    2    0    0 -0.73794388370E+02  0.11660301378E+03  0.27632880016E+03  0.32239367874E+03  0.92402401028E+02 0.  0.
        254    2    1    2    0    0  0.73794388370E+02 -0.11660301378E+03 -0.76648172842E+03  0.11904074997E+04  0.90029656272E+03 0.  0.
         23    2    4    4    0    0  0.18374705055E+03 -0.19324211551E+03  0.10727250421E+03  0.30163011451E+03  0.91475909540E+02 0.  0.
         23    2    4    4    0    0 -0.10995266218E+03  0.76639101730E+02 -0.87375423262E+03  0.88877738523E+03  0.92280234233E+02 0.  0.
          3    1    3    3  502    0 -0.93501115592E+00 -0.14343787285E+02  0.40570940281E+02  0.43042068664E+02  0.00000000000E+00 0. -1.
         -3    1    3    3    0  502 -0.72859377214E+02  0.13094680106E+03  0.23575785988E+03  0.27935161008E+03  0.00000000000E+00 0.  1.
         13    1    5    5    0    0  0.29678829769E+02 -0.65024624502E+02 -0.54179472957E+01  0.71682556323E+02  0.00000000000E+00 0. -1.
        -13    1    5    5    0    0  0.15406822078E+03 -0.12821749101E+03  0.11269045150E+03  0.22994755818E+03  0.00000000000E+00 0.  1.
          1    1    6    6  503    0  0.48370483136E+01 -0.16771506476E+01 -0.12412305413E+01  0.52678766063E+01  0.00000000000E+00 0. -1.
         -1    1    6    6    0  503 -0.11478971050E+03  0.78316252378E+02 -0.87251300208E+03  0.88350950862E+03  0.00000000000E+00 0.  1.
<mgrwt>
<rscale>  0 0.14311944E+04</rscale>
<asrwt>0</asrwt>
<pdfrwt beam="1">  1        1 0.15407339E+00 0.14311944E+04</pdfrwt>
<pdfrwt beam="2">  1       -1 0.78665251E-01 0.14311944E+04</pdfrwt>
<totfact> 0.23736963E+01</totfact>
</mgrwt>
</event>
<event>
12    3  0.8686020E-008  0.1828731E+04  0.7818608E-02  0.8691168E-01
         -3   -1    0    0    0  501 -0.00000000000E+00  0.00000000000E+00  0.88333160295E+03  0.88333160295E+03  0.00000000000E+00 0.  1.
          3   -1    0    0  501    0  0.00000000000E+00 -0.00000000000E+00 -0.94648961145E+03  0.94648961145E+03  0.00000000000E+00 0. -1.
         23    2    1    2    0    0 -0.29162773328E+03  0.60144645293E+03 -0.19444155773E+03  0.70152494230E+03  0.86862850190E+02 0.  0.
        254    2    1    2    0    0  0.29162773328E+03 -0.60144645293E+03  0.13128354923E+03  0.11282962721E+04  0.89946235984E+03 0.  0.
         23    2    4    4    0    0  0.41866574445E+03  0.49293607378E+02  0.15458591379E+03  0.45777269906E+03  0.89152531939E+02 0.  0.
         23    2    4    4    0    0 -0.12703801118E+03 -0.65074006031E+03 -0.23302364558E+02  0.67052357304E+03  0.97250087062E+02 0.  0.
          1    1    3    3  502    0 -0.20693516247E+03  0.50140050131E+03 -0.16757203679E+03  0.56771913099E+03  0.00000000000E+00 0. -1.
         -1    1    3    3    0  502 -0.84692570802E+02  0.10004595162E+03 -0.26869520939E+02  0.13380581131E+03  0.00000000000E+00 0.  1.
         13    1    5    5    0    0  0.72319650297E+02  0.43112469675E+02  0.23679824244E+02  0.87461711261E+02  0.00000000000E+00 0.  1.
        -13    1    5    5    0    0  0.34634609416E+03  0.61811377030E+01  0.13090608954E+03  0.37031098779E+03  0.00000000000E+00 0. -1.
          1    1    6    6  503    0 -0.12804988035E+03 -0.47537271608E+03 -0.42281795071E+02  0.49412927584E+03  0.00000000000E+00 0. -1.
         -1    1    6    6    0  503  0.10118691691E+01 -0.17536734423E+03  0.18979430513E+02  0.17639429720E+03  0.00000000000E+00 0.  1.
<mgrwt>
<rscale>  0 0.18287309E+04</rscale>
<asrwt>0</asrwt>
<pdfrwt beam="1">  1        3 0.14561379E+00 0.18287309E+04</pdfrwt>
<pdfrwt beam="2">  1       -3 0.13589717E+00 0.18287309E+04</pdfrwt>
<totfact> 0.35737883E-01</totfact>
</mgrwt>
</event>
<event>
12    3  0.8686020E-008  0.2135188E+04  0.7818608E-02  0.8545899E-01
          2   -1    0    0  501    0  0.00000000000E+00  0.00000000000E+00  0.88539459296E+03  0.88539459296E+03  0.00000000000E+00 0. -1.
         -2   -1    0    0    0  501 -0.00000000000E+00 -0.00000000000E+00 -0.12872864763E+04  0.12872864763E+04  0.00000000000E+00 0.  1.
         23    2    1    2    0    0 -0.41465399215E+03  0.76018948005E+03 -0.28615978735E+03  0.91654635081E+03  0.91344460726E+02 0.  0.
        254    2    1    2    0    0  0.41465399215E+03 -0.76018948005E+03 -0.11573209600E+03  0.12561347185E+04  0.90258214811E+03 0.  0.
         23    2    4    4    0    0  0.25700884793E+03 -0.79333579382E+03  0.22331307904E+03  0.86809178081E+03  0.90991092745E+02 0.  0.
         23    2    4    4    0    0  0.15764514422E+03  0.33146313770E+02 -0.33904517504E+03  0.38804293765E+03  0.98361685279E+02 0.  0.
          2    1    3    3  502    0 -0.39349861326E+03  0.68939362923E+03 -0.23940699000E+03  0.82910822064E+03  0.00000000000E+00 0. -1.
         -2    1    3    3    0  502 -0.21155378888E+02  0.70795850823E+02 -0.46752797342E+02  0.87438130178E+02  0.00000000000E+00 0.  1.
         13    1    5    5    0    0  0.21301311655E+03 -0.53541682814E+03  0.13385398952E+03  0.59157641788E+03  0.00000000000E+00 0.  1.
        -13    1    5    5    0    0  0.43995731382E+02 -0.25791896568E+03  0.89459089519E+02  0.27651536293E+03  0.00000000000E+00 0. -1.
          3    1    6    6  503    0  0.10526136484E+03  0.86556003309E+01 -0.11281096944E+03  0.15453539779E+03  0.00000000000E+00 0. -1.
         -3    1    6    6    0  503  0.52383779380E+02  0.24490713439E+02 -0.22623420560E+03  0.23350753986E+03  0.00000000000E+00 0.  1.
<mgrwt>
<rscale>  0 0.21351876E+04</rscale>
<asrwt>0</asrwt>
<pdfrwt beam="1">  1        2 0.13621455E+00 0.21351876E+04</pdfrwt>
<pdfrwt beam="2">  1       -2 0.19804407E+00 0.21351876E+04</pdfrwt>
<totfact> 0.37754624E+00</totfact>
</mgrwt>
</event>
<event>
12    3  0.8686020E-008  0.2741892E+04  0.7818608E-02  0.8321539E-01
          1   -1    0    0  501    0  0.00000000000E+00  0.00000000000E+00  0.12824443365E+04  0.12824443365E+04  0.00000000000E+00 0. -1.
         -1   -1    0    0    0  501 -0.00000000000E+00 -0.00000000000E+00 -0.14655547163E+04  0.14655547163E+04  0.00000000000E+00 0.  1.
         23    2    1    2    0    0  0.69784390371E+03 -0.64740107814E+03 -0.84667145910E+03  0.12774001648E+04  0.93724870715E+02 0.  0.
        254    2    1    2    0    0 -0.69784390371E+03  0.64740107814E+03  0.66356107921E+03  0.14705988880E+04  0.90345642600E+03 0.  0.
         23    2    4    4    0    0  0.10647294153E+03 -0.91922332192E+02 -0.35752787815E+02  0.17062570619E+03  0.89714365315E+02 0.  0.
         23    2    4    4    0    0 -0.80431684524E+03  0.73932341033E+03  0.69931386703E+03  0.12999731818E+04  0.85823634559E+02 0.  0.
          1    1    3    3  502    0  0.49331312174E+03 -0.44115789185E+03 -0.53159143514E+03  0.84886251863E+03  0.00000000000E+00 0. -1.
         -1    1    3    3    0  502  0.20453078197E+03 -0.20624318628E+03 -0.31508002396E+03  0.42853764614E+03  0.00000000000E+00 0.  1.
         13    1    5    5    0    0  0.84435264008E+02 -0.10779614506E+03 -0.17826735410E+02  0.13808372530E+03  0.00000000000E+00 0. -1.
        -13    1    5    5    0    0  0.22037677521E+02  0.15873812868E+02 -0.17926052405E+02  0.32541980891E+02  0.00000000000E+00 0.  1.
          1    1    6    6  503    0 -0.61321326027E+03  0.56734174517E+03  0.57673680312E+03  0.10151514658E+04  0.00000000000E+00 0. -1.
         -1    1    6    6    0  503 -0.19110358498E+03  0.17198166516E+03  0.12257706390E+03  0.28482171606E+03  0.00000000000E+00 0.  1.
<mgrwt>
<rscale>  0 0.27418916E+04</rscale>
<asrwt>0</asrwt>
<pdfrwt beam="1">  1        1 0.19729913E+00 0.27418916E+04</pdfrwt>
<pdfrwt beam="2">  1       -1 0.22546996E+00 0.27418916E+04</pdfrwt>
<totfact> 0.81961231E-01</totfact>
</mgrwt>
</event>
<event>
12    3  0.8686020E-008  0.1816320E+04  0.7818608E-02  0.8697669E-01
         -2   -1    0    0    0  501 -0.00000000000E+00  0.00000000000E+00  0.23230015129E+03  0.23230015129E+03  0.00000000000E+00 0.  1.
          2   -1    0    0  501    0  0.00000000000E+00 -0.00000000000E+00 -0.35503835179E+04  0.35503835179E+04  0.00000000000E+00 0. -1.
         23    2    1    2    0    0  0.48979120743E+02 -0.38303559711E+03 -0.80863273036E+02  0.40011697536E+03  0.66629588933E+02 0.  0.
        254    2    1    2    0    0 -0.48979120743E+02  0.38303559711E+03 -0.32372200936E+04  0.33825666938E+04  0.90169189920E+03 0.  0.
         23    2    4    4    0    0 -0.36011667185E+03  0.43376023852E+03 -0.26438100001E+04  0.27047493958E+04  0.90033411893E+02 0.  0.
         23    2    4    4    0    0  0.31113755111E+03 -0.50724641414E+02 -0.59341009342E+03  0.67781729805E+03  0.89001042652E+02 0.  0.
          4    1    3    3  502    0  0.51915911162E+02 -0.37642243085E+03 -0.68968155913E+02  0.38619388241E+03  0.00000000000E+00 0.  1.
         -4    1    3    3    0  502 -0.29367904196E+01 -0.66131662598E+01 -0.11895117122E+02  0.13923092950E+02  0.00000000000E+00 0. -1.
         13    1    5    5    0    0 -0.12031804192E+02  0.44558775410E+02 -0.29604620414E+03  0.29962243535E+03  0.00000000000E+00 0.  1.
        -13    1    5    5    0    0 -0.34808486766E+03  0.38920146311E+03 -0.23477637960E+04  0.24051269604E+04  0.00000000000E+00 0. -1.
          2    1    6    6  503    0  0.36358314568E+01  0.85194189847E+01 -0.48109290070E+02  0.48992892967E+02  0.00000000000E+00 0.  1.
         -2    1    6    6    0  503  0.30750171966E+03 -0.59244060399E+02 -0.54530080335E+03  0.62882440508E+03  0.00000000000E+00 0. -1.
<mgrwt>
<rscale>  0 0.18163200E+04</rscale>
<asrwt>0</asrwt>
<pdfrwt beam="1">  1        2 0.54621282E+00 0.18163200E+04</pdfrwt>
<pdfrwt beam="2">  1       -2 0.35738487E-01 0.18163200E+04</pdfrwt>
<totfact> 0.52427905E+00</totfact>
</mgrwt>
</event>
<event>
12    3  0.8686020E-008  0.3107709E+04  0.7818608E-02  0.8213625E-01
          2   -1    0    0  501    0  0.00000000000E+00  0.00000000000E+00  0.16567953058E+04  0.16567953058E+04  0.00000000000E+00 0. -1.
         -2   -1    0    0    0  501 -0.00000000000E+00 -0.00000000000E+00 -0.14573099630E+04  0.14573099630E+04  0.00000000000E+00 0.  1.
         23    2    1    2    0    0  0.74734927208E+03 -0.43012426828E+03  0.12232487062E+04  0.14994995884E+04  0.92864405365E+02 0.  0.
        254    2    1    2    0    0 -0.74734927208E+03  0.43012426828E+03 -0.10237633633E+04  0.16146056805E+04  0.90295196918E+03 0.  0.
         23    2    4    4    0    0  0.54719950903E+02  0.18286898348E+03  0.79163167006E+02  0.22570608931E+03  0.90780469224E+02 0.  0.
         23    2    4    4    0    0 -0.80206922299E+03  0.24725528479E+03 -0.11029265303E+04  0.13888995911E+04  0.90249258587E+02 0.  0.
          4    1    3    3  502    0  0.43544144575E+03 -0.27552981507E+03  0.79835287453E+03  0.95020694796E+03  0.00000000000E+00 0. -1.
         -4    1    3    3    0  502  0.31190782633E+03 -0.15459445321E+03  0.42489583164E+03  0.54929264043E+03  0.00000000000E+00 0.  1.
         13    1    5    5    0    0 -0.12204862439E+02  0.37083840079E+02 -0.12447849741E+02  0.40977052424E+02  0.00000000000E+00 0. -1.
        -13    1    5    5    0    0  0.66924813342E+02  0.14578514341E+03  0.91611016747E+02  0.18472903688E+03  0.00000000000E+00 0.  1.
          3    1    6    6  503    0 -0.48487511731E+03  0.13435183948E+03 -0.72843990413E+03  0.88531293342E+03  0.00000000000E+00 0. -1.
         -3    1    6    6    0  503 -0.31719410568E+03  0.11290344531E+03 -0.37448662620E+03  0.50358665773E+03  0.00000000000E+00 0.  1.
<mgrwt>
<rscale>  0 0.31077093E+04</rscale>
<asrwt>0</asrwt>
<pdfrwt beam="1">  1        2 0.25489158E+00 0.31077093E+04</pdfrwt>
<pdfrwt beam="2">  1       -2 0.22420153E+00 0.31077093E+04</pdfrwt>
<totfact> 0.81779554E-01</totfact>
</mgrwt>
</event>
<event>
12    3  0.8686020E-008  0.1377955E+04  0.7818608E-02  0.8969933E-01
          2   -1    0    0  501    0  0.00000000000E+00  0.00000000000E+00  0.60930931266E+03  0.60930931266E+03  0.00000000000E+00 0. -1.
         -2   -1    0    0    0  501 -0.00000000000E+00 -0.00000000000E+00 -0.77906200667E+03  0.77906200667E+03  0.00000000000E+00 0.  1.
         23    2    1    2    0    0 -0.37131084756E+03  0.12444001826E+02 -0.16177082737E+03  0.41382196752E+03  0.83977506019E+02 0.  0.
        254    2    1    2    0    0  0.37131084756E+03 -0.12444001826E+02 -0.79818666389E+01  0.97454935181E+03  0.90091960252E+03 0.  0.
         23    2    4    4    0    0 -0.23719665600E+03  0.14544137692E+03 -0.14278101130E+03  0.32540110174E+03  0.89911134384E+02 0.  0.
         23    2    4    4    0    0  0.60850750356E+03 -0.15788537875E+03  0.13479914467E+03  0.64914825006E+03  0.89517967131E+02 0.  0.
          2    1    3    3  502    0 -0.23030312022E+03 -0.31284977518E+02 -0.85451941061E+02  0.24762938281E+03  0.00000000000E+00 0. -1.
         -2    1    3    3    0  502 -0.14100772734E+03  0.43728979344E+02 -0.76318886313E+02  0.16619258471E+03  0.00000000000E+00 0.  1.
         13    1    5    5    0    0 -0.72734509122E-01  0.22248967799E+02  0.37992555845E+00  0.22252330256E+02  0.00000000000E+00 0. -1.
        -13    1    5    5    0    0 -0.23712392149E+03  0.12319240913E+03 -0.14316093686E+03  0.30314877149E+03  0.00000000000E+00 0.  1.
          2    1    6    6  503    0  0.37907567585E+03 -0.79950211005E+02  0.12332114733E+03  0.40656919416E+03  0.00000000000E+00 0. -1.
         -2    1    6    6    0  503  0.22943182771E+03 -0.77935167747E+02  0.11477997336E+02  0.24257905590E+03  0.00000000000E+00 0.  1.
<mgrwt>
<rscale>  0 0.13779546E+04</rscale>
<asrwt>0</asrwt>
<pdfrwt beam="1">  1        2 0.93739894E-01 0.13779546E+04</pdfrwt>
<pdfrwt beam="2">  1       -2 0.11985569E+00 0.13779546E+04</pdfrwt>
<totfact> 0.25268069E+01</totfact>
</mgrwt>
</event>
<event>
12    3  0.8686020E-008  0.1776662E+04  0.7818608E-02  0.8718809E-01
         -2   -1    0    0    0  501 -0.00000000000E+00  0.00000000000E+00  0.59597993685E+03  0.59597993685E+03  0.00000000000E+00 0.  1.
          2   -1    0    0  501    0  0.00000000000E+00 -0.00000000000E+00 -0.13240922265E+04  0.13240922265E+04  0.00000000000E+00 0. -1.
         23    2    1    2    0    0 -0.64573177064E+03  0.74087344856E+01 -0.14303473362E+03  0.66745334044E+03  0.89502054034E+02 0.  0.
        254    2    1    2    0    0  0.64573177064E+03 -0.74087344856E+01 -0.58507755604E+03  0.12526188229E+04  0.89984096373E+03 0.  0.
         23    2    4    4    0    0  0.17699140857E+03  0.64516690869E+02 -0.72113177810E+03  0.75064633057E+03  0.89165632991E+02 0.  0.
         23    2    4    4    0    0  0.46874036207E+03 -0.71925425354E+02  0.13605422206E+03  0.50197249236E+03  0.92600420625E+02 0.  0.
          4    1    3    3  502    0 -0.57568177322E+03  0.30520999486E+02 -0.11122155076E+03  0.58712117045E+03  0.00000000000E+00 0. -1.
         -4    1    3    3    0  502 -0.70049997415E+02 -0.23112265001E+02 -0.31813182865E+02  0.80332169990E+02  0.00000000000E+00 0.  1.
         13    1    5    5    0    0  0.63576169574E+02 -0.16798118481E+02 -0.29520351134E+03  0.30243878592E+03  0.00000000000E+00 0.  1.
        -13    1    5    5    0    0  0.11341523900E+03  0.81314809350E+02 -0.42592826676E+03  0.44820754465E+03  0.00000000000E+00 0. -1.
          2    1    6    6  503    0  0.46112467424E+03 -0.57999025720E+02  0.12135838439E+03  0.48034124291E+03  0.00000000000E+00 0.  1.
         -2    1    6    6    0  503  0.76156878269E+01 -0.13926399635E+02  0.14695837671E+02  0.21631249449E+02  0.00000000000E+00 0. -1.
<mgrwt>
<rscale>  0 0.17766625E+04</rscale>
<asrwt>0</asrwt>
<pdfrwt beam="1">  1        2 0.20370649E+00 0.17766625E+04</pdfrwt>
<pdfrwt beam="2">  1       -2 0.91689223E-01 0.17766625E+04</pdfrwt>
<totfact> 0.15326539E+01</totfact>
</mgrwt>
</event>
<event>
12    3  0.8686020E-008  0.2856481E+04  0.7818608E-02  0.8285945E-01
          1   -1    0    0  501    0  0.00000000000E+00  0.00000000000E+00  0.24434493223E+04  0.24434493223E+04  0.00000000000E+00 0. -1.
         -1   -1    0    0    0  501 -0.00000000000E+00 -0.00000000000E+00 -0.83483274831E+03  0.83483274831E+03  0.00000000000E+00 0.  1.
         23    2    1    2    0    0 -0.73897332237E+03  0.78437203805E+03  0.15223087498E+04  0.18678942541E+04  0.10140981112E+03 0.  0.
        254    2    1    2    0    0  0.73897332237E+03 -0.78437203805E+03  0.86307824244E+02  0.14103878165E+04  0.90577242569E+03 0.  0.
         23    2    4    4    0    0  0.71301966856E+02 -0.42768185446E+03  0.38915146412E+03  0.59008985745E+03  0.93655959396E+02 0.  0.
         23    2    4    4    0    0  0.66767135551E+03 -0.35669018359E+03 -0.30284363987E+03  0.82029795904E+03  0.90341271600E+02 0.  0.
          1    1    3    3  502    0 -0.14249945704E+03  0.11451288890E+03  0.30941064544E+03  0.35938036186E+03  0.00000000000E+00 0. -1.
         -1    1    3    3    0  502 -0.59647386533E+03  0.66985914915E+03  0.12128981043E+04  0.15085138923E+04  0.00000000000E+00 0.  1.
         13    1    5    5    0    0  0.10923995711E+02 -0.16464743971E+03  0.20597848609E+03  0.26392281034E+03  0.00000000000E+00 0.  1.
        -13    1    5    5    0    0  0.60377971145E+02 -0.26303441475E+03  0.18317297802E+03  0.32616704711E+03  0.00000000000E+00 0. -1.
          2    1    6    6  503    0  0.50100392751E+03 -0.29903782989E+03 -0.26023398391E+03  0.63886640659E+03  0.00000000000E+00 0. -1.
         -2    1    6    6    0  503  0.16666742800E+03 -0.57652353704E+02 -0.42609655959E+02  0.18143155245E+03  0.00000000000E+00 0.  1.
<mgrwt>
<rscale>  0 0.28564814E+04</rscale>
<asrwt>0</asrwt>
<pdfrwt beam="1">  1        1 0.37591528E+00 0.28564814E+04</pdfrwt>
<pdfrwt beam="2">  1       -1 0.12843581E+00 0.28564814E+04</pdfrwt>
<totfact> 0.66765763E-01</totfact>
</mgrwt>
</event>
<event>
12    3  0.8686020E-008  0.2089017E+04  0.7818608E-02  0.8566097E-01
          1   -1    0    0  501    0  0.00000000000E+00  0.00000000000E+00  0.38747723908E+04  0.38747723908E+04  0.00000000000E+00 0. -1.
         -1   -1    0    0    0  501 -0.00000000000E+00 -0.00000000000E+00 -0.28156431354E+03  0.28156431354E+03  0.00000000000E+00 0.  1.
         23    2    1    2    0    0 -0.68294369829E+03  0.36826312515E+03  0.21544599901E+04  0.22918639500E+04  0.94407054579E+02 0.  0.
        254    2    1    2    0    0  0.68294369829E+03 -0.36826312515E+03  0.14387480871E+04  0.18644727543E+04  0.89679025920E+03 0.  0.
         23    2    4    4    0    0  0.17356907169E+03 -0.33366209043E+03  0.12571760349E+04  0.13155046814E+04  0.92759747760E+02 0.  0.
         23    2    4    4    0    0  0.50937462660E+03 -0.34601034725E+02  0.18157205221E+03  0.54896807291E+03  0.87964726465E+02 0.  0.
          3    1    3    3  502    0 -0.28877845664E+03  0.13592666957E+03  0.76144420026E+03  0.82563086584E+03  0.00000000000E+00 0. -1.
         -3    1    3    3    0  502 -0.39416524165E+03  0.23233645559E+03  0.13930157898E+04  0.14662330842E+04  0.00000000000E+00 0.  1.
         13    1    5    5    0    0  0.34181332613E+02 -0.14453092551E+03  0.39885262628E+03  0.42560658996E+03  0.00000000000E+00 0.  1.
        -13    1    5    5    0    0  0.13938773908E+03 -0.18913116492E+03  0.85832340864E+03  0.88989809145E+03  0.00000000000E+00 0. -1.
          1    1    6    6  503    0  0.49999830745E+03 -0.47159746690E+02  0.17850813380E+03  0.53299859568E+03  0.00000000000E+00 0. -1.
         -1    1    6    6    0  503  0.93763191458E+01  0.12558711964E+02  0.30639184080E+01  0.15969477228E+02  0.00000000000E+00 0.  1.
<mgrwt>
<rscale>  0 0.20890166E+04</rscale>
<asrwt>0</asrwt>
<pdfrwt beam="1">  1        1 0.59611879E+00 0.20890166E+04</pdfrwt>
<pdfrwt beam="2">  1       -1 0.43317590E-01 0.20890166E+04</pdfrwt>
<totfact> 0.59994252E-01</totfact>
</mgrwt>
</event>
<event>
12    3  0.8686020E-008  0.2100683E+04  0.7818608E-02  0.8560943E-01
          2   -1    0    0  501    0  0.00000000000E+00  0.00000000000E+00  0.94757384254E+03  0.94757384254E+03  0.00000000000E+00 0. -1.
         -2   -1    0    0    0  501 -0.00000000000E+00 -0.00000000000E+00 -0.11642547108E+04  0.11642547108E+04  0.00000000000E+00 0.  1.
         23    2    1    2    0    0  0.65056381869E+03  0.44068908020E+03  0.24576593175E+03  0.82923382009E+03  0.98932742719E+02 0.  0.
        254    2    1    2    0    0 -0.65056381869E+03 -0.44068908020E+03 -0.46244679999E+03  0.12825947332E+04  0.90208206905E+03 0.  0.
         23    2    4    4    0    0 -0.10984340825E+03  0.24804768058E+03  0.26436139047E+01  0.28684695730E+03  0.93171680465E+02 0.  0.
         23    2    4    4    0    0 -0.54072041044E+03 -0.68873676078E+03 -0.46509041389E+03  0.99574777594E+03  0.92019847198E+02 0.  0.
          3    1    3    3  502    0  0.28594144066E+03  0.14214170241E+03  0.12354532037E+03  0.34238898527E+03  0.00000000000E+00 0. -1.
         -3    1    3    3    0  502  0.36462237803E+03  0.29854737779E+03  0.12222061137E+03  0.48684483482E+03  0.00000000000E+00 0.  1.
         13    1    5    5    0    0 -0.33408161360E+02  0.71894020510E+02  0.43643741331E+02  0.90496583295E+02  0.00000000000E+00 0.  1.
        -13    1    5    5    0    0 -0.76435246892E+02  0.17615366007E+03 -0.41000127427E+02  0.19635037400E+03  0.00000000000E+00 0. -1.
          4    1    6    6  503    0 -0.34234130113E+03 -0.36575930625E+03 -0.24907897734E+03  0.55947991342E+03  0.00000000000E+00 0. -1.
         -4    1    6    6    0  503 -0.19837910930E+03 -0.32297745453E+03 -0.21601143656E+03  0.43626786252E+03  0.00000000000E+00 0.  1.
<mgrwt>
<rscale>  0 0.21006830E+04</rscale>
<asrwt>0</asrwt>
<pdfrwt beam="1">  1        2 0.14578059E+00 0.21006830E+04</pdfrwt>
<pdfrwt beam="2">  1       -2 0.17911611E+00 0.21006830E+04</pdfrwt>
<totfact> 0.46166532E+00</totfact>
</mgrwt>
</event>
<event>
12    3  0.8686020E-008  0.2203611E+04  0.7818608E-02  0.8516927E-01
         -2   -1    0    0    0  501 -0.00000000000E+00  0.00000000000E+00  0.61360740038E+03  0.61360740038E+03  0.00000000000E+00 0.  1.
          2   -1    0    0  501    0  0.00000000000E+00 -0.00000000000E+00 -0.19784230625E+04  0.19784230625E+04  0.00000000000E+00 0. -1.
         23    2    1    2    0    0 -0.40256685798E+03  0.76985527788E+03 -0.23120856503E+03  0.90358684588E+03  0.90964627678E+02 0.  0.
        254    2    1    2    0    0  0.40256685798E+03 -0.76985527788E+03 -0.11336070970E+04  0.16884436170E+04  0.90057735546E+03 0.  0.
         23    2    4    4    0    0  0.43909036818E+03 -0.91405133280E+03 -0.74338232481E+03  0.12605842866E+04  0.90361896515E+02 0.  0.
         23    2    4    4    0    0 -0.36523510200E+02  0.14419605492E+03 -0.39022477224E+03  0.42785933037E+03  0.93068601930E+02 0.  0.
          4    1    3    3  502    0 -0.23291017419E+03  0.52029092483E+03 -0.12430162988E+03  0.58343867792E+03  0.00000000000E+00 0. -1.
         -4    1    3    3    0  502 -0.16965668379E+03  0.24956435305E+03 -0.10690693515E+03  0.32014816796E+03  0.00000000000E+00 0.  1.
         13    1    5    5    0    0  0.15450033939E+03 -0.28703809486E+03 -0.28863637904E+03  0.43539887698E+03  0.00000000000E+00 0.  1.
        -13    1    5    5    0    0  0.28459002879E+03 -0.62701323794E+03 -0.45474594577E+03  0.82518540961E+03  0.00000000000E+00 0. -1.
          3    1    6    6  503    0 -0.23419617157E+02  0.15598142524E+03 -0.34620654716E+03  0.38044402582E+03  0.00000000000E+00 0. -1.
         -3    1    6    6    0  503 -0.13103893043E+02 -0.11785370318E+02 -0.44018225080E+02  0.47415304551E+02  0.00000000000E+00 0.  1.
<mgrwt>
<rscale>  0 0.22036107E+04</rscale>
<asrwt>0</asrwt>
<pdfrwt beam="1">  1        2 0.30437278E+00 0.22036107E+04</pdfrwt>
<pdfrwt beam="2">  1       -2 0.94401140E-01 0.22036107E+04</pdfrwt>
<totfact> 0.59361361E+00</totfact>
</mgrwt>
</event>
<event>
12    3  0.8686020E-008  0.1526964E+04  0.7818608E-02  0.8866718E-01
          1   -1    0    0  501    0  0.00000000000E+00  0.00000000000E+00  0.10038715308E+04  0.10038715308E+04  0.00000000000E+00 0. -1.
         -1   -1    0    0    0  501 -0.00000000000E+00 -0.00000000000E+00 -0.58065658360E+03  0.58065658360E+03  0.00000000000E+00 0.  1.
         23    2    1    2    0    0 -0.39251738784E+02 -0.41460378292E+03  0.41513005253E+03  0.59507081796E+03  0.91319888685E+02 0.  0.
        254    2    1    2    0    0  0.39251738784E+02  0.41460378292E+03  0.80848946315E+01  0.98945729640E+03  0.89750954316E+03 0.  0.
         23    2    4    4    0    0 -0.50847468886E+02  0.37085348858E+02 -0.40254130520E+03  0.41770262702E+03  0.92060817014E+02 0.  0.
         23    2    4    4    0    0  0.90099207670E+02  0.37751843406E+03  0.41062619983E+03  0.57175466938E+03  0.87472799741E+02 0.  0.
          4    1    3    3  502    0  0.13644475968E+02 -0.24066109383E+03  0.19850783545E+03  0.31226478274E+03  0.00000000000E+00 0.  1.
         -4    1    3    3    0  502 -0.52896214752E+02 -0.17394268908E+03  0.21662221708E+03  0.28280603521E+03  0.00000000000E+00 0. -1.
         13    1    5    5    0    0 -0.55948830452E+02  0.61096334171E+02 -0.35057764093E+03  0.36023286357E+03  0.00000000000E+00 0. -1.
        -13    1    5    5    0    0  0.51013615658E+01 -0.24010985313E+02 -0.51963664278E+02  0.57469763447E+02  0.00000000000E+00 0.  1.
          1    1    6    6  503    0  0.92560694616E+02  0.28268743266E+03  0.34931357282E+03  0.45880239638E+03  0.00000000000E+00 0. -1.
         -1    1    6    6    0  503 -0.24614869464E+01  0.94831001398E+02  0.61312627014E+02  0.11295227300E+03  0.00000000000E+00 0.  1.
<mgrwt>
<rscale>  0 0.15269638E+04</rscale>
<asrwt>0</asrwt>
<pdfrwt beam="1">  1        1 0.15444177E+00 0.15269638E+04</pdfrwt>
<pdfrwt beam="2">  1       -1 0.89331782E-01 0.15269638E+04</pdfrwt>
<totfact> 0.17814422E+01</totfact>
</mgrwt>
</event>
<event>
12    3  0.8686020E-008  0.1479613E+04  0.7818608E-02  0.8898124E-01
          1   -1    0    0  501    0  0.00000000000E+00  0.00000000000E+00  0.98902640293E+03  0.98902640293E+03  0.00000000000E+00 0. -1.
         -1   -1    0    0    0  501 -0.00000000000E+00 -0.00000000000E+00 -0.55338645717E+03  0.55338645717E+03  0.00000000000E+00 0.  1.
         23    2    1    2    0    0  0.74596295592E+02  0.35089111575E+03  0.43734910642E+03  0.57307027828E+03  0.91902777615E+02 0.  0.
        254    2    1    2    0    0 -0.74596295592E+02 -0.35089111575E+03 -0.17091606618E+01  0.96934258182E+03  0.90051814933E+03 0.  0.
         23    2    4    4    0    0 -0.23866119809E+03 -0.39265113993E+03 -0.34081422944E+03  0.57965666447E+03  0.93345725725E+02 0.  0.
         23    2    4    4    0    0  0.16406490250E+03  0.41760024179E+02  0.33910506878E+03  0.38968591736E+03  0.90563097672E+02 0.  0.
          3    1    3    3  502    0  0.40758319732E+02  0.19733160974E+03  0.31456694542E+03  0.37356842476E+03  0.00000000000E+00 0. -1.
         -3    1    3    3    0  502  0.33837975860E+02  0.15355950601E+03  0.12278216100E+03  0.19950185352E+03  0.00000000000E+00 0.  1.
         13    1    5    5    0    0 -0.11444850004E+03 -0.11573325180E+03 -0.90396143851E+02  0.18618299481E+03  0.00000000000E+00 0. -1.
        -13    1    5    5    0    0 -0.12421269805E+03 -0.27691788813E+03 -0.25041808559E+03  0.39347366966E+03  0.00000000000E+00 0.  1.
          4    1    6    6  503    0  0.14277396430E+03  0.28073513345E+02  0.19462159153E+03  0.24300224469E+03  0.00000000000E+00 0. -1.
         -4    1    6    6    0  503  0.21290938195E+02  0.13686510834E+02  0.14448347725E+03  0.14668367266E+03  0.00000000000E+00 0.  1.
<mgrwt>
<rscale>  0 0.14796132E+04</rscale>
<asrwt>0</asrwt>
<pdfrwt beam="1">  1        1 0.15215791E+00 0.14796132E+04</pdfrwt>
<pdfrwt beam="2">  1       -1 0.85136378E-01 0.14796132E+04</pdfrwt>
<totfact> 0.20408223E+01</totfact>
</mgrwt>
</event>
<event>
12    3  0.8686020E-008  0.1885087E+04  0.7818608E-02  0.8662315E-01
         -2   -1    0    0    0  501 -0.00000000000E+00  0.00000000000E+00  0.65124667497E+03  0.65124667497E+03  0.00000000000E+00 0.  1.
          2   -1    0    0  501    0  0.00000000000E+00 -0.00000000000E+00 -0.13641354851E+04  0.13641354851E+04  0.00000000000E+00 0. -1.
         23    2    1    2    0    0 -0.61238070728E+02  0.57977069946E+03  0.18435231582E+03  0.61834260787E+03  0.92074095680E+02 0.  0.
        254    2    1    2    0    0  0.61238070728E+02 -0.57977069946E+03 -0.89724112593E+03  0.13970395522E+04  0.89821695989E+03 0.  0.
         23    2    4    4    0    0  0.88952532740E+02  0.20890152876E+03 -0.36982770474E+03  0.44340308761E+03  0.91002006087E+02 0.  0.
         23    2    4    4    0    0 -0.27714462011E+02 -0.78867222822E+03 -0.52741342118E+03  0.95363646456E+03  0.92117396486E+02 0.  0.
          1    1    3    3  502    0 -0.11077622100E+02  0.32112416075E+03  0.59445207539E+02  0.32676776620E+03  0.00000000000E+00 0. -1.
         -1    1    3    3    0  502 -0.50160448629E+02  0.25864653872E+03  0.12490710828E+03  0.29157484167E+03  0.00000000000E+00 0.  1.
         13    1    5    5    0    0  0.10204628154E+03  0.20775514030E+03 -0.35029793591E+03  0.41986222240E+03  0.00000000000E+00 0. -1.
        -13    1    5    5    0    0 -0.13093748803E+02  0.11463884561E+01 -0.19529768839E+02  0.23540865215E+02  0.00000000000E+00 0.  1.
          2    1    6    6  503    0  0.27074983540E+02 -0.10969856784E+03 -0.65365109357E+02  0.13053516018E+03  0.00000000000E+00 0. -1.
         -2    1    6    6    0  503 -0.54789445551E+02 -0.67897366038E+03 -0.46204831182E+03  0.82310130439E+03  0.00000000000E+00 0.  1.
<mgrwt>
<rscale>  0 0.18850875E+04</rscale>
<asrwt>0</asrwt>
<pdfrwt beam="1">  1        2 0.20986699E+00 0.18850875E+04</pdfrwt>
<pdfrwt beam="2">  1       -2 0.10019180E+00 0.18850875E+04</pdfrwt>
<totfact> 0.11701203E+01</totfact>
</mgrwt>
</event>
<event>
12    3  0.8686020E-008  0.1582681E+04  0.7818608E-02  0.8831259E-01
         -1   -1    0    0    0  501 -0.00000000000E+00  0.00000000000E+00  0.42040855065E+03  0.42040855065E+03  0.00000000000E+00 0.  1.
          1   -1    0    0  501    0  0.00000000000E+00 -0.00000000000E+00 -0.14895506324E+04  0.14895506324E+04  0.00000000000E+00 0. -1.
         23    2    1    2    0    0  0.48614930194E+03  0.60097749819E+01 -0.61813287717E+03  0.79172687199E+03  0.91465429619E+02 0.  0.
        254    2    1    2    0    0 -0.48614930194E+03 -0.60097749819E+01 -0.45100920460E+03  0.11182323111E+04  0.90036489145E+03 0.  0.
         23    2    4    4    0    0  0.20882661891E+03  0.85957698697E+02  0.55024693418E+02  0.24891493206E+03  0.89071004196E+02 0.  0.
         23    2    4    4    0    0 -0.69497592085E+03 -0.91967473679E+02 -0.50603389802E+03  0.86931737903E+03  0.90514378748E+02 0.  0.
          1    1    3    3  502    0  0.25756222394E+03  0.32965061482E+02 -0.38268231705E+03  0.46246162032E+03  0.00000000000E+00 0. -1.
         -1    1    3    3    0  502  0.22858707800E+03 -0.26955286500E+02 -0.23545056012E+03  0.32926525167E+03  0.00000000000E+00 0.  1.
         13    1    5    5    0    0  0.14263112913E+03  0.52372325675E+02 -0.71168213075E+01  0.15210900249E+03  0.00000000000E+00 0.  1.
        -13    1    5    5    0    0  0.66195489782E+02  0.33585373022E+02  0.62141514726E+02  0.96805929575E+02  0.00000000000E+00 0. -1.
          1    1    6    6  503    0 -0.32321175187E+03 -0.67633091439E+02 -0.28450753551E+03  0.43587223973E+03  0.00000000000E+00 0. -1.
         -1    1    6    6    0  503 -0.37176416898E+03 -0.24334382240E+02 -0.22152636251E+03  0.43344513930E+03  0.00000000000E+00 0.  1.
<mgrwt>
<rscale>  0 0.15826810E+04</rscale>
<asrwt>0</asrwt>
<pdfrwt beam="1">  1        1 0.22916163E+00 0.15826810E+04</pdfrwt>
<pdfrwt beam="2">  1       -1 0.64678240E-01 0.15826810E+04</pdfrwt>
<totfact> 0.15491825E+01</totfact>
</mgrwt>
</event>
<event>
12    3  0.8686020E-008  0.1988056E+04  0.7818608E-02  0.8612225E-01
          2   -1    0    0  501    0  0.00000000000E+00  0.00000000000E+00  0.12169525593E+04  0.12169525593E+04  0.00000000000E+00 0. -1.
         -2   -1    0    0    0  501 -0.00000000000E+00 -0.00000000000E+00 -0.81193925877E+03  0.81193925877E+03  0.00000000000E+00 0.  1.
         23    2    1    2    0    0  0.23010707182E+03 -0.61183901292E+03 -0.28657967203E+03  0.71897436519E+03  0.86602466134E+02 0.  0.
        254    2    1    2    0    0 -0.23010707182E+03  0.61183901292E+03  0.69159297259E+03  0.13099174529E+04  0.90015923674E+03 0.  0.
         23    2    4    4    0    0 -0.23980363913E+03  0.82530832000E+03  0.44951582769E+03  0.97398398023E+03  0.89110639068E+02 0.  0.
         23    2    4    4    0    0  0.96965673062E+01 -0.21346930708E+03  0.24207714490E+03  0.33593347269E+03  0.92664909795E+02 0.  0.
          4    1    3    3  502    0  0.30092458671E+02 -0.24191253119E+02 -0.15288896177E+02  0.41527378229E+02  0.00000000000E+00 0. -1.
         -4    1    3    3    0  502  0.20001461315E+03 -0.58764775981E+03 -0.27129077585E+03  0.67744698696E+03  0.00000000000E+00 0.  1.
         13    1    5    5    0    0 -0.49452061002E+02  0.15063775962E+03  0.45783035506E+02  0.16502523231E+03  0.00000000000E+00 0. -1.
        -13    1    5    5    0    0 -0.19035157813E+03  0.67467056039E+03  0.40373279218E+03  0.80895874792E+03  0.00000000000E+00 0.  1.
          2    1    6    6  503    0 -0.27508508472E+01 -0.21025664077E+03  0.19375575566E+03  0.28593131172E+03  0.00000000000E+00 0.  1.
         -2    1    6    6    0  503  0.12447418153E+02 -0.32126663058E+01  0.48321389245E+02  0.50002160974E+02  0.00000000000E+00 0. -1.
<mgrwt>
<rscale>  0 0.19880559E+04</rscale>
<asrwt>0</asrwt>
<pdfrwt beam="1">  1        2 0.18722347E+00 0.19880559E+04</pdfrwt>
<pdfrwt beam="2">  1       -2 0.12491373E+00 0.19880559E+04</pdfrwt>
<totfact> 0.82666854E+00</totfact>
</mgrwt>
</event>
<event>
12    3  0.8686020E-008  0.2871264E+04  0.7818608E-02  0.8281479E-01
         -2   -1    0    0    0  501 -0.00000000000E+00  0.00000000000E+00  0.93788971825E+03  0.93788971825E+03  0.00000000000E+00 0.  1.
          2   -1    0    0  501    0  0.00000000000E+00 -0.00000000000E+00 -0.21975287953E+04  0.21975287953E+04  0.00000000000E+00 0. -1.
         23    2    1    2    0    0  0.84068416173E+03 -0.38578712317E+03  0.41641420377E+03  0.10185072806E+04  0.91513536986E+02 0.  0.
        254    2    1    2    0    0 -0.84068416173E+03  0.38578712317E+03 -0.16760532808E+04  0.21169112329E+04  0.90364650372E+03 0.  0.
         23    2    4    4    0    0 -0.55186756619E+03 -0.18021582888E+03 -0.11314755754E+04  0.12752214081E+04  0.94430430836E+02 0.  0.
         23    2    4    4    0    0 -0.28881659554E+03  0.56600295205E+03 -0.54457770539E+03  0.84168982482E+03  0.90013978961E+02 0.  0.
          1    1    3    3  502    0  0.19424487469E+03 -0.12847021992E+03  0.12335180561E+03  0.26353621515E+03  0.00000000000E+00 0. -1.
         -1    1    3    3    0  502  0.64643928703E+03 -0.25731690326E+03  0.29306239815E+03  0.75497106549E+03  0.00000000000E+00 0.  1.
         13    1    5    5    0    0 -0.12566683095E+03 -0.63824617622E+02 -0.20478905175E+03  0.24860468606E+03  0.00000000000E+00 0.  1.
        -13    1    5    5    0    0 -0.42620073524E+03 -0.11639121126E+03 -0.92668652369E+03  0.10266167220E+04  0.00000000000E+00 0. -1.
          3    1    6    6  503    0 -0.12559049971E+03  0.31336895270E+03 -0.24463435117E+03  0.41691610655E+03  0.00000000000E+00 0. -1.
         -3    1    6    6    0  503 -0.16322609583E+03  0.25263399935E+03 -0.29994335421E+03  0.42477371826E+03  0.00000000000E+00 0.  1.
<mgrwt>
<rscale>  0 0.28712643E+04</rscale>
<asrwt>0</asrwt>
<pdfrwt beam="1">  1        2 0.33808136E+00 0.28712643E+04</pdfrwt>
<pdfrwt beam="2">  1       -2 0.14429072E+00 0.28712643E+04</pdfrwt>
<totfact> 0.14874731E+00</totfact>
</mgrwt>
</event>
<event>
12    3  0.8686020E-008  0.1067363E+04  0.7818608E-02  0.9237599E-01
          1   -1    0    0  501    0  0.00000000000E+00  0.00000000000E+00  0.70013004203E+03  0.70013004203E+03  0.00000000000E+00 0. -1.
         -1   -1    0    0    0  501 -0.00000000000E+00 -0.00000000000E+00 -0.40680426663E+03  0.40680426663E+03  0.00000000000E+00 0.  1.
         23    2    1    2    0    0  0.54783469989E+02  0.87380701225E+01  0.16519599777E+03  0.19713696571E+03  0.92172030010E+02 0.  0.
        254    2    1    2    0    0 -0.54783469989E+02 -0.87380701225E+01  0.12812977763E+03  0.90979734295E+03  0.89901967880E+03 0.  0.
         23    2    4    4    0    0  0.12709665056E+02  0.17518458263E+03 -0.34065368328E+03  0.39365532367E+03  0.89824319355E+02 0.  0.
         23    2    4    4    0    0 -0.67493135045E+02 -0.18392265275E+03  0.46878346090E+03  0.51614201928E+03  0.90894363815E+02 0.  0.
          4    1    3    3  502    0  0.50654959756E-01 -0.19000970063E+02 -0.19336523482E+01  0.19099173821E+02  0.00000000000E+00 0.  1.
         -4    1    3    3    0  502  0.54732815029E+02  0.27739040185E+02  0.16712965012E+03  0.17803779189E+03  0.00000000000E+00 0. -1.
         13    1    5    5    0    0  0.67451034134E+01 -0.68982366990E+01 -0.47767443220E+02  0.48732029728E+02  0.00000000000E+00 0. -1.
        -13    1    5    5    0    0  0.59645616431E+01  0.18208281933E+03 -0.29288624006E+03  0.34492329394E+03  0.00000000000E+00 0.  1.
          3    1    6    6  503    0 -0.17647650209E+02  0.35264265928E+01  0.75681954780E+02  0.77792245897E+02  0.00000000000E+00 0. -1.
         -3    1    6    6    0  503 -0.49845484836E+02 -0.18744907934E+03  0.39310150612E+03  0.43834977338E+03  0.00000000000E+00 0.  1.
<mgrwt>
<rscale>  0 0.10673629E+04</rscale>
<asrwt>0</asrwt>
<pdfrwt beam="1">  1        1 0.10771231E+00 0.10673629E+04</pdfrwt>
<pdfrwt beam="2">  1       -1 0.62585272E-01 0.10673629E+04</pdfrwt>
<totfact> 0.70441469E+01</totfact>
</mgrwt>
</event>
<event>
12    3  0.8686020E-008  0.1090663E+04  0.7818608E-02  0.9214341E-01
         -1   -1    0    0    0  501 -0.00000000000E+00  0.00000000000E+00  0.32189496203E+03  0.32189496203E+03  0.00000000000E+00 0.  1.
          1   -1    0    0  501    0  0.00000000000E+00 -0.00000000000E+00 -0.92386119555E+03  0.92386119555E+03  0.00000000000E+00 0. -1.
         23    2    1    2    0    0 -0.75271985989E+01 -0.49980530077E+02  0.66180628152E+02  0.12381673556E+03  0.91629669635E+02 0.  0.
        254    2    1    2    0    0  0.75271985989E+01  0.49980530077E+02 -0.66814686167E+03  0.11219394220E+04  0.89987394996E+03 0.  0.
         23    2    4    4    0    0  0.94082271636E+02 -0.39389501351E+03 -0.44854755688E+03  0.61118685845E+03  0.91376745726E+02 0.  0.
         23    2    4    4    0    0 -0.86555073037E+02  0.44387554359E+03 -0.21959930479E+03  0.51075256356E+03  0.90150139556E+02 0.  0.
          3    1    3    3  502    0 -0.30935111624E+02 -0.51837139474E+02  0.77714798668E+01  0.60864325013E+02  0.00000000000E+00 0. -1.
         -3    1    3    3    0  502  0.23407913025E+02  0.18566093966E+01  0.58409148286E+02  0.62952410550E+02  0.00000000000E+00 0.  1.
         13    1    5    5    0    0  0.93896191363E+02 -0.26824227253E+03 -0.35382266430E+03  0.45382914109E+03  0.00000000000E+00 0. -1.
        -13    1    5    5    0    0  0.18608027314E+00 -0.12565274098E+03 -0.94724892576E+02  0.15735771736E+03  0.00000000000E+00 0.  1.
          1    1    6    6  503    0 -0.10549190239E+03  0.36311141881E+03 -0.17706165601E+03  0.41752757271E+03  0.00000000000E+00 0. -1.
         -1    1    6    6    0  503  0.18936829357E+02  0.80764124774E+02 -0.42537648774E+02  0.93224990855E+02  0.00000000000E+00 0.  1.
<mgrwt>
<rscale>  0 0.10906627E+04</rscale>
<asrwt>0</asrwt>
<pdfrwt beam="1">  1        1 0.14213249E+00 0.10906627E+04</pdfrwt>
<pdfrwt beam="2">  1       -1 0.49522302E-01 0.10906627E+04</pdfrwt>
<totfact> 0.70891110E+01</totfact>
</mgrwt>
</event>
<event>
12    3  0.8686020E-008  0.1272100E+04  0.7818608E-02  0.9051988E-01
          1   -1    0    0  501    0  0.00000000000E+00  0.00000000000E+00  0.16575984272E+04  0.16575984272E+04  0.00000000000E+00 0. -1.
         -1   -1    0    0    0  501 -0.00000000000E+00 -0.00000000000E+00 -0.24406359319E+03  0.24406359319E+03  0.00000000000E+00 0.  1.
         23    2    1    2    0    0 -0.17111298633E+03  0.17758400877E+02  0.68270431732E+03  0.70995642337E+03  0.91421678530E+02 0.  0.
        254    2    1    2    0    0  0.17111298633E+03 -0.17758400877E+02  0.73083051673E+03  0.11917055971E+04  0.92544798395E+03 0.  0.
         23    2    4    4    0    0  0.17727325749E+03  0.32784281664E+03  0.74063472193E+03  0.83424895609E+03  0.92329893099E+02 0.  0.
         23    2    4    4    0    0 -0.61602711597E+01 -0.34560121752E+03 -0.98042051984E+01  0.35745664098E+03  0.90559247183E+02 0.  0.
          1    1    3    3  502    0 -0.20583794254E+02 -0.29428876036E+02  0.99075203205E+02  0.10538333464E+03  0.00000000000E+00 0. -1.
         -1    1    3    3    0  502 -0.15052919208E+03  0.47187276913E+02  0.58362911412E+03  0.60457308873E+03  0.00000000000E+00 0.  1.
         13    1    5    5    0    0  0.13926330625E+03  0.31349054100E+03  0.67201710379E+03  0.75450485455E+03  0.00000000000E+00 0.  1.
        -13    1    5    5    0    0  0.38009951243E+02  0.14352275637E+02  0.68617618146E+02  0.79744101534E+02  0.00000000000E+00 0. -1.
          3    1    6    6  503    0  0.13046568671E+02 -0.14563024752E+03  0.37761638792E+02  0.15101100394E+03  0.00000000000E+00 0. -1.
         -3    1    6    6    0  503 -0.19206839830E+02 -0.19997097000E+03 -0.47565843990E+02  0.20644563704E+03  0.00000000000E+00 0.  1.
<mgrwt>
<rscale>  0 0.12720997E+04</rscale>
<asrwt>0</asrwt>
<pdfrwt beam="1">  1        1 0.25501514E+00 0.12720997E+04</pdfrwt>
<pdfrwt beam="2">  1       -1 0.37548246E-01 0.12720997E+04</pdfrwt>
<totfact> 0.34292417E+01</totfact>
</mgrwt>
</event>
<event>
12    3  0.8686020E-008  0.1726154E+04  0.7818608E-02  0.8746587E-01
         -2   -1    0    0    0  501 -0.00000000000E+00  0.00000000000E+00  0.13290045739E+04  0.13290045739E+04  0.00000000000E+00 0.  1.
          2   -1    0    0  501    0  0.00000000000E+00 -0.00000000000E+00 -0.56049604062E+03  0.56049604062E+03  0.00000000000E+00 0. -1.
         23    2    1    2    0    0 -0.60364415645E+03  0.25972820445E+02  0.44709723485E+03  0.75720343814E+03  0.91652901207E+02 0.  0.
        254    2    1    2    0    0  0.60364415645E+03 -0.25972820445E+02  0.32141129847E+03  0.11322971764E+04  0.90207029545E+03 0.  0.
         23    2    4    4    0    0  0.81293699440E+03 -0.84035915775E+01  0.11884339381E+03  0.82647999562E+03  0.89488846734E+02 0.  0.
         23    2    4    4    0    0 -0.20929283795E+03 -0.17569228868E+02  0.20256790466E+03  0.30581718081E+03  0.91532629490E+02 0.  0.
          4    1    3    3  502    0 -0.77960999333E+02 -0.20786566564E+02  0.36613469268E+02  0.88603300719E+02  0.00000000000E+00 0. -1.
         -4    1    3    3    0  502 -0.52568315712E+03  0.46759387009E+02  0.41048376559E+03  0.66860013742E+03  0.00000000000E+00 0.  1.
         13    1    5    5    0    0  0.52730812857E+03 -0.44271379419E+02  0.58879733352E+02  0.53242900043E+03  0.00000000000E+00 0. -1.
        -13    1    5    5    0    0  0.28562886582E+03  0.35867787842E+02  0.59963660456E+02  0.29405099519E+03  0.00000000000E+00 0.  1.
          2    1    6    6  503    0 -0.17459327494E+03  0.22045019770E+02  0.14747656026E+03  0.22960429086E+03  0.00000000000E+00 0. -1.
         -2    1    6    6    0  503 -0.34699563003E+02 -0.39614248638E+02  0.55091344397E+02  0.76212889954E+02  0.00000000000E+00 0.  1.
<mgrwt>
<rscale>  0 0.17261539E+04</rscale>
<asrwt>0</asrwt>
<pdfrwt beam="1">  1        2 0.86230160E-01 0.17261539E+04</pdfrwt>
<pdfrwt beam="2">  1       -2 0.20446224E+00 0.17261539E+04</pdfrwt>
<totfact> 0.63509413E+00</totfact>
</mgrwt>
</event>
<event>
12    3  0.8686020E-008  0.3168173E+04  0.7818608E-02  0.8197274E-01
         -3   -1    0    0    0  501 -0.00000000000E+00  0.00000000000E+00  0.13131058469E+04  0.13131058469E+04  0.00000000000E+00 0.  1.
          3   -1    0    0  501    0  0.00000000000E+00 -0.00000000000E+00 -0.19109883473E+04  0.19109883473E+04  0.00000000000E+00 0. -1.
         23    2    1    2    0    0  0.25476581692E+03 -0.14198803161E+04 -0.46594607422E+03  0.15186993347E+04  0.91521535261E+02 0.  0.
        254    2    1    2    0    0 -0.25476581692E+03  0.14198803161E+04 -0.13193642622E+03  0.17053948595E+04  0.89999926265E+03 0.  0.
         23    2    4    4    0    0 -0.27785569499E+03  0.11788351421E+03 -0.23895758556E+03  0.39566160999E+03  0.91362310417E+02 0.  0.
         23    2    4    4    0    0  0.23089878064E+02  0.13019968019E+04  0.10702115934E+03  0.13097332495E+04  0.90657827817E+02 0.  0.
          2    1    3    3  502    0  0.19505512631E+03 -0.89523297354E+03 -0.26587559501E+03  0.95403270973E+03  0.00000000000E+00 0. -1.
         -2    1    3    3    0  502  0.59710690608E+02 -0.52464734259E+03 -0.20007047921E+03  0.56466662493E+03  0.00000000000E+00 0.  1.
         13    1    5    5    0    0 -0.47551633466E+02 -0.14412878590E+02 -0.34724137501E+02  0.60618929714E+02  0.00000000000E+00 0. -1.
        -13    1    5    5    0    0 -0.23030406152E+03  0.13229639280E+03 -0.20423344806E+03  0.33504268028E+03  0.00000000000E+00 0.  1.
          4    1    6    6  503    0 -0.61139767273E+01  0.11131508353E+04  0.11026104124E+03  0.11186150634E+04  0.00000000000E+00 0. -1.
         -4    1    6    6    0  503  0.29203854791E+02  0.18884596662E+03 -0.32398818967E+01  0.19111818615E+03  0.00000000000E+00 0.  1.
<mgrwt>
<rscale>  0 0.31681730E+04</rscale>
<asrwt>0</asrwt>
<pdfrwt beam="1">  1        3 0.29399821E+00 0.31681730E+04</pdfrwt>
<pdfrwt beam="2">  1       -3 0.20201629E+00 0.31681730E+04</pdfrwt>
<totfact> 0.12983753E-02</totfact>
</mgrwt>
</event>
<event>
12    3  0.8686020E-008  0.2548261E+04  0.7818608E-02  0.8385991E-01
         -2   -1    0    0    0  501 -0.00000000000E+00  0.00000000000E+00  0.19256601088E+04  0.19256601088E+04  0.00000000000E+00 0.  1.
          2   -1    0    0  501    0  0.00000000000E+00 -0.00000000000E+00 -0.84303983905E+03  0.84303983905E+03  0.00000000000E+00 0. -1.
         23    2    1    2    0    0  0.41421523505E+02  0.81767255135E+03  0.12952525763E+04  0.15350275119E+04  0.91247367945E+02 0.  0.
        254    2    1    2    0    0 -0.41421523505E+02 -0.81767255135E+03 -0.21263230655E+03  0.12336724359E+04  0.89801505415E+03 0.  0.
         23    2    4    4    0    0  0.39893860769E+03 -0.34495571570E+03  0.33255470240E+02  0.53655957230E+03  0.92971984089E+02 0.  0.
         23    2    4    4    0    0 -0.44036013120E+03 -0.47271683565E+03 -0.24588777679E+03  0.69711286361E+03  0.90151505648E+02 0.  0.
          4    1    3    3  502    0  0.18059806527E+02  0.43482964601E+03  0.77250752592E+03  0.88666276299E+03  0.00000000000E+00 0. -1.
         -4    1    3    3    0  502  0.23361716978E+02  0.38284290534E+03  0.52274505037E+03  0.64836474895E+03  0.00000000000E+00 0.  1.
         13    1    5    5    0    0  0.30078846012E+02 -0.77916363520E+01 -0.14991036447E+02  0.34498952857E+02  0.00000000000E+00 0. -1.
        -13    1    5    5    0    0  0.36885976168E+03 -0.33716407935E+03  0.48246506687E+02  0.50206061944E+03  0.00000000000E+00 0.  1.
          2    1    6    6  503    0 -0.12973382066E+03 -0.12439159573E+03 -0.27467852071E+02  0.18182028547E+03  0.00000000000E+00 0. -1.
         -2    1    6    6    0  503 -0.31062631053E+03 -0.34832523993E+03 -0.21841992472E+03  0.51529257813E+03  0.00000000000E+00 0.  1.
<mgrwt>
<rscale>  0 0.25482607E+04</rscale>
<asrwt>0</asrwt>
<pdfrwt beam="1">  1        2 0.12969844E+00 0.25482607E+04</pdfrwt>
<pdfrwt beam="2">  1       -2 0.29625540E+00 0.25482607E+04</pdfrwt>
<totfact> 0.95546198E-01</totfact>
</mgrwt>
</event>
<event>
12    3  0.8686020E-008  0.1751366E+04  0.7818608E-02  0.8732599E-01
          3   -1    0    0  501    0  0.00000000000E+00  0.00000000000E+00  0.95685649217E+03  0.95685649217E+03  0.00000000000E+00 0. -1.
         -3   -1    0    0    0  501 -0.00000000000E+00 -0.00000000000E+00 -0.80139581094E+03  0.80139581094E+03  0.00000000000E+00 0.  1.
         23    2    1    2    0    0 -0.51277991902E+03 -0.28091942549E+03 -0.20188375305E+03  0.62519976982E+03  0.90877574075E+02 0.  0.
        254    2    1    2    0    0  0.51277991902E+03  0.28091942549E+03  0.35734443428E+03  0.11330525333E+04  0.90236025485E+03 0.  0.
         23    2    4    4    0    0  0.41535003289E+03  0.87947160056E+02 -0.23655621536E+03  0.49454689777E+03  0.91473702693E+02 0.  0.
         23    2    4    4    0    0  0.97429886138E+02  0.19297226544E+03  0.59390064964E+03  0.63850563553E+03  0.90777679104E+02 0.  0.
          1    1    3    3  502    0 -0.47131123383E+03 -0.22630413884E+03 -0.17195284178E+03  0.55037770866E+03  0.00000000000E+00 0. -1.
         -1    1    3    3    0  502 -0.41468685191E+02 -0.54615286651E+02 -0.29930911268E+02  0.74822061163E+02  0.00000000000E+00 0.  1.
         13    1    5    5    0    0  0.37390250633E+03  0.72910005913E+02 -0.17599193159E+03  0.41963330800E+03  0.00000000000E+00 0. -1.
        -13    1    5    5    0    0  0.41447526555E+02  0.15037154143E+02 -0.60564283770E+02  0.74913589761E+02  0.00000000000E+00 0.  1.
          3    1    6    6  503    0  0.35597021992E+02  0.15962374593E+03  0.43677771384E+03  0.46639217355E+03  0.00000000000E+00 0. -1.
         -3    1    6    6    0  503  0.61832864147E+02  0.33348519504E+02  0.15712293580E+03  0.17211346198E+03  0.00000000000E+00 0.  1.
<mgrwt>
<rscale>  0 0.17513661E+04</rscale>
<asrwt>0</asrwt>
<pdfrwt beam="1">  1        3 0.14720869E+00 0.17513661E+04</pdfrwt>
<pdfrwt beam="2">  1       -3 0.12329166E+00 0.17513661E+04</pdfrwt>
<totfact> 0.44556678E-01</totfact>
</mgrwt>
</event>
<event>
12    3  0.8686020E-008  0.1038674E+04  0.7818608E-02  0.9267116E-01
          2   -1    0    0  501    0  0.00000000000E+00  0.00000000000E+00  0.17771300213E+04  0.17771300213E+04  0.00000000000E+00 0. -1.
         -2   -1    0    0    0  501 -0.00000000000E+00 -0.00000000000E+00 -0.15176781458E+03  0.15176781458E+03  0.00000000000E+00 0.  1.
         23    2    1    2    0    0 -0.57817144973E+02  0.77873647438E+02  0.21574748480E+03  0.25330856563E+03  0.90615258128E+02 0.  0.
        254    2    1    2    0    0  0.57817144973E+02 -0.77873647438E+02  0.14096147219E+04  0.16755892702E+04  0.90065454594E+03 0.  0.
         23    2    4    4    0    0  0.16274191745E+03  0.45371066968E+02  0.14685007626E+04  0.14809507999E+04  0.90428516473E+02 0.  0.
         23    2    4    4    0    0 -0.10492477248E+03 -0.12324471441E+03 -0.58886040705E+02  0.19463847032E+03  0.90653741403E+02 0.  0.
          1    1    3    3  502    0 -0.49862288579E+02  0.95185672401E+01  0.14911744644E+03  0.15752099472E+03  0.00000000000E+00 0. -1.
         -1    1    3    3    0  502 -0.79548563942E+01  0.68355080198E+02  0.66630038364E+02  0.95787570913E+02  0.00000000000E+00 0.  1.
         13    1    5    5    0    0  0.93671193966E+02  0.70556435317E+02  0.96844610845E+03  0.97552056263E+03  0.00000000000E+00 0. -1.
        -13    1    5    5    0    0  0.69070723487E+02 -0.25185368348E+02  0.50005465415E+03  0.50543023728E+03  0.00000000000E+00 0.  1.
          2    1    6    6  503    0 -0.22217843458E+02 -0.93578908346E+02 -0.18535700096E+02  0.97950073166E+02  0.00000000000E+00 0. -1.
         -2    1    6    6    0  503 -0.82706929022E+02 -0.29665806061E+02 -0.40350340609E+02  0.96688397157E+02  0.00000000000E+00 0.  1.
<mgrwt>
<rscale>  0 0.10386744E+04</rscale>
<asrwt>0</asrwt>
<pdfrwt beam="1">  1        2 0.27340460E+00 0.10386744E+04</pdfrwt>
<pdfrwt beam="2">  1       -2 0.23348896E-01 0.10386744E+04</pdfrwt>
<totfact> 0.14379101E+02</totfact>
</mgrwt>
</event>
<event>
12    3  0.8686020E-008  0.2116352E+04  0.7818608E-02  0.8554074E-01
         -2   -1    0    0    0  501 -0.00000000000E+00  0.00000000000E+00  0.58885319150E+03  0.58885319150E+03  0.00000000000E+00 0.  1.
          2   -1    0    0  501    0  0.00000000000E+00 -0.00000000000E+00 -0.19015536903E+04  0.19015536903E+04  0.00000000000E+00 0. -1.
         23    2    1    2    0    0  0.40797813471E+03  0.63081780220E+03 -0.33047751187E+02  0.75718609948E+03  0.88664408989E+02 0.  0.
        254    2    1    2    0    0 -0.40797813471E+03 -0.63081780220E+03 -0.12796527477E+04  0.17332207824E+04  0.89563712957E+03 0.  0.
         23    2    4    4    0    0 -0.49314797251E+03 -0.17559925524E+03 -0.22346967029E+03  0.57635516450E+03  0.90645247343E+02 0.  0.
         23    2    4    4    0    0  0.85169837805E+02 -0.45521854695E+03 -0.10561830774E+04  0.11568656179E+04  0.91310120626E+02 0.  0.
          2    1    3    3  502    0  0.23807049921E+03  0.40404327353E+03 -0.58878236243E+02  0.47264698897E+03  0.00000000000E+00 0. -1.
         -2    1    3    3    0  502  0.16990763550E+03  0.22677452867E+03  0.25830485056E+02  0.28453911051E+03  0.00000000000E+00 0.  1.
         13    1    5    5    0    0 -0.27990899268E+03 -0.51828363797E+02 -0.11598757507E+03  0.30738955911E+03  0.00000000000E+00 0. -1.
        -13    1    5    5    0    0 -0.21323897983E+03 -0.12377089145E+03 -0.10748209522E+03  0.26896560539E+03  0.00000000000E+00 0.  1.
          2    1    6    6  503    0  0.43574737472E+02 -0.30962959945E+03 -0.60619671695E+03  0.68208775553E+03  0.00000000000E+00 0. -1.
         -2    1    6    6    0  503  0.41595100333E+02 -0.14558894750E+03 -0.44998636042E+03  0.47477786234E+03  0.00000000000E+00 0.  1.
<mgrwt>
<rscale>  0 0.21163515E+04</rscale>
<asrwt>0</asrwt>
<pdfrwt beam="1">  1        2 0.29254672E+00 0.21163515E+04</pdfrwt>
<pdfrwt beam="2">  1       -2 0.90592798E-01 0.21163515E+04</pdfrwt>
<totfact> 0.72593223E+00</totfact>
</mgrwt>
</event>
<event>
12    3  0.8686020E-008  0.1496628E+04  0.7818608E-02  0.8886698E-01
          1   -1    0    0  501    0  0.00000000000E+00  0.00000000000E+00  0.58117469842E+03  0.58117469842E+03  0.00000000000E+00 0. -1.
         -1   -1    0    0    0  501 -0.00000000000E+00 -0.00000000000E+00 -0.96352129205E+03  0.96352129205E+03  0.00000000000E+00 0.  1.
         23    2    1    2    0    0  0.44216314823E+03 -0.14328622787E+03 -0.37647744921E+02  0.47523629247E+03  0.91613253615E+02 0.  0.
        254    2    1    2    0    0 -0.44216314823E+03  0.14328622787E+03 -0.34469884871E+03  0.10694596980E+04  0.89938176354E+03 0.  0.
         23    2    4    4    0    0  0.51815573210E+02 -0.28031976492E+03 -0.27907157710E+03  0.40922717683E+03  0.91224519048E+02 0.  0.
         23    2    4    4    0    0 -0.49397872144E+03  0.42360599279E+03 -0.65627271604E+02  0.66023252117E+03  0.90238732642E+02 0.  0.
          1    1    3    3  502    0  0.10334538317E+03  0.59129341412E+01 -0.66609990499E+01  0.10372849137E+03  0.00000000000E+00 0. -1.
         -1    1    3    3    0  502  0.33881776506E+03 -0.14919916201E+03 -0.30986745871E+02  0.37150780111E+03  0.00000000000E+00 0.  1.
         13    1    5    5    0    0  0.59445042971E+02 -0.15832462569E+03 -0.20710469927E+03  0.26738129459E+03  0.00000000000E+00 0. -1.
        -13    1    5    5    0    0 -0.76294697603E+01 -0.12199513923E+03 -0.71966877832E+02  0.14184588224E+03  0.00000000000E+00 0.  1.
          1    1    6    6  503    0 -0.34663490601E+03  0.26343948075E+03 -0.77729806509E+02  0.44226467290E+03  0.00000000000E+00 0. -1.
         -1    1    6    6    0  503 -0.14734381543E+03  0.16016651204E+03  0.12102534905E+02  0.21796784826E+03  0.00000000000E+00 0.  1.
<mgrwt>
<rscale>  0 0.14966285E+04</rscale>
<asrwt>0</asrwt>
<pdfrwt beam="1">  1        1 0.89411492E-01 0.14966285E+04</pdfrwt>
<pdfrwt beam="2">  1       -1 0.14823404E+00 0.14966285E+04</pdfrwt>
<totfact> 0.12499615E+01</totfact>
</mgrwt>
</event>
<event>
12    3  0.8686020E-008  0.1910364E+04  0.7818608E-02  0.8649715E-01
          1   -1    0    0  501    0  0.00000000000E+00  0.00000000000E+00  0.16332530929E+04  0.16332530929E+04  0.00000000000E+00 0. -1.
         -1   -1    0    0    0  501 -0.00000000000E+00 -0.00000000000E+00 -0.55862268375E+03  0.55862268375E+03  0.00000000000E+00 0.  1.
         23    2    1    2    0    0 -0.27152642213E+03  0.51012941488E+03  0.94901840641E+03  0.11152191845E+04  0.95494900333E+02 0.  0.
        254    2    1    2    0    0  0.27152642213E+03 -0.51012941488E+03  0.12561200277E+03  0.10766565921E+04  0.89969573986E+03 0.  0.
         23    2    4    4    0    0 -0.30261818320E+03 -0.33348561392E+03  0.97199166476E+02  0.46869242052E+03  0.86223474736E+02 0.  0.
         23    2    4    4    0    0  0.57414460533E+03 -0.17664380097E+03  0.28412836292E+02  0.60796417163E+03  0.89264127561E+02 0.  0.
          1    1    3    3  502    0 -0.16675102032E+03  0.32927468809E+03  0.51623397375E+03  0.63460636512E+03  0.00000000000E+00 0. -1.
         -1    1    3    3    0  502 -0.10477540181E+03  0.18085472679E+03  0.43278443266E+03  0.48061281941E+03  0.00000000000E+00 0.  1.
         13    1    5    5    0    0 -0.68319292080E+02 -0.66942509932E+02 -0.14287298212E+02  0.96710662269E+02  0.00000000000E+00 0. -1.
        -13    1    5    5    0    0 -0.23429889112E+03 -0.26654310398E+03  0.11148646469E+03  0.37198175825E+03  0.00000000000E+00 0.  1.
          2    1    6    6  503    0  0.31498657122E+03 -0.13241712339E+03  0.44468246993E+02  0.34456967308E+03  0.00000000000E+00 0. -1.
         -2    1    6    6    0  503  0.25915803411E+03 -0.44226677576E+02 -0.16055410700E+02  0.26339449855E+03  0.00000000000E+00 0.  1.
<mgrwt>
<rscale>  0 0.19103636E+04</rscale>
<asrwt>0</asrwt>
<pdfrwt beam="1">  1        1 0.25126970E+00 0.19103636E+04</pdfrwt>
<pdfrwt beam="2">  1       -1 0.85941952E-01 0.19103636E+04</pdfrwt>
<totfact> 0.66147848E+00</totfact>
</mgrwt>
</event>
<event>
12    3  0.8686020E-008  0.1756663E+04  0.7818608E-02  0.8729691E-01
         -1   -1    0    0    0  501 -0.00000000000E+00  0.00000000000E+00  0.39843889670E+03  0.39843889670E+03  0.00000000000E+00 0.  1.
          1   -1    0    0  501    0  0.00000000000E+00 -0.00000000000E+00 -0.19362232081E+04  0.19362232081E+04  0.00000000000E+00 0. -1.
         23    2    1    2    0    0 -0.13762532087E+03  0.45802846036E+03  0.40332961867E+01  0.48636245075E+03  0.88325345045E+02 0.  0.
        254    2    1    2    0    0  0.13762532087E+03 -0.45802846036E+03 -0.15418176076E+04  0.18482996541E+04  0.90015514035E+03 0.  0.
         23    2    4    4    0    0  0.22536055708E+02  0.26401627694E+03 -0.39746646050E+03  0.48741757348E+03  0.96870198822E+02 0.  0.
         23    2    4    4    0    0  0.11508926516E+03 -0.72204473730E+03 -0.11443511471E+04  0.13608820806E+04  0.88692433666E+02 0.  0.
          2    1    3    3  502    0 -0.21289324092E+02  0.20157542572E+03 -0.20278840253E+02  0.20370841646E+03  0.00000000000E+00 0. -1.
         -2    1    3    3    0  502 -0.11633599678E+03  0.25645303464E+03  0.24312136440E+02  0.28265403429E+03  0.00000000000E+00 0.  1.
         13    1    5    5    0    0  0.11167934478E+02 -0.89474366129E+00 -0.21454419886E+01  0.11407289251E+02  0.00000000000E+00 0.  1.
        -13    1    5    5    0    0  0.11368121230E+02  0.26491102060E+03 -0.39532101851E+03  0.47601028423E+03  0.00000000000E+00 0. -1.
          4    1    6    6  503    0  0.87613875223E+02 -0.27484429857E+03 -0.45050488495E+03  0.53494881152E+03  0.00000000000E+00 0. -1.
         -4    1    6    6    0  503  0.27475389938E+02 -0.44720043873E+03 -0.69384626216E+03  0.82593326908E+03  0.00000000000E+00 0.  1.
<mgrwt>
<rscale>  0 0.17566635E+04</rscale>
<asrwt>0</asrwt>
<pdfrwt beam="1">  1        1 0.29788050E+00 0.17566635E+04</pdfrwt>
<pdfrwt beam="2">  1       -1 0.61298290E-01 0.17566635E+04</pdfrwt>
<totfact> 0.84173550E+00</totfact>
</mgrwt>
</event>
<event>
12    3  0.8686020E-008  0.2088717E+04  0.7818608E-02  0.8566230E-01
          2   -1    0    0  501    0  0.00000000000E+00  0.00000000000E+00  0.12011397482E+04  0.12011397482E+04  0.00000000000E+00 0. -1.
         -2   -1    0    0    0  501 -0.00000000000E+00 -0.00000000000E+00 -0.90804133691E+03  0.90804133691E+03  0.00000000000E+00 0.  1.
         23    2    1    2    0    0 -0.16216731025E+03 -0.71198928658E+03 -0.31391065095E+03  0.79899653334E+03  0.81416108921E+02 0.  0.
        254    2    1    2    0    0  0.16216731025E+03  0.71198928658E+03  0.60700906226E+03  0.13101845518E+04  0.90271622196E+03 0.  0.
         23    2    4    4    0    0 -0.25925290274E+02  0.68419227799E+03  0.77614790150E+03  0.10384438526E+04  0.84669216000E+02 0.  0.
         23    2    4    4    0    0  0.18809260052E+03  0.27797008589E+02 -0.16913883925E+03  0.27174069916E+03  0.95307715223E+02 0.  0.
          3    1    3    3  502    0 -0.13052107544E+02 -0.18041375229E+03 -0.53938193890E+02  0.18875594901E+03  0.00000000000E+00 0. -1.
         -3    1    3    3    0  502 -0.14911520270E+03 -0.53157553428E+03 -0.25997245706E+03  0.61024058432E+03  0.00000000000E+00 0.  1.
         13    1    5    5    0    0  0.26818043022E+02  0.21440007424E+03  0.27092794542E+03  0.34653795013E+03  0.00000000000E+00 0.  1.
        -13    1    5    5    0    0 -0.52743333296E+02  0.46979220375E+03  0.50521995608E+03  0.69190590251E+03  0.00000000000E+00 0. -1.
          1    1    6    6  503    0  0.91572305056E+02  0.14975968535E+02 -0.22097218991E+02  0.95383718600E+02  0.00000000000E+00 0. -1.
         -1    1    6    6    0  503  0.96520295465E+02  0.12821040054E+02 -0.14704162026E+03  0.17635698056E+03  0.00000000000E+00 0.  1.
<mgrwt>
<rscale>  0 0.20887169E+04</rscale>
<asrwt>0</asrwt>
<pdfrwt beam="1">  1        2 0.18479073E+00 0.20887169E+04</pdfrwt>
<pdfrwt beam="2">  1       -2 0.13969867E+00 0.20887169E+04</pdfrwt>
<totfact> 0.63009402E+00</totfact>
</mgrwt>
</event>
<event>
12    3  0.8686020E-008  0.2840185E+04  0.7818608E-02  0.8290900E-01
          1   -1    0    0  501    0  0.00000000000E+00  0.00000000000E+00  0.15898375268E+04  0.15898375268E+04  0.00000000000E+00 0. -1.
         -1   -1    0    0    0  501 -0.00000000000E+00 -0.00000000000E+00 -0.12684706024E+04  0.12684706024E+04  0.00000000000E+00 0.  1.
         23    2    1    2    0    0 -0.88458101426E+02  0.11082621263E+04 -0.48561393432E+03  0.12167611131E+04  0.92827456826E+02 0.  0.
        254    2    1    2    0    0  0.88458101426E+02 -0.11082621263E+04  0.80698085869E+03  0.16415470161E+04  0.89854811977E+03 0.  0.
         23    2    4    4    0    0  0.25233433854E+03 -0.13155788035E+03 -0.80133468262E+02  0.30892067429E+03  0.89613146232E+02 0.  0.
         23    2    4    4    0    0 -0.16387623712E+03 -0.97670424595E+03  0.88711432695E+03  0.13326263418E+04  0.90080701057E+02 0.  0.
          4    1    3    3  502    0 -0.11006394021E+02  0.41218424834E+03 -0.13756667377E+03  0.43467411359E+03  0.00000000000E+00 0. -1.
         -4    1    3    3    0  502 -0.77451707405E+02  0.69607787795E+03 -0.34804726055E+03  0.78208699947E+03  0.00000000000E+00 0.  1.
         13    1    5    5    0    0  0.64652115513E+02  0.40596122890E+01 -0.32677905686E+02  0.72554958564E+02  0.00000000000E+00 0.  1.
        -13    1    5    5    0    0  0.18768222303E+03 -0.13561749263E+03 -0.47455562575E+02  0.23636571572E+03  0.00000000000E+00 0. -1.
          2    1    6    6  503    0 -0.12212611108E+02 -0.32598657975E+03  0.29856355136E+03  0.44221781087E+03  0.00000000000E+00 0.  1.
         -2    1    6    6    0  503 -0.15166362601E+03 -0.65071766620E+03  0.58855077559E+03  0.89040853096E+03  0.00000000000E+00 0. -1.
<mgrwt>
<rscale>  0 0.28401846E+04</rscale>
<asrwt>0</asrwt>
<pdfrwt beam="1">  1        1 0.24459039E+00 0.28401846E+04</pdfrwt>
<pdfrwt beam="2">  1       -1 0.19514932E+00 0.28401846E+04</pdfrwt>
<totfact> 0.79567927E-01</totfact>
</mgrwt>
</event>
<event>
12    3  0.8686020E-008  0.3075577E+04  0.7818608E-02  0.8222473E-01
          2   -1    0    0  501    0  0.00000000000E+00  0.00000000000E+00  0.12953933131E+04  0.12953933131E+04  0.00000000000E+00 0. -1.
         -2   -1    0    0    0  501 -0.00000000000E+00 -0.00000000000E+00 -0.18255410138E+04  0.18255410138E+04  0.00000000000E+00 0.  1.
         23    2    1    2    0    0  0.17908156257E+03 -0.13922620170E+04 -0.29096454425E+03  0.14365591799E+04  0.92618471917E+02 0.  0.
        254    2    1    2    0    0 -0.17908156257E+03  0.13922620170E+04 -0.23918315651E+03  0.16843751470E+04  0.89969290498E+03 0.  0.
         23    2    4    4    0    0  0.14504773893E+03  0.12681663961E+04 -0.54551125124E+02  0.12808450656E+04  0.91123004462E+02 0.  0.
         23    2    4    4    0    0 -0.32412930150E+03  0.12409562088E+03 -0.18463203139E+03  0.40353008137E+03  0.91038521219E+02 0.  0.
          2    1    3    3  502    0  0.75505156542E+02 -0.60856880946E+03 -0.80360954200E+02  0.61847789571E+03  0.00000000000E+00 0. -1.
         -2    1    3    3    0  502  0.10357640603E+03 -0.78369320755E+03 -0.21060359005E+03  0.81808128422E+03  0.00000000000E+00 0.  1.
         13    1    5    5    0    0  0.10660453282E+02  0.20516996330E+03 -0.39910944063E+02  0.20928746394E+03  0.00000000000E+00 0.  1.
        -13    1    5    5    0    0  0.13438728565E+03  0.10629964328E+04 -0.14640181061E+02  0.10715576017E+04  0.00000000000E+00 0. -1.
          3    1    6    6  503    0 -0.24418986872E+03  0.94026514510E+02 -0.18076669748E+03  0.31803502375E+03  0.00000000000E+00 0. -1.
         -3    1    6    6    0  503 -0.79939432780E+02  0.30069106370E+02 -0.38653339080E+01  0.85495057619E+02  0.00000000000E+00 0.  1.
<mgrwt>
<rscale>  0 0.30755771E+04</rscale>
<asrwt>0</asrwt>
<pdfrwt beam="1">  1        2 0.19929128E+00 0.30755771E+04</pdfrwt>
<pdfrwt beam="2">  1       -2 0.28085246E+00 0.30755771E+04</pdfrwt>
<totfact> 0.58881898E-01</totfact>
</mgrwt>
</event>
<event>
12    3  0.8686020E-008  0.1245918E+04  0.7818608E-02  0.9073587E-01
          1   -1    0    0  501    0  0.00000000000E+00  0.00000000000E+00  0.69032809761E+03  0.69032809761E+03  0.00000000000E+00 0. -1.
         -1   -1    0    0    0  501 -0.00000000000E+00 -0.00000000000E+00 -0.56216453930E+03  0.56216453930E+03  0.00000000000E+00 0.  1.
         23    2    1    2    0    0 -0.20061282719E+03 -0.19900333498E+03  0.81684855849E+02  0.30800699668E+03  0.91367721675E+02 0.  0.
        254    2    1    2    0    0  0.20061282719E+03  0.19900333498E+03  0.46478702457E+02  0.94448564022E+03  0.90002501134E+03 0.  0.
         23    2    4    4    0    0  0.24144591881E+03 -0.29019185036E+03 -0.13770072231E+03  0.41210636032E+03  0.91447917215E+02 0.  0.
         23    2    4    4    0    0 -0.40833091617E+02  0.48919518534E+03  0.18417942477E+03  0.53237927990E+03  0.92338325915E+02 0.  0.
          1    1    3    3  502    0  0.69603667829E+01 -0.25221966455E+02  0.49743615793E+01  0.26633410798E+02  0.00000000000E+00 0. -1.
         -1    1    3    3    0  502 -0.20757319397E+03 -0.17378136852E+03  0.76710494270E+02  0.28137358589E+03  0.00000000000E+00 0.  1.
         13    1    5    5    0    0  0.16530290813E+03 -0.23481808861E+03 -0.13648207981E+03  0.31794959393E+03  0.00000000000E+00 0. -1.
        -13    1    5    5    0    0  0.76143010680E+02 -0.55373761754E+02 -0.12186425002E+01  0.94156766383E+02  0.00000000000E+00 0.  1.
          4    1    6    6  503    0  0.65170506776E+01  0.37460438114E+03  0.12475090373E+03  0.39488441638E+03  0.00000000000E+00 0. -1.
         -4    1    6    6    0  503 -0.47350142295E+02  0.11459080420E+03  0.59428521040E+02  0.13749486352E+03  0.00000000000E+00 0.  1.
<mgrwt>
<rscale>  0 0.12459181E+04</rscale>
<asrwt>0</asrwt>
<pdfrwt beam="1">  1        1 0.10620432E+00 0.12459181E+04</pdfrwt>
<pdfrwt beam="2">  1       -1 0.86486853E-01 0.12459181E+04</pdfrwt>
<totfact> 0.36206714E+01</totfact>
</mgrwt>
</event>
<event>
12    3  0.8686020E-008  0.1010872E+04  0.7818608E-02  0.9296700E-01
         -2   -1    0    0    0  501 -0.00000000000E+00  0.00000000000E+00  0.49669652342E+03  0.49669652342E+03  0.00000000000E+00 0.  1.
          2   -1    0    0  501    0  0.00000000000E+00 -0.00000000000E+00 -0.51432935861E+03  0.51432935861E+03  0.00000000000E+00 0. -1.
         23    2    1    2    0    0  0.87914147618E+01  0.36874887864E+02 -0.45168177244E+02  0.10908390128E+03  0.91771929009E+02 0.  0.
        254    2    1    2    0    0 -0.87914147618E+01 -0.36874887864E+02  0.27535342056E+02  0.90194198075E+03  0.90072420598E+03 0.  0.
         23    2    4    4    0    0 -0.15641172848E+03  0.37756295571E+03  0.13357676754E+03  0.43964117820E+03  0.91777984356E+02 0.  0.
         23    2    4    4    0    0  0.14762031372E+03 -0.41443784358E+03 -0.10604142549E+03  0.46230080254E+03  0.94481558539E+02 0.  0.
          2    1    3    3  502    0  0.12807907077E+02  0.67333725042E+02 -0.32415031328E+02  0.75819570479E+02  0.00000000000E+00 0. -1.
         -2    1    3    3    0  502 -0.40164923151E+01 -0.30458837178E+02 -0.12753145916E+02  0.33264330799E+02  0.00000000000E+00 0.  1.
         13    1    5    5    0    0 -0.13424657525E+03  0.21578999296E+03  0.98958323073E+02  0.27272736154E+03  0.00000000000E+00 0.  1.
        -13    1    5    5    0    0 -0.22165153232E+02  0.16177296275E+03  0.34618444471E+02  0.16691381666E+03  0.00000000000E+00 0. -1.
          3    1    6    6  503    0 -0.69040882926E+01 -0.40811606733E+02  0.81044749498E+01  0.42177437019E+02  0.00000000000E+00 0. -1.
         -3    1    6    6    0  503  0.15452440201E+03 -0.37362623684E+03 -0.11414590044E+03  0.42012336553E+03  0.00000000000E+00 0.  1.
<mgrwt>
<rscale>  0 0.10108721E+04</rscale>
<asrwt>0</asrwt>
<pdfrwt beam="1">  1        2 0.79127594E-01 0.10108721E+04</pdfrwt>
<pdfrwt beam="2">  1       -2 0.76414849E-01 0.10108721E+04</pdfrwt>
<totfact> 0.91136186E+01</totfact>
</mgrwt>
</event>
<event>
12    3  0.8686020E-008  0.1098852E+04  0.7818608E-02  0.9206311E-01
         -2   -1    0    0    0  501 -0.00000000000E+00  0.00000000000E+00  0.61103378688E+03  0.61103378688E+03  0.00000000000E+00 0.  1.
          2   -1    0    0  501    0  0.00000000000E+00 -0.00000000000E+00 -0.49403017185E+03  0.49403017185E+03  0.00000000000E+00 0. -1.
         23    2    1    2    0    0 -0.33868185144E+02  0.42393378316E+02 -0.13060975123E+03  0.16773074808E+03  0.90168976067E+02 0.  0.
        254    2    1    2    0    0  0.33868185144E+02 -0.42393378316E+02  0.24761336625E+03  0.93733321065E+03  0.90240618135E+03 0.  0.
         23    2    4    4    0    0 -0.53102994681E+02 -0.17850137486E+03  0.54697764827E+03  0.58484629189E+03  0.90432121278E+02 0.  0.
         23    2    4    4    0    0  0.86971179825E+02  0.13610799655E+03 -0.29936428201E+03  0.35248691876E+03  0.92404987455E+02 0.  0.
          1    1    3    3  502    0 -0.52034648509E+02  0.57913847633E+02 -0.11606146570E+03  0.13975651045E+03  0.00000000000E+00 0. -1.
         -1    1    3    3    0  502  0.18166463365E+02 -0.15520469317E+02 -0.14548285529E+02  0.27974237628E+02  0.00000000000E+00 0.  1.
         13    1    5    5    0    0 -0.78738925828E+02 -0.13793628903E+03  0.43097933731E+03  0.45931408368E+03  0.00000000000E+00 0. -1.
        -13    1    5    5    0    0  0.25635931147E+02 -0.40565085831E+02  0.11599831095E+03  0.12553220821E+03  0.00000000000E+00 0.  1.
          4    1    6    6  503    0  0.17247981404E+02  0.60995008642E+01  0.49634089137E+00  0.18301451516E+02  0.00000000000E+00 0. -1.
         -4    1    6    6    0  503  0.69723198421E+02  0.13000849568E+03 -0.29986062290E+03  0.33418546724E+03  0.00000000000E+00 0.  1.
<mgrwt>
<rscale>  0 0.10988524E+04</rscale>
<asrwt>0</asrwt>
<pdfrwt beam="1">  1        2 0.76004641E-01 0.10988524E+04</pdfrwt>
<pdfrwt beam="2">  1       -2 0.94005199E-01 0.10988524E+04</pdfrwt>
<totfact> 0.59252090E+01</totfact>
</mgrwt>
</event>
<event>
12    3  0.8686020E-008  0.2242728E+04  0.7818608E-02  0.8500851E-01
          2   -1    0    0  501    0  0.00000000000E+00  0.00000000000E+00  0.22835241406E+04  0.22835241406E+04  0.00000000000E+00 0.  1.
         -2   -1    0    0    0  501 -0.00000000000E+00 -0.00000000000E+00 -0.55066519118E+03  0.55066519118E+03  0.00000000000E+00 0. -1.
         23    2    1    2    0    0  0.34238773660E+03  0.82777080861E+03  0.10802110176E+04  0.14063546129E+04  0.92431493433E+02 0.  0.
        254    2    1    2    0    0 -0.34238773660E+03 -0.82777080861E+03  0.65264793177E+03  0.14278347188E+04  0.90018264126E+03 0.  0.
         23    2    4    4    0    0  0.63919200359E+02 -0.26633951586E+03  0.66945734625E+03  0.72862493716E+03  0.87742570738E+02 0.  0.
         23    2    4    4    0    0 -0.40630693696E+03 -0.56143129275E+03 -0.16809414485E+02  0.69920978164E+03  0.91221372627E+02 0.  0.
          3    1    3    3  502    0  0.11132052164E+03  0.33841378163E+03  0.48684466133E+03  0.60326931830E+03  0.00000000000E+00 0. -1.
         -3    1    3    3    0  502  0.23106721497E+03  0.48935702699E+03  0.59336635629E+03  0.80308529464E+03  0.00000000000E+00 0.  1.
         13    1    5    5    0    0  0.13850016352E+02 -0.31355154828E+02  0.30109449481E+02  0.45623980923E+02  0.00000000000E+00 0. -1.
        -13    1    5    5    0    0  0.50069184007E+02 -0.23498436103E+03  0.63934789677E+03  0.68300095624E+03  0.00000000000E+00 0.  1.
          2    1    6    6  503    0 -0.26903327685E+03 -0.31948869874E+03  0.22463406221E+02  0.41827806217E+03  0.00000000000E+00 0. -1.
         -2    1    6    6    0  503 -0.13727366011E+03 -0.24194259402E+03 -0.39272820705E+02  0.28093171947E+03  0.00000000000E+00 0.  1.
<mgrwt>
<rscale>  0 0.22427280E+04</rscale>
<asrwt>0</asrwt>
<pdfrwt beam="1">  1        2 0.35131140E+00 0.22427280E+04</pdfrwt>
<pdfrwt beam="2">  1       -2 0.84717723E-01 0.22427280E+04</pdfrwt>
<totfact> 0.51219612E+00</totfact>
</mgrwt>
</event>
<event>
12    3  0.8686020E-008  0.2685923E+04  0.7818608E-02  0.8339587E-01
         -1   -1    0    0    0  501 -0.00000000000E+00  0.00000000000E+00  0.72354972540E+03  0.72354972540E+03  0.00000000000E+00 0.  1.
          1   -1    0    0  501    0  0.00000000000E+00 -0.00000000000E+00 -0.24926345563E+04  0.24926345563E+04  0.00000000000E+00 0. -1.
         23    2    1    2    0    0  0.50899594278E+03  0.84966868851E+03  0.32918186432E+01  0.99488913424E+03  0.93700604948E+02 0.  0.
        254    2    1    2    0    0 -0.50899594278E+03 -0.84966868851E+03 -0.17723766496E+04  0.22212951475E+04  0.90101020768E+03 0.  0.
         23    2    4    4    0    0 -0.72743788182E+03 -0.77736769678E+03 -0.15817378742E+04  0.19088821468E+04  0.92032274448E+02 0.  0.
         23    2    4    4    0    0  0.21844193905E+03 -0.72300991722E+02 -0.19063877536E+03  0.31241300075E+03  0.91183475626E+02 0.  0.
          2    1    3    3  502    0  0.85655953028E+02  0.91651735914E+02 -0.15940640414E+02  0.12645586978E+03  0.00000000000E+00 0.  1.
         -2    1    3    3    0  502  0.42333998975E+03  0.75801695259E+03  0.19232459057E+02  0.86843326446E+03  0.00000000000E+00 0. -1.
         13    1    5    5    0    0 -0.49327488903E+03 -0.55162235693E+03 -0.10272545042E+04  0.12660407408E+04  0.00000000000E+00 0. -1.
        -13    1    5    5    0    0 -0.23416299279E+03 -0.22574533986E+03 -0.55448337000E+03  0.64284140600E+03  0.00000000000E+00 0.  1.
          3    1    6    6  503    0  0.11196366629E+03 -0.27089721071E+01 -0.49609209240E+02  0.12249193745E+03  0.00000000000E+00 0. -1.
         -3    1    6    6    0  503  0.10647827275E+03 -0.69592019615E+02 -0.14102956612E+03  0.18992106330E+03  0.00000000000E+00 0.  1.
<mgrwt>
<rscale>  0 0.26859226E+04</rscale>
<asrwt>0</asrwt>
<pdfrwt beam="1">  1        1 0.38348224E+00 0.26859226E+04</pdfrwt>
<pdfrwt beam="2">  1       -1 0.11131534E+00 0.26859226E+04</pdfrwt>
<totfact> 0.88873445E-01</totfact>
</mgrwt>
</event>
<event>
12    3  0.8686020E-008  0.1749764E+04  0.7818608E-02  0.8733480E-01
          1   -1    0    0  501    0  0.00000000000E+00  0.00000000000E+00  0.75052365110E+03  0.75052365110E+03  0.00000000000E+00 0. -1.
         -1   -1    0    0    0  501 -0.00000000000E+00 -0.00000000000E+00 -0.10198460681E+04  0.10198460681E+04  0.00000000000E+00 0.  1.
         23    2    1    2    0    0 -0.94177382874E+02  0.57976435917E+03 -0.36159866063E+03  0.69621020651E+03  0.94651828722E+02 0.  0.
        254    2    1    2    0    0  0.94177382874E+02 -0.57976435917E+03  0.92276243630E+02  0.10741595127E+04  0.89459916272E+03 0.  0.
         23    2    4    4    0    0 -0.28926340881E+03 -0.15841617803E+03 -0.23138071885E+03  0.41287926146E+03  0.90350663257E+02 0.  0.
         23    2    4    4    0    0  0.38344079169E+03 -0.42134818114E+03  0.32365696248E+03  0.66128025121E+03  0.89311873826E+02 0.  0.
          4    1    3    3  502    0 -0.55399543741E+02  0.52299830096E+03 -0.31295611072E+03  0.61199498322E+03  0.00000000000E+00 0. -1.
         -4    1    3    3    0  502 -0.38777839133E+02  0.56766058207E+02 -0.48642549914E+02  0.84215223294E+02  0.00000000000E+00 0.  1.
         13    1    5    5    0    0 -0.76380425891E+02 -0.13181418887E+02 -0.21268751079E+02  0.80374616861E+02  0.00000000000E+00 0.  1.
        -13    1    5    5    0    0 -0.21288298292E+03 -0.14523475914E+03 -0.21011196777E+03  0.33250464460E+03  0.00000000000E+00 0. -1.
          3    1    6    6  503    0  0.12152467063E+03 -0.16609036211E+03  0.15963419515E+03  0.26045600439E+03  0.00000000000E+00 0. -1.
         -3    1    6    6    0  503  0.26191612106E+03 -0.25525781902E+03  0.16402276733E+03  0.40082424683E+03  0.00000000000E+00 0.  1.
<mgrwt>
<rscale>  0 0.17497641E+04</rscale>
<asrwt>0</asrwt>
<pdfrwt beam="1">  1        1 0.11546518E+00 0.17497641E+04</pdfrwt>
<pdfrwt beam="2">  1       -1 0.15689940E+00 0.17497641E+04</pdfrwt>
<totfact> 0.71546643E+00</totfact>
</mgrwt>
</event>
<event>
12    3  0.8686020E-008  0.2311501E+04  0.7818608E-02  0.8473400E-01
          2   -1    0    0  501    0  0.00000000000E+00  0.00000000000E+00  0.17185469089E+04  0.17185469089E+04  0.00000000000E+00 0. -1.
         -2   -1    0    0    0  501 -0.00000000000E+00 -0.00000000000E+00 -0.77726081277E+03  0.77726081277E+03  0.00000000000E+00 0.  1.
         23    2    1    2    0    0  0.65686736055E+03  0.71078579343E+03  0.27402297523E+03  0.10100738135E+04  0.92029040467E+02 0.  0.
        254    2    1    2    0    0 -0.65686736055E+03 -0.71078579343E+03  0.66726312090E+03  0.14857339082E+04  0.90855599708E+03 0.  0.
         23    2    4    4    0    0  0.45434818054E+02 -0.57303772902E+03  0.43961069553E+03  0.72921714791E+03  0.89797124724E+02 0.  0.
         23    2    4    4    0    0 -0.70230217861E+03 -0.13774806441E+03  0.22765242538E+03  0.75651676025E+03  0.91044507978E+02 0.  0.
          3    1    3    3  502    0  0.20875517421E+03  0.18156188072E+03  0.10817053649E+03  0.29705942883E+03  0.00000000000E+00 0. -1.
         -3    1    3    3    0  502  0.44811218634E+03  0.52922391272E+03  0.16585243874E+03  0.71301438469E+03  0.00000000000E+00 0.  1.
         13    1    5    5    0    0  0.10218038763E+02 -0.69387524118E+02  0.20561773371E+02  0.73087778346E+02  0.00000000000E+00 0.  1.
        -13    1    5    5    0    0  0.35216779291E+02 -0.50365020491E+03  0.41904892215E+03  0.65612936956E+03  0.00000000000E+00 0. -1.
          1    1    6    6  503    0 -0.60907740377E+03 -0.14290763630E+03  0.17642018565E+03  0.65001689070E+03  0.00000000000E+00 0. -1.
         -1    1    6    6    0  503 -0.93224774841E+02  0.51595718903E+01  0.51232239731E+02  0.10649986955E+03  0.00000000000E+00 0.  1.
<mgrwt>
<rscale>  0 0.23115010E+04</rscale>
<asrwt>0</asrwt>
<pdfrwt beam="1">  1        2 0.26439183E+00 0.23115010E+04</pdfrwt>
<pdfrwt beam="2">  1       -2 0.11957859E+00 0.23115010E+04</pdfrwt>
<totfact> 0.46469444E+00</totfact>
</mgrwt>
</event>
<event>
12    3  0.8686020E-008  0.3594158E+04  0.7818608E-02  0.8091831E-01
         -2   -1    0    0    0  501 -0.00000000000E+00  0.00000000000E+00  0.10260460926E+04  0.10260460926E+04  0.00000000000E+00 0.  1.
          2   -1    0    0  501    0  0.00000000000E+00 -0.00000000000E+00 -0.31475127814E+04  0.31475127814E+04  0.00000000000E+00 0. -1.
         23    2    1    2    0    0  0.14343435537E+04 -0.80902914020E+03 -0.14001725597E+04  0.21635258249E+04  0.92147807132E+02 0.  0.
        254    2    1    2    0    0 -0.14343435537E+04  0.80902914020E+03 -0.72129412910E+03  0.20100330491E+04  0.89894274468E+03 0.  0.
         23    2    4    4    0    0 -0.50448158237E+03  0.46153241213E+03  0.12685358418E+03  0.70116363583E+03  0.89581125219E+02 0.  0.
         23    2    4    4    0    0 -0.92986197131E+03  0.34749672807E+03 -0.84814771329E+03  0.13088694133E+04  0.91582398894E+02 0.  0.
          2    1    3    3  502    0  0.11240268771E+04 -0.59847521391E+03 -0.10508936905E+04  0.16510561925E+04  0.00000000000E+00 0. -1.
         -2    1    3    3    0  502  0.31031667657E+03 -0.21055392628E+03 -0.34927886918E+03  0.51246963236E+03  0.00000000000E+00 0.  1.
         13    1    5    5    0    0 -0.21122818713E+03  0.19789159331E+03  0.98737029905E+02  0.30582254792E+03  0.00000000000E+00 0.  1.
        -13    1    5    5    0    0 -0.29325339524E+03  0.26364081882E+03  0.28116554279E+02  0.39534108791E+03  0.00000000000E+00 0. -1.
          3    1    6    6  503    0 -0.51464077374E+03  0.14569597461E+03 -0.47270048143E+03  0.71381243205E+03  0.00000000000E+00 0. -1.
         -3    1    6    6    0  503 -0.41522119757E+03  0.20180075346E+03 -0.37544723186E+03  0.59505698124E+03  0.00000000000E+00 0.  1.
<mgrwt>
<rscale>  0 0.35941581E+04</rscale>
<asrwt>0</asrwt>
<pdfrwt beam="1">  1        2 0.48423272E+00 0.35941581E+04</pdfrwt>
<pdfrwt beam="2">  1       -2 0.15785325E+00 0.35941581E+04</pdfrwt>
<totfact> 0.29859877E-01</totfact>
</mgrwt>
</event>
<event>
12    3  0.8686020E-008  0.2106759E+04  0.7818608E-02  0.8558272E-01
         -1   -1    0    0    0  501 -0.00000000000E+00  0.00000000000E+00  0.17518450960E+04  0.17518450960E+04  0.00000000000E+00 0.  1.
          1   -1    0    0  501    0  0.00000000000E+00 -0.00000000000E+00 -0.63339426310E+03  0.63339426310E+03  0.00000000000E+00 0. -1.
         23    2    1    2    0    0  0.80742781861E+03 -0.20160529189E+03  0.21755234047E+03  0.86528918770E+03  0.93872155148E+02 0.  0.
        254    2    1    2    0    0 -0.80742781861E+03  0.20160529189E+03  0.90089849245E+03  0.15199501714E+04  0.89780067605E+03 0.  0.
         23    2    4    4    0    0 -0.26174810646E+03  0.41935940277E+02  0.90206192808E+03  0.94417090446E+03  0.86442353173E+02 0.  0.
         23    2    4    4    0    0 -0.54567971215E+03  0.15966935161E+03 -0.11634356227E+01  0.57577926696E+03  0.90883224966E+02 0.  0.
          1    1    3    3  502    0  0.46159192214E+03 -0.69362979379E+02  0.10702649260E+03  0.47888724728E+03  0.00000000000E+00 0. -1.
         -1    1    3    3    0  502  0.34583589648E+03 -0.13224231251E+03  0.11052584787E+03  0.38640194041E+03  0.00000000000E+00 0.  1.
         13    1    5    5    0    0 -0.34517617672E+02 -0.23622702834E+02  0.15689226213E+03  0.16237204173E+03  0.00000000000E+00 0.  1.
        -13    1    5    5    0    0 -0.22723048879E+03  0.65558643111E+02  0.74516966595E+03  0.78179886273E+03  0.00000000000E+00 0. -1.
          2    1    6    6  503    0 -0.41592825291E+03  0.15447951228E+03 -0.22136762068E+02  0.44424122672E+03  0.00000000000E+00 0. -1.
         -2    1    6    6    0  503 -0.12975145924E+03  0.51898393287E+01  0.20973326445E+02  0.13153804024E+03  0.00000000000E+00 0.  1.
<mgrwt>
<rscale>  0 0.21067592E+04</rscale>
<asrwt>0</asrwt>
<pdfrwt beam="1">  1        1 0.97445272E-01 0.21067592E+04</pdfrwt>
<pdfrwt beam="2">  1       -1 0.26951463E+00 0.21067592E+04</pdfrwt>
<totfact> 0.15139416E+00</totfact>
</mgrwt>
</event>
<event>
12    3  0.8686020E-008  0.1555020E+04  0.7818608E-02  0.8848668E-01
          1   -1    0    0  501    0  0.00000000000E+00  0.00000000000E+00  0.14115058625E+04  0.14115058625E+04  0.00000000000E+00 0. -1.
         -1   -1    0    0    0  501 -0.00000000000E+00 -0.00000000000E+00 -0.42828139797E+03  0.42828139797E+03  0.00000000000E+00 0.  1.
         23    2    1    2    0    0 -0.20699282159E+03  0.53384318724E+02 -0.22100333979E+03  0.32125622668E+03  0.93097654685E+02 0.  0.
        254    2    1    2    0    0  0.20699282159E+03 -0.53384318724E+02  0.12042278043E+04  0.15185310338E+04  0.90004221134E+03 0.  0.
         23    2    4    4    0    0 -0.19345109460E+03 -0.10321234054E+03 -0.73037546491E+01  0.23888178508E+03  0.94525389015E+02 0.  0.
         23    2    4    4    0    0  0.40044391620E+03  0.49828021817E+02  0.12115315589E+04  0.12796492487E+04  0.82796857228E+02 0.  0.
          4    1    3    3  502    0 -0.18973757615E+03  0.28972509653E+02 -0.14800615422E+03  0.24237486628E+03  0.00000000000E+00 0. -1.
         -4    1    3    3    0  502 -0.17255245444E+02  0.24411809072E+02 -0.72997185572E+02  0.78881360403E+02  0.00000000000E+00 0.  1.
         13    1    5    5    0    0 -0.16948214875E+03 -0.93508364203E+02  0.27513566442E+02  0.19551217164E+03  0.00000000000E+00 0. -1.
        -13    1    5    5    0    0 -0.23968945853E+02 -0.97039763378E+01 -0.34817321092E+02  0.43369613442E+02  0.00000000000E+00 0.  1.
          3    1    6    6  503    0  0.33285351213E+03  0.18005945058E+02  0.91420733227E+03  0.97308310075E+03  0.00000000000E+00 0. -1.
         -3    1    6    6    0  503  0.67590404069E+02  0.31822076759E+02  0.29732422667E+03  0.30656614792E+03  0.00000000000E+00 0.  1.
<mgrwt>
<rscale>  0 0.15550199E+04</rscale>
<asrwt>0</asrwt>
<pdfrwt beam="1">  1        1 0.21715475E+00 0.15550199E+04</pdfrwt>
<pdfrwt beam="2">  1       -1 0.65889446E-01 0.15550199E+04</pdfrwt>
<totfact> 0.16954474E+01</totfact>
</mgrwt>
</event>
<event>
12    3  0.8686020E-008  0.1931858E+04  0.7818608E-02  0.8639159E-01
          2   -1    0    0  501    0  0.00000000000E+00  0.00000000000E+00  0.17895667595E+04  0.17895667595E+04  0.00000000000E+00 0. -1.
         -2   -1    0    0    0  501 -0.00000000000E+00 -0.00000000000E+00 -0.52136602378E+03  0.52136602378E+03  0.00000000000E+00 0.  1.
         23    2    1    2    0    0 -0.18687272445E+03 -0.26865186941E+03 -0.31349448612E+03  0.46254429921E+03  0.92591542939E+02 0.  0.
        254    2    1    2    0    0  0.18687272445E+03  0.26865186941E+03  0.15816952218E+04  0.18483884841E+04  0.89871295260E+03 0.  0.
         23    2    4    4    0    0  0.22705482129E+03 -0.17841089749E+03  0.12436805007E+04  0.12802270884E+04  0.94105630964E+02 0.  0.
         23    2    4    4    0    0 -0.40182096835E+02  0.44706276690E+03  0.33801472108E+03  0.56816139563E+03  0.84105299292E+02 0.  0.
          1    1    3    3  502    0 -0.23679312951E+02 -0.15002847622E+01 -0.77562109654E+01  0.24962362162E+02  0.00000000000E+00 0. -1.
         -1    1    3    3    0  502 -0.16319341150E+03 -0.26715158465E+03 -0.30573827516E+03  0.43758193705E+03  0.00000000000E+00 0.  1.
         13    1    5    5    0    0  0.13235380674E+03 -0.13603783040E+03  0.63465632921E+03  0.66242922465E+03  0.00000000000E+00 0.  1.
        -13    1    5    5    0    0  0.94701014545E+02 -0.42373067092E+02  0.60902417153E+03  0.61779786377E+03  0.00000000000E+00 0. -1.
          2    1    6    6  503    0  0.10741809026E+01  0.30559046037E+02  0.65585807241E+00  0.30584952331E+02  0.00000000000E+00 0. -1.
         -2    1    6    6    0  503 -0.41256277738E+02  0.41650372087E+03  0.33735886300E+03  0.53757644330E+03  0.00000000000E+00 0.  1.
<mgrwt>
<rscale>  0 0.19318585E+04</rscale>
<asrwt>0</asrwt>
<pdfrwt beam="1">  1        2 0.27531796E+00 0.19318585E+04</pdfrwt>
<pdfrwt beam="2">  1       -2 0.80210158E-01 0.19318585E+04</pdfrwt>
<totfact> 0.11224692E+01</totfact>
</mgrwt>
</event>
<event>
12    3  0.8686020E-008  0.1172138E+04  0.7818608E-02  0.9137600E-01
          2   -1    0    0  501    0  0.00000000000E+00  0.00000000000E+00  0.19614340220E+03  0.19614340220E+03  0.00000000000E+00 0. -1.
         -2   -1    0    0    0  501 -0.00000000000E+00 -0.00000000000E+00 -0.17511506444E+04  0.17511506444E+04  0.00000000000E+00 0.  1.
         23    2    1    2    0    0  0.10736030054E+03  0.12031925856E+03 -0.54170547411E+02  0.19165993055E+03  0.88295654813E+02 0.  0.
        254    2    1    2    0    0 -0.10736030054E+03 -0.12031925856E+03 -0.15008366948E+04  0.17556341161E+04  0.89651403050E+03 0.  0.
         23    2    4    4    0    0 -0.43685780325E+02 -0.45541876498E+03 -0.12153003217E+04  0.13017274621E+04  0.90690765057E+02 0.  0.
         23    2    4    4    0    0 -0.63674520216E+02  0.33509950642E+03 -0.28553637314E+03  0.45390665395E+03  0.90300090722E+02 0.  0.
          2    1    3    3  502    0  0.61777605466E+02  0.93493741127E+01 -0.74798593599E+01  0.62927193085E+02  0.00000000000E+00 0. -1.
         -2    1    3    3    0  502  0.45582695075E+02  0.11096988445E+03 -0.46690688051E+02  0.12873273747E+03  0.00000000000E+00 0.  1.
         13    1    5    5    0    0  0.95681287982E+01 -0.32753979687E+03 -0.83623584010E+03  0.89814489248E+03  0.00000000000E+00 0.  1.
        -13    1    5    5    0    0 -0.53253909123E+02 -0.12787896811E+03 -0.37906448160E+03  0.40358256966E+03  0.00000000000E+00 0. -1.
          3    1    6    6  503    0 -0.18551769653E+02  0.26968972323E+03 -0.19426214231E+03  0.33288811169E+03  0.00000000000E+00 0. -1.
         -3    1    6    6    0  503 -0.45122750563E+02  0.65409783193E+02 -0.91274230835E+02  0.12101854226E+03  0.00000000000E+00 0.  1.
<mgrwt>
<rscale>  0 0.11721376E+04</rscale>
<asrwt>0</asrwt>
<pdfrwt beam="1">  1        2 0.30175907E-01 0.11721376E+04</pdfrwt>
<pdfrwt beam="2">  1       -2 0.26940780E+00 0.11721376E+04</pdfrwt>
<totfact> 0.85919936E+00</totfact>
</mgrwt>
</event>
<event>
12    3  0.8686020E-008  0.4330195E+04  0.7818608E-02  0.7941058E-01
         -1   -1    0    0    0  501 -0.00000000000E+00  0.00000000000E+00  0.18811553399E+04  0.18811553399E+04  0.00000000000E+00 0.  1.
          1   -1    0    0  501    0  0.00000000000E+00 -0.00000000000E+00 -0.24918984953E+04  0.24918984953E+04  0.00000000000E+00 0. -1.
         23    2    1    2    0    0 -0.17185371859E+04 -0.45184422336E+03 -0.13665876371E+04  0.22435649358E+04  0.92133543447E+02 0.  0.
        254    2    1    2    0    0  0.17185371859E+04  0.45184422336E+03  0.75584448162E+03  0.21294888994E+04  0.89771311160E+03 0.  0.
         23    2    4    4    0    0  0.16958538557E+04  0.60250709958E+03  0.74955339439E+03  0.19515277074E+04  0.87721130642E+02 0.  0.
         23    2    4    4    0    0  0.22683330174E+02 -0.15066287621E+03  0.62910872348E+01  0.17796119198E+03  0.91742968857E+02 0.  0.
          3    1    3    3  502    0 -0.15099951154E+04 -0.36644343052E+03 -0.11834665132E+04  0.19531920090E+04  0.00000000000E+00 0. -1.
         -3    1    3    3    0  502 -0.20854207050E+03 -0.85400792846E+02 -0.18312112383E+03  0.29037292673E+03  0.00000000000E+00 0.  1.
         13    1    5    5    0    0  0.12684592173E+04  0.48649806413E+03  0.58349748049E+03  0.14785595903E+04  0.00000000000E+00 0.  1.
        -13    1    5    5    0    0  0.42739463844E+03  0.11600903544E+03  0.16605591390E+03  0.47296811712E+03  0.00000000000E+00 0. -1.
          4    1    6    6  503    0 -0.25333508273E+02 -0.89293151283E+01  0.88848572921E+01  0.28292401792E+02  0.00000000000E+00 0. -1.
         -4    1    6    6    0  503  0.48016838447E+02 -0.14173356108E+03 -0.25937700573E+01  0.14966879018E+03  0.00000000000E+00 0.  1.
<mgrwt>
<rscale>  0 0.43301955E+04</rscale>
<asrwt>0</asrwt>
<pdfrwt beam="1">  1        1 0.38336900E+00 0.43301955E+04</pdfrwt>
<pdfrwt beam="2">  1       -1 0.28940851E+00 0.43301955E+04</pdfrwt>
<totfact> 0.40445902E-02</totfact>
</mgrwt>
</event>
<event>
12    3  0.8686020E-008  0.1474230E+04  0.7818608E-02  0.8901773E-01
         -1   -1    0    0    0  501 -0.00000000000E+00  0.00000000000E+00  0.23205312181E+03  0.23205312181E+03  0.00000000000E+00 0.  1.
          1   -1    0    0  501    0  0.00000000000E+00 -0.00000000000E+00 -0.23414388698E+04  0.23414388698E+04  0.00000000000E+00 0. -1.
         23    2    1    2    0    0 -0.34035734362E+03  0.29072227778E+03 -0.81293156478E+03  0.93252646662E+03  0.91571380740E+02 0.  0.
        254    2    1    2    0    0  0.34035734362E+03 -0.29072227778E+03 -0.12964541832E+04  0.16409655250E+04  0.90089502214E+03 0.  0.
         23    2    4    4    0    0  0.33672455449E+03 -0.32694643120E+03 -0.14119338826E+04  0.14906803064E+04  0.91066418700E+02 0.  0.
         23    2    4    4    0    0  0.36327891233E+01  0.36224153424E+02  0.11547969942E+03  0.15028521856E+03  0.89020781238E+02 0.  0.
          1    1    3    3  502    0 -0.15407842709E+03  0.12414530170E+03 -0.45322218407E+03  0.49453267411E+03  0.00000000000E+00 0. -1.
         -1    1    3    3    0  502 -0.18627891653E+03  0.16657697608E+03 -0.35970938071E+03  0.43799379251E+03  0.00000000000E+00 0.  1.
         13    1    5    5    0    0  0.28712553556E+03 -0.31581989908E+03 -0.12411737398E+04  0.13125149653E+04  0.00000000000E+00 0. -1.
        -13    1    5    5    0    0  0.49599018936E+02 -0.11126532120E+02 -0.17076014280E+03  0.17816534109E+03  0.00000000000E+00 0.  1.
          1    1    6    6  503    0  0.20510286180E+02  0.53051931321E+02  0.36011814061E+02  0.67320353594E+02  0.00000000000E+00 0. -1.
         -1    1    6    6    0  503 -0.16877497057E+02 -0.16827777897E+02  0.79467885356E+02  0.82964864966E+02  0.00000000000E+00 0.  1.
<mgrwt>
<rscale>  0 0.14742296E+04</rscale>
<asrwt>0</asrwt>
<pdfrwt beam="1">  1        1 0.36022135E+00 0.14742296E+04</pdfrwt>
<pdfrwt beam="2">  1       -1 0.35700482E-01 0.14742296E+04</pdfrwt>
<totfact> 0.12678815E+01</totfact>
</mgrwt>
</event>
<event>
12    3  0.8686020E-008  0.1504214E+04  0.7818608E-02  0.8881655E-01
         -3   -1    0    0    0  501 -0.00000000000E+00  0.00000000000E+00  0.85389793643E+03  0.85389793643E+03  0.00000000000E+00 0.  1.
          3   -1    0    0  501    0  0.00000000000E+00 -0.00000000000E+00 -0.66245065480E+03  0.66245065480E+03  0.00000000000E+00 0. -1.
         23    2    1    2    0    0  0.46104953302E+03  0.87024347625E+01 -0.59445622065E+02  0.47425136535E+03  0.93478186153E+02 0.  0.
        254    2    1    2    0    0 -0.46104953302E+03 -0.87024347625E+01  0.25089290369E+03  0.10420972259E+04  0.90020940608E+03 0.  0.
         23    2    4    4    0    0 -0.42155590720E+03  0.38087709365E+03  0.12537607643E+02  0.57502150211E+03  0.87839586280E+02 0.  0.
         23    2    4    4    0    0 -0.39493625821E+02 -0.38957952841E+03  0.23835529605E+03  0.46707572378E+03  0.89523902680E+02 0.  0.
          2    1    3    3  502    0  0.45311682222E+03  0.15800494057E+02 -0.70573552105E+02  0.45885197662E+03  0.00000000000E+00 0. -1.
         -2    1    3    3    0  502  0.79327108035E+01 -0.70980592946E+01  0.11127930040E+02  0.15399388735E+02  0.00000000000E+00 0.  1.
         13    1    5    5    0    0 -0.61337134141E+02  0.22089745122E+02 -0.10747168128E+02  0.66073462804E+02  0.00000000000E+00 0.  1.
        -13    1    5    5    0    0 -0.36021877306E+03  0.35878734852E+03  0.23284775771E+02  0.50894803930E+03  0.00000000000E+00 0. -1.
          1    1    6    6  503    0 -0.67470333078E+02 -0.23113063727E+03  0.14371038465E+03  0.28040380167E+03  0.00000000000E+00 0. -1.
         -1    1    6    6    0  503  0.27976707257E+02 -0.15844889113E+03  0.94644911400E+02  0.18667192211E+03  0.00000000000E+00 0.  1.
<mgrwt>
<rscale>  0 0.15042144E+04</rscale>
<asrwt>0</asrwt>
<pdfrwt beam="1">  1        3 0.10191549E+00 0.15042144E+04</pdfrwt>
<pdfrwt beam="2">  1       -3 0.13136891E+00 0.15042144E+04</pdfrwt>
<totfact> 0.95710967E-01</totfact>
</mgrwt>
</event>
<event>
12    3  0.8686020E-008  0.1391097E+04  0.7818608E-02  0.8960288E-01
          1   -1    0    0  501    0  0.00000000000E+00  0.00000000000E+00  0.11366357877E+04  0.11366357877E+04  0.00000000000E+00 0. -1.
         -1   -1    0    0    0  501 -0.00000000000E+00 -0.00000000000E+00 -0.42563117216E+03  0.42563117216E+03  0.00000000000E+00 0.  1.
         23    2    1    2    0    0  0.34661559413E+03  0.88178810006E+02  0.12053421038E+02  0.36973277654E+03  0.92947127215E+02 0.  0.
        254    2    1    2    0    0 -0.34661559413E+03 -0.88178810006E+02  0.69895119454E+03  0.11925341834E+04  0.89760076509E+03 0.  0.
         23    2    4    4    0    0 -0.21655868644E+03 -0.35068449139E+03 -0.75031418915E+01  0.42234240520E+03  0.91866930467E+02 0.  0.
         23    2    4    4    0    0 -0.13005690769E+03  0.26250568139E+03  0.70645433643E+03  0.77019177815E+03  0.91069279553E+02 0.  0.
          2    1    3    3  502    0  0.54017568624E+01  0.76680117354E+01  0.16659978491E+02  0.19118898098E+02  0.00000000000E+00 0. -1.
         -2    1    3    3    0  502  0.34121383727E+03  0.80510798270E+02 -0.46065574531E+01  0.35061387844E+03  0.00000000000E+00 0.  1.
         13    1    5    5    0    0  0.60079354295E+01 -0.36103155495E+02  0.39977679950E+01  0.36817323012E+02  0.00000000000E+00 0. -1.
        -13    1    5    5    0    0 -0.22256662187E+03 -0.31458133590E+03 -0.11500909886E+02  0.38552508218E+03  0.00000000000E+00 0.  1.
          4    1    6    6  503    0 -0.54301937960E+02  0.20389163935E+03  0.48769940860E+03  0.53138612535E+03  0.00000000000E+00 0.  1.
         -4    1    6    6    0  503 -0.75754969730E+02  0.58614042035E+02  0.21875492783E+03  0.23880565280E+03  0.00000000000E+00 0. -1.
<mgrwt>
<rscale>  0 0.13910969E+04</rscale>
<asrwt>0</asrwt>
<pdfrwt beam="1">  1        1 0.17486704E+00 0.13910969E+04</pdfrwt>
<pdfrwt beam="2">  1       -1 0.65481719E-01 0.13910969E+04</pdfrwt>
<totfact> 0.27455673E+01</totfact>
</mgrwt>
</event>
<event>
12    3  0.8686020E-008  0.4675477E+04  0.7818608E-02  0.7880616E-01
         -2   -1    0    0    0  501 -0.00000000000E+00  0.00000000000E+00  0.31272091034E+04  0.31272091034E+04  0.00000000000E+00 0.  1.
          2   -1    0    0  501    0  0.00000000000E+00 -0.00000000000E+00 -0.17475714851E+04  0.17475714851E+04  0.00000000000E+00 0. -1.
         23    2    1    2    0    0 -0.15591604801E+04  0.16094105055E+04  0.91448078807E+03  0.24219589986E+04  0.91797062684E+02 0.  0.
        254    2    1    2    0    0  0.15591604801E+04 -0.16094105055E+04  0.46515683024E+03  0.24528215899E+04  0.88248472909E+03 0.  0.
         23    2    4    4    0    0  0.65866931516E+03 -0.74074866540E+03  0.64434413167E+03  0.11858737880E+04  0.92538796926E+02 0.  0.
         23    2    4    4    0    0  0.90049116498E+03 -0.86866184014E+03 -0.17918730143E+03  0.12669478020E+04  0.87125846672E+02 0.  0.
          3    1    3    3  502    0 -0.45664490866E+02  0.71614847855E+02  0.30595083721E+02  0.90277302281E+02  0.00000000000E+00 0. -1.
         -3    1    3    3    0  502 -0.15134959893E+04  0.15377956577E+04  0.88388570435E+03  0.23316816963E+04  0.00000000000E+00 0.  1.
         13    1    5    5    0    0  0.21538896915E+03 -0.30961246652E+03  0.24774223984E+03  0.45125215219E+03  0.00000000000E+00 0.  1.
        -13    1    5    5    0    0  0.44328034601E+03 -0.43113619889E+03  0.39660189183E+03  0.73462163578E+03  0.00000000000E+00 0. -1.
          2    1    6    6  503    0  0.79718806618E+03 -0.76044160937E+03 -0.12949548514E+03  0.11093012822E+04  0.00000000000E+00 0. -1.
         -2    1    6    6    0  503  0.10330309881E+03 -0.10822023077E+03 -0.49691816293E+02  0.15764651972E+03  0.00000000000E+00 0.  1.
<mgrwt>
<rscale>  0 0.46754771E+04</rscale>
<asrwt>0</asrwt>
<pdfrwt beam="1">  1        2 0.26885715E+00 0.46754771E+04</pdfrwt>
<pdfrwt beam="2">  1       -2 0.48110909E+00 0.46754771E+04</pdfrwt>
<totfact> 0.15028290E-02</totfact>
</mgrwt>
</event>
<event>
12    3  0.8686020E-008  0.2219932E+04  0.7818608E-02  0.8510177E-01
          2   -1    0    0  501    0  0.00000000000E+00  0.00000000000E+00  0.12324775002E+04  0.12324775002E+04  0.00000000000E+00 0. -1.
         -2   -1    0    0    0  501 -0.00000000000E+00 -0.00000000000E+00 -0.99963250546E+03  0.99963250546E+03  0.00000000000E+00 0.  1.
         23    2    1    2    0    0 -0.17435486347E+03 -0.72883698600E+03 -0.45309439344E+03  0.88051639587E+03  0.91714903121E+02 0.  0.
        254    2    1    2    0    0  0.17435486347E+03  0.72883698600E+03  0.68593938820E+03  0.13515936098E+04  0.89145357210E+03 0.  0.
         23    2    4    4    0    0  0.43317707500E+03  0.56798686571E+03  0.15899890467E+03  0.73605753958E+03  0.79048035743E+02 0.  0.
         23    2    4    4    0    0 -0.25882221153E+03  0.16085012029E+03  0.52694048353E+03  0.61553607023E+03  0.91414890429E+02 0.  0.
          2    1    3    3  502    0 -0.76642045567E+01 -0.19406227562E+03 -0.10112999968E+03  0.21896617019E+03  0.00000000000E+00 0. -1.
         -2    1    3    3    0  502 -0.16669065891E+03 -0.53477471038E+03 -0.35196439376E+03  0.66155022568E+03  0.00000000000E+00 0.  1.
         13    1    5    5    0    0  0.28271495113E+03  0.31286148107E+03  0.76109063858E+02  0.42848878577E+03  0.00000000000E+00 0.  1.
        -13    1    5    5    0    0  0.15046212387E+03  0.25512538464E+03  0.82889840808E+02  0.30756875380E+03  0.00000000000E+00 0. -1.
          4    1    6    6  503    0 -0.39023487624E+02  0.61184193651E+02  0.83119703084E+02  0.11034139377E+03  0.00000000000E+00 0.  1.
         -4    1    6    6    0  503 -0.21979872391E+03  0.99665926637E+02  0.44382078045E+03  0.50519467646E+03  0.00000000000E+00 0. -1.
<mgrwt>
<rscale>  0 0.22199320E+04</rscale>
<asrwt>0</asrwt>
<pdfrwt beam="1">  1        2 0.18961192E+00 0.22199320E+04</pdfrwt>
<pdfrwt beam="2">  1       -2 0.15378962E+00 0.22199320E+04</pdfrwt>
<totfact> 0.46348980E+00</totfact>
</mgrwt>
</event>
<event>
12    3  0.8686020E-008  0.1728367E+04  0.7818608E-02  0.8745349E-01
         -2   -1    0    0    0  501 -0.00000000000E+00  0.00000000000E+00  0.39094046410E+03  0.39094046410E+03  0.00000000000E+00 0.  1.
          2   -1    0    0  501    0  0.00000000000E+00 -0.00000000000E+00 -0.19102994123E+04  0.19102994123E+04  0.00000000000E+00 0. -1.
         23    2    1    2    0    0 -0.47488852947E+03 -0.38521626242E+03 -0.74369728289E+03  0.96710787052E+03  0.91111472379E+02 0.  0.
        254    2    1    2    0    0  0.47488852947E+03  0.38521626242E+03 -0.77566166527E+03  0.13341320058E+04  0.89685367022E+03 0.  0.
         23    2    4    4    0    0  0.46132275388E+03  0.30035568262E+03 -0.99133776318E+01  0.55814658189E+03  0.91635759834E+02 0.  0.
         23    2    4    4    0    0  0.13565775581E+02  0.84860579792E+02 -0.76574828764E+03  0.77598542395E+03  0.91638364726E+02 0.  0.
          1    1    3    3  502    0 -0.40312555644E+03 -0.36391679182E+03 -0.64372830315E+03  0.84221836473E+03  0.00000000000E+00 0. -1.
         -1    1    3    3    0  502 -0.71762973030E+02 -0.21299470601E+02 -0.99968979734E+02  0.12488950578E+03  0.00000000000E+00 0.  1.
         13    1    5    5    0    0  0.15608514552E+03  0.15212483091E+03 -0.18247604749E+02  0.21871788200E+03  0.00000000000E+00 0. -1.
        -13    1    5    5    0    0  0.30523760837E+03  0.14823085172E+03  0.83342271167E+01  0.33942869988E+03  0.00000000000E+00 0.  1.
          4    1    6    6  503    0 -0.24745484768E+02 -0.57694599753E+01 -0.11002521508E+03  0.11292109474E+03  0.00000000000E+00 0. -1.
         -4    1    6    6    0  503  0.38311260349E+02  0.90630039768E+02 -0.65572307256E+03  0.66306432921E+03  0.00000000000E+00 0.  1.
<mgrwt>
<rscale>  0 0.17283673E+04</rscale>
<asrwt>0</asrwt>
<pdfrwt beam="1">  1        2 0.29389222E+00 0.17283673E+04</pdfrwt>
<pdfrwt beam="2">  1       -2 0.60144686E-01 0.17283673E+04</pdfrwt>
<totfact> 0.18333667E+01</totfact>
</mgrwt>
</event>
<event>
12    3  0.8686020E-008  0.5396477E+04  0.7818608E-02  0.7770097E-01
         -2   -1    0    0    0  501 -0.00000000000E+00  0.00000000000E+00  0.20332322700E+04  0.20332322700E+04  0.00000000000E+00 0.  1.
          2   -1    0    0  501    0  0.00000000000E+00 -0.00000000000E+00 -0.35807479832E+04  0.35807479832E+04  0.00000000000E+00 0. -1.
         23    2    1    2    0    0 -0.19147048800E+04 -0.12699206456E+04  0.56127124153E+03  0.23668097227E+04  0.89272802674E+02 0.  0.
        254    2    1    2    0    0  0.19147048800E+04  0.12699206456E+04 -0.21087869547E+04  0.32471705305E+04  0.90462191556E+03 0.  0.
         23    2    4    4    0    0  0.84772760319E+03  0.13860307334E+03 -0.10693009218E+04  0.13744448333E+04  0.88550761528E+02 0.  0.
         23    2    4    4    0    0  0.10669772768E+04  0.11313175723E+04 -0.10394860329E+04  0.18727256972E+04  0.90831523309E+02 0.  0.
          2    1    3    3  502    0 -0.30415760050E+03 -0.17947574808E+03  0.11354595718E+03  0.37096640614E+03  0.00000000000E+00 0. -1.
         -2    1    3    3    0  502 -0.16105472795E+04 -0.10904448975E+04  0.44772528435E+03  0.19958433166E+04  0.00000000000E+00 0.  1.
         13    1    5    5    0    0  0.77836833625E+02  0.14352791424E+02 -0.61989058524E+02  0.10053466401E+03  0.00000000000E+00 0. -1.
        -13    1    5    5    0    0  0.76989076956E+03  0.12425028192E+03 -0.10073118633E+04  0.12739101693E+04  0.00000000000E+00 0.  1.
          2    1    6    6  503    0  0.98956444602E+03  0.10637376319E+04 -0.94514610801E+03  0.17332272522E+04  0.00000000000E+00 0.  1.
         -2    1    6    6    0  503  0.77412830770E+02  0.67579940414E+02 -0.94339924917E+02  0.13949844496E+03  0.00000000000E+00 0. -1.
<mgrwt>
<rscale>  0 0.53964775E+04</rscale>
<asrwt>0</asrwt>
<pdfrwt beam="1">  1        2 0.55088430E+00 0.53964775E+04</pdfrwt>
<pdfrwt beam="2">  1       -2 0.31280497E+00 0.53964775E+04</pdfrwt>
<totfact> 0.13303138E-02</totfact>
</mgrwt>
</event>
<event>
12    3  0.8686020E-008  0.3697807E+04  0.7818608E-02  0.8068448E-01
          1   -1    0    0  501    0  0.00000000000E+00  0.00000000000E+00  0.20631344737E+04  0.20631344737E+04  0.00000000000E+00 0. -1.
         -1   -1    0    0    0  501 -0.00000000000E+00 -0.00000000000E+00 -0.16569180140E+04  0.16569180140E+04  0.00000000000E+00 0.  1.
         23    2    1    2    0    0  0.10256016864E+04  0.13761075013E+04  0.46829295330E+03  0.17813127204E+04  0.90807728324E+02 0.  0.
        254    2    1    2    0    0 -0.10256016864E+04 -0.13761075013E+04 -0.62076493602E+02  0.19387397673E+04  0.89962643362E+03 0.  0.
         23    2    4    4    0    0 -0.48446408158E+03 -0.10595427850E+04 -0.38150275520E+03  0.12292926806E+04  0.90993311749E+02 0.  0.
         23    2    4    4    0    0 -0.54113760478E+03 -0.31656471622E+03  0.31942626160E+03  0.70944708664E+03  0.90768415614E+02 0.  0.
          3    1    3    3  502    0  0.45457538628E+03  0.57546123318E+03  0.24148996120E+03  0.77208277669E+03  0.00000000000E+00 0. -1.
         -3    1    3    3    0  502  0.57102630008E+03  0.80064626808E+03  0.22680299210E+03  0.10092299437E+04  0.00000000000E+00 0.  1.
         13    1    5    5    0    0 -0.43752647125E+02 -0.16990202513E+03 -0.46885042856E+02  0.18160176078E+03  0.00000000000E+00 0. -1.
        -13    1    5    5    0    0 -0.44071143445E+03 -0.88964075991E+03 -0.33461771234E+03  0.10476909199E+04  0.00000000000E+00 0.  1.
          3    1    6    6  503    0 -0.47216368711E+02 -0.45483288634E+01  0.10520215921E+02  0.48587526308E+02  0.00000000000E+00 0. -1.
         -3    1    6    6    0  503 -0.49392123607E+03 -0.31201638736E+03  0.30890604568E+03  0.66085956033E+03  0.00000000000E+00 0.  1.
<mgrwt>
<rscale>  0 0.36978073E+04</rscale>
<asrwt>0</asrwt>
<pdfrwt beam="1">  1        1 0.31740530E+00 0.36978073E+04</pdfrwt>
<pdfrwt beam="2">  1       -1 0.25491046E+00 0.36978073E+04</pdfrwt>
<totfact> 0.14031291E-01</totfact>
</mgrwt>
</event>
<event>
12    3  0.8686020E-008  0.1459311E+04  0.7818608E-02  0.8911971E-01
          2   -1    0    0  501    0  0.00000000000E+00  0.00000000000E+00  0.11271966347E+04  0.11271966347E+04  0.00000000000E+00 0. -1.
         -2   -1    0    0    0  501 -0.00000000000E+00 -0.00000000000E+00 -0.47231986163E+03  0.47231986163E+03  0.00000000000E+00 0.  1.
         23    2    1    2    0    0 -0.29784796990E+03 -0.23675748139E+03  0.46040673084E+03  0.60430312700E+03  0.91871613343E+02 0.  0.
        254    2    1    2    0    0  0.29784796990E+03  0.23675748139E+03  0.19447004221E+03  0.99521336930E+03  0.89881229128E+03 0.  0.
         23    2    4    4    0    0  0.13514548014E+03 -0.28403561556E+03  0.28439502433E+03  0.43487494702E+03  0.96411399572E+02 0.  0.
         23    2    4    4    0    0  0.16270248976E+03  0.52079309695E+03 -0.89924982120E+02  0.56033842229E+03  0.90526764428E+02 0.  0.
          1    1    3    3  502    0 -0.22894868136E+03 -0.14514850077E+03  0.36800702716E+03  0.45707193965E+03  0.00000000000E+00 0. -1.
         -1    1    3    3    0  502 -0.68899288537E+02 -0.91608980616E+02  0.92399703679E+02  0.14723118736E+03  0.00000000000E+00 0.  1.
         13    1    5    5    0    0  0.19118613447E+02 -0.12467435042E+03  0.15151851170E+03  0.19714734191E+03  0.00000000000E+00 0. -1.
        -13    1    5    5    0    0  0.11602686670E+03 -0.15936126514E+03  0.13287651263E+03  0.23772760511E+03  0.00000000000E+00 0.  1.
          2    1    6    6  503    0  0.13956892119E+03  0.37985504122E+03 -0.31109577644E+02  0.40587823534E+03  0.00000000000E+00 0. -1.
         -2    1    6    6    0  503  0.23133568565E+02  0.14093805573E+03 -0.58815404475E+02  0.15446018694E+03  0.00000000000E+00 0.  1.
<mgrwt>
<rscale>  0 0.14593113E+04</rscale>
<asrwt>0</asrwt>
<pdfrwt beam="1">  1        2 0.17341487E+00 0.14593113E+04</pdfrwt>
<pdfrwt beam="2">  1       -2 0.72664594E-01 0.14593113E+04</pdfrwt>
<totfact> 0.34796430E+01</totfact>
</mgrwt>
</event>
<event>
12    3  0.8686020E-008  0.3097370E+04  0.7818608E-02  0.8216460E-01
          2   -1    0    0  501    0  0.00000000000E+00  0.00000000000E+00  0.18545323387E+04  0.18545323387E+04  0.00000000000E+00 0. -1.
         -2   -1    0    0    0  501 -0.00000000000E+00 -0.00000000000E+00 -0.12932778190E+04  0.12932778190E+04  0.00000000000E+00 0.  1.
         23    2    1    2    0    0 -0.95807401633E+03 -0.10045588319E+04  0.54314364581E+03  0.14933504343E+04  0.89700791886E+02 0.  0.
        254    2    1    2    0    0  0.95807401633E+03  0.10045588319E+04  0.18110873873E+02  0.16544597234E+04  0.89992483314E+03 0.  0.
         23    2    4    4    0    0  0.82077503470E+02  0.76330455559E+01  0.27329910152E+03  0.29978261070E+03  0.91554545611E+02 0.  0.
         23    2    4    4    0    0  0.87599651286E+03  0.99692578632E+03 -0.25518822765E+03  0.13546771128E+04  0.93798370544E+02 0.  0.
          3    1    3    3  502    0 -0.42003983930E+03 -0.49369094372E+03  0.22590151421E+03  0.68643696625E+03  0.00000000000E+00 0. -1.
         -3    1    3    3    0  502 -0.53803417704E+03 -0.51086788815E+03  0.31724213160E+03  0.80691346801E+03  0.00000000000E+00 0.  1.
         13    1    5    5    0    0  0.46986718707E+02 -0.14077975396E+02  0.41240172120E+02  0.64083484008E+02  0.00000000000E+00 0.  1.
        -13    1    5    5    0    0  0.35090784764E+02  0.21711020951E+02  0.23205892940E+03  0.23569912669E+03  0.00000000000E+00 0. -1.
          3    1    6    6  503    0  0.79057676345E+03  0.91958350604E+03 -0.20923112980E+03  0.12306189943E+04  0.00000000000E+00 0. -1.
         -3    1    6    6    0  503  0.85419749411E+02  0.77342280278E+02 -0.45957097851E+02  0.12405811844E+03  0.00000000000E+00 0.  1.
<mgrwt>
<rscale>  0 0.30973702E+04</rscale>
<asrwt>0</asrwt>
<pdfrwt beam="1">  1        2 0.28531267E+00 0.30973702E+04</pdfrwt>
<pdfrwt beam="2">  1       -2 0.19896582E+00 0.30973702E+04</pdfrwt>
<totfact> 0.92340098E-01</totfact>
</mgrwt>
</event>
<event>
12    3  0.8686020E-008  0.3905265E+04  0.7818608E-02  0.8023935E-01
          2   -1    0    0  501    0  0.00000000000E+00  0.00000000000E+00  0.21608203817E+04  0.21608203817E+04  0.00000000000E+00 0. -1.
         -2   -1    0    0    0  501 -0.00000000000E+00 -0.00000000000E+00 -0.17645029459E+04  0.17645029459E+04  0.00000000000E+00 0.  1.
         23    2    1    2    0    0 -0.16616320494E+03  0.15017172358E+04  0.12563571261E+04  0.19680413326E+04  0.10949242738E+03 0.  0.
        254    2    1    2    0    0  0.16616320494E+03 -0.15017172358E+04 -0.86003969037E+03  0.19572819950E+04  0.89917721956E+03 0.  0.
         23    2    4    4    0    0  0.38954046341E+03 -0.14310699120E+04 -0.83521344908E+03  0.17045370122E+04  0.90344091102E+02 0.  0.
         23    2    4    4    0    0 -0.22337725847E+03 -0.70647323773E+02 -0.24826241285E+02  0.25274498282E+03  0.91516338030E+02 0.  0.
          1    1    3    3  502    0 -0.92586547137E+02  0.11558770555E+04  0.92275428974E+03  0.14819242610E+04  0.00000000000E+00 0. -1.
         -1    1    3    3    0  502 -0.73576657805E+02  0.34584018024E+03  0.33360283640E+03  0.48611707160E+03  0.00000000000E+00 0.  1.
         13    1    5    5    0    0  0.65292440905E+02 -0.37102836581E+03 -0.23371327149E+03  0.44333626554E+03  0.00000000000E+00 0.  1.
        -13    1    5    5    0    0  0.32424802251E+03 -0.10600415462E+04 -0.60150017759E+03  0.12612007467E+04  0.00000000000E+00 0. -1.
          4    1    6    6  503    0 -0.79934952571E+02 -0.38107156483E+02 -0.52687848150E+02  0.10304252210E+03  0.00000000000E+00 0. -1.
         -4    1    6    6    0  503 -0.14344230590E+03 -0.32540167290E+02  0.27861606865E+02  0.14970246072E+03  0.00000000000E+00 0.  1.
<mgrwt>
<rscale>  0 0.39052651E+04</rscale>
<asrwt>0</asrwt>
<pdfrwt beam="1">  1        2 0.33243390E+00 0.39052651E+04</pdfrwt>
<pdfrwt beam="2">  1       -2 0.27146199E+00 0.39052651E+04</pdfrwt>
<totfact> 0.20505702E-01</totfact>
</mgrwt>
</event>
<event>
12    3  0.8686020E-008  0.2582152E+04  0.7818608E-02  0.8374289E-01
         -2   -1    0    0    0  501 -0.00000000000E+00  0.00000000000E+00  0.24505308457E+04  0.24505308457E+04  0.00000000000E+00 0.  1.
          2   -1    0    0  501    0  0.00000000000E+00 -0.00000000000E+00 -0.68021042574E+03  0.68021042574E+03  0.00000000000E+00 0. -1.
         23    2    1    2    0    0 -0.69010741816E+03  0.86309695760E+03  0.10984507594E+04  0.15608754985E+04  0.92485914270E+02 0.  0.
        254    2    1    2    0    0  0.69010741816E+03 -0.86309695760E+03  0.67186966057E+03  0.15698657729E+04  0.88987925993E+03 0.  0.
         23    2    4    4    0    0  0.11190142775E+03 -0.69882741586E+03  0.64314184047E+03  0.96058209588E+03  0.90580622995E+02 0.  0.
         23    2    4    4    0    0  0.57820599042E+03 -0.16426954174E+03  0.28727820094E+02  0.60928367701E+03  0.95365935864E+02 0.  0.
          1    1    3    3  502    0 -0.14310037068E+03  0.22956367196E+03  0.23512548724E+03  0.35841482994E+03  0.00000000000E+00 0. -1.
         -1    1    3    3    0  502 -0.54700704748E+03  0.63353328564E+03  0.86332527215E+03  0.12024606686E+04  0.00000000000E+00 0.  1.
         13    1    5    5    0    0  0.37955686691E+02 -0.64816841309E+02  0.72255507818E+02  0.10422435166E+03  0.00000000000E+00 0.  1.
        -13    1    5    5    0    0  0.73945741056E+02 -0.63401057455E+03  0.57088633265E+03  0.85635774421E+03  0.00000000000E+00 0. -1.
          3    1    6    6  503    0  0.53562030754E+03 -0.14764910000E+03  0.51927580060E+02  0.55801957327E+03  0.00000000000E+00 0. -1.
         -3    1    6    6    0  503  0.42585682877E+02 -0.16620441737E+02 -0.23199759966E+02  0.51264103738E+02  0.00000000000E+00 0.  1.
<mgrwt>
<rscale>  0 0.25821515E+04</rscale>
<asrwt>0</asrwt>
<pdfrwt beam="1">  1        2 0.10464776E+00 0.25821515E+04</pdfrwt>
<pdfrwt beam="2">  1       -2 0.37700474E+00 0.25821515E+04</pdfrwt>
<totfact> 0.39404859E-01</totfact>
</mgrwt>
</event>
<event>
12    3  0.8686020E-008  0.1266150E+04  0.7818608E-02  0.9056848E-01
          2   -1    0    0  501    0  0.00000000000E+00  0.00000000000E+00  0.11975204008E+04  0.11975204008E+04  0.00000000000E+00 0. -1.
         -2   -1    0    0    0  501 -0.00000000000E+00 -0.00000000000E+00 -0.33467802994E+03  0.33467802994E+03  0.00000000000E+00 0.  1.
         23    2    1    2    0    0 -0.43413447332E+02  0.30525364880E+03  0.23921461654E+03  0.40082145601E+03  0.91486006176E+02 0.  0.
        254    2    1    2    0    0  0.43413447332E+02 -0.30525364880E+03  0.62362775432E+03  0.11313769747E+04  0.89220948518E+03 0.  0.
         23    2    4    4    0    0 -0.10736687274E+03 -0.56434571427E+03  0.56577029607E+03  0.81188105624E+03  0.95084651672E+02 0.  0.
         23    2    4    4    0    0  0.15078032007E+03  0.25909206548E+03  0.57857458250E+02  0.31949591848E+03  0.94163438444E+02 0.  0.
          2    1    3    3  502    0 -0.30505336940E+02  0.23024946000E+03  0.22504901110E+03  0.32340755528E+03  0.00000000000E+00 0. -1.
         -2    1    3    3    0  502 -0.12908110392E+02  0.75004188793E+02  0.14165605438E+02  0.77413900740E+02  0.00000000000E+00 0.  1.
         13    1    5    5    0    0 -0.29243720949E+02 -0.57338799399E+02  0.10037591706E+03  0.11924033654E+03  0.00000000000E+00 0. -1.
        -13    1    5    5    0    0 -0.78123151787E+02 -0.50700691487E+03  0.46539437901E+03  0.69264071970E+03  0.00000000000E+00 0.  1.
          4    1    6    6  503    0  0.22849995134E+02  0.49224996104E+02 -0.25497159985E+02  0.59961051411E+02  0.00000000000E+00 0. -1.
         -4    1    6    6    0  503  0.12793032493E+03  0.20986706937E+03  0.83354618235E+02  0.25953486707E+03  0.00000000000E+00 0.  1.
<mgrwt>
<rscale>  0 0.12661497E+04</rscale>
<asrwt>0</asrwt>
<pdfrwt beam="1">  1        2 0.18423391E+00 0.12661497E+04</pdfrwt>
<pdfrwt beam="2">  1       -2 0.51488928E-01 0.12661497E+04</pdfrwt>
<totfact> 0.66521511E+01</totfact>
</mgrwt>
</event>
<event>
12    3  0.8686020E-008  0.1483237E+04  0.7818608E-02  0.8895677E-01
         -2   -1    0    0    0  501 -0.00000000000E+00  0.00000000000E+00  0.10125288738E+04  0.10125288738E+04  0.00000000000E+00 0.  1.
          2   -1    0    0  501    0  0.00000000000E+00 -0.00000000000E+00 -0.54319231231E+03  0.54319231231E+03  0.00000000000E+00 0. -1.
         23    2    1    2    0    0 -0.86141434314E+01 -0.19747735235E+03 -0.28955709965E+03  0.36209260680E+03  0.90533053573E+02 0.  0.
        254    2    1    2    0    0  0.86141434314E+01  0.19747735235E+03  0.75889366117E+03  0.11936285793E+04  0.89986559456E+03 0.  0.
         23    2    4    4    0    0 -0.17637897463E+03  0.39941293016E+03  0.78320450392E+03  0.90123513631E+03  0.90417058554E+02 0.  0.
         23    2    4    4    0    0  0.18499311806E+03 -0.20193557782E+03 -0.24310842753E+02  0.29239344302E+03  0.99511190968E+02 0.  0.
          1    1    3    3  502    0 -0.14401546071E+02 -0.12416804387E+03 -0.24775972701E+03  0.27750673861E+03  0.00000000000E+00 0. -1.
         -1    1    3    3    0  502  0.57874026396E+01 -0.73309308472E+02 -0.41797372638E+02  0.84585868190E+02  0.00000000000E+00 0.  1.
         13    1    5    5    0    0  0.40484073133E+01 -0.18464530102E+01  0.18252215946E+02  0.18786760695E+02  0.00000000000E+00 0.  1.
        -13    1    5    5    0    0 -0.18042738195E+03  0.40125938317E+03  0.76495228798E+03  0.88244837561E+03  0.00000000000E+00 0. -1.
          1    1    6    6  503    0  0.68776533667E+02 -0.39859517500E+02 -0.45899321868E+02  0.91791832243E+02  0.00000000000E+00 0. -1.
         -1    1    6    6    0  503  0.11621658440E+03 -0.16207606032E+03  0.21588479115E+02  0.20060161078E+03  0.00000000000E+00 0.  1.
<mgrwt>
<rscale>  0 0.14832369E+04</rscale>
<asrwt>0</asrwt>
<pdfrwt beam="1">  1        2 0.83568048E-01 0.14832369E+04</pdfrwt>
<pdfrwt beam="2">  1       -2 0.15577367E+00 0.14832369E+04</pdfrwt>
<totfact> 0.14626955E+01</totfact>
</mgrwt>
</event>
<event>
12    3  0.8686020E-008  0.3347382E+04  0.7818608E-02  0.8150943E-01
         -2   -1    0    0    0  501 -0.00000000000E+00  0.00000000000E+00  0.28884478890E+04  0.28884478890E+04  0.00000000000E+00 0.  1.
          2   -1    0    0  501    0  0.00000000000E+00 -0.00000000000E+00 -0.96980841487E+03  0.96980841487E+03  0.00000000000E+00 0. -1.
         23    2    1    2    0    0  0.15504720953E+04  0.85805993150E+01  0.86451396188E+03  0.17774610570E+04  0.89140753402E+02 0.  0.
        254    2    1    2    0    0 -0.15504720953E+04 -0.85805993150E+01  0.10541255122E+04  0.20807952469E+04  0.90249150632E+03 0.  0.
         23    2    4    4    0    0 -0.13922784079E+04  0.11286869994E+03  0.11783685042E+04  0.18297490074E+04  0.90832758733E+02 0.  0.
         23    2    4    4    0    0 -0.15819368739E+03 -0.12144929925E+03 -0.12424299198E+03  0.25104623943E+03  0.88389582278E+02 0.  0.
          4    1    3    3  502    0  0.73783352468E+03  0.30917154512E+02  0.37089699497E+03  0.82638898920E+03  0.00000000000E+00 0. -1.
         -4    1    3    3    0  502  0.81263857058E+03 -0.22336555197E+02  0.49361696691E+03  0.95107206778E+03  0.00000000000E+00 0.  1.
         13    1    5    5    0    0 -0.80185105713E+02  0.27771042064E+02  0.76404654143E+02  0.11418648401E+03  0.00000000000E+00 0. -1.
        -13    1    5    5    0    0 -0.13120933022E+04  0.85097657876E+02  0.11019638500E+04  0.17155625234E+04  0.00000000000E+00 0.  1.
          3    1    6    6  503    0 -0.87136384267E+02 -0.35942145595E+02 -0.15490956713E+02  0.95522547250E+02  0.00000000000E+00 0. -1.
         -3    1    6    6    0  503 -0.71057303120E+02 -0.85507153660E+02 -0.10875203527E+03  0.15552369218E+03  0.00000000000E+00 0.  1.
<mgrwt>
<rscale>  0 0.33473817E+04</rscale>
<asrwt>0</asrwt>
<pdfrwt beam="1">  1        2 0.14920130E+00 0.33473817E+04</pdfrwt>
<pdfrwt beam="2">  1       -2 0.44437659E+00 0.33473817E+04</pdfrwt>
<totfact> 0.82790250E-02</totfact>
</mgrwt>
</event>
<event>
12    3  0.8686020E-008  0.2261527E+04  0.7818608E-02  0.8493247E-01
          2   -1    0    0  501    0  0.00000000000E+00  0.00000000000E+00  0.98767261758E+03  0.98767261758E+03  0.00000000000E+00 0.  1.
         -2   -1    0    0    0  501 -0.00000000000E+00 -0.00000000000E+00 -0.12945849044E+04  0.12945849044E+04  0.00000000000E+00 0. -1.
         23    2    1    2    0    0  0.75598213735E+03 -0.57157744369E+03 -0.68255328655E+02  0.95430262288E+03  0.88458691119E+02 0.  0.
        254    2    1    2    0    0 -0.75598213735E+03  0.57157744369E+03 -0.23865695819E+03  0.13279548991E+04  0.89905356030E+03 0.  0.
         23    2    4    4    0    0 -0.35469978395E+02 -0.21779536097E+02  0.25068390319E+03  0.27029058765E+03  0.92098397878E+02 0.  0.
         23    2    4    4    0    0 -0.72051215895E+03  0.59335697978E+03 -0.48934086138E+03  0.10576643115E+04  0.89381432517E+02 0.  0.
          4    1    3    3  502    0  0.60211576303E+03 -0.47747587744E+03 -0.25181167226E+02  0.76886975282E+03  0.00000000000E+00 0.  1.
         -4    1    3    3    0  502  0.15386637432E+03 -0.94101566247E+02 -0.43074161428E+02  0.18543287006E+03  0.00000000000E+00 0. -1.
         13    1    5    5    0    0 -0.28259474676E+02  0.83486642802E+01  0.23251896706E+03  0.23437868535E+03  0.00000000000E+00 0.  1.
        -13    1    5    5    0    0 -0.72105037186E+01 -0.30128200378E+02  0.18164936131E+02  0.35911902296E+02  0.00000000000E+00 0. -1.
          1    1    6    6  503    0 -0.10639106571E+02  0.28468782485E+02 -0.18026370422E+02  0.35335707088E+02  0.00000000000E+00 0. -1.
         -1    1    6    6    0  503 -0.70987305238E+03  0.56488819730E+03 -0.47131449096E+03  0.10223286044E+04  0.00000000000E+00 0.  1.
<mgrwt>
<rscale>  0 0.22615270E+04</rscale>
<asrwt>0</asrwt>
<pdfrwt beam="1">  1        2 0.15194963E+00 0.22615270E+04</pdfrwt>
<pdfrwt beam="2">  1       -2 0.19916691E+00 0.22615270E+04</pdfrwt>
<totfact> 0.31417321E+00</totfact>
</mgrwt>
</event>
<event>
12    3  0.8686020E-008  0.2310355E+04  0.7818608E-02  0.8473850E-01
          2   -1    0    0  501    0  0.00000000000E+00  0.00000000000E+00  0.13230524363E+04  0.13230524363E+04  0.00000000000E+00 0. -1.
         -2   -1    0    0    0  501 -0.00000000000E+00 -0.00000000000E+00 -0.10086029135E+04  0.10086029135E+04  0.00000000000E+00 0.  1.
         23    2    1    2    0    0 -0.72756591691E+03  0.15307935876E+03  0.77395372348E+03  0.10768457931E+04  0.88357470411E+02 0.  0.
        254    2    1    2    0    0  0.72756591691E+03 -0.15307935876E+03 -0.45950420071E+03  0.12548095566E+04  0.90034296762E+03 0.  0.
         23    2    4    4    0    0  0.69172927712E+03 -0.19992081153E+03  0.55008732512E+02  0.72838666251E+03  0.95202131019E+02 0.  0.
         23    2    4    4    0    0  0.35836639788E+02  0.46841452771E+02 -0.51451293323E+03  0.52642289410E+03  0.94441084936E+02 0.  0.
          3    1    3    3  502    0 -0.49518885505E+03  0.86582575052E+02  0.57523740278E+03  0.76394149909E+03  0.00000000000E+00 0. -1.
         -3    1    3    3    0  502 -0.23237706186E+03  0.66496783706E+02  0.19871632070E+03  0.31290429405E+03  0.00000000000E+00 0.  1.
         13    1    5    5    0    0  0.67198585278E+02 -0.31666873479E+02 -0.20845802451E+02  0.77155610419E+02  0.00000000000E+00 0.  1.
        -13    1    5    5    0    0  0.62453069185E+03 -0.16825393805E+03  0.75854534964E+02  0.65123105209E+03  0.00000000000E+00 0. -1.
          4    1    6    6  503    0 -0.16053634299E+02  0.90345184893E+01 -0.17929032616E+02  0.25705873047E+02  0.00000000000E+00 0.  1.
         -4    1    6    6    0  503  0.51890274087E+02  0.37806934282E+02 -0.49658390061E+03  0.50071702105E+03  0.00000000000E+00 0. -1.
<mgrwt>
<rscale>  0 0.23103546E+04</rscale>
<asrwt>0</asrwt>
<pdfrwt beam="1">  1        2 0.20354653E+00 0.23103546E+04</pdfrwt>
<pdfrwt beam="2">  1       -2 0.15516968E+00 0.23103546E+04</pdfrwt>
<totfact> 0.39746314E+00</totfact>
</mgrwt>
</event>
<event>
12    3  0.8686020E-008  0.2451053E+04  0.7818608E-02  0.8420634E-01
          1   -1    0    0  501    0  0.00000000000E+00  0.00000000000E+00  0.89113143192E+03  0.89113143192E+03  0.00000000000E+00 0. -1.
         -1   -1    0    0    0  501 -0.00000000000E+00 -0.00000000000E+00 -0.16854022093E+04  0.16854022093E+04  0.00000000000E+00 0.  1.
         23    2    1    2    0    0  0.89835984865E+03 -0.54627446861E+03 -0.21969477327E+03  0.10780675101E+04  0.92182157341E+02 0.  0.
        254    2    1    2    0    0 -0.89835984865E+03  0.54627446861E+03 -0.57457600412E+03  0.14984661312E+04  0.89988718683E+03 0.  0.
         23    2    4    4    0    0 -0.10667216511E+04  0.44114715699E+03 -0.42599296931E+03  0.12337222920E+04  0.89971044361E+02 0.  0.
         23    2    4    4    0    0  0.16836180248E+03  0.10512731162E+03 -0.14858303481E+03  0.26474383915E+03  0.92816668479E+02 0.  0.
          1    1    3    3  502    0  0.44062968974E+03 -0.32087958393E+03 -0.10458033738E+03  0.55502727666E+03  0.00000000000E+00 0. -1.
         -1    1    3    3    0  502  0.45773015891E+03 -0.22539488468E+03 -0.11511443589E+03  0.52304023341E+03  0.00000000000E+00 0.  1.
         13    1    5    5    0    0 -0.29315471470E+03  0.14292782316E+03 -0.83177203444E+02  0.33658059444E+03  0.00000000000E+00 0.  1.
        -13    1    5    5    0    0 -0.77356693643E+03  0.29821933383E+03 -0.34281576587E+03  0.89714169758E+03  0.00000000000E+00 0. -1.
          3    1    6    6  503    0  0.94016601296E+02  0.65026749727E+02 -0.28302126629E+02  0.11776506218E+03  0.00000000000E+00 0. -1.
         -3    1    6    6    0  503  0.74345201185E+02  0.40100561897E+02 -0.12028090819E+03  0.14697877696E+03  0.00000000000E+00 0.  1.
<mgrwt>
<rscale>  0 0.24510527E+04</rscale>
<asrwt>0</asrwt>
<pdfrwt beam="1">  1        1 0.13709714E+00 0.24510527E+04</pdfrwt>
<pdfrwt beam="2">  1       -1 0.25929265E+00 0.24510527E+04</pdfrwt>
<totfact> 0.10011312E+00</totfact>
</mgrwt>
</event>
<event>
12    3  0.8686020E-008  0.1900390E+04  0.7818608E-02  0.8654662E-01
         -2   -1    0    0    0  501 -0.00000000000E+00  0.00000000000E+00  0.75395954285E+03  0.75395954285E+03  0.00000000000E+00 0.  1.
          2   -1    0    0  501    0  0.00000000000E+00 -0.00000000000E+00 -0.11975048388E+04  0.11975048388E+04  0.00000000000E+00 0. -1.
         23    2    1    2    0    0  0.65538105256E+03 -0.32594049664E+03 -0.22428511506E+03  0.77090368117E+03  0.90703590873E+02 0.  0.
        254    2    1    2    0    0 -0.65538105256E+03  0.32594049664E+03 -0.21926018092E+03  0.11805607005E+04  0.89993722517E+03 0.  0.
         23    2    4    4    0    0  0.52810983972E+02  0.10109169948E+03 -0.38665465984E+03  0.41339614368E+03  0.91575181667E+02 0.  0.
         23    2    4    4    0    0 -0.70819203653E+03  0.22484879716E+03  0.16739447892E+03  0.76716455683E+03  0.91801979814E+02 0.  0.
          3    1    3    3  502    0  0.25243945173E+03 -0.16308038047E+03 -0.61194491087E+02  0.30670124392E+03  0.00000000000E+00 0. -1.
         -3    1    3    3    0  502  0.40294160083E+03 -0.16286011618E+03 -0.16309062397E+03  0.46420243725E+03  0.00000000000E+00 0.  1.
         13    1    5    5    0    0  0.54498817999E+01  0.22517418913E+02 -0.23507852151E+03  0.23621737159E+03  0.00000000000E+00 0. -1.
        -13    1    5    5    0    0  0.47361102172E+02  0.78574280572E+02 -0.15157613833E+03  0.17717877208E+03  0.00000000000E+00 0.  1.
          4    1    6    6  503    0 -0.58662018703E+03  0.15057824198E+03  0.14727718169E+03  0.62328774979E+03  0.00000000000E+00 0. -1.
         -4    1    6    6    0  503 -0.12157184950E+03  0.74270555177E+02  0.20117297231E+02  0.14387680704E+03  0.00000000000E+00 0.  1.
<mgrwt>
<rscale>  0 0.19003896E+04</rscale>
<asrwt>0</asrwt>
<pdfrwt beam="1">  1        2 0.18423151E+00 0.19003896E+04</pdfrwt>
<pdfrwt beam="2">  1       -2 0.11599378E+00 0.19003896E+04</pdfrwt>
<totfact> 0.10278810E+01</totfact>
</mgrwt>
</event>
<event>
12    3  0.8686020E-008  0.1400063E+04  0.7818608E-02  0.8953773E-01
          2   -1    0    0  501    0  0.00000000000E+00  0.00000000000E+00  0.30695545916E+04  0.30695545916E+04  0.00000000000E+00 0. -1.
         -2   -1    0    0    0  501 -0.00000000000E+00 -0.00000000000E+00 -0.15964657427E+03  0.15964657427E+03  0.00000000000E+00 0.  1.
         23    2    1    2    0    0 -0.31608461932E+03  0.11869744774E+03  0.13758988384E+04  0.14191476942E+04  0.82969836237E+02 0.  0.
        254    2    1    2    0    0  0.31608461932E+03 -0.11869744774E+03  0.15340091789E+04  0.18100534717E+04  0.89950588585E+03 0.  0.
         23    2    4    4    0    0  0.15179060560E+03  0.35632706346E+03  0.39578554964E+03  0.56244962492E+03  0.98458189945E+02 0.  0.
         23    2    4    4    0    0  0.16429401373E+03 -0.47502451120E+03  0.11382236293E+04  0.12476038468E+04  0.91222360286E+02 0.  0.
          2    1    3    3  502    0 -0.14158320516E+03  0.36348530733E+02  0.75263962133E+03  0.76670295374E+03  0.00000000000E+00 0. -1.
         -2    1    3    3    0  502 -0.17450141417E+03  0.82348917003E+02  0.62325921706E+03  0.65244474044E+03  0.00000000000E+00 0.  1.
         13    1    5    5    0    0  0.16648664088E+02 -0.59662840047E+00  0.27042197730E+02  0.31761839358E+02  0.00000000000E+00 0.  1.
        -13    1    5    5    0    0  0.13514194151E+03  0.35692369187E+03  0.36874335191E+03  0.53068778557E+03  0.00000000000E+00 0. -1.
          3    1    6    6  503    0  0.14195431880E+03 -0.46009898277E+03  0.11011287366E+04  0.12018013967E+04  0.00000000000E+00 0. -1.
         -3    1    6    6    0  503  0.22339694921E+02 -0.14925528429E+02  0.37094892731E+02  0.45802450096E+02  0.00000000000E+00 0.  1.
<mgrwt>
<rscale>  0 0.14000627E+04</rscale>
<asrwt>0</asrwt>
<pdfrwt beam="1">  1        2 0.47223912E+00 0.14000627E+04</pdfrwt>
<pdfrwt beam="2">  1       -2 0.24561014E-01 0.14000627E+04</pdfrwt>
<totfact> 0.22921242E+01</totfact>
</mgrwt>
</event>
<event>
12    3  0.8686020E-008  0.1470470E+04  0.7818608E-02  0.8904331E-01
          2   -1    0    0  501    0  0.00000000000E+00  0.00000000000E+00  0.15310824649E+04  0.15310824649E+04  0.00000000000E+00 0. -1.
         -2   -1    0    0    0  501 -0.00000000000E+00 -0.00000000000E+00 -0.35306420490E+03  0.35306420490E+03  0.00000000000E+00 0.  1.
         23    2    1    2    0    0  0.21881109018E+03  0.29403946362E+03  0.71302812060E+03  0.80690544897E+03  0.91377259058E+02 0.  0.
        254    2    1    2    0    0 -0.21881109018E+03 -0.29403946362E+03  0.46499013943E+03  0.10772412208E+04  0.89994184188E+03 0.  0.
         23    2    4    4    0    0  0.12661706874E+03 -0.28082605616E+03  0.61115228913E+03  0.69037327195E+03  0.90625483109E+02 0.  0.
         23    2    4    4    0    0 -0.34542815891E+03 -0.13213407456E+02 -0.14616214970E+03  0.38686794890E+03  0.93852164470E+02 0.  0.
          1    1    3    3  502    0  0.14501490139E+03  0.20327983446E+03  0.56885358299E+03  0.62124585439E+03  0.00000000000E+00 0. -1.
         -1    1    3    3    0  502  0.73796188793E+02  0.90759629163E+02  0.14417453761E+03  0.18565959458E+03  0.00000000000E+00 0.  1.
         13    1    5    5    0    0  0.40527837462E+02 -0.49459742306E+02  0.20835383948E+03  0.21794516316E+03  0.00000000000E+00 0.  1.
        -13    1    5    5    0    0  0.86089231274E+02 -0.23136631386E+03  0.40279844966E+03  0.47242810879E+03  0.00000000000E+00 0. -1.
          4    1    6    6  503    0 -0.25776947775E+03  0.27305205332E+02 -0.86070355182E+02  0.27312777950E+03  0.00000000000E+00 0. -1.
         -4    1    6    6    0  503 -0.87658681170E+02 -0.40518612788E+02 -0.60091794518E+02  0.11374016940E+03  0.00000000000E+00 0.  1.
<mgrwt>
<rscale>  0 0.14704699E+04</rscale>
<asrwt>0</asrwt>
<pdfrwt beam="1">  1        2 0.23555114E+00 0.14704699E+04</pdfrwt>
<pdfrwt beam="2">  1       -2 0.54317571E-01 0.14704699E+04</pdfrwt>
<totfact> 0.37660416E+01</totfact>
</mgrwt>
</event>
<event>
12    3  0.8686020E-008  0.1568016E+04  0.7818608E-02  0.8840442E-01
          2   -1    0    0  501    0  0.00000000000E+00  0.00000000000E+00  0.13800774622E+04  0.13800774622E+04  0.00000000000E+00 0. -1.
         -2   -1    0    0    0  501 -0.00000000000E+00 -0.00000000000E+00 -0.44538699488E+03  0.44538699488E+03  0.00000000000E+00 0.  1.
         23    2    1    2    0    0  0.45162862866E+03 -0.26260508279E+03  0.26808748733E+03  0.59430086068E+03  0.91612032008E+02 0.  0.
        254    2    1    2    0    0 -0.45162862866E+03  0.26260508279E+03  0.66660297997E+03  0.12311635964E+04  0.89357395912E+03 0.  0.
         23    2    4    4    0    0  0.18647694108E+03 -0.14441851577E+02  0.44962624892E+03  0.49519197499E+03  0.89828234661E+02 0.  0.
         23    2    4    4    0    0 -0.63810556974E+03  0.27704693436E+03  0.21697673105E+03  0.73597162139E+03  0.10315814903E+03 0.  0.
          3    1    3    3  502    0  0.26899919211E+03 -0.20714157919E+03  0.16906149769E+03  0.37927561112E+03  0.00000000000E+00 0. -1.
         -3    1    3    3    0  502  0.18262943654E+03 -0.55463503597E+02  0.99025989646E+02  0.21502524956E+03  0.00000000000E+00 0.  1.
         13    1    5    5    0    0  0.57646819773E+02  0.33196876671E+02  0.10617679634E+03  0.12529445531E+03  0.00000000000E+00 0. -1.
        -13    1    5    5    0    0  0.12883012131E+03 -0.47638728248E+02  0.34344945258E+03  0.36989751968E+03  0.00000000000E+00 0.  1.
          2    1    6    6  503    0 -0.18988982002E+03  0.12239784612E+03  0.37581033524E+02  0.22902338431E+03  0.00000000000E+00 0.  1.
         -2    1    6    6    0  503 -0.44821574972E+03  0.15464908825E+03  0.17939569752E+03  0.50694823708E+03  0.00000000000E+00 0. -1.
<mgrwt>
<rscale>  0 0.15680160E+04</rscale>
<asrwt>0</asrwt>
<pdfrwt beam="1">  1        2 0.21231961E+00 0.15680160E+04</pdfrwt>
<pdfrwt beam="2">  1       -2 0.68521077E-01 0.15680160E+04</pdfrwt>
<totfact> 0.27812928E+01</totfact>
</mgrwt>
</event>
<event>
12    3  0.8686020E-008  0.1982052E+04  0.7818608E-02  0.8615058E-01
          2   -1    0    0  501    0  0.00000000000E+00  0.00000000000E+00  0.20277825673E+04  0.20277825673E+04  0.00000000000E+00 0.  1.
         -2   -1    0    0    0  501 -0.00000000000E+00 -0.00000000000E+00 -0.48433805324E+03  0.48433805324E+03  0.00000000000E+00 0. -1.
         23    2    1    2    0    0  0.63405327426E+03  0.32301884248E+03  0.10228611312E+04  0.12492552317E+04  0.89604760886E+02 0.  0.
        254    2    1    2    0    0 -0.63405327426E+03 -0.32301884248E+03  0.52058338289E+03  0.12628653888E+04  0.90413339971E+03 0.  0.
         23    2    4    4    0    0 -0.62679314727E+03 -0.58411673137E+03  0.32387444494E+03  0.92119377736E+03  0.98190193175E+02 0.  0.
         23    2    4    4    0    0 -0.72601269903E+01  0.26109788889E+03  0.19670893795E+03  0.34167161143E+03  0.99097259092E+02 0.  0.
          4    1    3    3  502    0  0.29448556290E+03  0.16628221921E+03  0.41233281745E+03  0.53328217252E+03  0.00000000000E+00 0. -1.
         -4    1    3    3    0  502  0.33956771136E+03  0.15673662327E+03  0.61052831373E+03  0.71597305922E+03  0.00000000000E+00 0.  1.
         13    1    5    5    0    0 -0.22933376059E+03 -0.15566231438E+03  0.85886911817E+02  0.29017458793E+03  0.00000000000E+00 0. -1.
        -13    1    5    5    0    0 -0.39745938668E+03 -0.42845441700E+03  0.23798753312E+03  0.63101918943E+03  0.00000000000E+00 0.  1.
          2    1    6    6  503    0  0.31614536616E+01  0.22457983437E+03  0.20351386199E+03  0.30309072704E+03  0.00000000000E+00 0. -1.
         -2    1    6    6    0  503 -0.10421580652E+02  0.36518054520E+02 -0.68049240372E+01  0.38580884391E+02  0.00000000000E+00 0.  1.
<mgrwt>
<rscale>  0 0.19820517E+04</rscale>
<asrwt>0</asrwt>
<pdfrwt beam="1">  1        2 0.31196654E+00 0.19820517E+04</pdfrwt>
<pdfrwt beam="2">  1       -2 0.74513548E-01 0.19820517E+04</pdfrwt>
<totfact> 0.97173017E+00</totfact>
</mgrwt>
</event>
<event>
12    3  0.8686020E-008  0.1868830E+04  0.7818608E-02  0.8670529E-01
         -2   -1    0    0    0  501 -0.00000000000E+00  0.00000000000E+00  0.16711920000E+04  0.16711920000E+04  0.00000000000E+00 0.  1.
          2   -1    0    0  501    0  0.00000000000E+00 -0.00000000000E+00 -0.52246000096E+03  0.52246000096E+03  0.00000000000E+00 0. -1.
         23    2    1    2    0    0 -0.15639857176E+03  0.68187423096E+03  0.29633374594E+03  0.77026372736E+03  0.12680512847E+03 0.  0.
        254    2    1    2    0    0  0.15639857176E+03 -0.68187423096E+03  0.85239825307E+03  0.14233882736E+04  0.90002134163E+03 0.  0.
         23    2    4    4    0    0  0.21472997713E+03 -0.41889282611E+03 -0.45428788964E+02  0.48163628342E+03  0.91266487816E+02 0.  0.
         23    2    4    4    0    0 -0.58331405372E+02 -0.26298140485E+03  0.89782704203E+03  0.94175199014E+03  0.90783486247E+02 0.  0.
          3    1    3    3  502    0 -0.11570318927E+03  0.38417140968E+03  0.10745249307E+03  0.41535639912E+03  0.00000000000E+00 0. -1.
         -3    1    3    3    0  502 -0.40695382488E+02  0.29770282129E+03  0.18888125286E+03  0.35490732824E+03  0.00000000000E+00 0.  1.
         13    1    5    5    0    0  0.50281587056E+01  0.28384529900E+01  0.54067141757E+01  0.79102309399E+01  0.00000000000E+00 0. -1.
        -13    1    5    5    0    0  0.20970181843E+03 -0.42173127910E+03 -0.50835503139E+02  0.47372605248E+03  0.00000000000E+00 0.  1.
          4    1    6    6  503    0  0.19742048263E+01 -0.99374466129E+02  0.21258945839E+03  0.23467735260E+03  0.00000000000E+00 0. -1.
         -4    1    6    6    0  503 -0.60305610199E+02 -0.16360693872E+03  0.68523758364E+03  0.70707463754E+03  0.00000000000E+00 0.  1.
<mgrwt>
<rscale>  0 0.18688296E+04</rscale>
<asrwt>0</asrwt>
<pdfrwt beam="1">  1        2 0.80378463E-01 0.18688296E+04</pdfrwt>
<pdfrwt beam="2">  1       -2 0.25710646E+00 0.18688296E+04</pdfrwt>
<totfact> 0.31919515E+00</totfact>
</mgrwt>
</event>
<event>
12    3  0.8686020E-008  0.1668287E+04  0.7818608E-02  0.8779661E-01
          2   -1    0    0  501    0  0.00000000000E+00  0.00000000000E+00  0.18005137758E+04  0.18005137758E+04  0.00000000000E+00 0. -1.
         -2   -1    0    0    0  501 -0.00000000000E+00 -0.00000000000E+00 -0.38644290560E+03  0.38644290560E+03  0.00000000000E+00 0.  1.
         23    2    1    2    0    0  0.55246761932E+03 -0.74933574960E+02  0.26736795073E+03  0.62508572122E+03  0.91711650009E+02 0.  0.
        254    2    1    2    0    0 -0.55246761932E+03  0.74933574960E+02  0.11467029195E+04  0.15618709602E+04  0.90204090799E+03 0.  0.
         23    2    4    4    0    0 -0.20271081406E+03  0.26017867764E+03  0.11009891655E+04  0.11528851899E+04  0.90457172701E+02 0.  0.
         23    2    4    4    0    0 -0.34975680526E+03 -0.18524510268E+03  0.45713753995E+02  0.40898577030E+03  0.92379879393E+02 0.  0.
          2    1    3    3  502    0  0.37996026284E+03 -0.23518878198E+02  0.21688363866E+03  0.43813405676E+03  0.00000000000E+00 0. -1.
         -2    1    3    3    0  502  0.17250735648E+03 -0.51414696761E+02  0.50484312065E+02  0.18695166447E+03  0.00000000000E+00 0.  1.
         13    1    5    5    0    0 -0.17600883169E+03  0.25152443462E+03  0.92345719652E+03  0.97314790441E+03  0.00000000000E+00 0. -1.
        -13    1    5    5    0    0 -0.26701982376E+02  0.86542430190E+01  0.17753196900E+03  0.17973728551E+03  0.00000000000E+00 0.  1.
          1    1    6    6  503    0 -0.31253051002E+03 -0.17818792719E+03  0.66373178520E+02  0.36583009160E+03  0.00000000000E+00 0. -1.
         -1    1    6    6    0  503 -0.37226295236E+02 -0.70571754824E+01 -0.20659424525E+02  0.43155678705E+02  0.00000000000E+00 0.  1.
<mgrwt>
<rscale>  0 0.16682875E+04</rscale>
<asrwt>0</asrwt>
<pdfrwt beam="1">  1        2 0.27700211E+00 0.16682875E+04</pdfrwt>
<pdfrwt beam="2">  1       -2 0.59452756E-01 0.16682875E+04</pdfrwt>
<totfact> 0.21719138E+01</totfact>
</mgrwt>
</event>
<event>
12    3  0.8686020E-008  0.2231816E+04  0.7818608E-02  0.8505301E-01
          2   -1    0    0  501    0  0.00000000000E+00  0.00000000000E+00  0.92882468971E+03  0.92882468971E+03  0.00000000000E+00 0. -1.
         -2   -1    0    0    0  501 -0.00000000000E+00 -0.00000000000E+00 -0.13406729287E+04  0.13406729287E+04  0.00000000000E+00 0.  1.
         23    2    1    2    0    0 -0.47884006623E+03  0.74628275383E+03  0.12364057301E+03  0.89988360608E+03  0.90982171435E+02 0.  0.
        254    2    1    2    0    0  0.47884006623E+03 -0.74628275383E+03 -0.53548881199E+03  0.13696140123E+04  0.89602930604E+03 0.  0.
         23    2    4    4    0    0  0.61271063323E+03 -0.47191766148E+03 -0.39494194802E+02  0.77991907540E+03  0.92700450197E+02 0.  0.
         23    2    4    4    0    0 -0.13387056700E+03 -0.27436509235E+03 -0.49599461719E+03  0.58969493692E+03  0.92368423915E+02 0.  0.
          2    1    3    3  502    0 -0.24881568546E+03  0.32154553731E+03  0.84625404008E+02  0.41528572922E+03  0.00000000000E+00 0.  1.
         -2    1    3    3    0  502 -0.23002438076E+03  0.42473721652E+03  0.39015169004E+02  0.48459787686E+03  0.00000000000E+00 0. -1.
         13    1    5    5    0    0  0.41039232081E+03 -0.33683865704E+03  0.12861370358E+02  0.53108149347E+03  0.00000000000E+00 0. -1.
        -13    1    5    5    0    0  0.20231831241E+03 -0.13507900444E+03 -0.52355565160E+02  0.24883758193E+03  0.00000000000E+00 0.  1.
          1    1    6    6  503    0 -0.26966340484E+02 -0.10863215016E+03 -0.25360697800E+03  0.27720863417E+03  0.00000000000E+00 0. -1.
         -1    1    6    6    0  503 -0.10690422652E+03 -0.16573294219E+03 -0.24238763919E+03  0.31248630275E+03  0.00000000000E+00 0.  1.
<mgrwt>
<rscale>  0 0.22318155E+04</rscale>
<asrwt>0</asrwt>
<pdfrwt beam="1">  1        2 0.14289611E+00 0.22318155E+04</pdfrwt>
<pdfrwt beam="2">  1       -2 0.20625737E+00 0.22318155E+04</pdfrwt>
<totfact> 0.30940217E+00</totfact>
</mgrwt>
</event>
<event>
12    3  0.8686020E-008  0.1684635E+04  0.7818608E-02  0.8770177E-01
         -2   -1    0    0    0  501 -0.00000000000E+00  0.00000000000E+00  0.32829256437E+03  0.32829256437E+03  0.00000000000E+00 0.  1.
          2   -1    0    0  501    0  0.00000000000E+00 -0.00000000000E+00 -0.21611774619E+04  0.21611774619E+04  0.00000000000E+00 0. -1.
         23    2    1    2    0    0  0.23939312616E+03 -0.53449040894E+03 -0.84814232785E+03  0.10348029563E+04  0.92101487913E+02 0.  0.
        254    2    1    2    0    0 -0.23939312616E+03  0.53449040894E+03 -0.98474256964E+03  0.14546670699E+04  0.89629754525E+03 0.  0.
         23    2    4    4    0    0  0.17013422955E+03 -0.98713241251E+02 -0.52167673124E+03  0.56501155115E+03  0.91659592818E+02 0.  0.
         23    2    4    4    0    0 -0.40952735571E+03  0.63320365020E+03 -0.46306583840E+03  0.88965551873E+03  0.91637621144E+02 0.  0.
          4    1    3    3  502    0  0.16634580772E+03 -0.33717166416E+03 -0.46800159088E+03  0.60031753925E+03  0.00000000000E+00 0. -1.
         -4    1    3    3    0  502  0.73047318444E+02 -0.19731874478E+03 -0.38014073696E+03  0.43448541710E+03  0.00000000000E+00 0.  1.
         13    1    5    5    0    0  0.44224815894E+02 -0.16941700518E+02 -0.45294523023E+02  0.65532048443E+02  0.00000000000E+00 0.  1.
        -13    1    5    5    0    0  0.12590941366E+03 -0.81771540734E+02 -0.47638220822E+03  0.49947950271E+03  0.00000000000E+00 0. -1.
          3    1    6    6  503    0 -0.27439368311E+03  0.35956535815E+03 -0.30906830218E+03  0.54781598692E+03  0.00000000000E+00 0.  1.
         -3    1    6    6    0  503 -0.13513367260E+03  0.27363829204E+03 -0.15399753623E+03  0.34183953181E+03  0.00000000000E+00 0. -1.
<mgrwt>
<rscale>  0 0.16846347E+04</rscale>
<asrwt>0</asrwt>
<pdfrwt beam="1">  1        2 0.33248883E+00 0.16846347E+04</pdfrwt>
<pdfrwt beam="2">  1       -2 0.50506550E-01 0.16846347E+04</pdfrwt>
<totfact> 0.19185381E+01</totfact>
</mgrwt>
</event>
<event>
12    3  0.8686020E-008  0.1320564E+04  0.7818608E-02  0.9013415E-01
         -2   -1    0    0    0  501 -0.00000000000E+00  0.00000000000E+00  0.15274347486E+04  0.15274347486E+04  0.00000000000E+00 0.  1.
          2   -1    0    0  501    0  0.00000000000E+00 -0.00000000000E+00 -0.28542767885E+03  0.28542767885E+03  0.00000000000E+00 0. -1.
         23    2    1    2    0    0  0.28126870340E+03 -0.12973493582E+03  0.12186556920E+03  0.34336575688E+03  0.84294655583E+02 0.  0.
        254    2    1    2    0    0 -0.28126870340E+03  0.12973493582E+03  0.11201415006E+04  0.14694966706E+04  0.89931098432E+03 0.  0.
         23    2    4    4    0    0 -0.36322963333E+03 -0.31338131054E+03  0.63663429831E+03  0.80221459314E+03  0.90007840372E+02 0.  0.
         23    2    4    4    0    0  0.81960929937E+02  0.44311624636E+03  0.48350720226E+03  0.66728207746E+03  0.91741781353E+02 0.  0.
          3    1    3    3  502    0  0.80027864381E+02 -0.66394653460E+01  0.59522988441E+01  0.80523111210E+02  0.00000000000E+00 0. -1.
         -3    1    3    3    0  502  0.20124083901E+03 -0.12309547047E+03  0.11591327036E+03  0.26284264567E+03  0.00000000000E+00 0.  1.
         13    1    5    5    0    0 -0.23677947779E+03 -0.21650534104E+03  0.49006307445E+03  0.58574815470E+03  0.00000000000E+00 0.  1.
        -13    1    5    5    0    0 -0.12645015554E+03 -0.96875969500E+02  0.14657122387E+03  0.21646643843E+03  0.00000000000E+00 0. -1.
          3    1    6    6  503    0 -0.44568496371E+01  0.80421921689E+02  0.47160074865E+02  0.93336068367E+02  0.00000000000E+00 0. -1.
         -3    1    6    6    0  503  0.86417779574E+02  0.36269432467E+03  0.43634712740E+03  0.57394600910E+03  0.00000000000E+00 0.  1.
<mgrwt>
<rscale>  0 0.13205638E+04</rscale>
<asrwt>0</asrwt>
<pdfrwt beam="1">  1        2 0.43911951E-01 0.13205638E+04</pdfrwt>
<pdfrwt beam="2">  1       -2 0.23498996E+00 0.13205638E+04</pdfrwt>
<totfact> 0.90462141E+00</totfact>
</mgrwt>
</event>
<event>
12    3  0.8686020E-008  0.2034624E+04  0.7818608E-02  0.8590602E-01
          2   -1    0    0  501    0  0.00000000000E+00  0.00000000000E+00  0.38169458165E+04  0.38169458165E+04  0.00000000000E+00 0. -1.
         -2   -1    0    0    0  501 -0.00000000000E+00 -0.00000000000E+00 -0.27113929645E+03  0.27113929645E+03  0.00000000000E+00 0.  1.
         23    2    1    2    0    0 -0.23034294440E+03  0.52523668363E+02 -0.13925221607E+03  0.28726430744E+03  0.85516050392E+02 0.  0.
        254    2    1    2    0    0  0.23034294440E+03 -0.52523668363E+02  0.36850587361E+04  0.38008208055E+04  0.90042451055E+03 0.  0.
         23    2    4    4    0    0  0.18136716354E+03  0.40086582882E+03  0.14613190054E+04  0.15289044439E+04  0.92239374156E+02 0.  0.
         23    2    4    4    0    0  0.48975780862E+02 -0.45338949718E+03  0.22237397307E+04  0.22719163616E+04  0.92870346030E+02 0.  0.
          3    1    3    3  502    0  0.53870591148E+01 -0.31251349490E+01 -0.12332611953E+02  0.13815939778E+02  0.00000000000E+00 0. -1.
         -3    1    3    3    0  502 -0.23573000352E+03  0.55648803312E+02 -0.12691960411E+03  0.27344836766E+03  0.00000000000E+00 0.  1.
         13    1    5    5    0    0  0.18758295604E+03  0.36562174704E+03  0.13837302985E+04  0.14434597903E+04  0.00000000000E+00 0. -1.
        -13    1    5    5    0    0 -0.62157925000E+01  0.35244081776E+02  0.77588706924E+02  0.85444653541E+02  0.00000000000E+00 0.  1.
          2    1    6    6  503    0  0.65334592157E+02 -0.40210341825E+03  0.18501751340E+04  0.18944930178E+04  0.00000000000E+00 0. -1.
         -2    1    6    6    0  503 -0.16358811295E+02 -0.51286078934E+02  0.37356459669E+03  0.37742334387E+03  0.00000000000E+00 0.  1.
<mgrwt>
<rscale>  0 0.20346243E+04</rscale>
<asrwt>0</asrwt>
<pdfrwt beam="1">  1        2 0.58722240E+00 0.20346243E+04</pdfrwt>
<pdfrwt beam="2">  1       -2 0.41713741E-01 0.20346243E+04</pdfrwt>
<totfact> 0.24244808E+00</totfact>
</mgrwt>
</event>
<event>
12    3  0.8686020E-008  0.1263522E+04  0.7818608E-02  0.9059003E-01
          1   -1    0    0  501    0  0.00000000000E+00  0.00000000000E+00  0.10601224989E+04  0.10601224989E+04  0.00000000000E+00 0. -1.
         -1   -1    0    0    0  501 -0.00000000000E+00 -0.00000000000E+00 -0.37648692712E+03  0.37648692712E+03  0.00000000000E+00 0.  1.
         23    2    1    2    0    0  0.70896556552E+02 -0.22397344156E+03  0.36911962912E+03  0.44719079619E+03  0.92411489251E+02 0.  0.
        254    2    1    2    0    0 -0.70896556552E+02  0.22397344156E+03  0.31451594270E+03  0.98941862986E+03  0.90820621152E+03 0.  0.
         23    2    4    4    0    0  0.40522161441E+03  0.31990520534E+02  0.12909848772E+03  0.43615298358E+03  0.91296524399E+02 0.  0.
         23    2    4    4    0    0 -0.47611817096E+03  0.19198292103E+03  0.18541745498E+03  0.55326564627E+03  0.90428358623E+02 0.  0.
          1    1    3    3  502    0  0.82742993334E+02 -0.12706518748E+03  0.18893846297E+03  0.24225958722E+03  0.00000000000E+00 0. -1.
         -1    1    3    3    0  502 -0.11846436782E+02 -0.96908254086E+02  0.18018116615E+03  0.20493120897E+03  0.00000000000E+00 0.  1.
         13    1    5    5    0    0  0.24685201161E+03 -0.24535723325E+02  0.67715147757E+02  0.25714443139E+03  0.00000000000E+00 0.  1.
        -13    1    5    5    0    0  0.15836960280E+03  0.56526243860E+02  0.61383339963E+02  0.17900855220E+03  0.00000000000E+00 0. -1.
          2    1    6    6  503    0 -0.40136955103E+03  0.18670127233E+03  0.18086842413E+03  0.47819271056E+03  0.00000000000E+00 0.  1.
         -2    1    6    6    0  503 -0.74748619933E+02  0.52816487029E+01  0.45490308484E+01  0.75072935713E+02  0.00000000000E+00 0. -1.
<mgrwt>
<rscale>  0 0.12635225E+04</rscale>
<asrwt>0</asrwt>
<pdfrwt beam="1">  1        1 0.16309577E+00 0.12635225E+04</pdfrwt>
<pdfrwt beam="2">  1       -1 0.57921066E-01 0.12635225E+04</pdfrwt>
<totfact> 0.40439134E+01</totfact>
</mgrwt>
</event>
<event>
12    3  0.8686020E-008  0.1111951E+04  0.7818608E-02  0.9193621E-01
         -2   -1    0    0    0  501 -0.00000000000E+00  0.00000000000E+00  0.11853607943E+03  0.11853607943E+03  0.00000000000E+00 0.  1.
          2   -1    0    0  501    0  0.00000000000E+00 -0.00000000000E+00 -0.26077202643E+04  0.26077202643E+04  0.00000000000E+00 0. -1.
         23    2    1    2    0    0 -0.10897600573E+03  0.10594434563E+03 -0.23202228380E+03  0.29248790009E+03  0.92816255690E+02 0.  0.
        254    2    1    2    0    0  0.10897600573E+03 -0.10594434563E+03 -0.22571619011E+04  0.24337684436E+04  0.89741239986E+03 0.  0.
         23    2    4    4    0    0  0.17089733299E+03  0.23976758964E+03 -0.25926347107E+03  0.40320051021E+03  0.93052181784E+02 0.  0.
         23    2    4    4    0    0 -0.61921327261E+02 -0.34571193527E+03 -0.19978984300E+04  0.20305679334E+04  0.90868051204E+02 0.  0.
          1    1    3    3  502    0 -0.48886814506E+02  0.46044381043E+02 -0.18199921467E+03  0.19399412310E+03  0.00000000000E+00 0. -1.
         -1    1    3    3    0  502 -0.60089191224E+02  0.59899964583E+02 -0.50023069136E+02  0.98493776985E+02  0.00000000000E+00 0.  1.
         13    1    5    5    0    0  0.63576382912E+02  0.13717036599E+03 -0.82070937662E+02  0.17202704607E+03  0.00000000000E+00 0. -1.
        -13    1    5    5    0    0  0.10732095008E+03  0.10259722365E+03 -0.17719253341E+03  0.23117346414E+03  0.00000000000E+00 0.  1.
          3    1    6    6  503    0 -0.12672364175E+01 -0.20370906382E+03 -0.12935087728E+04  0.13094517685E+04  0.00000000000E+00 0. -1.
         -3    1    6    6    0  503 -0.60654090844E+02 -0.14200287145E+03 -0.70438965714E+03  0.72111616493E+03  0.00000000000E+00 0.  1.
<mgrwt>
<rscale>  0 0.11119513E+04</rscale>
<asrwt>0</asrwt>
<pdfrwt beam="1">  1        2 0.40118772E+00 0.11119513E+04</pdfrwt>
<pdfrwt beam="2">  1       -2 0.18236320E-01 0.11119513E+04</pdfrwt>
<totfact> 0.75828222E+01</totfact>
</mgrwt>
</event>
<event>
12    3  0.8686020E-008  0.3891318E+04  0.7818608E-02  0.8026837E-01
         -1   -1    0    0    0  501 -0.00000000000E+00  0.00000000000E+00  0.13019396989E+04  0.13019396989E+04  0.00000000000E+00 0.  1.
          1   -1    0    0  501    0  0.00000000000E+00 -0.00000000000E+00 -0.29076534977E+04  0.29076534977E+04  0.00000000000E+00 0. -1.
         23    2    1    2    0    0 -0.12108260435E+04  0.13131088576E+04 -0.12419193971E+04  0.21773684482E+04  0.90636586560E+02 0.  0.
        254    2    1    2    0    0  0.12108260435E+04 -0.13131088576E+04 -0.36379440174E+03  0.20322247484E+04  0.89846340048E+03 0.  0.
         23    2    4    4    0    0  0.11913135224E+04 -0.11132627552E+04 -0.31394538141E+02  0.16333754795E+04  0.91367221259E+02 0.  0.
         23    2    4    4    0    0  0.19512521040E+02 -0.19984610233E+03 -0.33239986360E+03  0.39884926892E+03  0.90949804292E+02 0.  0.
          3    1    3    3  502    0 -0.55697183195E+03  0.64711949559E+03 -0.63548110103E+03  0.10643389934E+04  0.00000000000E+00 0. -1.
         -3    1    3    3    0  502 -0.65385421151E+03  0.66598936197E+03 -0.60643829607E+03  0.11130294547E+04  0.00000000000E+00 0.  1.
         13    1    5    5    0    0  0.42971744538E+03 -0.46181282258E+03 -0.57266478220E+01  0.63084147015E+03  0.00000000000E+00 0.  1.
        -13    1    5    5    0    0  0.76159607704E+03 -0.65144993265E+03 -0.25667890319E+02  0.10025340093E+04  0.00000000000E+00 0. -1.
          2    1    6    6  503    0  0.20697694516E+02 -0.16619338273E+03 -0.19343486812E+03  0.25586262569E+03  0.00000000000E+00 0. -1.
         -2    1    6    6    0  503 -0.11851734757E+01 -0.33652719607E+02 -0.13896499548E+03  0.14298664323E+03  0.00000000000E+00 0.  1.
<mgrwt>
<rscale>  0 0.38913183E+04</rscale>
<asrwt>0</asrwt>
<pdfrwt beam="1">  1        1 0.44733130E+00 0.38913183E+04</pdfrwt>
<pdfrwt beam="2">  1       -1 0.20029842E+00 0.38913183E+04</pdfrwt>
<totfact> 0.82472362E-02</totfact>
</mgrwt>
</event>
<event>
12    3  0.8686020E-008  0.2733066E+04  0.7818608E-02  0.8324355E-01
          1   -1    0    0  501    0  0.00000000000E+00  0.00000000000E+00  0.28657393970E+04  0.28657393970E+04  0.00000000000E+00 0. -1.
         -1   -1    0    0    0  501 -0.00000000000E+00 -0.00000000000E+00 -0.65163360439E+03  0.65163360439E+03  0.00000000000E+00 0.  1.
         23    2    1    2    0    0  0.22582957705E+03  0.99160146988E+03  0.18440903159E+04  0.21080827719E+04  0.95243933741E+02 0.  0.
        254    2    1    2    0    0 -0.22582957705E+03 -0.99160146988E+03  0.37001547667E+03  0.14092902295E+04  0.90272643975E+03 0.  0.
         23    2    4    4    0    0 -0.19515428953E+03 -0.90756521168E+02  0.44257035772E+03  0.50040847811E+03  0.90654181212E+02 0.  0.
         23    2    4    4    0    0 -0.30675287522E+02 -0.90084494871E+03 -0.72554881057E+02  0.90888175138E+03  0.91319397426E+02 0.  0.
          3    1    3    3  502    0  0.10098590476E+03  0.25553627895E+03  0.48326919002E+03  0.55591910639E+03  0.00000000000E+00 0. -1.
         -3    1    3    3    0  502  0.12484367229E+03  0.73606519092E+03  0.13608211259E+04  0.15521636655E+04  0.00000000000E+00 0.  1.
         13    1    5    5    0    0 -0.14205514934E+03 -0.35988092496E+02  0.21336609584E+03  0.25884338723E+03  0.00000000000E+00 0. -1.
        -13    1    5    5    0    0 -0.53099140184E+02 -0.54768428672E+02  0.22920426188E+03  0.24156509088E+03  0.00000000000E+00 0.  1.
          4    1    6    6  503    0 -0.28393913034E+02 -0.74950311289E+03 -0.94386686215E+02  0.75595633277E+03  0.00000000000E+00 0. -1.
         -4    1    6    6    0  503 -0.22813744874E+01 -0.15134183582E+03  0.21831805158E+02  0.15292541861E+03  0.00000000000E+00 0.  1.
<mgrwt>
<rscale>  0 0.27330657E+04</rscale>
<asrwt>0</asrwt>
<pdfrwt beam="1">  1        1 0.44088298E+00 0.27330657E+04</pdfrwt>
<pdfrwt beam="2">  1       -1 0.10025133E+00 0.27330657E+04</pdfrwt>
<totfact> 0.61667858E-01</totfact>
</mgrwt>
</event>
<event>
12    3  0.8686020E-008  0.2498530E+04  0.7818608E-02  0.8403510E-01
         -2   -1    0    0    0  501 -0.00000000000E+00  0.00000000000E+00  0.16150491746E+04  0.16150491746E+04  0.00000000000E+00 0.  1.
          2   -1    0    0  501    0  0.00000000000E+00 -0.00000000000E+00 -0.96632517094E+03  0.96632517094E+03  0.00000000000E+00 0. -1.
         23    2    1    2    0    0 -0.57548762203E+03 -0.22525319176E+03  0.12232980124E+04  0.13737010671E+04  0.93121379157E+02 0.  0.
        254    2    1    2    0    0  0.57548762203E+03  0.22525319176E+03 -0.57457400876E+03  0.12076732784E+04  0.86395280671E+03 0.  0.
         23    2    4    4    0    0  0.73926918115E+03  0.35714980920E+03 -0.50619277831E+03  0.96907048556E+03  0.93763365804E+02 0.  0.
         23    2    4    4    0    0 -0.16378155911E+03 -0.13189661744E+03 -0.68381230450E+02  0.23860279281E+03  0.89633605643E+02 0.  0.
          4    1    3    3  502    0 -0.31755344776E+03 -0.77563355913E+02  0.67670654197E+03  0.75152379224E+03  0.00000000000E+00 0. -1.
         -4    1    3    3    0  502 -0.25793417427E+03 -0.14768983585E+03  0.54659147040E+03  0.62217727489E+03  0.00000000000E+00 0.  1.
         13    1    5    5    0    0  0.89978885486E+02  0.14462851540E+02 -0.41067319983E+02  0.99959485186E+02  0.00000000000E+00 0. -1.
        -13    1    5    5    0    0  0.64929029566E+03  0.34268695766E+03 -0.46512545832E+03  0.86911100037E+03  0.00000000000E+00 0.  1.
          1    1    6    6  503    0 -0.94138880617E+02 -0.19330069871E+02 -0.32633756593E+02  0.10149257369E+03  0.00000000000E+00 0. -1.
         -1    1    6    6    0  503 -0.69642678498E+02 -0.11256654756E+03 -0.35747473857E+02  0.13711021912E+03  0.00000000000E+00 0.  1.
<mgrwt>
<rscale>  0 0.24985297E+04</rscale>
<asrwt>0</asrwt>
<pdfrwt beam="1">  1        2 0.14866541E+00 0.24985297E+04</pdfrwt>
<pdfrwt beam="2">  1       -2 0.24846910E+00 0.24985297E+04</pdfrwt>
<totfact> 0.15514298E+00</totfact>
</mgrwt>
</event>
<event>
12    3  0.8686020E-008  0.1183662E+04  0.7818608E-02  0.9127279E-01
         -2   -1    0    0    0  501 -0.00000000000E+00  0.00000000000E+00  0.83750359054E+03  0.83750359054E+03  0.00000000000E+00 0.  1.
          2   -1    0    0  501    0  0.00000000000E+00 -0.00000000000E+00 -0.41822380619E+03  0.41822380619E+03  0.00000000000E+00 0. -1.
         23    2    1    2    0    0 -0.13798429589E+03 -0.18033571954E+03  0.14452004369E+03  0.28362549363E+03  0.89424493016E+02 0.  0.
        254    2    1    2    0    0  0.13798429589E+03  0.18033571954E+03  0.27475974065E+03  0.97210190311E+03  0.90439402767E+03 0.  0.
         23    2    4    4    0    0 -0.31632772159E+03 -0.14860081702E+03  0.66408094202E+02  0.36678783452E+03  0.89318812745E+02 0.  0.
         23    2    4    4    0    0  0.45431201748E+03  0.32893653656E+03  0.20835164645E+03  0.60531406859E+03  0.91630010075E+02 0.  0.
          3    1    3    3  502    0 -0.74735537699E+02 -0.77791479615E+02  0.18809055177E+02  0.10950203401E+03  0.00000000000E+00 0. -1.
         -3    1    3    3    0  502 -0.63248758192E+02 -0.10254423992E+03  0.12571098852E+03  0.17412345962E+03  0.00000000000E+00 0.  1.
         13    1    5    5    0    0 -0.31641844619E+02 -0.45881184925E+02 -0.45847150744E+01  0.55922348604E+02  0.00000000000E+00 0.  1.
        -13    1    5    5    0    0 -0.28468587697E+03 -0.10271963209E+03  0.70992809276E+02  0.31086548591E+03  0.00000000000E+00 0. -1.
          2    1    6    6  503    0  0.42230745473E+03  0.33035167158E+03  0.19946801998E+03  0.57206931768E+03  0.00000000000E+00 0. -1.
         -2    1    6    6    0  503  0.32004562751E+02 -0.14151350194E+01  0.88836264677E+01  0.33244750912E+02  0.00000000000E+00 0.  1.
<mgrwt>
<rscale>  0 0.11836620E+04</rscale>
<asrwt>0</asrwt>
<pdfrwt beam="1">  1        2 0.64342124E-01 0.11836620E+04</pdfrwt>
<pdfrwt beam="2">  1       -2 0.12884671E+00 0.11836620E+04</pdfrwt>
<totfact> 0.33154369E+01</totfact>
</mgrwt>
</event>
<event>
12    3  0.8686020E-008  0.2302822E+04  0.7818608E-02  0.8476809E-01
         -2   -1    0    0    0  501 -0.00000000000E+00  0.00000000000E+00  0.15974141016E+04  0.15974141016E+04  0.00000000000E+00 0.  1.
          2   -1    0    0  501    0  0.00000000000E+00 -0.00000000000E+00 -0.82993354397E+03  0.82993354397E+03  0.00000000000E+00 0. -1.
         23    2    1    2    0    0  0.43432563892E+03 -0.74707062259E+03 -0.14546797409E+03  0.88140236091E+03  0.94635693934E+02 0.  0.
        254    2    1    2    0    0 -0.43432563892E+03  0.74707062259E+03  0.91294853168E+03  0.15459452846E+04  0.89984361185E+03 0.  0.
         23    2    4    4    0    0 -0.56582161969E+03  0.84730998097E+03  0.88955829938E+03  0.13555678132E+04  0.90342786885E+02 0.  0.
         23    2    4    4    0    0  0.13149598077E+03 -0.10023935838E+03  0.23390232300E+02  0.19037747138E+03  0.91418579710E+02 0.  0.
          3    1    3    3  502    0  0.20245327483E+03 -0.41480471751E+03 -0.11121889670E+03  0.47478408265E+03  0.00000000000E+00 0. -1.
         -3    1    3    3    0  502  0.23187236409E+03 -0.33226590508E+03 -0.34249077383E+02  0.40661827825E+03  0.00000000000E+00 0.  1.
         13    1    5    5    0    0 -0.25998872528E+03  0.47030528065E+03  0.46259874936E+03  0.70906896505E+03  0.00000000000E+00 0.  1.
        -13    1    5    5    0    0 -0.30583289441E+03  0.37700470031E+03  0.42695955002E+03  0.64649884819E+03  0.00000000000E+00 0. -1.
          3    1    6    6  503    0  0.37785913402E+02  0.14378152187E+02 -0.38446511694E+00  0.40430858578E+02  0.00000000000E+00 0. -1.
         -3    1    6    6    0  503  0.93710067369E+02 -0.11461751056E+03  0.23774697417E+02  0.14994661280E+03  0.00000000000E+00 0.  1.
<mgrwt>
<rscale>  0 0.23028222E+04</rscale>
<asrwt>0</asrwt>
<pdfrwt beam="1">  1        2 0.12768208E+00 0.23028222E+04</pdfrwt>
<pdfrwt beam="2">  1       -2 0.24575601E+00 0.23028222E+04</pdfrwt>
<totfact> 0.20278938E+00</totfact>
</mgrwt>
</event>
<event>
12    3  0.8686020E-008  0.2541573E+04  0.7818608E-02  0.8388323E-01
         -1   -1    0    0    0  501 -0.00000000000E+00  0.00000000000E+00  0.16272854732E+04  0.16272854732E+04  0.00000000000E+00 0.  1.
          1   -1    0    0  501    0  0.00000000000E+00 -0.00000000000E+00 -0.99238777590E+03  0.99238777590E+03  0.00000000000E+00 0. -1.
         23    2    1    2    0    0  0.31312293353E+03 -0.10610635456E+04  0.19548411996E+03  0.11272687484E+04  0.92838411541E+02 0.  0.
        254    2    1    2    0    0 -0.31312293353E+03  0.10610635456E+04  0.43941357734E+03  0.14924045007E+04  0.90015836516E+03 0.  0.
         23    2    4    4    0    0 -0.47636725367E+03  0.87183973524E+03  0.22500771558E+02  0.99779275259E+03  0.89743011308E+02 0.  0.
         23    2    4    4    0    0  0.16324432014E+03  0.18922381037E+03  0.41691280579E+03  0.49461174809E+03  0.91488443306E+02 0.  0.
          4    1    3    3  502    0  0.43535965317E+02 -0.11383326032E+03  0.50010542027E+02  0.13173627346E+03  0.00000000000E+00 0.  1.
         -4    1    3    3    0  502  0.26958696821E+03 -0.94723028529E+03  0.14547357793E+03  0.99553247495E+03  0.00000000000E+00 0. -1.
         13    1    5    5    0    0 -0.10899698821E+03  0.12985803189E+03 -0.74305813701E-02  0.16953893931E+03  0.00000000000E+00 0.  1.
        -13    1    5    5    0    0 -0.36737026545E+03  0.74198170335E+03  0.22508202139E+02  0.82825381328E+03  0.00000000000E+00 0. -1.
          3    1    6    6  503    0  0.11190423688E+03  0.88504614174E+02  0.29880730173E+03  0.33112147095E+03  0.00000000000E+00 0. -1.
         -3    1    6    6    0  503  0.51340083258E+02  0.10071919619E+03  0.11810550406E+03  0.16349027714E+03  0.00000000000E+00 0.  1.
<mgrwt>
<rscale>  0 0.25415729E+04</rscale>
<asrwt>0</asrwt>
<pdfrwt beam="1">  1        1 0.15267504E+00 0.25415729E+04</pdfrwt>
<pdfrwt beam="2">  1       -1 0.25035161E+00 0.25415729E+04</pdfrwt>
<totfact> 0.94170673E-01</totfact>
</mgrwt>
</event>
<event>
12    3  0.8686020E-008  0.2879050E+04  0.7818608E-02  0.8279138E-01
         -2   -1    0    0    0  501 -0.00000000000E+00  0.00000000000E+00  0.20224359590E+04  0.20224359590E+04  0.00000000000E+00 0.  1.
          2   -1    0    0  501    0  0.00000000000E+00 -0.00000000000E+00 -0.10246221061E+04  0.10246221061E+04  0.00000000000E+00 0. -1.
         23    2    1    2    0    0  0.31840769872E+03 -0.11844551909E+04  0.89722532756E+03  0.15224845315E+04  0.92888634922E+02 0.  0.
        254    2    1    2    0    0 -0.31840769872E+03  0.11844551909E+04  0.10058852538E+03  0.15245735335E+04  0.89993824558E+03 0.  0.
         23    2    4    4    0    0 -0.51912114340E+03  0.11081958126E+04  0.24380794667E+03  0.12510989137E+04  0.90672246683E+02 0.  0.
         23    2    4    4    0    0  0.20071344468E+03  0.76259378299E+02 -0.14321942129E+03  0.27347461987E+03  0.90416731996E+02 0.  0.
          4    1    3    3  502    0  0.75445054617E+02 -0.24230738178E+03  0.14203112367E+03  0.29082239188E+03  0.00000000000E+00 0. -1.
         -4    1    3    3    0  502  0.24296264410E+03 -0.94214780914E+03  0.75519420389E+03  0.12316621397E+04  0.00000000000E+00 0.  1.
         13    1    5    5    0    0 -0.30063511819E+03  0.54021338050E+03  0.10848747015E+03  0.62767945796E+03  0.00000000000E+00 0. -1.
        -13    1    5    5    0    0 -0.21848602520E+03  0.56798243212E+03  0.13532047652E+03  0.62341945572E+03  0.00000000000E+00 0.  1.
          3    1    6    6  503    0  0.26307310081E+02  0.49913519748E+02 -0.39194390395E+02  0.68699594291E+02  0.00000000000E+00 0. -1.
         -3    1    6    6    0  503  0.17440613460E+03  0.26345858551E+02 -0.10402503090E+03  0.20477502558E+03  0.00000000000E+00 0.  1.
<mgrwt>
<rscale>  0 0.28790503E+04</rscale>
<asrwt>0</asrwt>
<pdfrwt beam="1">  1        2 0.15763417E+00 0.28790503E+04</pdfrwt>
<pdfrwt beam="2">  1       -2 0.31114399E+00 0.28790503E+04</pdfrwt>
<totfact> 0.57017064E-01</totfact>
</mgrwt>
</event>
<event>
12    3  0.8686020E-008  0.1843302E+04  0.7818608E-02  0.8683605E-01
         -1   -1    0    0    0  501 -0.00000000000E+00  0.00000000000E+00  0.89300897723E+03  0.89300897723E+03  0.00000000000E+00 0.  1.
          1   -1    0    0  501    0  0.00000000000E+00 -0.00000000000E+00 -0.95121200198E+03  0.95121200198E+03  0.00000000000E+00 0. -1.
         23    2    1    2    0    0 -0.41038374180E+03 -0.39958814165E+03 -0.42134496963E+03  0.71725998940E+03  0.94046852602E+02 0.  0.
        254    2    1    2    0    0  0.41038374180E+03  0.39958814165E+03  0.36314194488E+03  0.11269609898E+04  0.90004638876E+03 0.  0.
         23    2    4    4    0    0  0.26991089346E+03 -0.23173212311E+03  0.29298848993E+03  0.46983811693E+03  0.91399855603E+02 0.  0.
         23    2    4    4    0    0  0.14047284834E+03  0.63132026475E+03  0.70153454954E+02  0.65712287287E+03  0.92687998152E+02 0.  0.
          2    1    3    3  502    0 -0.36964588754E+03 -0.34351628678E+03 -0.40236927694E+03  0.64540108188E+03  0.00000000000E+00 0. -1.
         -2    1    3    3    0  502 -0.40737854260E+02 -0.56071854867E+02 -0.18975692689E+02  0.71858907527E+02  0.00000000000E+00 0.  1.
         13    1    5    5    0    0  0.15782511582E+03 -0.16275508164E+03  0.13364592011E+03  0.26317145694E+03  0.00000000000E+00 0.  1.
        -13    1    5    5    0    0  0.11208577763E+03 -0.68977041466E+02  0.15934256981E+03  0.20666665999E+03  0.00000000000E+00 0. -1.
          3    1    6    6  503    0  0.38107652316E+02  0.33861727585E+03  0.65548630506E+02  0.34700212626E+03  0.00000000000E+00 0.  1.
         -3    1    6    6    0  503  0.10236519603E+03  0.29270298891E+03  0.46048244477E+01  0.31012074662E+03  0.00000000000E+00 0. -1.
<mgrwt>
<rscale>  0 0.18433023E+04</rscale>
<asrwt>0</asrwt>
<pdfrwt beam="1">  1        1 0.14634031E+00 0.18433023E+04</pdfrwt>
<pdfrwt beam="2">  1       -1 0.13738600E+00 0.18433023E+04</pdfrwt>
<totfact> 0.68462554E+00</totfact>
</mgrwt>
</event>
<event>
12    3  0.8686020E-008  0.1262618E+04  0.7818608E-02  0.9059746E-01
         -1   -1    0    0    0  501 -0.00000000000E+00  0.00000000000E+00  0.29045614569E+03  0.29045614569E+03  0.00000000000E+00 0.  1.
          1   -1    0    0  501    0  0.00000000000E+00 -0.00000000000E+00 -0.13721567710E+04  0.13721567710E+04  0.00000000000E+00 0. -1.
         23    2    1    2    0    0 -0.81700254399E+02  0.19812008334E+03 -0.54177296381E+03  0.59075187143E+03  0.97689970246E+02 0.  0.
        254    2    1    2    0    0  0.81700254399E+02 -0.19812008334E+03 -0.53992766153E+03  0.10718610453E+04  0.90079838018E+03 0.  0.
         23    2    4    4    0    0 -0.31349127797E+03 -0.29052284427E+03 -0.67698892591E+02  0.44226019564E+03  0.91272318857E+02 0.  0.
         23    2    4    4    0    0  0.39519153237E+03  0.92402760924E+02 -0.47222876894E+03  0.62960084964E+03  0.93180481748E+02 0.  0.
          3    1    3    3  502    0 -0.87165458891E+02  0.15463453034E+03 -0.49849868684E+03  0.52916027437E+03  0.00000000000E+00 0. -1.
         -3    1    3    3    0  502  0.54652044925E+01  0.43485553002E+02 -0.43274276974E+02  0.61591597054E+02  0.00000000000E+00 0.  1.
         13    1    5    5    0    0 -0.10908539815E+03 -0.83287821348E+02  0.18968960702E+02  0.13855073707E+03  0.00000000000E+00 0. -1.
        -13    1    5    5    0    0 -0.20440587982E+03 -0.20723502292E+03 -0.86667853293E+02  0.30370945857E+03  0.00000000000E+00 0.  1.
          1    1    6    6  503    0  0.14154374336E+03 -0.77981247233E+00 -0.20854227265E+03  0.25204189904E+03  0.00000000000E+00 0. -1.
         -1    1    6    6    0  503  0.25364778901E+03  0.93182573397E+02 -0.26368649629E+03  0.37755895060E+03  0.00000000000E+00 0.  1.
<mgrwt>
<rscale>  0 0.12626185E+04</rscale>
<asrwt>0</asrwt>
<pdfrwt beam="1">  1        1 0.21110104E+00 0.12626185E+04</pdfrwt>
<pdfrwt beam="2">  1       -1 0.44685561E-01 0.12626185E+04</pdfrwt>
<totfact> 0.39284981E+01</totfact>
</mgrwt>
</event>
<event>
12    3  0.8686020E-008  0.1727910E+04  0.7818608E-02  0.8745604E-01
          1   -1    0    0  501    0  0.00000000000E+00  0.00000000000E+00  0.87908550582E+03  0.87908550582E+03  0.00000000000E+00 0. -1.
         -1   -1    0    0    0  501 -0.00000000000E+00 -0.00000000000E+00 -0.84908527843E+03  0.84908527843E+03  0.00000000000E+00 0.  1.
         23    2    1    2    0    0 -0.40175961182E+03  0.45661262739E+03 -0.12806360130E+03  0.62790828567E+03  0.89233693524E+02 0.  0.
        254    2    1    2    0    0  0.40175961182E+03 -0.45661262739E+03  0.15806382868E+03  0.11002624986E+04  0.90315420315E+03 0.  0.
         23    2    4    4    0    0  0.38848148605E+03  0.13274027587E+03  0.26176311743E+03  0.49481346316E+03  0.88218976610E+02 0.  0.
         23    2    4    4    0    0  0.13278125765E+02 -0.58935290325E+03 -0.10369928874E+03  0.60544903542E+03  0.91114427032E+02 0.  0.
          4    1    3    3  502    0 -0.20907921537E+03  0.26048181368E+03 -0.27466242323E+02  0.33514069885E+03  0.00000000000E+00 0. -1.
         -4    1    3    3    0  502 -0.19268039644E+03  0.19613081370E+03 -0.10059735898E+03  0.29276758682E+03  0.00000000000E+00 0.  1.
         13    1    5    5    0    0  0.32785410375E+03  0.11605183725E+03  0.17982413213E+03  0.39152657735E+03  0.00000000000E+00 0. -1.
        -13    1    5    5    0    0  0.60627382299E+02  0.16688438622E+02  0.81938985298E+02  0.10328688581E+03  0.00000000000E+00 0.  1.
          1    1    6    6  503    0 -0.32363361559E+02 -0.40662089687E+03 -0.79070620344E+02  0.41549982424E+03  0.00000000000E+00 0. -1.
         -1    1    6    6    0  503  0.45641487324E+02 -0.18273200638E+03 -0.24628668399E+02  0.18994921118E+03  0.00000000000E+00 0.  1.
<mgrwt>
<rscale>  0 0.17279104E+04</rscale>
<asrwt>0</asrwt>
<pdfrwt beam="1">  1        1 0.13524392E+00 0.17279104E+04</pdfrwt>
<pdfrwt beam="2">  1       -1 0.13062850E+00 0.17279104E+04</pdfrwt>
<totfact> 0.90077049E+00</totfact>
</mgrwt>
</event>
<event>
12    3  0.8686020E-008  0.4363627E+04  0.7818608E-02  0.7934956E-01
          1   -1    0    0  501    0  0.00000000000E+00  0.00000000000E+00  0.19863596788E+04  0.19863596788E+04  0.00000000000E+00 0. -1.
         -1   -1    0    0    0  501 -0.00000000000E+00 -0.00000000000E+00 -0.23965000306E+04  0.23965000306E+04  0.00000000000E+00 0.  1.
         23    2    1    2    0    0 -0.11707522036E+04  0.86928742841E+03  0.13048774817E+04  0.19588195349E+04  0.89148038284E+02 0.  0.
        254    2    1    2    0    0  0.11707522036E+04 -0.86928742841E+03 -0.17150178335E+04  0.24240401745E+04  0.89909023063E+03 0.  0.
         23    2    4    4    0    0  0.13494410423E+03 -0.11864654073E+03 -0.85854303557E+03  0.88188150122E+03  0.91279380870E+02 0.  0.
         23    2    4    4    0    0  0.10358080994E+04 -0.75064088767E+03 -0.85647479788E+03  0.15421586732E+04  0.91346225896E+02 0.  0.
          2    1    3    3  502    0 -0.27666692119E+03  0.18541951087E+03  0.25366785571E+03  0.41865542074E+03  0.00000000000E+00 0. -1.
         -2    1    3    3    0  502 -0.89408528245E+03  0.68386791754E+03  0.10512096260E+04  0.15401641142E+04  0.00000000000E+00 0.  1.
         13    1    5    5    0    0  0.70479512298E+02 -0.79358199287E+02 -0.67696872577E+03  0.68523845566E+03  0.00000000000E+00 0. -1.
        -13    1    5    5    0    0  0.64464591933E+02 -0.39288341446E+02 -0.18157430981E+03  0.19664304557E+03  0.00000000000E+00 0.  1.
          2    1    6    6  503    0  0.10024776093E+04 -0.71798157567E+03 -0.84264199886E+03  0.14934873412E+04  0.00000000000E+00 0. -1.
         -2    1    6    6    0  503  0.33330490085E+02 -0.32659312004E+02 -0.13832799026E+02  0.48671332001E+02  0.00000000000E+00 0.  1.
<mgrwt>
<rscale>  0 0.43636274E+04</rscale>
<asrwt>0</asrwt>
<pdfrwt beam="1">  1        1 0.30559380E+00 0.43636274E+04</pdfrwt>
<pdfrwt beam="2">  1       -1 0.36869231E+00 0.43636274E+04</pdfrwt>
<totfact> 0.26961181E-02</totfact>
</mgrwt>
</event>
<event>
12    3  0.8686020E-008  0.1942086E+04  0.7818608E-02  0.8634187E-01
          2   -1    0    0  501    0  0.00000000000E+00  0.00000000000E+00  0.44527516842E+03  0.44527516842E+03  0.00000000000E+00 0. -1.
         -2   -1    0    0    0  501 -0.00000000000E+00 -0.00000000000E+00 -0.21176210112E+04  0.21176210112E+04  0.00000000000E+00 0.  1.
         23    2    1    2    0    0 -0.67913930903E+03  0.83511447851E+02 -0.22477692952E+03  0.72611930914E+03  0.92305038167E+02 0.  0.
        254    2    1    2    0    0  0.67913930903E+03 -0.83511447851E+02 -0.14475689132E+04  0.18367768705E+04  0.90004952659E+03 0.  0.
         23    2    4    4    0    0  0.11656066230E+03  0.32451605590E+03 -0.82690460037E+03  0.90053909634E+03  0.91117437326E+02 0.  0.
         23    2    4    4    0    0  0.56257864674E+03 -0.40802750376E+03 -0.62066431286E+03  0.93623777413E+03  0.91300618031E+02 0.  0.
          3    1    3    3  502    0 -0.38240300886E+03  0.53008752284E+02 -0.78811815102E+02  0.39402194254E+03  0.00000000000E+00 0. -1.
         -3    1    3    3    0  502 -0.29673630017E+03  0.30502695567E+02 -0.14596511442E+03  0.33209736660E+03  0.00000000000E+00 0.  1.
         13    1    5    5    0    0  0.24519581265E+02  0.17480811924E+03 -0.34389717328E+03  0.38655446473E+03  0.00000000000E+00 0. -1.
        -13    1    5    5    0    0  0.92041081032E+02  0.14970793666E+03 -0.48300742710E+03  0.51398463161E+03  0.00000000000E+00 0.  1.
          1    1    6    6  503    0  0.42747944657E+03 -0.26906938026E+03 -0.47959630697E+03  0.69652683100E+03  0.00000000000E+00 0. -1.
         -1    1    6    6    0  503  0.13509920016E+03 -0.13895812349E+03 -0.14106800589E+03  0.23971094313E+03  0.00000000000E+00 0.  1.
<mgrwt>
<rscale>  0 0.19420855E+04</rscale>
<asrwt>0</asrwt>
<pdfrwt beam="1">  1        2 0.68503873E-01 0.19420855E+04</pdfrwt>
<pdfrwt beam="2">  1       -2 0.32578785E+00 0.19420855E+04</pdfrwt>
<totfact> 0.14515865E+00</totfact>
</mgrwt>
</event>
<event>
12    3  0.8686020E-008  0.1890619E+04  0.7818608E-02  0.8659540E-01
         -1   -1    0    0    0  501 -0.00000000000E+00  0.00000000000E+00  0.88908759792E+03  0.88908759792E+03  0.00000000000E+00 0.  1.
          1   -1    0    0  501    0  0.00000000000E+00 -0.00000000000E+00 -0.10050868668E+04  0.10050868668E+04  0.00000000000E+00 0. -1.
         23    2    1    2    0    0 -0.11537361652E+03  0.66142070864E+03 -0.32158897495E+03  0.74999902893E+03  0.91053003181E+02 0.  0.
        254    2    1    2    0    0  0.11537361652E+03 -0.66142070864E+03  0.20558970612E+03  0.11441754357E+04  0.90337250085E+03 0.  0.
         23    2    4    4    0    0 -0.15767093502E+03 -0.31781338005E+03  0.49104125283E+03  0.61262605398E+03  0.91234323313E+02 0.  0.
         23    2    4    4    0    0  0.27304455154E+03 -0.34360732859E+03 -0.28545154670E+03  0.53154938176E+03  0.91884908184E+02 0.  0.
          2    1    3    3  502    0 -0.65983309890E+02  0.38716585724E+03 -0.23726859854E+03  0.45885464589E+03  0.00000000000E+00 0. -1.
         -2    1    3    3    0  502 -0.49390306629E+02  0.27425485139E+03 -0.84320376415E+02  0.29114438305E+03  0.00000000000E+00 0.  1.
         13    1    5    5    0    0 -0.95403634841E+02 -0.11613126998E+03  0.25481677190E+03  0.29583764576E+03  0.00000000000E+00 0. -1.
        -13    1    5    5    0    0 -0.62267300176E+02 -0.20168211007E+03  0.23622448093E+03  0.31678840822E+03  0.00000000000E+00 0.  1.
          3    1    6    6  503    0  0.11876449137E+03 -0.21628171089E+03 -0.13509211123E+03  0.28130528149E+03  0.00000000000E+00 0. -1.
         -3    1    6    6    0  503  0.15428006016E+03 -0.12732561770E+03 -0.15035943547E+03  0.25024410028E+03  0.00000000000E+00 0.  1.
<mgrwt>
<rscale>  0 0.18906192E+04</rscale>
<asrwt>0</asrwt>
<pdfrwt beam="1">  1        1 0.15462875E+00 0.18906192E+04</pdfrwt>
<pdfrwt beam="2">  1       -1 0.13678271E+00 0.18906192E+04</pdfrwt>
<totfact> 0.62528891E+00</totfact>
</mgrwt>
</event>
<event>
12    3  0.8686020E-008  0.1137405E+04  0.7818608E-02  0.9169482E-01
          2   -1    0    0  501    0  0.00000000000E+00  0.00000000000E+00  0.60310811807E+03  0.60310811807E+03  0.00000000000E+00 0. -1.
         -2   -1    0    0    0  501 -0.00000000000E+00 -0.00000000000E+00 -0.53625999353E+03  0.53625999353E+03  0.00000000000E+00 0.  1.
         23    2    1    2    0    0 -0.12028489344E+03  0.14220822446E+03  0.71016319958E+02  0.21976712711E+03  0.92534521992E+02 0.  0.
        254    2    1    2    0    0  0.12028489344E+03 -0.14220822446E+03 -0.41681954177E+01  0.91960098450E+03  0.90053148870E+03 0.  0.
         23    2    4    4    0    0 -0.15239633901E+03  0.30787794408E+03 -0.11743791272E+03  0.37382734072E+03  0.89116467210E+02 0.  0.
         23    2    4    4    0    0  0.27268123245E+03 -0.45008616855E+03  0.11326971730E+03  0.54577364378E+03  0.90034591875E+02 0.  0.
          1    1    3    3  502    0 -0.40550786263E+01  0.49403527213E+02  0.48477558048E+02  0.69334160398E+02  0.00000000000E+00 0. -1.
         -1    1    3    3    0  502 -0.11622981482E+03  0.92804697251E+02  0.22538761910E+02  0.15043296671E+03  0.00000000000E+00 0.  1.
         13    1    5    5    0    0 -0.67984917644E+02  0.17128904673E+03 -0.18471559655E+02  0.18521092050E+03  0.00000000000E+00 0.  1.
        -13    1    5    5    0    0 -0.84411421365E+02  0.13658889736E+03 -0.98966353061E+02  0.18861642022E+03  0.00000000000E+00 0. -1.
          3    1    6    6  503    0  0.10240882515E+03 -0.24942851093E+03  0.74756651942E+02  0.27980476505E+03  0.00000000000E+00 0. -1.
         -3    1    6    6    0  503  0.17027240730E+03 -0.20065765761E+03  0.38513065357E+02  0.26596887873E+03  0.00000000000E+00 0.  1.
<mgrwt>
<rscale>  0 0.11374054E+04</rscale>
<asrwt>0</asrwt>
<pdfrwt beam="1">  1        2 0.92785864E-01 0.11374054E+04</pdfrwt>
<pdfrwt beam="2">  1       -2 0.82501538E-01 0.11374054E+04</pdfrwt>
<totfact> 0.62991830E+01</totfact>
</mgrwt>
</event>
<event>
12    3  0.8686020E-008  0.3588043E+04  0.7818608E-02  0.8093236E-01
          2   -1    0    0  501    0  0.00000000000E+00  0.00000000000E+00  0.43464721323E+04  0.43464721323E+04  0.00000000000E+00 0. -1.
         -2   -1    0    0    0  501 -0.00000000000E+00 -0.00000000000E+00 -0.74048865653E+03  0.74048865653E+03  0.00000000000E+00 0.  1.
         23    2    1    2    0    0  0.14705196021E+04  0.70869087898E+03  0.22529165056E+04  0.27836183181E+04  0.90705553065E+02 0.  0.
        254    2    1    2    0    0 -0.14705196021E+04 -0.70869087898E+03  0.13530669702E+04  0.23033424707E+04  0.89995869323E+03 0.  0.
         23    2    4    4    0    0 -0.11735218860E+04 -0.20160912559E+03  0.11911036071E+04  0.16870326912E+04  0.97732500678E+02 0.  0.
         23    2    4    4    0    0 -0.29699771614E+03 -0.50708175339E+03  0.16196336302E+03  0.61630977957E+03  0.90917904793E+02 0.  0.
          1    1    3    3  502    0  0.11669528661E+04  0.59707829900E+03  0.18373798455E+04  0.22570436822E+04  0.00000000000E+00 0. -1.
         -1    1    3    3    0  502  0.30356673608E+03  0.11161257998E+03  0.41553666007E+03  0.52657463585E+03  0.00000000000E+00 0.  1.
         13    1    5    5    0    0 -0.70039875904E+03 -0.74556455459E+02  0.72586139906E+03  0.10114305994E+04  0.00000000000E+00 0. -1.
        -13    1    5    5    0    0 -0.47312312696E+03 -0.12705267013E+03  0.46524220808E+03  0.67560209179E+03  0.00000000000E+00 0.  1.
          3    1    6    6  503    0 -0.24652583038E+03 -0.46540429367E+03  0.16143720384E+03  0.55085216928E+03  0.00000000000E+00 0. -1.
         -3    1    6    6    0  503 -0.50471885763E+02 -0.41677459720E+02  0.52615917217E+00  0.65457610289E+02  0.00000000000E+00 0.  1.
<mgrwt>
<rscale>  0 0.35880431E+04</rscale>
<asrwt>0</asrwt>
<pdfrwt beam="1">  1        2 0.66868801E+00 0.35880431E+04</pdfrwt>
<pdfrwt beam="2">  1       -2 0.11392133E+00 0.35880431E+04</pdfrwt>
<totfact> 0.84333752E-02</totfact>
</mgrwt>
</event>
<event>
12    3  0.8686020E-008  0.1145623E+04  0.7818608E-02  0.9161831E-01
          2   -1    0    0  501    0  0.00000000000E+00  0.00000000000E+00  0.27251207246E+04  0.27251207246E+04  0.00000000000E+00 0. -1.
         -2   -1    0    0    0  501 -0.00000000000E+00 -0.00000000000E+00 -0.12040301485E+03  0.12040301485E+03  0.00000000000E+00 0.  1.
         23    2    1    2    0    0 -0.15007006444E+03 -0.72985887931E+01  0.82996707060E+03  0.84990238103E+03  0.10447212720E+03 0.  0.
        254    2    1    2    0    0  0.15007006444E+03  0.72985887931E+01  0.17747506392E+04  0.19956213584E+04  0.90010581676E+03 0.  0.
         23    2    4    4    0    0  0.31192111537E+03 -0.18612710182E+03  0.16638035534E+04  0.17055771094E+04  0.93877213845E+02 0.  0.
         23    2    4    4    0    0 -0.16185105094E+03  0.19342569061E+03  0.11094708571E+03  0.29004424906E+03  0.90593322642E+02 0.  0.
          3    1    3    3  502    0 -0.16482738018E+03 -0.76438396257E+01  0.70426184572E+03  0.72333342303E+03  0.00000000000E+00 0. -1.
         -3    1    3    3    0  502  0.14757315742E+02  0.34525083259E+00  0.12570522488E+03  0.12656895800E+03  0.00000000000E+00 0.  1.
         13    1    5    5    0    0  0.21038105068E+03 -0.13130593795E+03  0.13150316320E+04  0.13382113544E+04  0.00000000000E+00 0. -1.
        -13    1    5    5    0    0  0.10154006470E+03 -0.54821163870E+02  0.34877192141E+03  0.36736575495E+03  0.00000000000E+00 0.  1.
          3    1    6    6  503    0 -0.10662512555E+03  0.10398013276E+03  0.18539769124E+02  0.15008167258E+03  0.00000000000E+00 0. -1.
         -3    1    6    6    0  503 -0.55225925388E+02  0.89445557853E+02  0.92407316590E+02  0.13996257648E+03  0.00000000000E+00 0.  1.
<mgrwt>
<rscale>  0 0.11456225E+04</rscale>
<asrwt>0</asrwt>
<pdfrwt beam="1">  1        2 0.41924930E+00 0.11456225E+04</pdfrwt>
<pdfrwt beam="2">  1       -2 0.18523543E-01 0.11456225E+04</pdfrwt>
<totfact> 0.62796549E+01</totfact>
</mgrwt>
</event>
<event>
12    3  0.8686020E-008  0.1471090E+04  0.7818608E-02  0.8903909E-01
          2   -1    0    0  501    0  0.00000000000E+00  0.00000000000E+00  0.11607919658E+04  0.11607919658E+04  0.00000000000E+00 0. -1.
         -2   -1    0    0    0  501 -0.00000000000E+00 -0.00000000000E+00 -0.46608393065E+03  0.46608393065E+03  0.00000000000E+00 0.  1.
         23    2    1    2    0    0 -0.35201607413E+03 -0.15189929833E+03  0.48976063771E+03  0.62866334237E+03  0.91451640269E+02 0.  0.
        254    2    1    2    0    0  0.35201607413E+03  0.15189929833E+03  0.20494739747E+03  0.99821255413E+03  0.89857451233E+03 0.  0.
         23    2    4    4    0    0  0.53899518113E+03  0.12009792792E+03 -0.15546824691E+03  0.58118116970E+03  0.93069106848E+02 0.  0.
         23    2    4    4    0    0 -0.18697910700E+03  0.31801370407E+02  0.36041564439E+03  0.41703138443E+03  0.89684030156E+02 0.  0.
          4    1    3    3  502    0 -0.91924651322E+02 -0.14729405773E+01  0.90781903420E+02  0.12920396690E+03  0.00000000000E+00 0. -1.
         -4    1    3    3    0  502 -0.26009142281E+03 -0.15042635775E+03  0.39897873429E+03  0.49945937547E+03  0.00000000000E+00 0.  1.
         13    1    5    5    0    0  0.69943055692E+02  0.48250490004E+02 -0.14829856200E+02  0.86255814065E+02  0.00000000000E+00 0. -1.
        -13    1    5    5    0    0  0.46905212544E+03  0.71847437917E+02 -0.14063839071E+03  0.49492535564E+03  0.00000000000E+00 0.  1.
          4    1    6    6  503    0 -0.45051311524E+02  0.12166140189E+02  0.26478175405E+02  0.53653792130E+02  0.00000000000E+00 0. -1.
         -4    1    6    6    0  503 -0.14192779547E+03  0.19635230218E+02  0.33393746898E+03  0.36337759230E+03  0.00000000000E+00 0.  1.
<mgrwt>
<rscale>  0 0.14710900E+04</rscale>
<asrwt>0</asrwt>
<pdfrwt beam="1">  1        2 0.17858338E+00 0.14710900E+04</pdfrwt>
<pdfrwt beam="2">  1       -2 0.71705220E-01 0.14710900E+04</pdfrwt>
<totfact> 0.34150574E+01</totfact>
</mgrwt>
</event>
<event>
12    3  0.8686020E-008  0.1670334E+04  0.7818608E-02  0.8778467E-01
          1   -1    0    0  501    0  0.00000000000E+00  0.00000000000E+00  0.14672120138E+04  0.14672120138E+04  0.00000000000E+00 0. -1.
         -1   -1    0    0    0  501 -0.00000000000E+00 -0.00000000000E+00 -0.47539407821E+03  0.47539407821E+03  0.00000000000E+00 0.  1.
         23    2    1    2    0    0 -0.30866638844E+03 -0.49918158167E+03  0.34084039192E+03  0.68555079236E+03  0.96698114267E+02 0.  0.
        254    2    1    2    0    0  0.30866638844E+03  0.49918158167E+03  0.65097754364E+03  0.12570552996E+04  0.90108771669E+03 0.  0.
         23    2    4    4    0    0  0.31953748608E+03 -0.26257727176E+02  0.64406503143E+03  0.72490617635E+03  0.88744163524E+02 0.  0.
         23    2    4    4    0    0 -0.10871097647E+02  0.52543930885E+03  0.69125122173E+01  0.53214912328E+03  0.83248174355E+02 0.  0.
          4    1    3    3  502    0 -0.18724329861E+03 -0.21696005199E+03  0.18434394032E+03  0.34075563879E+03  0.00000000000E+00 0. -1.
         -4    1    3    3    0  502 -0.12142308982E+03 -0.28222152968E+03  0.15649645160E+03  0.34479515356E+03  0.00000000000E+00 0.  1.
         13    1    5    5    0    0  0.11886644348E+03 -0.51778375173E+02  0.27526614430E+03  0.30427238080E+03  0.00000000000E+00 0. -1.
        -13    1    5    5    0    0  0.20067104261E+03  0.25520647997E+02  0.36879888712E+03  0.42063379555E+03  0.00000000000E+00 0.  1.
          4    1    6    6  503    0 -0.19008532195E+02  0.50491900692E+03  0.21425615337E+02  0.50573074342E+03  0.00000000000E+00 0.  1.
         -4    1    6    6    0  503  0.81374345483E+01  0.20520301925E+02 -0.14513103119E+02  0.26418379858E+02  0.00000000000E+00 0. -1.
<mgrwt>
<rscale>  0 0.16703340E+04</rscale>
<asrwt>0</asrwt>
<pdfrwt beam="1">  1        1 0.22572492E+00 0.16703340E+04</pdfrwt>
<pdfrwt beam="2">  1       -1 0.73137551E-01 0.16703340E+04</pdfrwt>
<totfact> 0.12392345E+01</totfact>
</mgrwt>
</event>
<event>
12    3  0.8686020E-008  0.1895345E+04  0.7818608E-02  0.8657177E-01
         -2   -1    0    0    0  501 -0.00000000000E+00  0.00000000000E+00  0.34728076850E+03  0.34728076850E+03  0.00000000000E+00 0.  1.
          2   -1    0    0  501    0  0.00000000000E+00 -0.00000000000E+00 -0.25860433650E+04  0.25860433650E+04  0.00000000000E+00 0. -1.
         23    2    1    2    0    0  0.70466618678E+03  0.19106763899E+03 -0.84548480341E+03  0.11208611534E+04  0.91781778563E+02 0.  0.
        254    2    1    2    0    0 -0.70466618678E+03 -0.19106763899E+03 -0.13932777931E+04  0.18124629801E+04  0.90040977792E+03 0.  0.
         23    2    4    4    0    0 -0.38978680108E+02  0.22408526835E+03 -0.76508908899E+03  0.80341680813E+03  0.91562593369E+02 0.  0.
         23    2    4    4    0    0 -0.66568750667E+03 -0.41515290733E+03 -0.62818870408E+03  0.10090461720E+04  0.89784944504E+02 0.  0.
          3    1    3    3  502    0  0.44561276113E+03  0.82780646130E+02 -0.48301527980E+03  0.66236480038E+03  0.00000000000E+00 0. -1.
         -3    1    3    3    0  502  0.25905342565E+03  0.10828699286E+03 -0.36246952361E+03  0.45849635299E+03  0.00000000000E+00 0.  1.
         13    1    5    5    0    0  0.25739473384E+02  0.11754820930E+03 -0.35954731973E+03  0.37914954454E+03  0.00000000000E+00 0. -1.
        -13    1    5    5    0    0 -0.64718153492E+02  0.10653705905E+03 -0.40554176926E+03  0.42426726359E+03  0.00000000000E+00 0.  1.
          4    1    6    6  503    0 -0.64689289917E+03 -0.38868094078E+03 -0.61669730360E+03  0.97460702900E+03  0.00000000000E+00 0. -1.
         -4    1    6    6    0  503 -0.18794607506E+02 -0.26471966552E+02 -0.11491400486E+02  0.34439142985E+02  0.00000000000E+00 0.  1.
<mgrwt>
<rscale>  0 0.18953450E+04</rscale>
<asrwt>0</asrwt>
<pdfrwt beam="1">  1        2 0.39785283E+00 0.18953450E+04</pdfrwt>
<pdfrwt beam="2">  1       -2 0.53427809E-01 0.18953450E+04</pdfrwt>
<totfact> 0.96046591E+00</totfact>
</mgrwt>
</event>
<event>
12    3  0.8686020E-008  0.2584965E+04  0.7818608E-02  0.8373326E-01
         -2   -1    0    0    0  501 -0.00000000000E+00  0.00000000000E+00  0.12663299406E+04  0.12663299406E+04  0.00000000000E+00 0.  1.
          2   -1    0    0  501    0  0.00000000000E+00 -0.00000000000E+00 -0.13191748905E+04  0.13191748905E+04  0.00000000000E+00 0. -1.
         23    2    1    2    0    0 -0.57072673892E+03 -0.48599382503E+03 -0.87632023448E+03  0.11566618823E+04  0.89501664928E+02 0.  0.
        254    2    1    2    0    0  0.57072673892E+03  0.48599382503E+03  0.82347528452E+03  0.14288429488E+04  0.89529973737E+03 0.  0.
         23    2    4    4    0    0  0.51247340519E+03  0.63382643548E+03  0.29877272075E+03  0.87296276291E+03  0.91836296849E+02 0.  0.
         23    2    4    4    0    0  0.58253333736E+02 -0.14783261045E+03  0.52470256377E+03  0.55588018593E+03  0.91880732916E+02 0.  0.
          3    1    3    3  502    0 -0.44021496593E+03 -0.41893189522E+03 -0.72232906691E+03  0.94395573517E+03  0.00000000000E+00 0. -1.
         -3    1    3    3    0  502 -0.13051177299E+03 -0.67061929814E+02 -0.15399116757E+03  0.21270614709E+03  0.00000000000E+00 0.  1.
         13    1    5    5    0    0  0.50874345606E+03  0.63707931048E+03  0.29728105608E+03  0.86779374175E+03  0.00000000000E+00 0. -1.
        -13    1    5    5    0    0  0.37299491227E+01 -0.32528749945E+01  0.14916646733E+01  0.51690211535E+01  0.00000000000E+00 0.  1.
          2    1    6    6  503    0 -0.13458718795E+02 -0.90009133571E+02  0.27951738839E+03  0.29396045933E+03  0.00000000000E+00 0. -1.
         -2    1    6    6    0  503  0.71712052531E+02 -0.57823476879E+02  0.24518517538E+03  0.26191972660E+03  0.00000000000E+00 0.  1.
<mgrwt>
<rscale>  0 0.25849647E+04</rscale>
<asrwt>0</asrwt>
<pdfrwt beam="1">  1        2 0.20294998E+00 0.25849647E+04</pdfrwt>
<pdfrwt beam="2">  1       -2 0.19481999E+00 0.25849647E+04</pdfrwt>
<totfact> 0.20536704E+00</totfact>
</mgrwt>
</event>
<event>
12    3  0.8686020E-008  0.1466025E+04  0.7818608E-02  0.8907366E-01
         -2   -1    0    0    0  501 -0.00000000000E+00  0.00000000000E+00  0.45163524749E+03  0.45163524749E+03  0.00000000000E+00 0.  1.
          2   -1    0    0  501    0  0.00000000000E+00 -0.00000000000E+00 -0.11896923649E+04  0.11896923649E+04  0.00000000000E+00 0. -1.
         23    2    1    2    0    0  0.28678650762E+02 -0.43627811172E+03 -0.11106433927E+03  0.46102952606E+03  0.95141372018E+02 0.  0.
        254    2    1    2    0    0 -0.28678650762E+02  0.43627811172E+03 -0.62699277816E+03  0.11802980864E+04  0.89934563601E+03 0.  0.
         23    2    4    4    0    0  0.19769492332E+03  0.52003447797E+03 -0.71186519510E+03  0.90779549013E+03  0.88438989812E+02 0.  0.
         23    2    4    4    0    0 -0.22637357408E+03 -0.83756366255E+02  0.84872416943E+02  0.27250259622E+03  0.93777469886E+02 0.  0.
          3    1    3    3  502    0  0.58969244716E+02 -0.18056449665E+03 -0.47469458988E+02  0.19579136552E+03  0.00000000000E+00 0. -1.
         -3    1    3    3    0  502 -0.30290593954E+02 -0.25571361507E+03 -0.63594880283E+02  0.26523816055E+03  0.00000000000E+00 0.  1.
         13    1    5    5    0    0  0.78721983828E+02  0.18292266443E+03 -0.32404188872E+03  0.38034326278E+03  0.00000000000E+00 0. -1.
        -13    1    5    5    0    0  0.11897293949E+03  0.33711181354E+03 -0.38782330638E+03  0.52745222735E+03  0.00000000000E+00 0.  1.
          4    1    6    6  503    0 -0.66327101452E+02 -0.30963763869E+02 -0.17574201189E+02  0.75278759337E+02  0.00000000000E+00 0.  1.
         -4    1    6    6    0  503 -0.16004647263E+03 -0.52792602386E+02  0.10244661813E+03  0.19722383688E+03  0.00000000000E+00 0. -1.
<mgrwt>
<rscale>  0 0.14660246E+04</rscale>
<asrwt>0</asrwt>
<pdfrwt beam="1">  1        2 0.18302959E+00 0.14660246E+04</pdfrwt>
<pdfrwt beam="2">  1       -2 0.69482347E-01 0.14660246E+04</pdfrwt>
<totfact> 0.35162592E+01</totfact>
</mgrwt>
</event>
<event>
12    3  0.8686020E-008  0.3585670E+04  0.7818608E-02  0.8093782E-01
          2   -1    0    0  501    0  0.00000000000E+00  0.00000000000E+00  0.17061022168E+04  0.17061022168E+04  0.00000000000E+00 0.  1.
         -2   -1    0    0    0  501 -0.00000000000E+00 -0.00000000000E+00 -0.18839768588E+04  0.18839768588E+04  0.00000000000E+00 0. -1.
         23    2    1    2    0    0  0.16677938605E+04 -0.70101826310E+02 -0.25964379246E+03  0.16917849424E+04  0.90943747320E+02 0.  0.
        254    2    1    2    0    0 -0.16677938605E+04  0.70101826310E+02  0.81769150443E+02  0.18982941331E+04  0.90021319403E+03 0.  0.
         23    2    4    4    0    0 -0.15339109555E+04 -0.10060677962E+03 -0.17467182779E+03  0.15497849984E+04  0.91207182813E+02 0.  0.
         23    2    4    4    0    0 -0.13388290501E+03  0.17070860593E+03  0.25644097823E+03  0.34850913478E+03  0.92900922026E+02 0.  0.
          4    1    3    3  502    0  0.93463684648E+03 -0.83933242659E+02 -0.13884498490E+03  0.94861412273E+03  0.00000000000E+00 0. -1.
         -4    1    3    3    0  502  0.73315701404E+03  0.13831416348E+02 -0.12079880756E+03  0.74317081968E+03  0.00000000000E+00 0.  1.
         13    1    5    5    0    0 -0.12618906526E+04 -0.11520622446E+03 -0.13095482484E+03  0.12738876165E+04  0.00000000000E+00 0. -1.
        -13    1    5    5    0    0 -0.27202030289E+03  0.14599444833E+02 -0.43717002941E+02  0.27589738187E+03  0.00000000000E+00 0.  1.
          3    1    6    6  503    0 -0.55906517406E+02  0.10095450286E+03  0.70719427275E+02  0.13534617737E+03  0.00000000000E+00 0. -1.
         -3    1    6    6    0  503 -0.77976387604E+02  0.69754103077E+02  0.18572155095E+03  0.21316295740E+03  0.00000000000E+00 0.  1.
<mgrwt>
<rscale>  0 0.35856699E+04</rscale>
<asrwt>0</asrwt>
<pdfrwt beam="1">  1        2 0.26247726E+00 0.35856699E+04</pdfrwt>
<pdfrwt beam="2">  1       -2 0.28984259E+00 0.35856699E+04</pdfrwt>
<totfact> 0.29115607E-01</totfact>
</mgrwt>
</event>
<event>
12    3  0.8686020E-008  0.2806612E+04  0.7818608E-02  0.8301219E-01
          1   -1    0    0  501    0  0.00000000000E+00  0.00000000000E+00  0.18678064417E+04  0.18678064417E+04  0.00000000000E+00 0. -1.
         -1   -1    0    0    0  501 -0.00000000000E+00 -0.00000000000E+00 -0.10543209633E+04  0.10543209633E+04  0.00000000000E+00 0.  1.
         23    2    1    2    0    0 -0.45484728731E+03 -0.95899859146E+03 -0.33335783676E+03  0.11170882397E+04  0.10096699787E+03 0.  0.
        254    2    1    2    0    0  0.45484728731E+03  0.95899859146E+03  0.11468433152E+04  0.18050391654E+04  0.90352224423E+03 0.  0.
         23    2    4    4    0    0  0.49936867832E+03  0.10425943969E+04  0.11944068335E+04  0.16646050033E+04  0.89050432779E+02 0.  0.
         23    2    4    4    0    0 -0.44521391010E+02 -0.83595805484E+02 -0.47563518353E+02  0.14043416209E+03  0.92136055118E+02 0.  0.
          3    1    3    3  502    0 -0.16451200548E+03 -0.40478100651E+03 -0.92180478885E+02  0.44655246485E+03  0.00000000000E+00 0. -1.
         -3    1    3    3    0  502 -0.29033528183E+03 -0.55421758495E+03 -0.24117735788E+03  0.67053577481E+03  0.00000000000E+00 0.  1.
         13    1    5    5    0    0  0.95852428953E+02  0.24106527762E+03  0.31629445421E+03  0.40907497842E+03  0.00000000000E+00 0. -1.
        -13    1    5    5    0    0  0.40351624937E+03  0.80152911932E+03  0.87811237933E+03  0.12555300249E+04  0.00000000000E+00 0.  1.
          2    1    6    6  503    0 -0.49069690846E+01  0.94642536088E+01 -0.37277102781E+02  0.38771546702E+02  0.00000000000E+00 0. -1.
         -2    1    6    6    0  503 -0.39614421925E+02 -0.93060059092E+02 -0.10286415573E+02  0.10166261539E+03  0.00000000000E+00 0.  1.
<mgrwt>
<rscale>  0 0.28066118E+04</rscale>
<asrwt>0</asrwt>
<pdfrwt beam="1">  1        1 0.28735484E+00 0.28066118E+04</pdfrwt>
<pdfrwt beam="2">  1       -1 0.16220322E+00 0.28066118E+04</pdfrwt>
<totfact> 0.89158228E-01</totfact>
</mgrwt>
</event>
<event>
12    3  0.8686020E-008  0.1925697E+04  0.7818608E-02  0.8642170E-01
          2   -1    0    0  501    0  0.00000000000E+00  0.00000000000E+00  0.19166343323E+04  0.19166343323E+04  0.00000000000E+00 0. -1.
         -2   -1    0    0    0  501 -0.00000000000E+00 -0.00000000000E+00 -0.48370074946E+03  0.48370074946E+03  0.00000000000E+00 0.  1.
         23    2    1    2    0    0  0.21118925617E+03  0.43273939227E+03 -0.15519393882E+03  0.51320976414E+03  0.86225401207E+02 0.  0.
        254    2    1    2    0    0 -0.21118925617E+03 -0.43273939227E+03  0.15881275217E+04  0.18871253177E+04  0.89845904519E+03 0.  0.
         23    2    4    4    0    0  0.59495067746E+02 -0.13534011567E+03  0.14387320985E+04  0.14492393776E+04  0.92130951786E+02 0.  0.
         23    2    4    4    0    0 -0.27068432392E+03 -0.29739927660E+03  0.14939542318E+03  0.43788594007E+03  0.87799607686E+02 0.  0.
          4    1    3    3  502    0  0.11612934908E+02  0.76431903376E+02 -0.29632952270E+01  0.77365866048E+02  0.00000000000E+00 0.  1.
         -4    1    3    3    0  502  0.19957632127E+03  0.35630748889E+03 -0.15223064359E+03  0.43584389809E+03  0.00000000000E+00 0. -1.
         13    1    5    5    0    0 -0.24797193908E+02 -0.26432016095E+02  0.33158010621E+03  0.33355497168E+03  0.00000000000E+00 0.  1.
        -13    1    5    5    0    0  0.84292261654E+02 -0.10890809957E+03  0.11071519923E+04  0.11156844059E+04  0.00000000000E+00 0. -1.
          2    1    6    6  503    0 -0.24284390647E+03 -0.21400987978E+03  0.11882953889E+03  0.34480987640E+03  0.00000000000E+00 0. -1.
         -2    1    6    6    0  503 -0.27840417449E+02 -0.83389396823E+02  0.30565884290E+02  0.93076063672E+02  0.00000000000E+00 0.  1.
<mgrwt>
<rscale>  0 0.19256972E+04</rscale>
<asrwt>0</asrwt>
<pdfrwt beam="1">  1        2 0.29486682E+00 0.19256972E+04</pdfrwt>
<pdfrwt beam="2">  1       -2 0.74415501E-01 0.19256972E+04</pdfrwt>
<totfact> 0.11287386E+01</totfact>
</mgrwt>
</event>
<event>
12    3  0.8686020E-008  0.1558535E+04  0.7818608E-02  0.8846434E-01
          1   -1    0    0  501    0  0.00000000000E+00  0.00000000000E+00  0.20542646663E+04  0.20542646663E+04  0.00000000000E+00 0. -1.
         -1   -1    0    0    0  501 -0.00000000000E+00 -0.00000000000E+00 -0.29560849046E+03  0.29560849046E+03  0.00000000000E+00 0.  1.
         23    2    1    2    0    0 -0.27242382637E+03  0.11878165078E+02 -0.68027431884E+02  0.29525183959E+03  0.90499090114E+02 0.  0.
        254    2    1    2    0    0  0.27242382637E+03 -0.11878165078E+02  0.18266836077E+04  0.20546213171E+04  0.90018882589E+03 0.  0.
         23    2    4    4    0    0 -0.13230559361E+03  0.35043459040E+03  0.65704736766E+03  0.76180312765E+03  0.91233709211E+02 0.  0.
         23    2    4    4    0    0  0.40472941998E+03 -0.36231275548E+03  0.11696362400E+04  0.12928181895E+04  0.90848780425E+02 0.  0.
          4    1    3    3  502    0 -0.18826660844E+03  0.18221097676E+01 -0.88530682788E+02  0.20805123824E+03  0.00000000000E+00 0.  1.
         -4    1    3    3    0  502 -0.84157217924E+02  0.10056055311E+02  0.20503250904E+02  0.87200601344E+02  0.00000000000E+00 0. -1.
         13    1    5    5    0    0  0.12199150024E+02  0.15177982042E+02  0.46822205100E+02  0.50710051179E+02  0.00000000000E+00 0.  1.
        -13    1    5    5    0    0 -0.14450474364E+03  0.33525660836E+03  0.61022516256E+03  0.71109307647E+03  0.00000000000E+00 0. -1.
          2    1    6    6  503    0  0.34852143272E+03 -0.26639897976E+03  0.90215766397E+03  0.10031570446E+04  0.00000000000E+00 0. -1.
         -2    1    6    6    0  503  0.56207987257E+02 -0.95913775715E+02  0.26747857606E+03  0.28966114488E+03  0.00000000000E+00 0.  1.
<mgrwt>
<rscale>  0 0.15585353E+04</rscale>
<asrwt>0</asrwt>
<pdfrwt beam="1">  1        1 0.31604071E+00 0.15585353E+04</pdfrwt>
<pdfrwt beam="2">  1       -1 0.45478231E-01 0.15585353E+04</pdfrwt>
<totfact> 0.12663059E+01</totfact>
</mgrwt>
</event>
<event>
12    3  0.8686020E-008  0.3297381E+04  0.7818608E-02  0.8163562E-01
         -1   -1    0    0    0  501 -0.00000000000E+00  0.00000000000E+00  0.19829324024E+04  0.19829324024E+04  0.00000000000E+00 0.  1.
          1   -1    0    0  501    0  0.00000000000E+00 -0.00000000000E+00 -0.13707884618E+04  0.13707884618E+04  0.00000000000E+00 0. -1.
         23    2    1    2    0    0 -0.63235185040E+03 -0.68485914482E+03  0.15107136959E+04  0.17774742416E+04  0.90872975258E+02 0.  0.
        254    2    1    2    0    0  0.63235185040E+03  0.68485914482E+03 -0.89856975542E+03  0.15762466226E+04  0.89901329180E+03 0.  0.
         23    2    4    4    0    0  0.43047657579E+03  0.48956576267E+03 -0.30053070681E+02  0.65891200651E+03  0.90978717163E+02 0.  0.
         23    2    4    4    0    0  0.20187527461E+03  0.19529338215E+03 -0.86851668474E+03  0.91733461606E+03  0.91040839925E+02 0.  0.
          3    1    3    3  502    0 -0.46445665618E+03 -0.54277739884E+03  0.11008714423E+04  0.13123434088E+04  0.00000000000E+00 0. -1.
         -3    1    3    3    0  502 -0.16789519423E+03 -0.14208174598E+03  0.40984225363E+03  0.46513083283E+03  0.00000000000E+00 0.  1.
         13    1    5    5    0    0  0.15389097729E+03  0.18052875949E+03 -0.54710305802E+02  0.24344667477E+03  0.00000000000E+00 0. -1.
        -13    1    5    5    0    0  0.27658559850E+03  0.30903700318E+03  0.24657235122E+02  0.41546533174E+03  0.00000000000E+00 0.  1.
          1    1    6    6  503    0  0.11873123672E+03  0.12657605191E+03 -0.66168820229E+03  0.68406862268E+03  0.00000000000E+00 0. -1.
         -1    1    6    6    0  503  0.83144037890E+02  0.68717330241E+02 -0.20682848245E+03  0.23326599337E+03  0.00000000000E+00 0.  1.
<mgrwt>
<rscale>  0 0.32973813E+04</rscale>
<asrwt>0</asrwt>
<pdfrwt beam="1">  1        1 0.21089053E+00 0.32973813E+04</pdfrwt>
<pdfrwt beam="2">  1       -1 0.30506652E+00 0.32973813E+04</pdfrwt>
<totfact> 0.20462817E-01</totfact>
</mgrwt>
</event>
<event>
12    3  0.8686020E-008  0.1190731E+04  0.7818608E-02  0.9121008E-01
          1   -1    0    0  501    0  0.00000000000E+00  0.00000000000E+00  0.25678420343E+04  0.25678420343E+04  0.00000000000E+00 0. -1.
         -1   -1    0    0    0  501 -0.00000000000E+00 -0.00000000000E+00 -0.13803814493E+03  0.13803814493E+03  0.00000000000E+00 0.  1.
         23    2    1    2    0    0  0.33528371218E+02 -0.15099336628E+03  0.97040183393E+03  0.98689479657E+03  0.91424678660E+02 0.  0.
        254    2    1    2    0    0 -0.33528371218E+02  0.15099336628E+03  0.14594020555E+04  0.17189853827E+04  0.89506046612E+03 0.  0.
         23    2    4    4    0    0  0.37737400169E+03 -0.51145581465E+02  0.39380530847E+03  0.55541178839E+03  0.91502054914E+02 0.  0.
         23    2    4    4    0    0 -0.41090237291E+03  0.20213894774E+03  0.10655967470E+04  0.11635735943E+04  0.93306847791E+02 0.  0.
          3    1    3    3  502    0 -0.11124253409E+01 -0.14237268860E+03  0.71791669502E+03  0.73189862750E+03  0.00000000000E+00 0. -1.
         -3    1    3    3    0  502  0.34640796559E+02 -0.86206776760E+01  0.25248513891E+03  0.25499616907E+03  0.00000000000E+00 0.  1.
         13    1    5    5    0    0  0.17065093414E+03  0.22499612202E+02  0.17887624167E+03  0.24824319469E+03  0.00000000000E+00 0.  1.
        -13    1    5    5    0    0  0.20672306755E+03 -0.73645193667E+02  0.21492906680E+03  0.30716859371E+03  0.00000000000E+00 0. -1.
          1    1    6    6  503    0 -0.43925913380E+02  0.11929929378E+02  0.53000097700E+02  0.69862861647E+02  0.00000000000E+00 0. -1.
         -1    1    6    6    0  503 -0.36697645953E+03  0.19020901837E+03  0.10125966493E+04  0.10937107326E+04  0.00000000000E+00 0.  1.
<mgrwt>
<rscale>  0 0.11907311E+04</rscale>
<asrwt>0</asrwt>
<pdfrwt beam="1">  1        1 0.39505258E+00 0.11907311E+04</pdfrwt>
<pdfrwt beam="2">  1       -1 0.21236640E-01 0.11907311E+04</pdfrwt>
<totfact> 0.22417658E+01</totfact>
</mgrwt>
</event>
<event>
12    3  0.8686020E-008  0.3727950E+04  0.7818608E-02  0.8061796E-01
         -1   -1    0    0    0  501 -0.00000000000E+00  0.00000000000E+00  0.19443004485E+04  0.19443004485E+04  0.00000000000E+00 0.  1.
          1   -1    0    0  501    0  0.00000000000E+00 -0.00000000000E+00 -0.17869685003E+04  0.17869685003E+04  0.00000000000E+00 0. -1.
         23    2    1    2    0    0  0.11729211948E+04  0.12240162174E+04  0.52319882309E+03  0.17765657066E+04  0.92135073646E+02 0.  0.
        254    2    1    2    0    0 -0.11729211948E+04 -0.12240162174E+04 -0.36586687486E+03  0.19547032421E+04  0.90169083669E+03 0.  0.
         23    2    4    4    0    0 -0.20402644999E+03  0.42809097220E+02  0.15384422931E+03  0.27473406990E+03  0.91385727378E+02 0.  0.
         23    2    4    4    0    0 -0.96889474481E+03 -0.12668253146E+04 -0.51971110417E+03  0.16799691722E+04  0.92700504575E+02 0.  0.
          2    1    3    3  502    0  0.51904048969E+03  0.56428378502E+03  0.28174312840E+03  0.81682214121E+03  0.00000000000E+00 0. -1.
         -2    1    3    3    0  502  0.65388070511E+03  0.65973243239E+03  0.24145569470E+03  0.95974356542E+03  0.00000000000E+00 0.  1.
         13    1    5    5    0    0 -0.12021106010E+03  0.22262480533E+02  0.33710666415E+02  0.12681768820E+03  0.00000000000E+00 0. -1.
        -13    1    5    5    0    0 -0.83815389887E+02  0.20546616687E+02  0.12013356290E+03  0.14791638169E+03  0.00000000000E+00 0.  1.
          4    1    6    6  503    0 -0.80525510318E+02 -0.14509555103E+03 -0.69547383577E+02  0.17992752792E+03  0.00000000000E+00 0. -1.
         -4    1    6    6    0  503 -0.88836923449E+03 -0.11217297636E+04 -0.45016372060E+03  0.15000416443E+04  0.00000000000E+00 0.  1.
<mgrwt>
<rscale>  0 0.37279505E+04</rscale>
<asrwt>0</asrwt>
<pdfrwt beam="1">  1        1 0.27491823E+00 0.37279505E+04</pdfrwt>
<pdfrwt beam="2">  1       -1 0.29912315E+00 0.37279505E+04</pdfrwt>
<totfact> 0.11135857E-01</totfact>
</mgrwt>
</event>
<event>
12    3  0.8686020E-008  0.1385059E+04  0.7818608E-02  0.8964705E-01
          1   -1    0    0  501    0  0.00000000000E+00  0.00000000000E+00  0.12897748328E+04  0.12897748328E+04  0.00000000000E+00 0. -1.
         -1   -1    0    0    0  501 -0.00000000000E+00 -0.00000000000E+00 -0.37184550153E+03  0.37184550153E+03  0.00000000000E+00 0.  1.
         23    2    1    2    0    0 -0.39279055764E+02  0.31687402612E+03  0.54059837026E+03  0.63420749757E+03  0.89557575888E+02 0.  0.
        254    2    1    2    0    0  0.39279055764E+02 -0.31687402612E+03  0.37733096105E+03  0.10274128368E+04  0.90069222845E+03 0.  0.
         23    2    4    4    0    0  0.15426497538E+02 -0.61671162507E+03  0.15001615222E+03  0.64086711027E+03  0.87376208278E+02 0.  0.
         23    2    4    4    0    0  0.23852558226E+02  0.29983759895E+03  0.22731480882E+03  0.38654572652E+03  0.85288018488E+02 0.  0.
          1    1    3    3  502    0 -0.48035160471E+02  0.30496888734E+03  0.53630409521E+03  0.61881780956E+03  0.00000000000E+00 0. -1.
         -1    1    3    3    0  502  0.87561047067E+01  0.11905138778E+02  0.42942750488E+01  0.15389688013E+02  0.00000000000E+00 0.  1.
         13    1    5    5    0    0 -0.15507049127E+02 -0.12912531787E+03  0.91778165314E+00  0.13005636706E+03  0.00000000000E+00 0. -1.
        -13    1    5    5    0    0  0.30933546665E+02 -0.48758630720E+03  0.14909837057E+03  0.51081074322E+03  0.00000000000E+00 0.  1.
          4    1    6    6  503    0 -0.20174765614E+02  0.29391094376E+02  0.45080558009E+02  0.57472726632E+02  0.00000000000E+00 0. -1.
         -4    1    6    6    0  503  0.44027323839E+02  0.27044650458E+03  0.18223425082E+03  0.32907299989E+03  0.00000000000E+00 0.  1.
<mgrwt>
<rscale>  0 0.13850588E+04</rscale>
<asrwt>0</asrwt>
<pdfrwt beam="1">  1        1 0.19842690E+00 0.13850588E+04</pdfrwt>
<pdfrwt beam="2">  1       -1 0.57207001E-01 0.13850588E+04</pdfrwt>
<totfact> 0.27784525E+01</totfact>
</mgrwt>
</event>
<event>
12    3  0.8686020E-008  0.4175097E+04  0.7818608E-02  0.7970126E-01
         -2   -1    0    0    0  501 -0.00000000000E+00  0.00000000000E+00  0.10342804707E+04  0.10342804707E+04  0.00000000000E+00 0. -1.
          2   -1    0    0  501    0  0.00000000000E+00 -0.00000000000E+00 -0.42134214031E+04  0.42134214031E+04  0.00000000000E+00 0.  1.
         23    2    1    2    0    0 -0.42052507007E+03 -0.18234704743E+04 -0.66793172725E+03  0.19890608170E+04  0.91346790856E+02 0.  0.
        254    2    1    2    0    0  0.42052507007E+03  0.18234704743E+04 -0.25112092052E+04  0.32586410568E+04  0.90037989740E+03 0.  0.
         23    2    4    4    0    0  0.24243040548E+03  0.37659463840E+03 -0.12425336375E+04  0.13239082228E+04  0.90813649423E+02 0.  0.
         23    2    4    4    0    0  0.17809466458E+03  0.14468758359E+04 -0.12686755676E+04  0.19347328340E+04  0.92119752399E+02 0.  0.
          4    1    3    3  502    0 -0.27868019742E+03 -0.11955637800E+04 -0.39194903811E+03  0.12886657647E+04  0.00000000000E+00 0. -1.
         -4    1    3    3    0  502 -0.14184487265E+03 -0.62790669428E+03 -0.27598268914E+03  0.70039505233E+03  0.00000000000E+00 0.  1.
         13    1    5    5    0    0  0.60677843584E+02  0.34996782220E+02 -0.18803061323E+03  0.20065414767E+03  0.00000000000E+00 0. -1.
        -13    1    5    5    0    0  0.18175256190E+03  0.34159785618E+03 -0.10545030243E+04  0.11232540752E+04  0.00000000000E+00 0.  1.
          1    1    6    6  503    0  0.19138899311E+02  0.51431960082E+03 -0.44205811734E+03  0.67845878899E+03  0.00000000000E+00 0. -1.
         -1    1    6    6    0  503  0.15895576527E+03  0.93255623508E+03 -0.82661745031E+03  0.12562740450E+04  0.00000000000E+00 0.  1.
<mgrwt>
<rscale>  0 0.41750974E+04</rscale>
<asrwt>0</asrwt>
<pdfrwt beam="1">  1        2 0.64821867E+00 0.41750974E+04</pdfrwt>
<pdfrwt beam="2">  1       -2 0.15912007E+00 0.41750974E+04</pdfrwt>
<totfact> 0.44785742E-02</totfact>
</mgrwt>
</event>
<event>
12    3  0.8686020E-008  0.1428395E+04  0.7818608E-02  0.8933518E-01
         -1   -1    0    0    0  501 -0.00000000000E+00  0.00000000000E+00  0.31361313038E+03  0.31361313038E+03  0.00000000000E+00 0.  1.
          1   -1    0    0  501    0  0.00000000000E+00 -0.00000000000E+00 -0.16264557895E+04  0.16264557895E+04  0.00000000000E+00 0. -1.
         23    2    1    2    0    0 -0.39244772891E+03 -0.90844214262E+02 -0.22797301874E+03  0.47174392431E+03  0.91119381391E+02 0.  0.
        254    2    1    2    0    0  0.39244772891E+03  0.90844214262E+02 -0.10848696404E+04  0.14683249955E+04  0.90375232489E+03 0.  0.
         23    2    4    4    0    0  0.73646601380E+02 -0.25405781508E+03 -0.92051003170E+03  0.96241613175E+03  0.94535162267E+02 0.  0.
         23    2    4    4    0    0  0.31880112753E+03  0.34490202934E+03 -0.16435960867E+03  0.50590886379E+03  0.91313354672E+02 0.  0.
          4    1    3    3  502    0 -0.18666330998E+03 -0.84646919170E+02 -0.13785421061E+03  0.24700622583E+03  0.00000000000E+00 0. -1.
         -4    1    3    3    0  502 -0.20578441893E+03 -0.61972950921E+01 -0.90118808128E+02  0.22473769848E+03  0.00000000000E+00 0.  1.
         13    1    5    5    0    0 -0.18523875415E+02 -0.12848447201E+02 -0.82531301615E+02  0.85554849670E+02  0.00000000000E+00 0. -1.
        -13    1    5    5    0    0  0.92170476795E+02 -0.24120936788E+03 -0.83797873008E+03  0.87686128208E+03  0.00000000000E+00 0.  1.
          2    1    6    6  503    0  0.10586490006E+03  0.56592609553E+02 -0.42233495837E+02  0.12725473937E+03  0.00000000000E+00 0. -1.
         -2    1    6    6    0  503  0.21293622747E+03  0.28830941979E+03 -0.12212611283E+03  0.37865412442E+03  0.00000000000E+00 0.  1.
<mgrwt>
<rscale>  0 0.14283948E+04</rscale>
<asrwt>0</asrwt>
<pdfrwt beam="1">  1        1 0.25022396E+00 0.14283948E+04</pdfrwt>
<pdfrwt beam="2">  1       -1 0.48248175E-01 0.14283948E+04</pdfrwt>
<totfact> 0.22364262E+01</totfact>
</mgrwt>
</event>
<event>
12    3  0.8686020E-008  0.1512052E+04  0.7818608E-02  0.8876478E-01
          1   -1    0    0  501    0  0.00000000000E+00  0.00000000000E+00  0.69102789854E+03  0.69102789854E+03  0.00000000000E+00 0.  1.
         -1   -1    0    0    0  501 -0.00000000000E+00 -0.00000000000E+00 -0.82713819572E+03  0.82713819572E+03  0.00000000000E+00 0. -1.
         23    2    1    2    0    0  0.43994074116E+03  0.18749405587E+03  0.22796978388E+02  0.48748868102E+03  0.91780363826E+02 0.  0.
        254    2    1    2    0    0 -0.43994074116E+03 -0.18749405587E+03 -0.15890727557E+03  0.10306774132E+04  0.89907871247E+03 0.  0.
         23    2    4    4    0    0 -0.49234095285E+02 -0.39443721613E+03 -0.35236149108E+03  0.53962731368E+03  0.95048954069E+02 0.  0.
         23    2    4    4    0    0 -0.39070664587E+03  0.20694316025E+03  0.19345421551E+03  0.49105009956E+03  0.90711146371E+02 0.  0.
          1    1    3    3  502    0  0.22459535101E+03  0.10341423074E+03 -0.33596651091E+02  0.24953218185E+03  0.00000000000E+00 0. -1.
         -1    1    3    3    0  502  0.21534539015E+03  0.84079825133E+02  0.56393629480E+02  0.23795649917E+03  0.00000000000E+00 0.  1.
         13    1    5    5    0    0 -0.64387565351E+01 -0.16311740767E+03 -0.86911712255E+02  0.18493888720E+03  0.00000000000E+00 0. -1.
        -13    1    5    5    0    0 -0.42795338750E+02 -0.23131980846E+03 -0.26544977882E+03  0.35468842648E+03  0.00000000000E+00 0.  1.
          3    1    6    6  503    0 -0.34147501172E+03  0.16662155624E+03  0.13105324716E+03  0.40192397319E+03  0.00000000000E+00 0. -1.
         -3    1    6    6    0  503 -0.49231634153E+02  0.40321604010E+02  0.62400968343E+02  0.89126126368E+02  0.00000000000E+00 0.  1.
<mgrwt>
<rscale>  0 0.15120523E+04</rscale>
<asrwt>0</asrwt>
<pdfrwt beam="1">  1        1 0.10631198E+00 0.15120523E+04</pdfrwt>
<pdfrwt beam="2">  1       -1 0.12725203E+00 0.15120523E+04</pdfrwt>
<totfact> 0.14373836E+01</totfact>
</mgrwt>
</event>
<event>
12    3  0.8686020E-008  0.1361735E+04  0.7818608E-02  0.8981992E-01
         -2   -1    0    0    0  501 -0.00000000000E+00  0.00000000000E+00  0.55320892264E+03  0.55320892264E+03  0.00000000000E+00 0.  1.
          2   -1    0    0  501    0  0.00000000000E+00 -0.00000000000E+00 -0.83798398151E+03  0.83798398151E+03  0.00000000000E+00 0. -1.
         23    2    1    2    0    0 -0.29527351150E+03 -0.22913404403E+03 -0.33246573660E+02  0.38617642696E+03  0.91312876172E+02 0.  0.
        254    2    1    2    0    0  0.29527351150E+03  0.22913404403E+03 -0.25152848521E+03  0.10050164772E+04  0.89838893795E+03 0.  0.
         23    2    4    4    0    0  0.50688529905E+03  0.76411585692E+02  0.12752919344E+03  0.53601373591E+03  0.90970286830E+02 0.  0.
         23    2    4    4    0    0 -0.21161178755E+03  0.15272245834E+03 -0.37905767865E+03  0.46900274128E+03  0.90416534249E+02 0.  0.
          3    1    3    3  502    0 -0.31908007951E+02 -0.67419694940E+02  0.50560898229E+01  0.74760285456E+02  0.00000000000E+00 0. -1.
         -3    1    3    3    0  502 -0.26336550354E+03 -0.16171434909E+03 -0.38302663483E+02  0.31141614150E+03  0.00000000000E+00 0.  1.
         13    1    5    5    0    0  0.26145852861E+03  0.75457688407E+00  0.89703486734E+02  0.27641969376E+03  0.00000000000E+00 0. -1.
        -13    1    5    5    0    0  0.24542677044E+03  0.75657008808E+02  0.37825706711E+02  0.25959404215E+03  0.00000000000E+00 0.  1.
          3    1    6    6  503    0 -0.14326645018E+03  0.15051397413E+03 -0.28366640296E+03  0.35163384411E+03  0.00000000000E+00 0. -1.
         -3    1    6    6    0  503 -0.68345337374E+02  0.22084842058E+01 -0.95391275695E+02  0.11736889717E+03  0.00000000000E+00 0.  1.
<mgrwt>
<rscale>  0 0.13617345E+04</rscale>
<asrwt>0</asrwt>
<pdfrwt beam="1">  1        2 0.12892061E+00 0.13617345E+04</pdfrwt>
<pdfrwt beam="2">  1       -2 0.85109065E-01 0.13617345E+04</pdfrwt>
<totfact> 0.37957366E+01</totfact>
</mgrwt>
</event>
<event>
12    3  0.8686020E-008  0.2075409E+04  0.7818608E-02  0.8572154E-01
         -1   -1    0    0    0  501 -0.00000000000E+00  0.00000000000E+00  0.18149862789E+04  0.18149862789E+04  0.00000000000E+00 0.  1.
          1   -1    0    0  501    0  0.00000000000E+00 -0.00000000000E+00 -0.59329979547E+03  0.59329979547E+03  0.00000000000E+00 0. -1.
         23    2    1    2    0    0 -0.16826259501E+03 -0.59095331490E+03  0.11599678531E+04  0.13157988306E+04  0.90901162059E+02 0.  0.
        254    2    1    2    0    0  0.16826259501E+03  0.59095331490E+03  0.61718630323E+02  0.10924872437E+04  0.90121088933E+03 0.  0.
         23    2    4    4    0    0 -0.51280245486E+02  0.69526676336E+03 -0.19194951988E+03  0.72893239111E+03  0.92044971722E+02 0.  0.
         23    2    4    4    0    0  0.21954284050E+03 -0.10431344845E+03  0.25366815020E+03  0.36355485260E+03  0.93510673598E+02 0.  0.
          1    1    3    3  502    0 -0.57857315140E+02 -0.14052047075E+03  0.21651915360E+03  0.26452602044E+03  0.00000000000E+00 0. -1.
         -1    1    3    3    0  502 -0.11040527987E+03 -0.45043284415E+03  0.94344869947E+03  0.10512728102E+04  0.00000000000E+00 0.  1.
         13    1    5    5    0    0 -0.18926748173E+02  0.25002670862E+03 -0.23679432701E+02  0.25185768273E+03  0.00000000000E+00 0.  1.
        -13    1    5    5    0    0 -0.32353497314E+02  0.44524005474E+03 -0.16827008718E+03  0.47707470838E+03  0.00000000000E+00 0. -1.
          3    1    6    6  503    0  0.16985676586E+03 -0.37389954612E+02  0.19686494157E+03  0.26268828454E+03  0.00000000000E+00 0. -1.
         -3    1    6    6    0  503  0.49686074637E+02 -0.66923493840E+02  0.56803208635E+02  0.10086656806E+03  0.00000000000E+00 0.  1.
<mgrwt>
<rscale>  0 0.20754093E+04</rscale>
<asrwt>0</asrwt>
<pdfrwt beam="1">  1        1 0.91276893E-01 0.20754093E+04</pdfrwt>
<pdfrwt beam="2">  1       -1 0.27922866E+00 0.20754093E+04</pdfrwt>
<totfact> 0.14447378E+00</totfact>
</mgrwt>
</event>
<event>
12    3  0.8686020E-008  0.1878650E+04  0.7818608E-02  0.8665557E-01
          2   -1    0    0  501    0  0.00000000000E+00  0.00000000000E+00  0.34417835259E+04  0.34417835259E+04  0.00000000000E+00 0. -1.
         -2   -1    0    0    0  501 -0.00000000000E+00 -0.00000000000E+00 -0.25635868953E+03  0.25635868953E+03  0.00000000000E+00 0.  1.
         23    2    1    2    0    0  0.21340426562E+03 -0.60174862939E+03  0.58757300478E+03  0.87237218633E+03  0.90268499391E+02 0.  0.
        254    2    1    2    0    0 -0.21340426562E+03  0.60174862939E+03  0.25978518316E+04  0.28257700291E+04  0.91021938284E+03 0.  0.
         23    2    4    4    0    0  0.12925283254E+03  0.72000596470E+03  0.17700105165E+04  0.19174160387E+04  0.91826755912E+02 0.  0.
         23    2    4    4    0    0 -0.34265709816E+03 -0.11825733531E+03  0.82784131505E+03  0.90835399034E+03  0.91580809028E+02 0.  0.
          1    1    3    3  502    0  0.12781022135E+02 -0.52424033084E+02  0.88016882128E+02  0.10324052165E+03  0.00000000000E+00 0. -1.
         -1    1    3    3    0  502  0.20062324348E+03 -0.54932459631E+03  0.49955612265E+03  0.76913166468E+03  0.00000000000E+00 0.  1.
         13    1    5    5    0    0  0.14311679235E+03  0.67268301453E+03  0.16624819583E+04  0.17991195391E+04  0.00000000000E+00 0.  1.
        -13    1    5    5    0    0 -0.13863959812E+02  0.47322950172E+02  0.10752855817E+03  0.11829649960E+03  0.00000000000E+00 0. -1.
          3    1    6    6  503    0 -0.12701129752E+03 -0.11020518835E+02  0.36461187904E+03  0.38625787224E+03  0.00000000000E+00 0. -1.
         -3    1    6    6    0  503 -0.21564580064E+03 -0.10723681648E+03  0.46322943601E+03  0.52209611810E+03  0.00000000000E+00 0.  1.
<mgrwt>
<rscale>  0 0.18786496E+04</rscale>
<asrwt>0</asrwt>
<pdfrwt beam="1">  1        2 0.52950513E+00 0.18786496E+04</pdfrwt>
<pdfrwt beam="2">  1       -2 0.39439801E-01 0.18786496E+04</pdfrwt>
<totfact> 0.51238666E+00</totfact>
</mgrwt>
</event>
<event>
12    3  0.8686020E-008  0.1681547E+04  0.7818608E-02  0.8771959E-01
         -2   -1    0    0    0  501 -0.00000000000E+00  0.00000000000E+00  0.38359542263E+03  0.38359542263E+03  0.00000000000E+00 0.  1.
          2   -1    0    0  501    0  0.00000000000E+00 -0.00000000000E+00 -0.18428270402E+04  0.18428270402E+04  0.00000000000E+00 0. -1.
         23    2    1    2    0    0  0.58636750784E+03 -0.59516130158E+02 -0.41743704079E+03  0.72795497342E+03  0.91080932728E+02 0.  0.
        254    2    1    2    0    0 -0.58636750784E+03  0.59516130158E+02 -0.10417945768E+04  0.14984674894E+04  0.90149867036E+03 0.  0.
         23    2    4    4    0    0  0.11958090609E+03 -0.15121439965E+03  0.77063063005E+01  0.21298872041E+03  0.90218734751E+02 0.  0.
         23    2    4    4    0    0 -0.70594841393E+03  0.21073052981E+03 -0.10495008831E+04  0.12854787690E+04  0.90736115624E+02 0.  0.
          3    1    3    3  502    0  0.32173866458E+03 -0.76187341917E+02 -0.21556964986E+03  0.39470312045E+03  0.00000000000E+00 0. -1.
         -3    1    3    3    0  502  0.26462884325E+03  0.16671211759E+02 -0.20186739093E+03  0.33325185296E+03  0.00000000000E+00 0.  1.
         13    1    5    5    0    0  0.82689250318E+02 -0.80005490968E+02  0.46254393005E+02  0.12400749806E+03  0.00000000000E+00 0. -1.
        -13    1    5    5    0    0  0.36891655774E+02 -0.71208908681E+02 -0.38548086704E+02  0.88981222344E+02  0.00000000000E+00 0.  1.
          2    1    6    6  503    0 -0.48040678565E+03  0.15633312981E+03 -0.78638002116E+03  0.93467869605E+03  0.00000000000E+00 0. -1.
         -2    1    6    6    0  503 -0.22554162828E+03  0.54397399994E+02 -0.26312086195E+03  0.35080007298E+03  0.00000000000E+00 0.  1.
<mgrwt>
<rscale>  0 0.16815469E+04</rscale>
<asrwt>0</asrwt>
<pdfrwt beam="1">  1        2 0.28351185E+00 0.16815469E+04</pdfrwt>
<pdfrwt beam="2">  1       -2 0.59014680E-01 0.16815469E+04</pdfrwt>
<totfact> 0.20878448E+01</totfact>
</mgrwt>
</event>
<event>
12    3  0.8686020E-008  0.1886145E+04  0.7818608E-02  0.8661784E-01
         -1   -1    0    0    0  501 -0.00000000000E+00  0.00000000000E+00  0.11322540738E+04  0.11322540738E+04  0.00000000000E+00 0.  1.
          1   -1    0    0  501    0  0.00000000000E+00 -0.00000000000E+00 -0.78550051998E+03  0.78550051998E+03  0.00000000000E+00 0. -1.
         23    2    1    2    0    0 -0.29015170925E+03  0.21939314386E+03 -0.50326596370E+03  0.62746331196E+03  0.90067817117E+02 0.  0.
        254    2    1    2    0    0  0.29015170925E+03 -0.21939314386E+03  0.85001951756E+03  0.12902912819E+04  0.89999835883E+03 0.  0.
         23    2    4    4    0    0  0.43746524544E+03  0.12178545986E+03  0.14035412588E+03  0.48398481423E+03  0.91293376281E+02 0.  0.
         23    2    4    4    0    0 -0.14731353619E+03 -0.34117860372E+03  0.70966539168E+03  0.80630646764E+03  0.91657154855E+02 0.  0.
          1    1    3    3  502    0 -0.17721326028E+03  0.18056605539E+03 -0.37332968084E+03  0.45098080954E+03  0.00000000000E+00 0. -1.
         -1    1    3    3    0  502 -0.11293844897E+03  0.38827088465E+02 -0.12993628285E+03  0.17648250241E+03  0.00000000000E+00 0.  1.
         13    1    5    5    0    0  0.36037200633E+03  0.62194375846E+02  0.11364978583E+03  0.38295221262E+03  0.00000000000E+00 0.  1.
        -13    1    5    5    0    0  0.77093239114E+02  0.59591084012E+02  0.26704340055E+02  0.10103260161E+03  0.00000000000E+00 0. -1.
          4    1    6    6  503    0  0.10996053019E+02 -0.98340987962E+01  0.18677781716E+02  0.23800886769E+02  0.00000000000E+00 0. -1.
         -4    1    6    6    0  503 -0.15830958921E+03 -0.33134450492E+03  0.69098760996E+03  0.78250558087E+03  0.00000000000E+00 0.  1.
<mgrwt>
<rscale>  0 0.18861454E+04</rscale>
<asrwt>0</asrwt>
<pdfrwt beam="1">  1        1 0.12084623E+00 0.18861454E+04</pdfrwt>
<pdfrwt beam="2">  1       -1 0.17419293E+00 0.18861454E+04</pdfrwt>
<totfact> 0.48893377E+00</totfact>
</mgrwt>
</event>
<event>
12    3  0.8686020E-008  0.1876300E+04  0.7818608E-02  0.8666744E-01
         -1   -1    0    0    0  501 -0.00000000000E+00  0.00000000000E+00  0.10698230711E+04  0.10698230711E+04  0.00000000000E+00 0.  1.
          1   -1    0    0  501    0  0.00000000000E+00 -0.00000000000E+00 -0.82268289818E+03  0.82268289818E+03  0.00000000000E+00 0. -1.
         23    2    1    2    0    0  0.56229591500E+03  0.22936596976E+03  0.47817224599E+03  0.77826973753E+03  0.90937579709E+02 0.  0.
        254    2    1    2    0    0 -0.56229591500E+03 -0.22936596976E+03 -0.23103207306E+03  0.11142362318E+04  0.90518568110E+03 0.  0.
         23    2    4    4    0    0 -0.44931880734E+03 -0.73382594123E+02  0.29222847083E+03  0.54855510794E+03  0.90790040980E+02 0.  0.
         23    2    4    4    0    0 -0.11297710767E+03 -0.15598337564E+03 -0.52326054389E+03  0.56568112382E+03  0.95388137202E+02 0.  0.
          4    1    3    3  502    0  0.28285663270E+03  0.76397675960E+02  0.19420586531E+03  0.35151158968E+03  0.00000000000E+00 0. -1.
         -4    1    3    3    0  502  0.27943928230E+03  0.15296829380E+03  0.28396638068E+03  0.42675814785E+03  0.00000000000E+00 0.  1.
         13    1    5    5    0    0 -0.45122901500E+03 -0.79128401401E+02  0.28943282727E+03  0.54188586380E+03  0.00000000000E+00 0. -1.
        -13    1    5    5    0    0  0.19102076583E+01  0.57458072774E+01  0.27956435533E+01  0.66692441434E+01  0.00000000000E+00 0.  1.
          3    1    6    6  503    0 -0.12973530229E+03 -0.14640541241E+03 -0.47766093230E+03  0.51616446961E+03  0.00000000000E+00 0. -1.
         -3    1    6    6    0  503  0.16758194623E+02 -0.95779632310E+01 -0.45599611587E+02  0.49516654204E+02  0.00000000000E+00 0.  1.
<mgrwt>
<rscale>  0 0.18762997E+04</rscale>
<asrwt>0</asrwt>
<pdfrwt beam="1">  1        1 0.12656660E+00 0.18762997E+04</pdfrwt>
<pdfrwt beam="2">  1       -1 0.16458816E+00 0.18762997E+04</pdfrwt>
<totfact> 0.53467144E+00</totfact>
</mgrwt>
</event>
<event>
12    3  0.8686020E-008  0.2701628E+04  0.7818608E-02  0.8334477E-01
          2   -1    0    0  501    0  0.00000000000E+00  0.00000000000E+00  0.32573075685E+04  0.32573075685E+04  0.00000000000E+00 0. -1.
         -2   -1    0    0    0  501 -0.00000000000E+00 -0.00000000000E+00 -0.56018620654E+03  0.56018620654E+03  0.00000000000E+00 0.  1.
         23    2    1    2    0    0  0.29986493625E+03 -0.10384151533E+04  0.19357139748E+04  0.22188998287E+04  0.91119958721E+02 0.  0.
        254    2    1    2    0    0 -0.29986493625E+03  0.10384151533E+04  0.76140738716E+03  0.15985939464E+04  0.89863028297E+03 0.  0.
         23    2    4    4    0    0 -0.29819888993E+03 -0.38875923082E+02  0.85509818029E+02  0.32352138515E+03  0.83187993831E+02 0.  0.
         23    2    4    4    0    0 -0.16660463241E+01  0.10772910764E+04  0.67589756913E+03  0.12750725612E+04  0.91726078016E+02 0.  0.
          4    1    3    3  502    0  0.39048274683E+02 -0.17322879813E+03  0.38782723384E+03  0.42654770843E+03  0.00000000000E+00 0. -1.
         -4    1    3    3    0  502  0.26081666157E+03 -0.86518635519E+03  0.15478867409E+04  0.17923521202E+04  0.00000000000E+00 0.  1.
         13    1    5    5    0    0 -0.20042203084E+03  0.17473049880E+01  0.84822076498E+02  0.21763921563E+03  0.00000000000E+00 0. -1.
        -13    1    5    5    0    0 -0.97776859092E+02 -0.40623228070E+02  0.68774153058E+00  0.10588216951E+03  0.00000000000E+00 0.  1.
          3    1    6    6  503    0  0.42478441462E+02  0.50103957549E+03  0.29689704756E+03  0.58394600012E+03  0.00000000000E+00 0. -1.
         -3    1    6    6    0  503 -0.44144487786E+02  0.57625150090E+03  0.37900052157E+03  0.69112656109E+03  0.00000000000E+00 0.  1.
<mgrwt>
<rscale>  0 0.27016282E+04</rscale>
<asrwt>0</asrwt>
<pdfrwt beam="1">  1        2 0.50112423E+00 0.27016282E+04</pdfrwt>
<pdfrwt beam="2">  1       -2 0.86182495E-01 0.27016282E+04</pdfrwt>
<totfact> 0.12175626E+00</totfact>
</mgrwt>
</event>
<event>
12    3  0.8686020E-008  0.4082185E+04  0.7818608E-02  0.7988169E-01
          2   -1    0    0  501    0  0.00000000000E+00  0.00000000000E+00  0.21283314223E+04  0.21283314223E+04  0.00000000000E+00 0. -1.
         -2   -1    0    0    0  501 -0.00000000000E+00 -0.00000000000E+00 -0.19574292555E+04  0.19574292555E+04  0.00000000000E+00 0.  1.
         23    2    1    2    0    0  0.17928115879E+04  0.63601125426E+03  0.46765481608E+03  0.19609918093E+04  0.90023018633E+02 0.  0.
        254    2    1    2    0    0 -0.17928115879E+04 -0.63601125426E+03 -0.29675264930E+03  0.21247688685E+04  0.89883085415E+03 0.  0.
         23    2    4    4    0    0  0.67291237578E+02  0.84992448765E+01  0.47064434626E+02  0.12436349257E+03  0.93010050319E+02 0.  0.
         23    2    4    4    0    0 -0.18601028255E+04 -0.64451049913E+03 -0.34381708392E+03  0.20004053759E+04  0.89639142908E+02 0.  0.
          3    1    3    3  502    0  0.63662363503E+03  0.26903024124E+03  0.15458128512E+03  0.70821063046E+03  0.00000000000E+00 0. -1.
         -3    1    3    3    0  502  0.11561879528E+04  0.36698101301E+03  0.31307353095E+03  0.12527811788E+04  0.00000000000E+00 0.  1.
         13    1    5    5    0    0  0.76766603658E+02  0.14317145710E+02  0.66105716863E+02  0.10231352746E+03  0.00000000000E+00 0.  1.
        -13    1    5    5    0    0 -0.94753660803E+01 -0.58179008337E+01 -0.19041282237E+02  0.22049965118E+02  0.00000000000E+00 0. -1.
          1    1    6    6  503    0 -0.74631222000E+03 -0.28715502794E+03 -0.10434421667E+03  0.80642895244E+03  0.00000000000E+00 0. -1.
         -1    1    6    6    0  503 -0.11137906055E+04 -0.35735547120E+03 -0.23947286726E+03  0.11939764235E+04  0.00000000000E+00 0.  1.
<mgrwt>
<rscale>  0 0.40821848E+04</rscale>
<asrwt>0</asrwt>
<pdfrwt beam="1">  1        2 0.32743560E+00 0.40821848E+04</pdfrwt>
<pdfrwt beam="2">  1       -2 0.30114296E+00 0.40821848E+04</pdfrwt>
<totfact> 0.13885710E-01</totfact>
</mgrwt>
</event>
<event>
12    3  0.8686020E-008  0.2602670E+04  0.7818608E-02  0.8367295E-01
         -2   -1    0    0    0  501 -0.00000000000E+00  0.00000000000E+00  0.92632604504E+03  0.92632604504E+03  0.00000000000E+00 0. -1.
          2   -1    0    0  501    0  0.00000000000E+00 -0.00000000000E+00 -0.18281611192E+04  0.18281611192E+04  0.00000000000E+00 0.  1.
         23    2    1    2    0    0 -0.27446976968E+03  0.83415278534E+03  0.37713691379E+03  0.95989973377E+03  0.89614303518E+02 0.  0.
        254    2    1    2    0    0  0.27446976968E+03 -0.83415278534E+03 -0.12789719880E+04  0.17945874305E+04  0.90201450982E+03 0.  0.
         23    2    4    4    0    0  0.13749278253E+03 -0.78024525847E+03 -0.38835177415E+03  0.88711765236E+03  0.92052702470E+02 0.  0.
         23    2    4    4    0    0  0.13697698715E+03 -0.53907526866E+02 -0.89062021385E+03  0.90746977815E+03  0.92888731741E+02 0.  0.
          2    1    3    3  502    0 -0.27479563741E+03  0.83016904243E+03  0.38142940809E+03  0.95403442009E+03  0.00000000000E+00 0. -1.
         -2    1    3    3    0  502  0.32586773066E+00  0.39837429016E+01 -0.42924942985E+01  0.58653136819E+01  0.00000000000E+00 0.  1.
         13    1    5    5    0    0  0.18781374082E+02 -0.36493729906E+03 -0.18872498200E+03  0.41127738947E+03  0.00000000000E+00 0. -1.
        -13    1    5    5    0    0  0.11871140845E+03 -0.41530795941E+03 -0.19962679216E+03  0.47584026289E+03  0.00000000000E+00 0.  1.
          4    1    6    6  503    0  0.45153110123E+02 -0.44015634564E+02 -0.17697073365E+03  0.18786915662E+03  0.00000000000E+00 0. -1.
         -4    1    6    6    0  503  0.91823877027E+02 -0.98918923022E+01 -0.71364948020E+03  0.71960062154E+03  0.00000000000E+00 0.  1.
<mgrwt>
<rscale>  0 0.26026704E+04</rscale>
<asrwt>0</asrwt>
<pdfrwt beam="1">  1        2 0.28125556E+00 0.26026704E+04</pdfrwt>
<pdfrwt beam="2">  1       -2 0.14251170E+00 0.26026704E+04</pdfrwt>
<totfact> 0.25243627E+00</totfact>
</mgrwt>
</event>
<event>
12    3  0.8686020E-008  0.1526929E+04  0.7818608E-02  0.8866740E-01
          1   -1    0    0  501    0  0.00000000000E+00  0.00000000000E+00  0.18135577071E+04  0.18135577071E+04  0.00000000000E+00 0. -1.
         -1   -1    0    0    0  501 -0.00000000000E+00 -0.00000000000E+00 -0.32140042796E+03  0.32140042796E+03  0.00000000000E+00 0.  1.
         23    2    1    2    0    0 -0.52112064401E+02 -0.33940948637E+03  0.98019219649E+03  0.10424958683E+04  0.90035696507E+02 0.  0.
        254    2    1    2    0    0  0.52112064401E+02  0.33940948637E+03  0.51196508262E+03  0.10924622667E+04  0.90191523534E+03 0.  0.
         23    2    4    4    0    0 -0.23349409775E+03  0.53584238368E+03  0.41205384321E+03  0.72089091122E+03  0.90822807427E+02 0.  0.
         23    2    4    4    0    0  0.28560616215E+03 -0.19643289731E+03  0.99911239419E+02  0.37157135552E+03  0.89029509048E+02 0.  0.
          3    1    3    3  502    0 -0.73914540239E+02 -0.25821159529E+03  0.79416633583E+03  0.83835359853E+03  0.00000000000E+00 0. -1.
         -3    1    3    3    0  502  0.21802475839E+02 -0.81197891076E+02  0.18602586066E+03  0.20414226976E+03  0.00000000000E+00 0.  1.
         13    1    5    5    0    0 -0.20760896264E+03  0.38695319298E+03  0.28552159770E+03  0.52379083390E+03  0.00000000000E+00 0. -1.
        -13    1    5    5    0    0 -0.25885135109E+02  0.14888919069E+03  0.12653224550E+03  0.19710007731E+03  0.00000000000E+00 0.  1.
          3    1    6    6  503    0  0.22637754041E+02  0.47550690072E+01 -0.60802710937E+01  0.23917530931E+02  0.00000000000E+00 0. -1.
         -3    1    6    6    0  503  0.26296840811E+03 -0.20118796632E+03  0.10599151051E+03  0.34765382459E+03  0.00000000000E+00 0.  1.
<mgrwt>
<rscale>  0 0.15269292E+04</rscale>
<asrwt>0</asrwt>
<pdfrwt beam="1">  1        1 0.27900887E+00 0.15269292E+04</pdfrwt>
<pdfrwt beam="2">  1       -1 0.49446221E-01 0.15269292E+04</pdfrwt>
<totfact> 0.15787046E+01</totfact>
</mgrwt>
</event>
<event>
12    3  0.8686020E-008  0.1852197E+04  0.7818608E-02  0.8679024E-01
         -1   -1    0    0    0  501 -0.00000000000E+00  0.00000000000E+00  0.59133411217E+03  0.59133411217E+03  0.00000000000E+00 0.  1.
          1   -1    0    0  501    0  0.00000000000E+00 -0.00000000000E+00 -0.14503783324E+04  0.14503783324E+04  0.00000000000E+00 0. -1.
         23    2    1    2    0    0  0.80281909484E+01  0.67544944172E+03 -0.11294625202E+03  0.69052541437E+03  0.88159468432E+02 0.  0.
        254    2    1    2    0    0 -0.80281909484E+01 -0.67544944172E+03 -0.74609796820E+03  0.13511870302E+04  0.90152526990E+03 0.  0.
         23    2    4    4    0    0 -0.34132228328E+03 -0.68110162624E+03 -0.41508784329E+03  0.87232744743E+03  0.90867659569E+02 0.  0.
         23    2    4    4    0    0  0.33329409233E+03  0.56521845226E+01 -0.33101012492E+03  0.47885958278E+03  0.92854176272E+02 0.  0.
          2    1    3    3  502    0  0.11768986173E+02  0.17981130300E+03 -0.68902613427E+02  0.19292014892E+03  0.00000000000E+00 0. -1.
         -2    1    3    3    0  502 -0.37407952246E+01  0.49563813872E+03 -0.44043638596E+02  0.49760526545E+03  0.00000000000E+00 0.  1.
         13    1    5    5    0    0 -0.33580977357E+02 -0.94204018910E+02 -0.88457121615E+02  0.13351682135E+03  0.00000000000E+00 0. -1.
        -13    1    5    5    0    0 -0.30774130592E+03 -0.58689760733E+03 -0.32663072167E+03  0.73881062608E+03  0.00000000000E+00 0.  1.
          3    1    6    6  503    0  0.28829566772E+03  0.30555458549E+02 -0.24954707642E+03  0.38252028890E+03  0.00000000000E+00 0. -1.
         -3    1    6    6    0  503  0.44998424616E+02 -0.24903274027E+02 -0.81463048494E+02  0.96339293879E+02  0.00000000000E+00 0.  1.
<mgrwt>
<rscale>  0 0.18521967E+04</rscale>
<asrwt>0</asrwt>
<pdfrwt beam="1">  1        1 0.22313513E+00 0.18521967E+04</pdfrwt>
<pdfrwt beam="2">  1       -1 0.90974479E-01 0.18521967E+04</pdfrwt>
<totfact> 0.78481167E+00</totfact>
</mgrwt>
</event>
<event>
12    3  0.8686020E-008  0.2151231E+04  0.7818608E-02  0.8539005E-01
         -1   -1    0    0    0  501 -0.00000000000E+00  0.00000000000E+00  0.52379749579E+03  0.52379749579E+03  0.00000000000E+00 0.  1.
          1   -1    0    0  501    0  0.00000000000E+00 -0.00000000000E+00 -0.22087714736E+04  0.22087714736E+04  0.00000000000E+00 0. -1.
         23    2    1    2    0    0  0.75637851483E+03  0.28758657147E+03 -0.24129846066E+03  0.84931500091E+03  0.91085289024E+02 0.  0.
        254    2    1    2    0    0 -0.75637851483E+03 -0.28758657147E+03 -0.14436755171E+04  0.18832539685E+04  0.89868349111E+03 0.  0.
         23    2    4    4    0    0 -0.19339484223E+03 -0.47689975745E+03 -0.32905121549E+03  0.61726252488E+03  0.88900947999E+02 0.  0.
         23    2    4    4    0    0 -0.56298367259E+03  0.18931318597E+03 -0.11146243016E+04  0.12659914436E+04  0.86930451651E+02 0.  0.
          4    1    3    3  502    0  0.27856449347E+03  0.11625106211E+03 -0.13518587370E+03  0.33073812437E+03  0.00000000000E+00 0. -1.
         -4    1    3    3    0  502  0.47781402136E+03  0.17133550937E+03 -0.10611258696E+03  0.51857687654E+03  0.00000000000E+00 0.  1.
         13    1    5    5    0    0 -0.29191412356E+02 -0.97680659675E+02 -0.10836502964E+03  0.14878383473E+03  0.00000000000E+00 0. -1.
        -13    1    5    5    0    0 -0.16420342988E+03 -0.37921909777E+03 -0.22068618585E+03  0.46847869015E+03  0.00000000000E+00 0.  1.
          2    1    6    6  503    0 -0.40856215816E+03  0.14646498418E+03 -0.72941000779E+03  0.84877204721E+03  0.00000000000E+00 0. -1.
         -2    1    6    6    0  503 -0.15442151443E+03  0.42848201793E+02 -0.38521429385E+03  0.41721939636E+03  0.00000000000E+00 0.  1.
<mgrwt>
<rscale>  0 0.21512312E+04</rscale>
<asrwt>0</asrwt>
<pdfrwt beam="1">  1        1 0.33981100E+00 0.21512312E+04</pdfrwt>
<pdfrwt beam="2">  1       -1 0.80584228E-01 0.21512312E+04</pdfrwt>
<totfact> 0.30212606E+00</totfact>
</mgrwt>
</event>
<event>
12    3  0.8686020E-008  0.1836659E+04  0.7818608E-02  0.8687044E-01
          3   -1    0    0  501    0  0.00000000000E+00  0.00000000000E+00  0.76772812127E+03  0.76772812127E+03  0.00000000000E+00 0. -1.
         -3   -1    0    0    0  501 -0.00000000000E+00 -0.00000000000E+00 -0.10984738430E+04  0.10984738430E+04  0.00000000000E+00 0.  1.
         23    2    1    2    0    0 -0.15149444997E+03 -0.39299202505E+03  0.43509610343E+03  0.61235622440E+03  0.90984758151E+02 0.  0.
        254    2    1    2    0    0  0.15149444997E+03  0.39299202505E+03 -0.76584182516E+03  0.12538457399E+04  0.89901175638E+03 0.  0.
         23    2    4    4    0    0  0.13455572471E+03  0.44238394217E+03  0.90508448135E+01  0.47182321919E+03  0.93415400437E+02 0.  0.
         23    2    4    4    0    0  0.16938725259E+02 -0.49391917115E+02 -0.77489266997E+03  0.78202252068E+03  0.91510059488E+02 0.  0.
          1    1    3    3  502    0 -0.59960223117E+02 -0.26895263937E+03  0.30043513574E+03  0.40766655660E+03  0.00000000000E+00 0. -1.
         -1    1    3    3    0  502 -0.91534226856E+02 -0.12403938568E+03  0.13466096769E+03  0.20468966780E+03  0.00000000000E+00 0.  1.
         13    1    5    5    0    0 -0.13418956611E+02  0.64715734363E+02 -0.29062806487E+00  0.66092958289E+02  0.00000000000E+00 0. -1.
        -13    1    5    5    0    0  0.14797468133E+03  0.37766820780E+03  0.93414728784E+01  0.40573026090E+03  0.00000000000E+00 0.  1.
          4    1    6    6  503    0  0.66152148634E+01 -0.36861219441E-01 -0.12425991915E+01  0.67310087794E+01  0.00000000000E+00 0. -1.
         -4    1    6    6    0  503  0.10323510395E+02 -0.49355055895E+02 -0.77365007078E+03  0.77529151190E+03  0.00000000000E+00 0.  1.
<mgrwt>
<rscale>  0 0.18366592E+04</rscale>
<asrwt>0</asrwt>
<pdfrwt beam="1">  1        3 0.11811202E+00 0.18366592E+04</pdfrwt>
<pdfrwt beam="2">  1       -3 0.16899597E+00 0.18366592E+04</pdfrwt>
<totfact> 0.34069646E-01</totfact>
</mgrwt>
</event>
<event>
12    3  0.8686020E-008  0.2144547E+04  0.7818608E-02  0.8541870E-01
          1   -1    0    0  501    0  0.00000000000E+00  0.00000000000E+00  0.19538431024E+04  0.19538431024E+04  0.00000000000E+00 0. -1.
         -1   -1    0    0    0  501 -0.00000000000E+00 -0.00000000000E+00 -0.58846622111E+03  0.58846622111E+03  0.00000000000E+00 0.  1.
         23    2    1    2    0    0 -0.69693738932E+03  0.46008845383E+02  0.11989965337E+04  0.13904654295E+04  0.89234993907E+02 0.  0.
        254    2    1    2    0    0  0.69693738932E+03 -0.46008845383E+02  0.16638034752E+03  0.11518438940E+04  0.90067940892E+03 0.  0.
         23    2    4    4    0    0  0.10741613102E+03  0.92928305314E+02  0.44751054414E+03  0.47868033024E+03  0.93248465452E+02 0.  0.
         23    2    4    4    0    0  0.58952125830E+03 -0.13893715070E+03 -0.28113019662E+03  0.67316356378E+03  0.85300353517E+02 0.  0.
          1    1    3    3  502    0 -0.30743895188E+03  0.63093136656E+02  0.51115158124E+03  0.59981279748E+03  0.00000000000E+00 0. -1.
         -1    1    3    3    0  502 -0.38949843744E+03 -0.17084291273E+02  0.68784495249E+03  0.79065263197E+03  0.00000000000E+00 0.  1.
         13    1    5    5    0    0  0.43650375706E+02  0.31293826828E+02  0.57370781635E+02  0.78587947436E+02  0.00000000000E+00 0. -1.
        -13    1    5    5    0    0  0.63765755310E+02  0.61634478487E+02  0.39013976251E+03  0.40009238280E+03  0.00000000000E+00 0.  1.
          4    1    6    6  503    0  0.74352802566E+02 -0.39518389792E+02 -0.17585008093E+02  0.86019037955E+02  0.00000000000E+00 0. -1.
         -4    1    6    6    0  503  0.51516845574E+03 -0.99418760905E+02 -0.26354518852E+03  0.58714452582E+03  0.00000000000E+00 0.  1.
<mgrwt>
<rscale>  0 0.21445472E+04</rscale>
<asrwt>0</asrwt>
<pdfrwt beam="1">  1        1 0.30059124E+00 0.21445472E+04</pdfrwt>
<pdfrwt beam="2">  1       -1 0.90533266E-01 0.21445472E+04</pdfrwt>
<totfact> 0.34979054E+00</totfact>
</mgrwt>
</event>
<event>
12    3  0.8686020E-008  0.2502595E+04  0.7818608E-02  0.8402062E-01
         -1   -1    0    0    0  501 -0.00000000000E+00  0.00000000000E+00  0.66556203377E+03  0.66556203377E+03  0.00000000000E+00 0.  1.
          1   -1    0    0  501    0  0.00000000000E+00 -0.00000000000E+00 -0.23525167946E+04  0.23525167946E+04  0.00000000000E+00 0. -1.
         23    2    1    2    0    0  0.32954756198E+03  0.98781249969E+03 -0.35378871718E+03  0.11032484816E+04  0.87267551209E+02 0.  0.
        254    2    1    2    0    0 -0.32954756198E+03 -0.98781249969E+03 -0.13331660437E+04  0.19148303468E+04  0.89714459649E+03 0.  0.
         23    2    4    4    0    0  0.47063055574E+02  0.88078507301E+02  0.27824310845E+02  0.13696597681E+03  0.89513864178E+02 0.  0.
         23    2    4    4    0    0 -0.37661061755E+03 -0.10758910070E+04 -0.13609903545E+04  0.17778643700E+04  0.95550808184E+02 0.  0.
          1    1    3    3  502    0  0.23045845220E+03  0.58462289509E+03 -0.24077970140E+03  0.67295608494E+03  0.00000000000E+00 0. -1.
         -1    1    3    3    0  502  0.99089109785E+02  0.40318960460E+03 -0.11300901579E+03  0.43029239662E+03  0.00000000000E+00 0.  1.
         13    1    5    5    0    0  0.31199801033E+02 -0.96425522046E+01  0.18488788400E+02  0.37526546524E+02  0.00000000000E+00 0. -1.
        -13    1    5    5    0    0  0.15863254541E+02  0.97721059506E+02  0.93355224452E+01  0.99439430282E+02  0.00000000000E+00 0.  1.
          2    1    6    6  503    0 -0.59925990625E+02 -0.87819082990E+02 -0.12569170405E+03  0.16462600085E+03  0.00000000000E+00 0. -1.
         -2    1    6    6    0  503 -0.31668462693E+03 -0.98807192400E+03 -0.12352986505E+04  0.16132383692E+04  0.00000000000E+00 0.  1.
<mgrwt>
<rscale>  0 0.25025953E+04</rscale>
<asrwt>0</asrwt>
<pdfrwt beam="1">  1        1 0.36192566E+00 0.25025953E+04</pdfrwt>
<pdfrwt beam="2">  1       -1 0.10239416E+00 0.25025953E+04</pdfrwt>
<totfact> 0.13727154E+00</totfact>
</mgrwt>
</event>
<event>
12    3  0.8686020E-008  0.2827370E+04  0.7818608E-02  0.8294821E-01
         -1   -1    0    0    0  501 -0.00000000000E+00  0.00000000000E+00  0.91919944189E+03  0.91919944189E+03  0.00000000000E+00 0.  1.
          1   -1    0    0  501    0  0.00000000000E+00 -0.00000000000E+00 -0.21741796576E+04  0.21741796576E+04  0.00000000000E+00 0. -1.
         23    2    1    2    0    0 -0.78428092882E+03  0.33962549996E+02 -0.16552466044E+04  0.18342104280E+04  0.90755400402E+02 0.  0.
        254    2    1    2    0    0  0.78428092882E+03 -0.33962549996E+02  0.40026638871E+03  0.12591686715E+04  0.89946791559E+03 0.  0.
         23    2    4    4    0    0  0.59231863690E+03 -0.37096819560E+03  0.48028786192E+03  0.85298325903E+03  0.91897987531E+02 0.  0.
         23    2    4    4    0    0  0.19196229192E+03  0.33700564561E+03 -0.80021473208E+02  0.40618541244E+03  0.90337292496E+02 0.  0.
          1    1    3    3  502    0 -0.55723106565E+03  0.70726944195E+01 -0.12571314419E+04  0.13751130665E+04  0.00000000000E+00 0. -1.
         -1    1    3    3    0  502 -0.22704986317E+03  0.26889855576E+02 -0.39811516252E+03  0.45909736149E+03  0.00000000000E+00 0.  1.
         13    1    5    5    0    0  0.46015941262E+03 -0.29680288005E+03  0.41908578394E+03  0.68954443579E+03  0.00000000000E+00 0.  1.
        -13    1    5    5    0    0  0.13215922428E+03 -0.74165315550E+02  0.61202077979E+02  0.16343882324E+03  0.00000000000E+00 0. -1.
          4    1    6    6  503    0  0.66546749331E+02  0.46018046804E+02 -0.85312613155E+01  0.81356701616E+02  0.00000000000E+00 0.  1.
         -4    1    6    6    0  503  0.12541554259E+03  0.29098759880E+03 -0.71490211893E+02  0.32482871083E+03  0.00000000000E+00 0. -1.
<mgrwt>
<rscale>  0 0.28273696E+04</rscale>
<asrwt>0</asrwt>
<pdfrwt beam="1">  1        1 0.33448917E+00 0.28273696E+04</pdfrwt>
<pdfrwt beam="2">  1       -1 0.14141530E+00 0.28273696E+04</pdfrwt>
<totfact> 0.79976793E-01</totfact>
</mgrwt>
</event>
<event>
12    3  0.8686020E-008  0.1372817E+04  0.7818608E-02  0.8973734E-01
          1   -1    0    0  501    0  0.00000000000E+00  0.00000000000E+00  0.42089857913E+03  0.42089857913E+03  0.00000000000E+00 0. -1.
         -1   -1    0    0    0  501 -0.00000000000E+00 -0.00000000000E+00 -0.11194058770E+04  0.11194058770E+04  0.00000000000E+00 0.  1.
         23    2    1    2    0    0  0.22615915497E+03  0.10077644427E+03  0.12989727133E+03  0.29327249727E+03  0.88496335859E+02 0.  0.
        254    2    1    2    0    0 -0.22615915497E+03 -0.10077644427E+03 -0.82840456918E+03  0.12470319588E+04  0.89862713126E+03 0.  0.
         23    2    4    4    0    0 -0.32984653121E+02 -0.29916745374E+03  0.52438371741E+02  0.31924789581E+03  0.92629819313E+02 0.  0.
         23    2    4    4    0    0 -0.19317450185E+03  0.19839100947E+03 -0.88084294092E+03  0.92778406304E+03  0.90684068333E+02 0.  0.
          1    1    3    3  502    0  0.76360979229E+02  0.62508115084E+02  0.90091051581E+02  0.13362133503E+03  0.00000000000E+00 0. -1.
         -1    1    3    3    0  502  0.14979817575E+03  0.38268329187E+02  0.39806219746E+02  0.15965116224E+03  0.00000000000E+00 0.  1.
         13    1    5    5    0    0 -0.29993295214E+02 -0.15549995607E+03  0.72469432744E+02  0.17415984836E+03  0.00000000000E+00 0. -1.
        -13    1    5    5    0    0 -0.29913579073E+01 -0.14366749767E+03 -0.20031061003E+02  0.14508804745E+03  0.00000000000E+00 0.  1.
          3    1    6    6  503    0 -0.14986832536E+03  0.15957235307E+03 -0.55176071664E+03  0.59360234100E+03  0.00000000000E+00 0. -1.
         -3    1    6    6    0  503 -0.43306176491E+02  0.38818656402E+02 -0.32908222428E+03  0.33418172204E+03  0.00000000000E+00 0.  1.
<mgrwt>
<rscale>  0 0.13728166E+04</rscale>
<asrwt>0</asrwt>
<pdfrwt beam="1">  1        1 0.64753628E-01 0.13728166E+04</pdfrwt>
<pdfrwt beam="2">  1       -1 0.17221629E+00 0.13728166E+04</pdfrwt>
<totfact> 0.12977724E+01</totfact>
</mgrwt>
</event>
<event>
12    3  0.8686020E-008  0.3649569E+04  0.7818608E-02  0.8079231E-01
          1   -1    0    0  501    0  0.00000000000E+00  0.00000000000E+00  0.16610582139E+04  0.16610582139E+04  0.00000000000E+00 0. -1.
         -1   -1    0    0    0  501 -0.00000000000E+00 -0.00000000000E+00 -0.20046484797E+04  0.20046484797E+04  0.00000000000E+00 0.  1.
         23    2    1    2    0    0  0.67638018454E+03  0.15664035365E+04 -0.31027523335E+03  0.17365171995E+04  0.90061481887E+02 0.  0.
        254    2    1    2    0    0 -0.67638018454E+03 -0.15664035365E+04 -0.33315032493E+02  0.19291894941E+04  0.89975108745E+03 0.  0.
         23    2    4    4    0    0 -0.39549044579E+03 -0.69158975585E+03 -0.44677798108E+03  0.91796435976E+03  0.91317677964E+02 0.  0.
         23    2    4    4    0    0 -0.28088973875E+03 -0.87481378070E+03  0.41346294858E+03  0.10112251343E+04  0.86176947120E+02 0.  0.
          3    1    3    3  502    0  0.22830059669E+03  0.61558808709E+03 -0.91808248762E+02  0.66294691338E+03  0.00000000000E+00 0. -1.
         -3    1    3    3    0  502  0.44807958785E+03  0.95081544946E+03 -0.21846698459E+03  0.10735702862E+04  0.00000000000E+00 0.  1.
         13    1    5    5    0    0 -0.22685396089E+02 -0.15700313972E+02 -0.33950562085E+01  0.27796644783E+02  0.00000000000E+00 0.  1.
        -13    1    5    5    0    0 -0.37280504970E+03 -0.67588944188E+03 -0.44338292487E+03  0.89016771498E+03  0.00000000000E+00 0. -1.
          2    1    6    6  503    0 -0.26044042949E+03 -0.78930984280E+03  0.39955483491E+03  0.92221652086E+03  0.00000000000E+00 0. -1.
         -2    1    6    6    0  503 -0.20449309256E+02 -0.85503937897E+02  0.13908113675E+02  0.89008613465E+02  0.00000000000E+00 0.  1.
<mgrwt>
<rscale>  0 0.36495686E+04</rscale>
<asrwt>0</asrwt>
<pdfrwt beam="1">  1        1 0.25554742E+00 0.36495686E+04</pdfrwt>
<pdfrwt beam="2">  1       -1 0.30840746E+00 0.36495686E+04</pdfrwt>
<totfact> 0.11888394E-01</totfact>
</mgrwt>
</event>
<event>
12    3  0.8686020E-008  0.1911221E+04  0.7818608E-02  0.8649291E-01
          1   -1    0    0  501    0  0.00000000000E+00  0.00000000000E+00  0.86593556131E+03  0.86593556131E+03  0.00000000000E+00 0. -1.
         -1   -1    0    0    0  501 -0.00000000000E+00 -0.00000000000E+00 -0.10545723321E+04  0.10545723321E+04  0.00000000000E+00 0.  1.
         23    2    1    2    0    0  0.46394899907E+03  0.57538537369E+03 -0.11841507719E+03  0.75367849370E+03  0.87704842262E+02 0.  0.
        254    2    1    2    0    0 -0.46394899907E+03 -0.57538537369E+03 -0.70221693584E+02  0.11668293997E+04  0.90013485642E+03 0.  0.
         23    2    4    4    0    0  0.14438186880E+03 -0.45967820328E+03 -0.19675608563E+03  0.52854030232E+03  0.92150525409E+02 0.  0.
         23    2    4    4    0    0 -0.60833086787E+03 -0.11570717042E+03  0.12653439205E+03  0.63828909738E+03  0.89148333520E+02 0.  0.
          4    1    3    3  502    0  0.24566379340E+03  0.31420801318E+03 -0.10767564200E+03  0.41312397512E+03  0.00000000000E+00 0.  1.
         -4    1    3    3    0  502  0.21828520567E+03  0.26117736051E+03 -0.10739435194E+02  0.34055451858E+03  0.00000000000E+00 0. -1.
         13    1    5    5    0    0  0.13040754618E+03 -0.43300456383E+03 -0.15705712790E+03  0.47871288036E+03  0.00000000000E+00 0. -1.
        -13    1    5    5    0    0  0.13974322624E+02 -0.26673639449E+02 -0.39698957728E+02  0.49827421958E+02  0.00000000000E+00 0.  1.
          3    1    6    6  503    0 -0.41774290916E+03 -0.72812459636E+02  0.44362521980E+02  0.42635528117E+03  0.00000000000E+00 0. -1.
         -3    1    6    6    0  503 -0.19058795872E+03 -0.42894710780E+02  0.82171870069E+02  0.21193381621E+03  0.00000000000E+00 0.  1.
<mgrwt>
<rscale>  0 0.19112213E+04</rscale>
<asrwt>0</asrwt>
<pdfrwt beam="1">  1        1 0.13322086E+00 0.19112213E+04</pdfrwt>
<pdfrwt beam="2">  1       -1 0.16224190E+00 0.19112213E+04</pdfrwt>
<totfact> 0.51017849E+00</totfact>
</mgrwt>
</event>
<event>
12    3  0.8686020E-008  0.1129371E+04  0.7818608E-02  0.9177028E-01
         -1   -1    0    0    0  501 -0.00000000000E+00  0.00000000000E+00  0.21583893250E+03  0.21583893250E+03  0.00000000000E+00 0.  1.
          1   -1    0    0  501    0  0.00000000000E+00 -0.00000000000E+00 -0.14773502419E+04  0.14773502419E+04  0.00000000000E+00 0. -1.
         23    2    1    2    0    0  0.11566475858E+03  0.13187540577E+03 -0.33591631493E+03  0.39051341574E+03  0.94294741168E+02 0.  0.
        254    2    1    2    0    0 -0.11566475858E+03 -0.13187540577E+03 -0.92559499448E+03  0.13026757587E+04  0.89970471789E+03 0.  0.
         23    2    4    4    0    0 -0.25899939137E+03  0.17856334868E+03 -0.17000919484E+02  0.32762497894E+03  0.89908516505E+02 0.  0.
         23    2    4    4    0    0  0.14333463279E+03 -0.31043875446E+03 -0.90859407500E+03  0.97505077973E+03  0.90905405211E+02 0.  0.
          1    1    3    3  502    0  0.81025570784E+02  0.22117995009E+02 -0.14672638203E+03  0.16906501711E+03  0.00000000000E+00 0. -1.
         -1    1    3    3    0  502  0.34639187796E+02  0.10975741076E+03 -0.18918993290E+03  0.22144839864E+03  0.00000000000E+00 0.  1.
         13    1    5    5    0    0 -0.15900817843E+03  0.15774351226E+03 -0.23934037543E+02  0.22525420001E+03  0.00000000000E+00 0. -1.
        -13    1    5    5    0    0 -0.99991212940E+02  0.20819836427E+02  0.69331180592E+01  0.10237077894E+03  0.00000000000E+00 0.  1.
          3    1    6    6  503    0 -0.48235494102E+01 -0.76536440590E+02 -0.18252342552E+03  0.19797952983E+03  0.00000000000E+00 0. -1.
         -3    1    6    6    0  503  0.14815818220E+03 -0.23390231387E+03 -0.72607064947E+03  0.77707124990E+03  0.00000000000E+00 0.  1.
<mgrwt>
<rscale>  0 0.11293710E+04</rscale>
<asrwt>0</asrwt>
<pdfrwt beam="1">  1        1 0.22728465E+00 0.11293710E+04</pdfrwt>
<pdfrwt beam="2">  1       -1 0.33205990E-01 0.11293710E+04</pdfrwt>
<totfact> 0.57496645E+01</totfact>
</mgrwt>
</event>
<event>
12    3  0.8686020E-008  0.3675801E+04  0.7818608E-02  0.8073346E-01
          2   -1    0    0  501    0  0.00000000000E+00  0.00000000000E+00  0.24300438477E+04  0.24300438477E+04  0.00000000000E+00 0. -1.
         -2   -1    0    0    0  501 -0.00000000000E+00 -0.00000000000E+00 -0.13900485263E+04  0.13900485263E+04  0.00000000000E+00 0.  1.
         23    2    1    2    0    0 -0.13552211057E+04  0.10333566320E+04  0.78508574879E+03  0.18781758975E+04  0.82066404613E+02 0.  0.
        254    2    1    2    0    0  0.13552211057E+04 -0.10333566320E+04  0.25490957265E+03  0.19419164766E+04  0.89532705625E+03 0.  0.
         23    2    4    4    0    0  0.83293509357E+03 -0.92058083690E+03  0.50716736358E+03  0.13441267472E+04  0.90598181776E+02 0.  0.
         23    2    4    4    0    0  0.52228601208E+03 -0.11277579511E+03 -0.25225779093E+03  0.59778972936E+03  0.90650477447E+02 0.  0.
          1    1    3    3  502    0 -0.79039638574E+03  0.64370253721E+03  0.49509804124E+03  0.11332261352E+04  0.00000000000E+00 0. -1.
         -1    1    3    3    0  502 -0.56482471991E+03  0.38965409480E+03  0.28998770756E+03  0.74494976230E+03  0.00000000000E+00 0.  1.
         13    1    5    5    0    0  0.71726564347E+03 -0.74205279972E+03  0.41905631983E+03  0.11138763666E+04  0.00000000000E+00 0.  1.
        -13    1    5    5    0    0  0.11566945010E+03 -0.17852803717E+03  0.88111043757E+02  0.23025038062E+03  0.00000000000E+00 0. -1.
          3    1    6    6  503    0  0.28540134153E+03 -0.10211117903E+03 -0.11785389663E+03  0.32522324575E+03  0.00000000000E+00 0. -1.
         -3    1    6    6    0  503  0.23688467056E+03 -0.10664616079E+02 -0.13440389431E+03  0.27256648361E+03  0.00000000000E+00 0.  1.
<mgrwt>
<rscale>  0 0.36758013E+04</rscale>
<asrwt>0</asrwt>
<pdfrwt beam="1">  1        2 0.37385290E+00 0.36758013E+04</pdfrwt>
<pdfrwt beam="2">  1       -2 0.21385362E+00 0.36758013E+04</pdfrwt>
<totfact> 0.33472156E-01</totfact>
</mgrwt>
</event>
<event>
12    3  0.8686020E-008  0.5242418E+04  0.7818608E-02  0.7792163E-01
         -2   -1    0    0    0  501 -0.00000000000E+00  0.00000000000E+00  0.21786763687E+04  0.21786763687E+04  0.00000000000E+00 0. -1.
          2   -1    0    0  501    0  0.00000000000E+00 -0.00000000000E+00 -0.31536284189E+04  0.31536284189E+04  0.00000000000E+00 0.  1.
         23    2    1    2    0    0  0.65393593598E+03 -0.24542601230E+04 -0.30982064459E+03  0.25603856868E+04  0.92526070337E+02 0.  0.
        254    2    1    2    0    0 -0.65393593598E+03  0.24542601230E+04 -0.66513140562E+03  0.27719191008E+04  0.88888174423E+03 0.  0.
         23    2    4    4    0    0 -0.23607849997E+03  0.25705833130E+03 -0.36533936590E+03  0.51342203785E+03  0.91199193192E+02 0.  0.
         23    2    4    4    0    0 -0.41785743601E+03  0.21972017917E+04 -0.29979203972E+03  0.22584970630E+04  0.92914833292E+02 0.  0.
          3    1    3    3  502    0  0.42166738082E+03 -0.14617468884E+04 -0.21874925340E+03  0.15369966108E+04  0.00000000000E+00 0. -1.
         -3    1    3    3    0  502  0.23226855516E+03 -0.99251323456E+03 -0.91071391189E+02  0.10233890760E+04  0.00000000000E+00 0.  1.
         13    1    5    5    0    0 -0.11366277181E+03  0.59810641164E+02 -0.13722999537E+03  0.18795906501E+03  0.00000000000E+00 0. -1.
        -13    1    5    5    0    0 -0.12241572815E+03  0.19724769014E+03 -0.22810937054E+03  0.32546297284E+03  0.00000000000E+00 0.  1.
          1    1    6    6  503    0  0.71307137017E+00  0.91624960563E+02 -0.16639280680E+02  0.93126298813E+02  0.00000000000E+00 0. -1.
         -1    1    6    6    0  503 -0.41857050738E+03  0.21055768311E+04 -0.28315275903E+03  0.21653707641E+04  0.00000000000E+00 0.  1.
<mgrwt>
<rscale>  0 0.52424177E+04</rscale>
<asrwt>0</asrwt>
<pdfrwt beam="1">  1        2 0.48517360E+00 0.52424177E+04</pdfrwt>
<pdfrwt beam="2">  1       -2 0.33518098E+00 0.52424177E+04</pdfrwt>
<totfact> 0.19116034E-02</totfact>
</mgrwt>
</event>
<event>
12    3  0.8686020E-008  0.2534599E+04  0.7818608E-02  0.8390762E-01
          1   -1    0    0  501    0  0.00000000000E+00  0.00000000000E+00  0.23641421967E+04  0.23641421967E+04  0.00000000000E+00 0. -1.
         -1   -1    0    0    0  501 -0.00000000000E+00 -0.00000000000E+00 -0.67933630152E+03  0.67933630152E+03  0.00000000000E+00 0.  1.
         23    2    1    2    0    0 -0.92401801544E+03  0.44807297704E+03  0.12241130928E+04  0.16003844513E+04  0.90547460245E+02 0.  0.
        254    2    1    2    0    0  0.92401801544E+03 -0.44807297704E+03  0.46069280245E+03  0.14430940469E+04  0.90316326566E+03 0.  0.
         23    2    4    4    0    0  0.24634769457E+02 -0.19790582622E+03 -0.19713188326E+03  0.29742296552E+03  0.99125441233E+02 0.  0.
         23    2    4    4    0    0  0.89938324598E+03 -0.25016715082E+03  0.65782468571E+03  0.11456710814E+04  0.91406143933E+02 0.  0.
          1    1    3    3  502    0 -0.81201768845E+03  0.35920337492E+03  0.10511378305E+04  0.13759689421E+04  0.00000000000E+00 0. -1.
         -1    1    3    3    0  502 -0.11200032699E+03  0.88869602121E+02  0.17297526223E+03  0.22441550920E+03  0.00000000000E+00 0.  1.
         13    1    5    5    0    0  0.22779659218E+02 -0.19988005731E+03 -0.20612832255E+03  0.28802749095E+03  0.00000000000E+00 0.  1.
        -13    1    5    5    0    0  0.18551102389E+01  0.19742310862E+01  0.89964392932E+01  0.93954745669E+01  0.00000000000E+00 0. -1.
          3    1    6    6  503    0  0.70994518071E+02  0.48165707006E+01  0.45745794428E+02  0.84593727056E+02  0.00000000000E+00 0. -1.
         -3    1    6    6    0  503  0.82838872791E+03 -0.25498372152E+03  0.61207889128E+03  0.10610773544E+04  0.00000000000E+00 0.  1.
<mgrwt>
<rscale>  0 0.25345987E+04</rscale>
<asrwt>0</asrwt>
<pdfrwt beam="1">  1        1 0.36371418E+00 0.25345987E+04</pdfrwt>
<pdfrwt beam="2">  1       -1 0.10451328E+00 0.25345987E+04</pdfrwt>
<totfact> 0.12815053E+00</totfact>
</mgrwt>
</event>
<event>
12    3  0.8686020E-008  0.2031508E+04  0.7818608E-02  0.8592030E-01
          2   -1    0    0  501    0  0.00000000000E+00  0.00000000000E+00  0.87674222533E+03  0.87674222533E+03  0.00000000000E+00 0. -1.
         -2   -1    0    0    0  501 -0.00000000000E+00 -0.00000000000E+00 -0.11768072128E+04  0.11768072128E+04  0.00000000000E+00 0.  1.
         23    2    1    2    0    0 -0.28895737485E+03 -0.61297894745E+03  0.33316400992E+03  0.76099995256E+03  0.94250282730E+02 0.  0.
        254    2    1    2    0    0  0.28895737485E+03  0.61297894745E+03 -0.63322899740E+03  0.12925494856E+04  0.90025866006E+03 0.  0.
         23    2    4    4    0    0  0.19898183059E+03  0.80232591869E+03 -0.29083504012E+03  0.88106681770E+03  0.91504469739E+02 0.  0.
         23    2    4    4    0    0  0.89975544265E+02 -0.18934697124E+03 -0.34239395728E+03  0.41148266787E+03  0.90202493835E+02 0.  0.
          2    1    3    3  502    0 -0.20724345351E+03 -0.36165509868E+03  0.23879303990E+03  0.48038148937E+03  0.00000000000E+00 0. -1.
         -2    1    3    3    0  502 -0.81713921343E+02 -0.25132384877E+03  0.94370970020E+02  0.28061846320E+03  0.00000000000E+00 0.  1.
         13    1    5    5    0    0  0.73919272785E+02  0.29614531065E+03 -0.15465072762E+03  0.34217386145E+03  0.00000000000E+00 0.  1.
        -13    1    5    5    0    0  0.12506255780E+03  0.50618060805E+03 -0.13618431251E+03  0.53889295625E+03  0.00000000000E+00 0. -1.
          1    1    6    6  503    0  0.23121633826E+01  0.10012745681E+02 -0.18868487351E+02  0.21485366893E+02  0.00000000000E+00 0. -1.
         -1    1    6    6    0  503  0.87663380882E+02 -0.19935971692E+03 -0.32352546993E+03  0.38999730098E+03  0.00000000000E+00 0.  1.
<mgrwt>
<rscale>  0 0.20315084E+04</rscale>
<asrwt>0</asrwt>
<pdfrwt beam="1">  1        2 0.13488342E+00 0.20315084E+04</pdfrwt>
<pdfrwt beam="2">  1       -2 0.18104726E+00 0.20315084E+04</pdfrwt>
<totfact> 0.50240965E+00</totfact>
</mgrwt>
</event>
<event>
12    3  0.8686020E-008  0.1408573E+04  0.7818608E-02  0.8947636E-01
         -2   -1    0    0    0  501 -0.00000000000E+00  0.00000000000E+00  0.18181065808E+03  0.18181065808E+03  0.00000000000E+00 0.  1.
          2   -1    0    0  501    0  0.00000000000E+00 -0.00000000000E+00 -0.27282190203E+04  0.27282190203E+04  0.00000000000E+00 0. -1.
         23    2    1    2    0    0 -0.21331169720E+03  0.34128777741E+03 -0.59671533845E+03  0.72505371026E+03  0.87489773406E+02 0.  0.
        254    2    1    2    0    0  0.21331169720E+03 -0.34128777741E+03 -0.19496930237E+04  0.21849759681E+04  0.90046536141E+03 0.  0.
         23    2    4    4    0    0  0.33682268653E+03  0.20739056974E+01 -0.21507665517E+03  0.41005739780E+03  0.91843773073E+02 0.  0.
         23    2    4    4    0    0 -0.12351098932E+03 -0.34336168310E+03 -0.17346163686E+04  0.17749185703E+04  0.91048202025E+02 0.  0.
          1    1    3    3  502    0 -0.13050599621E+02  0.53794384156E+02 -0.13137187434E+03  0.14255778928E+03  0.00000000000E+00 0. -1.
         -1    1    3    3    0  502 -0.20026109758E+03  0.28749339325E+03 -0.46534346411E+03  0.58249592098E+03  0.00000000000E+00 0.  1.
         13    1    5    5    0    0 -0.52992052603E+01 -0.44483597125E+01 -0.49380755149E+01  0.85002394269E+01  0.00000000000E+00 0.  1.
        -13    1    5    5    0    0  0.34212189179E+03  0.65222654099E+01 -0.21013857965E+03  0.40155715838E+03  0.00000000000E+00 0. -1.
          3    1    6    6  503    0 -0.73811520384E+02 -0.30275865169E+03 -0.14115244317E+04  0.14455144977E+04  0.00000000000E+00 0. -1.
         -3    1    6    6    0  503 -0.49699468939E+02 -0.40603031412E+02 -0.32309193689E+03  0.32940407261E+03  0.00000000000E+00 0.  1.
<mgrwt>
<rscale>  0 0.14085727E+04</rscale>
<asrwt>0</asrwt>
<pdfrwt beam="1">  1        2 0.41972602E+00 0.14085727E+04</pdfrwt>
<pdfrwt beam="2">  1       -2 0.27970870E-01 0.14085727E+04</pdfrwt>
<totfact> 0.29187208E+01</totfact>
</mgrwt>
</event>
<event>
12    3  0.8686020E-008  0.3354788E+04  0.7818608E-02  0.8149093E-01
         -1   -1    0    0    0  501 -0.00000000000E+00  0.00000000000E+00  0.13788696571E+04  0.13788696571E+04  0.00000000000E+00 0.  1.
          1   -1    0    0  501    0  0.00000000000E+00 -0.00000000000E+00 -0.20405489184E+04  0.20405489184E+04  0.00000000000E+00 0. -1.
         23    2    1    2    0    0 -0.10266758634E+03  0.59496433762E+03 -0.17687975209E+04  0.18712190844E+04  0.91065885172E+02 0.  0.
        254    2    1    2    0    0  0.10266758634E+03 -0.59496433762E+03  0.11071182596E+04  0.15481994911E+04  0.89815790765E+03 0.  0.
         23    2    4    4    0    0 -0.23369745172E+03 -0.18523824036E+03 -0.59107637940E+01  0.31193384781E+03  0.91324058441E+02 0.  0.
         23    2    4    4    0    0  0.33636503806E+03 -0.40972609726E+03  0.11130290234E+04  0.12362656433E+04  0.92207484377E+02 0.  0.
          2    1    3    3  502    0 -0.27422784272E+02  0.69230754906E+02 -0.30802768040E+03  0.31690054972E+03  0.00000000000E+00 0. -1.
         -2    1    3    3    0  502 -0.75244802063E+02  0.52573358271E+03 -0.14607698405E+04  0.15543185347E+04  0.00000000000E+00 0.  1.
         13    1    5    5    0    0 -0.17439462201E+03 -0.17410829700E+03  0.17875657844E+02  0.24707634937E+03  0.00000000000E+00 0.  1.
        -13    1    5    5    0    0 -0.59302829709E+02 -0.11129943356E+02 -0.23786421638E+02  0.64857498448E+02  0.00000000000E+00 0. -1.
          2    1    6    6  503    0  0.44821476221E+02 -0.78979465511E+02  0.27066885829E+03  0.28549667520E+03  0.00000000000E+00 0. -1.
         -2    1    6    6    0  503  0.29154356184E+03 -0.33074663175E+03  0.84236016510E+03  0.95076896805E+03  0.00000000000E+00 0.  1.
<mgrwt>
<rscale>  0 0.33547882E+04</rscale>
<asrwt>0</asrwt>
<pdfrwt beam="1">  1        1 0.31393060E+00 0.33547882E+04</pdfrwt>
<pdfrwt beam="2">  1       -1 0.21213379E+00 0.33547882E+04</pdfrwt>
<totfact> 0.28721875E-01</totfact>
</mgrwt>
</event>
<event>
12    3  0.8686020E-008  0.2262151E+04  0.7818608E-02  0.8492996E-01
         -1   -1    0    0    0  501 -0.00000000000E+00  0.00000000000E+00  0.17554079055E+04  0.17554079055E+04  0.00000000000E+00 0.  1.
          1   -1    0    0  501    0  0.00000000000E+00 -0.00000000000E+00 -0.72879450317E+03  0.72879450317E+03  0.00000000000E+00 0. -1.
         23    2    1    2    0    0  0.14833696884E+03 -0.90833492065E+03  0.71633693804E+03  0.11699011547E+04  0.91945193907E+02 0.  0.
        254    2    1    2    0    0 -0.14833696884E+03  0.90833492065E+03  0.31027646424E+03  0.13143012539E+04  0.88546039848E+03 0.  0.
         23    2    4    4    0    0 -0.44793595657E+03  0.55371103105E+03  0.41526012380E+03  0.82951002203E+03  0.91669946692E+02 0.  0.
         23    2    4    4    0    0  0.29959898773E+03  0.35462388960E+03 -0.10498365956E+03  0.48479123185E+03  0.92104903115E+02 0.  0.
          1    1    3    3  502    0  0.95157398903E+02 -0.56107547915E+03  0.38574377329E+03  0.68750191454E+03  0.00000000000E+00 0. -1.
         -1    1    3    3    0  502  0.53179569939E+02 -0.34725944150E+03  0.33059316476E+03  0.48239924021E+03  0.00000000000E+00 0.  1.
         13    1    5    5    0    0 -0.44054399569E+03  0.51347545895E+03  0.39924541563E+03  0.78557810623E+03  0.00000000000E+00 0.  1.
        -13    1    5    5    0    0 -0.73919608807E+01  0.40235572097E+02  0.16014708164E+02  0.43931915793E+02  0.00000000000E+00 0. -1.
          1    1    6    6  503    0  0.10297135562E+03  0.11194096600E+03 -0.78945607076E+02  0.17136595001E+03  0.00000000000E+00 0. -1.
         -1    1    6    6    0  503  0.19662763211E+03  0.24268292360E+03 -0.26038052485E+02  0.31342528183E+03  0.00000000000E+00 0.  1.
<mgrwt>
<rscale>  0 0.22621509E+04</rscale>
<asrwt>0</asrwt>
<pdfrwt beam="1">  1        1 0.11212223E+00 0.22621509E+04</pdfrwt>
<pdfrwt beam="2">  1       -1 0.27006275E+00 0.22621509E+04</pdfrwt>
<totfact> 0.11988779E+00</totfact>
</mgrwt>
</event>
<event>
12    3  0.8686020E-008  0.2704780E+04  0.7818608E-02  0.8333456E-01
         -2   -1    0    0    0  501 -0.00000000000E+00  0.00000000000E+00  0.44582837899E+03  0.44582837899E+03  0.00000000000E+00 0.  1.
          2   -1    0    0  501    0  0.00000000000E+00 -0.00000000000E+00 -0.41023825986E+04  0.41023825986E+04  0.00000000000E+00 0. -1.
         23    2    1    2    0    0 -0.17029656420E+03 -0.11742551796E+04 -0.19424082331E+04  0.22779630332E+04  0.91047735048E+02 0.  0.
        254    2    1    2    0    0  0.17029656420E+03  0.11742551796E+04 -0.17141459865E+04  0.22702479444E+04  0.89880649701E+03 0.  0.
         23    2    4    4    0    0  0.39792541980E+01  0.93279824645E+03 -0.59600571980E+03  0.11106199799E+04  0.90141659053E+02 0.  0.
         23    2    4    4    0    0  0.16631731000E+03  0.24145693320E+03 -0.11181402667E+04  0.11596279645E+04  0.92392974249E+02 0.  0.
          1    1    3    3  502    0 -0.10158042112E+03 -0.92235135044E+03 -0.15534552240E+04  0.18094954348E+04  0.00000000000E+00 0. -1.
         -1    1    3    3    0  502 -0.68716143070E+02 -0.25190382920E+03 -0.38895300910E+03  0.46846759842E+03  0.00000000000E+00 0.  1.
         13    1    5    5    0    0  0.83541135114E+01  0.66323925328E+02 -0.70879476112E+02  0.97429740928E+02  0.00000000000E+00 0. -1.
        -13    1    5    5    0    0 -0.43748593134E+01  0.86647432112E+03 -0.52512624369E+03  0.10131902390E+04  0.00000000000E+00 0.  1.
          3    1    6    6  503    0  0.19093769498E+02  0.74477346899E+01 -0.26377813913E+02  0.33404039464E+02  0.00000000000E+00 0. -1.
         -3    1    6    6    0  503  0.14722354050E+03  0.23400919851E+03 -0.10917624528E+04  0.11262239250E+04  0.00000000000E+00 0.  1.
<mgrwt>
<rscale>  0 0.27047799E+04</rscale>
<asrwt>0</asrwt>
<pdfrwt beam="1">  1        2 0.63113577E+00 0.27047799E+04</pdfrwt>
<pdfrwt beam="2">  1       -2 0.68588983E-01 0.27047799E+04</pdfrwt>
<totfact> 0.48090285E-01</totfact>
</mgrwt>
</event>
<event>
12    3  0.8686020E-008  0.1382503E+04  0.7818608E-02  0.8966582E-01
          1   -1    0    0  501    0  0.00000000000E+00  0.00000000000E+00  0.14996815943E+04  0.14996815943E+04  0.00000000000E+00 0.  1.
         -1   -1    0    0    0  501 -0.00000000000E+00 -0.00000000000E+00 -0.31862014211E+03  0.31862014211E+03  0.00000000000E+00 0. -1.
         23    2    1    2    0    0  0.23398892081E+03  0.28920712245E+03  0.51504757346E+03  0.64182801053E+03  0.90981412604E+02 0.  0.
        254    2    1    2    0    0 -0.23398892081E+03 -0.28920712245E+03  0.66601387869E+03  0.11764737258E+04  0.89561396050E+03 0.  0.
         23    2    4    4    0    0 -0.86875104611E+02 -0.10114116690E+03 -0.20928136759E+03  0.26453648850E+03  0.91673570268E+02 0.  0.
         23    2    4    4    0    0 -0.14711381619E+03 -0.18806595555E+03  0.87529524628E+03  0.91193723733E+03  0.92067790889E+02 0.  0.
          4    1    3    3  502    0  0.11786594965E+03  0.20739432886E+03  0.28745453734E+03  0.37354370664E+03  0.00000000000E+00 0. -1.
         -4    1    3    3    0  502  0.11612297116E+03  0.81812793583E+02  0.22759303613E+03  0.26828430390E+03  0.00000000000E+00 0.  1.
         13    1    5    5    0    0 -0.42595496898E+02 -0.16626619379E+02 -0.15054597411E+02  0.48140022135E+02  0.00000000000E+00 0.  1.
        -13    1    5    5    0    0 -0.44279607713E+02 -0.84514547520E+02 -0.19422677018E+03  0.21639646637E+03  0.00000000000E+00 0. -1.
          2    1    6    6  503    0 -0.13365421546E+03 -0.10505064127E+03  0.53252950261E+03  0.55900514997E+03  0.00000000000E+00 0. -1.
         -2    1    6    6    0  503 -0.13459600737E+02 -0.83015314282E+02  0.34276574367E+03  0.35293208737E+03  0.00000000000E+00 0.  1.
<mgrwt>
<rscale>  0 0.13825032E+04</rscale>
<asrwt>0</asrwt>
<pdfrwt beam="1">  1        1 0.23072024E+00 0.13825032E+04</pdfrwt>
<pdfrwt beam="2">  1       -1 0.49018484E-01 0.13825032E+04</pdfrwt>
<totfact> 0.26634502E+01</totfact>
</mgrwt>
</event>
<event>
12    3  0.8686020E-008  0.1890808E+04  0.7818608E-02  0.8659446E-01
         -2   -1    0    0    0  501 -0.00000000000E+00  0.00000000000E+00  0.14229447671E+04  0.14229447671E+04  0.00000000000E+00 0.  1.
          2   -1    0    0  501    0  0.00000000000E+00 -0.00000000000E+00 -0.62812586790E+03  0.62812586790E+03  0.00000000000E+00 0. -1.
         23    2    1    2    0    0  0.71834818716E+03  0.49997324438E+02  0.19403905220E+03  0.75147217472E+03  0.92387364690E+02 0.  0.
        254    2    1    2    0    0 -0.71834818716E+03 -0.49997324438E+02  0.60077984699E+03  0.12995984603E+04  0.89971989136E+03 0.  0.
         23    2    4    4    0    0 -0.88829582349E+03 -0.16166041362E+03  0.57684167611E+03  0.10753883383E+04  0.92250742564E+02 0.  0.
         23    2    4    4    0    0  0.16994763633E+03  0.11166308918E+03  0.23938170879E+02  0.22421012196E+03  0.91358076731E+02 0.  0.
          2    1    3    3  502    0  0.41678526263E+03  0.14886629023E+02  0.67150267311E+02  0.42242244882E+03  0.00000000000E+00 0. -1.
         -2    1    3    3    0  502  0.30156292453E+03  0.35110695415E+02  0.12688878489E+03  0.32904972590E+03  0.00000000000E+00 0.  1.
         13    1    5    5    0    0 -0.35715165774E+03 -0.36200397954E+02  0.27088002885E+03  0.44971520484E+03  0.00000000000E+00 0.  1.
        -13    1    5    5    0    0 -0.53114416574E+03 -0.12546001567E+03  0.30596164726E+03  0.62567313346E+03  0.00000000000E+00 0. -1.
          4    1    6    6  503    0  0.16260022298E+03  0.98237631720E+02 -0.65619542585E+01  0.19008557032E+03  0.00000000000E+00 0.  1.
         -4    1    6    6    0  503  0.73474133412E+01  0.13425457463E+02  0.30500125137E+02  0.34124551635E+02  0.00000000000E+00 0. -1.
<mgrwt>
<rscale>  0 0.18908077E+04</rscale>
<asrwt>0</asrwt>
<pdfrwt beam="1">  1        2 0.96634750E-01 0.18908077E+04</pdfrwt>
<pdfrwt beam="2">  1       -2 0.21891458E+00 0.18908077E+04</pdfrwt>
<totfact> 0.44112843E+00</totfact>
</mgrwt>
</event>
<event>
12    3  0.8686020E-008  0.2005972E+04  0.7818608E-02  0.8603834E-01
          2   -1    0    0  501    0  0.00000000000E+00  0.00000000000E+00  0.21575303942E+04  0.21575303942E+04  0.00000000000E+00 0. -1.
         -2   -1    0    0    0  501 -0.00000000000E+00 -0.00000000000E+00 -0.46626507850E+03  0.46626507850E+03  0.00000000000E+00 0.  1.
         23    2    1    2    0    0  0.29808758138E+03  0.46191671171E+03 -0.78868542703E+02  0.56320225791E+03  0.93558973652E+02 0.  0.
        254    2    1    2    0    0 -0.29808758138E+03 -0.46191671171E+03  0.17701338584E+04  0.20605932148E+04  0.90024844652E+03 0.  0.
         23    2    4    4    0    0  0.10093331580E+03 -0.44089822003E+03  0.34027448381E+03  0.57324473311E+03  0.90796613635E+02 0.  0.
         23    2    4    4    0    0 -0.39902089718E+03 -0.21018491683E+02  0.14298593746E+04  0.14873484817E+04  0.89711880352E+02 0.  0.
          1    1    3    3  502    0  0.20087465486E+03  0.28811599237E+03 -0.93693149449E+02  0.36351046516E+03  0.00000000000E+00 0. -1.
         -1    1    3    3    0  502  0.97212926518E+02  0.17380071934E+03  0.14824606746E+02  0.19969179275E+03  0.00000000000E+00 0.  1.
         13    1    5    5    0    0  0.11432990519E+03 -0.40422790362E+03  0.32576077544E+03  0.53159346131E+03  0.00000000000E+00 0.  1.
        -13    1    5    5    0    0 -0.13396589392E+02 -0.36670316404E+02  0.14513708374E+02  0.41651271809E+02  0.00000000000E+00 0. -1.
          3    1    6    6  503    0 -0.19069229390E+03  0.24209313807E+02  0.78375437639E+03  0.80698238167E+03  0.00000000000E+00 0. -1.
         -3    1    6    6    0  503 -0.20832860328E+03 -0.45227805490E+02  0.64610499820E+03  0.68036610000E+03  0.00000000000E+00 0.  1.
<mgrwt>
<rscale>  0 0.20059722E+04</rscale>
<asrwt>0</asrwt>
<pdfrwt beam="1">  1        2 0.33192775E+00 0.20059722E+04</pdfrwt>
<pdfrwt beam="2">  1       -2 0.71733090E-01 0.20059722E+04</pdfrwt>
<totfact> 0.89257640E+00</totfact>
</mgrwt>
</event>
<event>
12    3  0.8686020E-008  0.1122631E+04  0.7818608E-02  0.9183410E-01
          2   -1    0    0  501    0  0.00000000000E+00  0.00000000000E+00  0.75336511093E+03  0.75336511093E+03  0.00000000000E+00 0. -1.
         -2   -1    0    0    0  501 -0.00000000000E+00 -0.00000000000E+00 -0.41822391257E+03  0.41822391257E+03  0.00000000000E+00 0.  1.
         23    2    1    2    0    0  0.89572698405E+02  0.44887785363E+02  0.21010886541E+03  0.25230350649E+03  0.97330069812E+02 0.  0.
        254    2    1    2    0    0 -0.89572698405E+02 -0.44887785363E+02  0.12503233295E+03  0.91928551701E+03  0.90521522078E+03 0.  0.
         23    2    4    4    0    0 -0.24602048543E+03 -0.40491162730E+03 -0.39358827644E+02  0.48426506455E+03  0.92108795749E+02 0.  0.
         23    2    4    4    0    0  0.15644778703E+03  0.36002384194E+03  0.16439116060E+03  0.43502045246E+03  0.90140243757E+02 0.  0.
          1    1    3    3  502    0 -0.10869086986E+02 -0.14647144093E+02  0.56404504979E+02  0.59280216463E+02  0.00000000000E+00 0. -1.
         -1    1    3    3    0  502  0.10044178539E+03  0.59534929455E+02  0.15370436043E+03  0.19302329003E+03  0.00000000000E+00 0.  1.
         13    1    5    5    0    0 -0.28895613541E+02 -0.51816591941E+02 -0.36667482772E+02  0.69745393935E+02  0.00000000000E+00 0. -1.
        -13    1    5    5    0    0 -0.21712487189E+03 -0.35309503536E+03 -0.26913448717E+01  0.41451967062E+03  0.00000000000E+00 0.  1.
          4    1    6    6  503    0 -0.31556184926E+01  0.65041472887E+02  0.10312222371E+02  0.65929455129E+02  0.00000000000E+00 0. -1.
         -4    1    6    6    0  503  0.15960340552E+03  0.29498236905E+03  0.15407893822E+03  0.36909099733E+03  0.00000000000E+00 0.  1.
<mgrwt>
<rscale>  0 0.11226314E+04</rscale>
<asrwt>0</asrwt>
<pdfrwt beam="1">  1        2 0.11590232E+00 0.11226314E+04</pdfrwt>
<pdfrwt beam="2">  1       -2 0.64342141E-01 0.11226314E+04</pdfrwt>
<totfact> 0.82526180E+01</totfact>
</mgrwt>
</event>
<event>
12    3  0.8686020E-008  0.1421842E+04  0.7818608E-02  0.8938158E-01
          2   -1    0    0  501    0  0.00000000000E+00  0.00000000000E+00  0.14242430031E+04  0.14242430031E+04  0.00000000000E+00 0. -1.
         -2   -1    0    0    0  501 -0.00000000000E+00 -0.00000000000E+00 -0.35486142119E+03  0.35486142119E+03  0.00000000000E+00 0.  1.
         23    2    1    2    0    0 -0.27194057921E+03 -0.21773528240E+03  0.61806984046E+03  0.71506262356E+03  0.89128536961E+02 0.  0.
        254    2    1    2    0    0  0.27194057921E+03  0.21773528240E+03  0.45131174142E+03  0.10640418007E+04  0.89841100498E+03 0.  0.
         23    2    4    4    0    0 -0.18347542348E+02 -0.30065277402E+02 -0.24554832951E+03  0.26422506202E+03  0.90996417819E+02 0.  0.
         23    2    4    4    0    0  0.29028812156E+03  0.24780055980E+03  0.69686007093E+03  0.79981673868E+03  0.91763533412E+02 0.  0.
          4    1    3    3  502    0 -0.19551893429E+03 -0.12014001042E+03  0.46112708406E+03  0.51507228951E+03  0.00000000000E+00 0. -1.
         -4    1    3    3    0  502 -0.76421644920E+02 -0.97595271983E+02  0.15694275640E+03  0.19999033404E+03  0.00000000000E+00 0.  1.
         13    1    5    5    0    0 -0.23892872801E+02 -0.59888664490E+02 -0.13528425230E+03  0.14986444017E+03  0.00000000000E+00 0. -1.
        -13    1    5    5    0    0  0.55453304525E+01  0.29823387088E+02 -0.11026407721E+03  0.11436062185E+03  0.00000000000E+00 0.  1.
          3    1    6    6  503    0  0.19696332180E+02  0.56026064207E+02  0.82516491975E+02  0.10166531768E+03  0.00000000000E+00 0. -1.
         -3    1    6    6    0  503  0.27059178938E+03  0.19177449560E+03  0.61434357895E+03  0.69815142100E+03  0.00000000000E+00 0.  1.
<mgrwt>
<rscale>  0 0.14218423E+04</rscale>
<asrwt>0</asrwt>
<pdfrwt beam="1">  1        2 0.21911430E+00 0.14218423E+04</pdfrwt>
<pdfrwt beam="2">  1       -2 0.54594066E-01 0.14218423E+04</pdfrwt>
<totfact> 0.42995218E+01</totfact>
</mgrwt>
</event>
<event>
12    3  0.8686020E-008  0.3332577E+04  0.7818608E-02  0.8154655E-01
          2   -1    0    0  501    0  0.00000000000E+00  0.00000000000E+00  0.23445139911E+04  0.23445139911E+04  0.00000000000E+00 0. -1.
         -2   -1    0    0    0  501 -0.00000000000E+00 -0.00000000000E+00 -0.11842610473E+04  0.11842610473E+04  0.00000000000E+00 0.  1.
         23    2    1    2    0    0 -0.10983336715E+04 -0.27477284853E+03 -0.57145696938E+03  0.12726272108E+04  0.10573541237E+03 0.  0.
        254    2    1    2    0    0  0.10983336715E+04  0.27477284853E+03  0.17317099132E+04  0.22561478276E+04  0.89974820047E+03 0.  0.
         23    2    4    4    0    0  0.71759073672E+03  0.89342230055E+02  0.16650640935E+04  0.18177067210E+04  0.93278018461E+02 0.  0.
         23    2    4    4    0    0  0.38074293483E+03  0.18543061848E+03  0.66645819765E+02  0.43844110664E+03  0.91865347174E+02 0.  0.
          3    1    3    3  502    0 -0.73713601321E+03 -0.15692654794E+03 -0.42658167979E+03  0.86600656635E+03  0.00000000000E+00 0. -1.
         -3    1    3    3    0  502 -0.36119765833E+03 -0.11784630059E+03 -0.14487528960E+03  0.40662064444E+03  0.00000000000E+00 0.  1.
         13    1    5    5    0    0  0.40947851253E+03  0.95697334249E+02  0.99163677552E+03  0.10771137946E+04  0.00000000000E+00 0.  1.
        -13    1    5    5    0    0  0.30811222419E+03 -0.63551041934E+01  0.67342731794E+03  0.74059292637E+03  0.00000000000E+00 0. -1.
          1    1    6    6  503    0  0.38184175027E+03  0.18136964754E+03  0.55285490536E+02  0.42632681919E+03  0.00000000000E+00 0. -1.
         -1    1    6    6    0  503 -0.10988154384E+01  0.40609709323E+01  0.11360329229E+02  0.12114287452E+02  0.00000000000E+00 0.  1.
<mgrwt>
<rscale>  0 0.33325765E+04</rscale>
<asrwt>0</asrwt>
<pdfrwt beam="1">  1        2 0.36069446E+00 0.33325765E+04</pdfrwt>
<pdfrwt beam="2">  1       -2 0.18219401E+00 0.33325765E+04</pdfrwt>
<totfact> 0.62385040E-01</totfact>
</mgrwt>
</event>
<event>
12    3  0.8686020E-008  0.1368710E+04  0.7818608E-02  0.8976785E-01
          2   -1    0    0  501    0  0.00000000000E+00  0.00000000000E+00  0.84596720450E+03  0.84596720450E+03  0.00000000000E+00 0. -1.
         -2   -1    0    0    0  501 -0.00000000000E+00 -0.00000000000E+00 -0.55361677689E+03  0.55361677689E+03  0.00000000000E+00 0.  1.
         23    2    1    2    0    0 -0.30368659078E+03 -0.22443211391E+03  0.30056520630E+02  0.38966171086E+03  0.91310105157E+02 0.  0.
        254    2    1    2    0    0  0.30368659078E+03  0.22443211391E+03  0.26229390698E+03  0.10099222705E+04  0.89919384991E+03 0.  0.
         23    2    4    4    0    0  0.33366645405E+03  0.45674254572E+03 -0.88194157286E+02  0.57825319966E+03  0.81556715875E+02 0.  0.
         23    2    4    4    0    0 -0.29979863275E+02 -0.23231043181E+03  0.35048806426E+03  0.43166907088E+03  0.92894427348E+02 0.  0.
          1    1    3    3  502    0 -0.15017654302E+03 -0.12150173650E+03  0.60330447275E+02  0.20237447694E+03  0.00000000000E+00 0. -1.
         -1    1    3    3    0  502 -0.15351004775E+03 -0.10293037742E+03 -0.30273926646E+02  0.18728723392E+03  0.00000000000E+00 0.  1.
         13    1    5    5    0    0  0.28611020952E+02  0.25231992981E+02  0.12800973858E+02  0.40238152559E+02  0.00000000000E+00 0.  1.
        -13    1    5    5    0    0  0.30505543310E+03  0.43151055274E+03 -0.10099513114E+03  0.53801504710E+03  0.00000000000E+00 0. -1.
          3    1    6    6  503    0 -0.35136240749E+02 -0.19826428034E+03  0.34090060160E+03  0.39592486717E+03  0.00000000000E+00 0. -1.
         -3    1    6    6    0  503  0.51563774745E+01 -0.34046151467E+02  0.95874626652E+01  0.35744203708E+02  0.00000000000E+00 0.  1.
<mgrwt>
<rscale>  0 0.13687098E+04</rscale>
<asrwt>0</asrwt>
<pdfrwt beam="1">  1        2 0.13014880E+00 0.13687098E+04</pdfrwt>
<pdfrwt beam="2">  1       -2 0.85171812E-01 0.13687098E+04</pdfrwt>
<totfact> 0.37388612E+01</totfact>
</mgrwt>
</event>
<event>
12    3  0.8686020E-008  0.1897536E+04  0.7818608E-02  0.8656084E-01
         -1   -1    0    0    0  501 -0.00000000000E+00  0.00000000000E+00  0.33291574056E+03  0.33291574056E+03  0.00000000000E+00 0.  1.
          1   -1    0    0  501    0  0.00000000000E+00 -0.00000000000E+00 -0.27038698042E+04  0.27038698042E+04  0.00000000000E+00 0. -1.
         23    2    1    2    0    0  0.48690318549E+03  0.21069722694E+03 -0.16936838745E+04  0.17771833591E+04  0.91365156540E+02 0.  0.
        254    2    1    2    0    0 -0.48690318549E+03 -0.21069722694E+03 -0.67727018915E+03  0.12596021856E+04  0.92001887121E+03 0.  0.
         23    2    4    4    0    0 -0.14497901554E+03 -0.57398539390E+02 -0.82673285260E+03  0.84607298242E+03  0.89659214460E+02 0.  0.
         23    2    4    4    0    0 -0.34192416995E+03 -0.15329868755E+03  0.14946266346E+03  0.41352920318E+03  0.90855316382E+02 0.  0.
          1    1    3    3  502    0  0.31250808657E+03  0.11881538114E+03 -0.11969858156E+04  0.12428006444E+04  0.00000000000E+00 0. -1.
         -1    1    3    3    0  502  0.17439509892E+03  0.91881845801E+02 -0.49669805890E+03  0.53438271476E+03  0.00000000000E+00 0.  1.
         13    1    5    5    0    0 -0.14862619269E+03 -0.31298465227E+02 -0.73991852413E+03  0.75534678223E+03  0.00000000000E+00 0.  1.
        -13    1    5    5    0    0  0.36471771444E+01 -0.26100074163E+02 -0.86814328476E+02  0.90726200191E+02  0.00000000000E+00 0. -1.
          3    1    6    6  503    0  0.39495151675E+01  0.70981273897E+00 -0.33638420188E+01  0.52362140245E+01  0.00000000000E+00 0. -1.
         -3    1    6    6    0  503 -0.34587368512E+03 -0.15400850029E+03  0.15282650547E+03  0.40829298916E+03  0.00000000000E+00 0.  1.
<mgrwt>
<rscale>  0 0.18975361E+04</rscale>
<asrwt>0</asrwt>
<pdfrwt beam="1">  1        1 0.41597997E+00 0.18975361E+04</pdfrwt>
<pdfrwt beam="2">  1       -1 0.51217807E-01 0.18975361E+04</pdfrwt>
<totfact> 0.35031741E+00</totfact>
</mgrwt>
</event>
<event>
12    3  0.8686020E-008  0.2504308E+04  0.7818608E-02  0.8401452E-01
          1   -1    0    0  501    0  0.00000000000E+00  0.00000000000E+00  0.10133397131E+04  0.10133397131E+04  0.00000000000E+00 0. -1.
         -1   -1    0    0    0  501 -0.00000000000E+00 -0.00000000000E+00 -0.15472495106E+04  0.15472495106E+04  0.00000000000E+00 0.  1.
         23    2    1    2    0    0 -0.70974405229E+03 -0.36396693676E+03  0.52769161999E+03  0.96038215791E+03  0.87560793840E+02 0.  0.
        254    2    1    2    0    0  0.70974405229E+03  0.36396693676E+03 -0.10616014175E+04  0.16002070658E+04  0.89300421769E+03 0.  0.
         23    2    4    4    0    0 -0.13136688231E+03 -0.11242688420E+03 -0.56738703469E+02  0.20332045375E+03  0.90680010941E+02 0.  0.
         23    2    4    4    0    0  0.84111093460E+03  0.47639382096E+03 -0.10048627141E+04  0.13968866120E+04  0.84406491322E+02 0.  0.
          4    1    3    3  502    0 -0.37175758632E+03 -0.23364891363E+03  0.31402871456E+03  0.53982362990E+03  0.00000000000E+00 0. -1.
         -4    1    3    3    0  502 -0.33798646597E+03 -0.13031802313E+03  0.21366290543E+03  0.42055852802E+03  0.00000000000E+00 0.  1.
         13    1    5    5    0    0 -0.61248846417E+02 -0.69264429179E+02 -0.74913982135E+02  0.11900036578E+03  0.00000000000E+00 0. -1.
        -13    1    5    5    0    0 -0.70118035891E+02 -0.43162455017E+02  0.18175278666E+02  0.84320087968E+02  0.00000000000E+00 0.  1.
          3    1    6    6  503    0  0.16676341247E+03  0.13421377409E+03 -0.21468718226E+03  0.30317315039E+03  0.00000000000E+00 0. -1.
         -3    1    6    6    0  503  0.67434752213E+03  0.34218004686E+03 -0.79017553181E+03  0.10937134616E+04  0.00000000000E+00 0.  1.
<mgrwt>
<rscale>  0 0.25043078E+04</rscale>
<asrwt>0</asrwt>
<pdfrwt beam="1">  1        1 0.15589842E+00 0.25043078E+04</pdfrwt>
<pdfrwt beam="2">  1       -1 0.23803839E+00 0.25043078E+04</pdfrwt>
<totfact> 0.10956495E+00</totfact>
</mgrwt>
</event>
<event>
12    3  0.8686020E-008  0.1674401E+04  0.7818608E-02  0.8776100E-01
         -2   -1    0    0    0  501 -0.00000000000E+00  0.00000000000E+00  0.18216302118E+03  0.18216302118E+03  0.00000000000E+00 0.  1.
          2   -1    0    0  501    0  0.00000000000E+00 -0.00000000000E+00 -0.38476796867E+04  0.38476796867E+04  0.00000000000E+00 0. -1.
         23    2    1    2    0    0 -0.39196253105E+03  0.43490292232E+03 -0.14937421143E+04  0.16070157025E+04  0.91971662448E+02 0.  0.
        254    2    1    2    0    0  0.39196253105E+03 -0.43490292232E+03 -0.21717745512E+04  0.24228270053E+04  0.90039481269E+03 0.  0.
         23    2    4    4    0    0 -0.18661310075E+03  0.29267992206E+01 -0.10944612818E+03  0.23473062858E+03  0.91032947290E+02 0.  0.
         23    2    4    4    0    0  0.57857563181E+03 -0.43782972154E+03 -0.20623284231E+04  0.21880963768E+04  0.90125482508E+02 0.  0.
          1    1    3    3  502    0 -0.11622742975E+03  0.11168799249E+03 -0.52546227267E+03  0.54963044229E+03  0.00000000000E+00 0. -1.
         -1    1    3    3    0  502 -0.27573510131E+03  0.32321492983E+03 -0.96827984159E+03  0.10573852602E+04  0.00000000000E+00 0.  1.
         13    1    5    5    0    0 -0.10681876058E+03 -0.31549530020E+02 -0.26300314216E+02  0.11444355371E+03  0.00000000000E+00 0.  1.
        -13    1    5    5    0    0 -0.79794340167E+02  0.34476329241E+02 -0.83145813964E+02  0.12028707487E+03  0.00000000000E+00 0. -1.
          2    1    6    6  503    0  0.39637568140E+03 -0.34930635446E+03 -0.14649211736E+04  0.15572805319E+04  0.00000000000E+00 0. -1.
         -2    1    6    6    0  503  0.18219995040E+03 -0.88523367084E+02 -0.59740724943E+03  0.63081584485E+03  0.00000000000E+00 0.  1.
<mgrwt>
<rscale>  0 0.16744013E+04</rscale>
<asrwt>0</asrwt>
<pdfrwt beam="1">  1        2 0.59195068E+00 0.16744013E+04</pdfrwt>
<pdfrwt beam="2">  1       -2 0.28025082E-01 0.16744013E+04</pdfrwt>
<totfact> 0.50875820E+00</totfact>
</mgrwt>
</event>
<event>
12    3  0.8686020E-008  0.1513041E+04  0.7818608E-02  0.8875827E-01
          1   -1    0    0  501    0  0.00000000000E+00  0.00000000000E+00  0.10363596760E+04  0.10363596760E+04  0.00000000000E+00 0. -1.
         -1   -1    0    0    0  501 -0.00000000000E+00 -0.00000000000E+00 -0.55224381297E+03  0.55224381297E+03  0.00000000000E+00 0.  1.
         23    2    1    2    0    0 -0.11172036732E+03  0.30030054575E+03  0.53386978112E+03  0.63002045244E+03  0.96161161838E+02 0.  0.
        254    2    1    2    0    0  0.11172036732E+03 -0.30030054575E+03 -0.49753918082E+02  0.95858303655E+03  0.90207767256E+03 0.  0.
         23    2    4    4    0    0  0.43305847778E+03  0.65704508071E+00 -0.19801787995E+03  0.48527247566E+03  0.93478435829E+02 0.  0.
         23    2    4    4    0    0 -0.32133811046E+03 -0.30095759083E+03  0.14826396187E+03  0.47331056089E+03  0.90592670452E+02 0.  0.
          3    1    3    3  502    0 -0.29552586340E+02  0.19694291453E+03  0.36345411216E+03  0.41443788267E+03  0.00000000000E+00 0. -1.
         -3    1    3    3    0  502 -0.82167780978E+02  0.10335763122E+03  0.17041566896E+03  0.21558256977E+03  0.00000000000E+00 0.  1.
         13    1    5    5    0    0  0.10663719828E+03 -0.23107009506E+02 -0.14568762459E+02  0.11008031062E+03  0.00000000000E+00 0. -1.
        -13    1    5    5    0    0  0.32642127950E+03  0.23764054587E+02 -0.18344911750E+03  0.37519216504E+03  0.00000000000E+00 0.  1.
          1    1    6    6  503    0 -0.18175725392E+03 -0.11946733789E+03  0.44843725741E+02  0.22207904880E+03  0.00000000000E+00 0. -1.
         -1    1    6    6    0  503 -0.13958085654E+03 -0.18149025294E+03  0.10342023613E+03  0.25123151209E+03  0.00000000000E+00 0.  1.
<mgrwt>
<rscale>  0 0.15130409E+04</rscale>
<asrwt>0</asrwt>
<pdfrwt beam="1">  1        1 0.15943995E+00 0.15130409E+04</pdfrwt>
<pdfrwt beam="2">  1       -1 0.84960587E-01 0.15130409E+04</pdfrwt>
<totfact> 0.18780100E+01</totfact>
</mgrwt>
</event>
<event>
12    3  0.8686020E-008  0.1772951E+04  0.7818608E-02  0.8720818E-01
          1   -1    0    0  501    0  0.00000000000E+00  0.00000000000E+00  0.99757454926E+03  0.99757454926E+03  0.00000000000E+00 0. -1.
         -1   -1    0    0    0  501 -0.00000000000E+00 -0.00000000000E+00 -0.78774908957E+03  0.78774908957E+03  0.00000000000E+00 0.  1.
         23    2    1    2    0    0  0.37035672677E+03  0.18455996120E+03  0.58803566240E+03  0.72451772513E+03  0.88957908254E+02 0.  0.
        254    2    1    2    0    0 -0.37035672677E+03 -0.18455996120E+03 -0.37821020270E+03  0.10608059137E+04  0.90057745073E+03 0.  0.
         23    2    4    4    0    0  0.21811342867E+03  0.12484305470E+03  0.38353421674E+02  0.27076596779E+03  0.93187811911E+02 0.  0.
         23    2    4    4    0    0 -0.58847015544E+03 -0.30940301590E+03 -0.41656362437E+03  0.79003994590E+03  0.92792849320E+02 0.  0.
          4    1    3    3  502    0  0.24883925927E+02  0.39221928562E+02  0.89198736001E+02  0.10056830492E+03  0.00000000000E+00 0. -1.
         -4    1    3    3    0  502  0.34547280084E+03  0.14533803264E+03  0.49883692640E+03  0.62394942022E+03  0.00000000000E+00 0.  1.
         13    1    5    5    0    0  0.48687191416E+02  0.76576632811E+02  0.24834949986E+02  0.94080805914E+02  0.00000000000E+00 0. -1.
        -13    1    5    5    0    0  0.16942623725E+03  0.48266421886E+02  0.13518471688E+02  0.17668516188E+03  0.00000000000E+00 0.  1.
          2    1    6    6  503    0 -0.49231042803E+03 -0.28560332679E+03 -0.38044277953E+03  0.68459880683E+03  0.00000000000E+00 0. -1.
         -2    1    6    6    0  503 -0.96159727404E+02 -0.23799689110E+02 -0.36120844847E+02  0.10544113907E+03  0.00000000000E+00 0.  1.
<mgrwt>
<rscale>  0 0.17729506E+04</rscale>
<asrwt>0</asrwt>
<pdfrwt beam="1">  1        1 0.15347301E+00 0.17729506E+04</pdfrwt>
<pdfrwt beam="2">  1       -1 0.12119217E+00 0.17729506E+04</pdfrwt>
<totfact> 0.86861255E+00</totfact>
</mgrwt>
</event>
<event>
12    3  0.8686020E-008  0.2166679E+04  0.7818608E-02  0.8532426E-01
          1   -1    0    0  501    0  0.00000000000E+00  0.00000000000E+00  0.74692282745E+03  0.74692282745E+03  0.00000000000E+00 0. -1.
         -1   -1    0    0    0  501 -0.00000000000E+00 -0.00000000000E+00 -0.15712799817E+04  0.15712799817E+04  0.00000000000E+00 0.  1.
         23    2    1    2    0    0  0.59054505010E+03  0.18345853895E+03  0.34865170050E+03  0.71572667205E+03  0.91138186905E+02 0.  0.
        254    2    1    2    0    0 -0.59054505010E+03 -0.18345853895E+03 -0.11730088547E+04  0.16024761371E+04  0.89976636130E+03 0.  0.
         23    2    4    4    0    0 -0.38511421225E+03 -0.51047580166E+03 -0.48219031077E+03  0.80598141842E+03  0.90554130154E+02 0.  0.
         23    2    4    4    0    0 -0.20543083785E+03  0.32701726271E+03 -0.69081854398E+03  0.79649471867E+03  0.89618396074E+02 0.  0.
          1    1    3    3  502    0  0.28036113689E+03  0.11887796647E+03  0.20982013305E+03  0.36980917542E+03  0.00000000000E+00 0. -1.
         -1    1    3    3    0  502  0.31018391321E+03  0.64580572474E+02  0.13883156745E+03  0.34591749663E+03  0.00000000000E+00 0.  1.
         13    1    5    5    0    0 -0.28674540841E+03 -0.43572910121E+03 -0.40400211320E+03  0.65977305670E+03  0.00000000000E+00 0.  1.
        -13    1    5    5    0    0 -0.98368803838E+02 -0.74746700448E+02 -0.78188197566E+02  0.14620836171E+03  0.00000000000E+00 0. -1.
          1    1    6    6  503    0 -0.61469723584E+01  0.12087257158E+02 -0.25451008866E+01  0.13797267603E+02  0.00000000000E+00 0. -1.
         -1    1    6    6    0  503 -0.19928386550E+03  0.31493000555E+03 -0.68827344309E+03  0.78269745107E+03  0.00000000000E+00 0.  1.
<mgrwt>
<rscale>  0 0.21666794E+04</rscale>
<asrwt>0</asrwt>
<pdfrwt beam="1">  1        1 0.11491121E+00 0.21666794E+04</pdfrwt>
<pdfrwt beam="2">  1       -1 0.24173538E+00 0.21666794E+04</pdfrwt>
<totfact> 0.17798917E+00</totfact>
</mgrwt>
</event>
<event>
12    3  0.8686020E-008  0.1909884E+04  0.7818608E-02  0.8649952E-01
         -2   -1    0    0    0  501 -0.00000000000E+00  0.00000000000E+00  0.69327568589E+03  0.69327568589E+03  0.00000000000E+00 0.  1.
          2   -1    0    0  501    0  0.00000000000E+00 -0.00000000000E+00 -0.13153699551E+04  0.13153699551E+04  0.00000000000E+00 0. -1.
         23    2    1    2    0    0  0.55839671271E+03  0.15697278115E+03 -0.72298095040E+03  0.93186899667E+03  0.96078246809E+02 0.  0.
        254    2    1    2    0    0 -0.55839671271E+03 -0.15697278115E+03  0.10088668116E+03  0.10767766444E+04  0.90156667896E+03 0.  0.
         23    2    4    4    0    0 -0.69983076760E+02 -0.40585111670E+03  0.26376117527E+03  0.49754814624E+03  0.91495575244E+02 0.  0.
         23    2    4    4    0    0 -0.48841363595E+03  0.24887833554E+03 -0.16287449411E+03  0.57922849812E+03  0.92137107156E+02 0.  0.
          4    1    3    3  502    0  0.14007859855E+02  0.17760055357E+02 -0.51826219425E+02  0.56547296344E+02  0.00000000000E+00 0. -1.
         -4    1    3    3    0  502  0.54438885286E+03  0.13921272580E+03 -0.67115473098E+03  0.87532170032E+03  0.00000000000E+00 0.  1.
         13    1    5    5    0    0 -0.66787752713E+02 -0.41068859190E+03  0.26021817043E+03  0.49075372607E+03  0.00000000000E+00 0. -1.
        -13    1    5    5    0    0 -0.31953240477E+01  0.48374752047E+01  0.35430048430E+01  0.67944201698E+01  0.00000000000E+00 0.  1.
          3    1    6    6  503    0 -0.40249564750E+03  0.24091561704E+03 -0.12871214846E+03  0.48642563455E+03  0.00000000000E+00 0. -1.
         -3    1    6    6    0  503 -0.85917988455E+02  0.79627185052E+01 -0.34162345651E+02  0.92802863568E+02  0.00000000000E+00 0.  1.
<mgrwt>
<rscale>  0 0.19098838E+04</rscale>
<asrwt>0</asrwt>
<pdfrwt beam="1">  1        2 0.20236461E+00 0.19098838E+04</pdfrwt>
<pdfrwt beam="2">  1       -2 0.10665780E+00 0.19098838E+04</pdfrwt>
<totfact> 0.10729592E+01</totfact>
</mgrwt>
</event>
<event>
12    3  0.8686020E-008  0.3186951E+04  0.7818608E-02  0.8192272E-01
          2   -1    0    0  501    0  0.00000000000E+00  0.00000000000E+00  0.16100286377E+04  0.16100286377E+04  0.00000000000E+00 0. -1.
         -2   -1    0    0    0  501 -0.00000000000E+00 -0.00000000000E+00 -0.15770925519E+04  0.15770925519E+04  0.00000000000E+00 0.  1.
         23    2    1    2    0    0  0.71575241223E+03  0.12178405436E+04 -0.37220004413E+03  0.14636494991E+04  0.91103667272E+02 0.  0.
        254    2    1    2    0    0 -0.71575241223E+03 -0.12178405436E+04  0.40513612995E+03  0.17234716905E+04  0.90043449465E+03 0.  0.
         23    2    4    4    0    0 -0.74763684758E+03 -0.57058082229E+03  0.48826826826E+03  0.10637889065E+04  0.93368116332E+02 0.  0.
         23    2    4    4    0    0  0.31884435356E+02 -0.64725972127E+03 -0.83132138317E+02  0.65968278405E+03  0.91151846698E+02 0.  0.
          1    1    3    3  502    0  0.17560011866E+03  0.33907121065E+03 -0.64695527264E+02  0.38728568114E+03  0.00000000000E+00 0. -1.
         -1    1    3    3    0  502  0.54015229356E+03  0.87876933290E+03 -0.30750451686E+03  0.10763638179E+04  0.00000000000E+00 0.  1.
         13    1    5    5    0    0 -0.63583333022E+03 -0.45271992031E+03  0.37648082087E+03  0.86658938290E+03  0.00000000000E+00 0. -1.
        -13    1    5    5    0    0 -0.11180351736E+03 -0.11786090198E+03  0.11178744740E+03  0.19719952359E+03  0.00000000000E+00 0.  1.
          1    1    6    6  503    0  0.59444602298E+02 -0.54968392686E+03 -0.65270128118E+02  0.55672818307E+03  0.00000000000E+00 0. -1.
         -1    1    6    6    0  503 -0.27560166942E+02 -0.97575794404E+02 -0.17862010199E+02  0.10295460098E+03  0.00000000000E+00 0.  1.
<mgrwt>
<rscale>  0 0.31869510E+04</rscale>
<asrwt>0</asrwt>
<pdfrwt beam="1">  1        2 0.24769671E+00 0.31869510E+04</pdfrwt>
<pdfrwt beam="2">  1       -2 0.24262962E+00 0.31869510E+04</pdfrwt>
<totfact> 0.66216743E-01</totfact>
</mgrwt>
</event>
<event>
12    3  0.8686020E-008  0.1249353E+04  0.7818608E-02  0.9070722E-01
          2   -1    0    0  501    0  0.00000000000E+00  0.00000000000E+00  0.13542855892E+04  0.13542855892E+04  0.00000000000E+00 0.  1.
         -2   -1    0    0    0  501 -0.00000000000E+00 -0.00000000000E+00 -0.28813771682E+03  0.28813771682E+03  0.00000000000E+00 0. -1.
         23    2    1    2    0    0 -0.15709416640E+03  0.19459190622E+02  0.59795911823E+03  0.62522344333E+03  0.91060473320E+02 0.  0.
        254    2    1    2    0    0  0.15709416640E+03 -0.19459190622E+02  0.46818875415E+03  0.10171998627E+04  0.88906558472E+03 0.  0.
         23    2    4    4    0    0 -0.21293149820E+03 -0.18525561565E+03 -0.10062723103E+03  0.31273197343E+03  0.89532013950E+02 0.  0.
         23    2    4    4    0    0  0.37002566460E+03  0.16579642503E+03  0.56881598519E+03  0.70446788927E+03  0.91191748521E+02 0.  0.
          2    1    3    3  502    0 -0.12519620134E+03 -0.21188657266E+02  0.47866348172E+03  0.49521891801E+03  0.00000000000E+00 0.  1.
         -2    1    3    3    0  502 -0.31897965061E+02  0.40647847888E+02  0.11929563651E+03  0.13000452532E+03  0.00000000000E+00 0. -1.
         13    1    5    5    0    0 -0.14781541741E+03 -0.69620413996E+02 -0.55997361021E+02  0.17271972705E+03  0.00000000000E+00 0.  1.
        -13    1    5    5    0    0 -0.65116080787E+02 -0.11563520165E+03 -0.44629870013E+02  0.14001224638E+03  0.00000000000E+00 0. -1.
          3    1    6    6  503    0  0.17720988121E+03  0.11841588847E+03  0.24608728517E+03  0.32555278614E+03  0.00000000000E+00 0. -1.
         -3    1    6    6    0  503  0.19281578338E+03  0.47380536560E+02  0.32272870002E+03  0.37891510313E+03  0.00000000000E+00 0.  1.
<mgrwt>
<rscale>  0 0.12493530E+04</rscale>
<asrwt>0</asrwt>
<pdfrwt beam="1">  1        2 0.20835163E+00 0.12493530E+04</pdfrwt>
<pdfrwt beam="2">  1       -2 0.44328880E-01 0.12493530E+04</pdfrwt>
<totfact> 0.72941810E+01</totfact>
</mgrwt>
</event>
<event>
12    3  0.8686020E-008  0.1203314E+04  0.7818608E-02  0.9109961E-01
          1   -1    0    0  501    0  0.00000000000E+00  0.00000000000E+00  0.20640584102E+04  0.20640584102E+04  0.00000000000E+00 0. -1.
         -1   -1    0    0    0  501 -0.00000000000E+00 -0.00000000000E+00 -0.17537827821E+03  0.17537827821E+03  0.00000000000E+00 0.  1.
         23    2    1    2    0    0 -0.18030267052E+03 -0.12610829419E+03  0.19266541467E+03  0.30477477320E+03  0.85763310967E+02 0.  0.
        254    2    1    2    0    0  0.18030267052E+03  0.12610829419E+03  0.16960147174E+04  0.19346619153E+04  0.90445478052E+03 0.  0.
         23    2    4    4    0    0 -0.16851873852E+03  0.41820652527E+03  0.72640362041E+03  0.85983231712E+03  0.91400934417E+02 0.  0.
         23    2    4    4    0    0  0.34882140904E+03 -0.29209823109E+03  0.96961109695E+03  0.10748295981E+04  0.90084591859E+02 0.  0.
          1    1    3    3  502    0 -0.14011462550E+03 -0.50028271051E+02  0.10620087983E+03  0.18279377194E+03  0.00000000000E+00 0. -1.
         -1    1    3    3    0  502 -0.40188045020E+02 -0.76080023135E+02  0.86464534840E+02  0.12198100126E+03  0.00000000000E+00 0.  1.
         13    1    5    5    0    0 -0.72677678449E+02  0.83460698432E+02  0.14971706675E+03  0.18617984102E+03  0.00000000000E+00 0.  1.
        -13    1    5    5    0    0 -0.95841060076E+02  0.33474582684E+03  0.57668655366E+03  0.67365247610E+03  0.00000000000E+00 0. -1.
          3    1    6    6  503    0  0.62782964468E+02 -0.99470160264E+02  0.21260312778E+03  0.24297346223E+03  0.00000000000E+00 0. -1.
         -3    1    6    6    0  503  0.28603844457E+03 -0.19262807082E+03  0.75700796918E+03  0.83185613590E+03  0.00000000000E+00 0.  1.
<mgrwt>
<rscale>  0 0.12033138E+04</rscale>
<asrwt>0</asrwt>
<pdfrwt beam="1">  1        1 0.31754743E+00 0.12033138E+04</pdfrwt>
<pdfrwt beam="2">  1       -1 0.26981275E-01 0.12033138E+04</pdfrwt>
<totfact> 0.32833046E+01</totfact>
</mgrwt>
</event>
<event>
12    3  0.8686020E-008  0.1392138E+04  0.7818608E-02  0.8959529E-01
          1   -1    0    0  501    0  0.00000000000E+00  0.00000000000E+00  0.44454101966E+03  0.44454101966E+03  0.00000000000E+00 0. -1.
         -1   -1    0    0    0  501 -0.00000000000E+00 -0.00000000000E+00 -0.10899154287E+04  0.10899154287E+04  0.00000000000E+00 0.  1.
         23    2    1    2    0    0 -0.15753915787E+03  0.56834738341E+02  0.20856653733E+03  0.28259221126E+03  0.91156917610E+02 0.  0.
        254    2    1    2    0    0  0.15753915787E+03 -0.56834738341E+02 -0.85394094633E+03  0.12518642371E+04  0.89994452856E+03 0.  0.
         23    2    4    4    0    0  0.49082097024E+03  0.12504888301E+03 -0.58078072804E+03  0.77600033166E+03  0.91256850123E+02 0.  0.
         23    2    4    4    0    0 -0.33328181238E+03 -0.18188362135E+03 -0.27316021829E+03  0.47586390541E+03  0.87587290410E+02 0.  0.
          3    1    3    3  502    0 -0.15951895989E+03  0.64567655621E+02  0.21270312435E+03  0.27360171751E+03  0.00000000000E+00 0. -1.
         -3    1    3    3    0  502  0.19798020190E+01 -0.77329172802E+01 -0.41365870222E+01  0.89904937511E+01  0.00000000000E+00 0.  1.
         13    1    5    5    0    0  0.89596294124E+02  0.31907296675E+02 -0.61765433363E+02  0.11340432205E+03  0.00000000000E+00 0. -1.
        -13    1    5    5    0    0  0.40122467612E+03  0.93141586336E+02 -0.51901529468E+03  0.66259600960E+03  0.00000000000E+00 0.  1.
          1    1    6    6  503    0 -0.46319649280E+02  0.59112088288E+01 -0.33795491650E+02  0.57641890628E+02  0.00000000000E+00 0. -1.
         -1    1    6    6    0  503 -0.28696216310E+03 -0.18779483018E+03 -0.23936472664E+03  0.41822201478E+03  0.00000000000E+00 0.  1.
<mgrwt>
<rscale>  0 0.13921381E+04</rscale>
<asrwt>0</asrwt>
<pdfrwt beam="1">  1        1 0.68390927E-01 0.13921381E+04</pdfrwt>
<pdfrwt beam="2">  1       -1 0.16767930E+00 0.13921381E+04</pdfrwt>
<totfact> 0.12999905E+01</totfact>
</mgrwt>
</event>
<event>
12    3  0.8686020E-008  0.3153813E+04  0.7818608E-02  0.8201123E-01
          2   -1    0    0  501    0  0.00000000000E+00  0.00000000000E+00  0.20918075764E+04  0.20918075764E+04  0.00000000000E+00 0. -1.
         -2   -1    0    0    0  501 -0.00000000000E+00 -0.00000000000E+00 -0.11887488984E+04  0.11887488984E+04  0.00000000000E+00 0.  1.
         23    2    1    2    0    0 -0.17027618781E+03  0.13482097686E+04 -0.10135012293E+03  0.13657023936E+04  0.90595916578E+02 0.  0.
        254    2    1    2    0    0  0.17027618781E+03 -0.13482097686E+04  0.10044088010E+04  0.19148540812E+04  0.90064729631E+03 0.  0.
         23    2    4    4    0    0  0.92722257828E+02 -0.14601709510E+04  0.92044564799E+03  0.17309357734E+04  0.90674349337E+02 0.  0.
         23    2    4    4    0    0  0.77553929978E+02  0.11196118235E+03  0.83963153030E+02  0.18391830778E+03  0.90698481026E+02 0.  0.
          3    1    3    3  502    0 -0.24610980057E+02  0.51361474336E+03 -0.56603283902E+02  0.51731009721E+03  0.00000000000E+00 0. -1.
         -3    1    3    3    0  502 -0.14566520775E+03  0.83459502527E+03 -0.44746839029E+02  0.84839229638E+03  0.00000000000E+00 0.  1.
         13    1    5    5    0    0  0.87096132506E+01 -0.84065049151E+03  0.52218500985E+03  0.98966978874E+03  0.00000000000E+00 0. -1.
        -13    1    5    5    0    0  0.84012644578E+02 -0.61952045946E+03  0.39826063814E+03  0.74126598467E+03  0.00000000000E+00 0.  1.
          4    1    6    6  503    0  0.36526936989E+02  0.21369695240E+02  0.72318165562E+02  0.83790202713E+02  0.00000000000E+00 0. -1.
         -4    1    6    6    0  503  0.41026992988E+02  0.90591487108E+02  0.11644987468E+02  0.10012810506E+03  0.00000000000E+00 0.  1.
<mgrwt>
<rscale>  0 0.31538129E+04</rscale>
<asrwt>0</asrwt>
<pdfrwt beam="1">  1        2 0.32181655E+00 0.31538129E+04</pdfrwt>
<pdfrwt beam="2">  1       -2 0.18288445E+00 0.31538129E+04</pdfrwt>
<totfact> 0.86950711E-01</totfact>
</mgrwt>
</event>
<event>
12    3  0.8686020E-008  0.2388597E+04  0.7818608E-02  0.8443785E-01
          1   -1    0    0  501    0  0.00000000000E+00  0.00000000000E+00  0.25572947472E+04  0.25572947472E+04  0.00000000000E+00 0. -1.
         -1   -1    0    0    0  501 -0.00000000000E+00 -0.00000000000E+00 -0.55775676513E+03  0.55775676513E+03  0.00000000000E+00 0.  1.
         23    2    1    2    0    0  0.95851624502E+03 -0.28825309245E+03  0.58883587199E+03  0.11650060329E+04  0.93102820563E+02 0.  0.
        254    2    1    2    0    0 -0.95851624502E+03  0.28825309245E+03  0.14107021100E+04  0.19500454794E+04  0.90041862001E+03 0.  0.
         23    2    4    4    0    0 -0.87502843393E+03  0.55292032331E+03  0.97315661614E+03  0.14237873607E+04  0.93493340584E+02 0.  0.
         23    2    4    4    0    0 -0.83487811090E+02 -0.26466723085E+03  0.43754549390E+03  0.52625811875E+03  0.92100980659E+02 0.  0.
          4    1    3    3  502    0  0.61242531087E+03 -0.20963776357E+03  0.42298637195E+03  0.77325948049E+03  0.00000000000E+00 0. -1.
         -4    1    3    3    0  502  0.34609093415E+03 -0.78615328881E+02  0.16584950003E+03  0.39174655237E+03  0.00000000000E+00 0.  1.
         13    1    5    5    0    0 -0.41785827620E+03  0.30463421603E+03  0.52860241146E+03  0.73947823089E+03  0.00000000000E+00 0.  1.
        -13    1    5    5    0    0 -0.45717015773E+03  0.24828610728E+03  0.44455420468E+03  0.68430912977E+03  0.00000000000E+00 0. -1.
          2    1    6    6  503    0 -0.43982722356E+02 -0.12373772986E+03  0.12575471829E+03  0.18182341661E+03  0.00000000000E+00 0.  1.
         -2    1    6    6    0  503 -0.39505088734E+02 -0.14092950099E+03  0.31179077561E+03  0.34443470214E+03  0.00000000000E+00 0. -1.
<mgrwt>
<rscale>  0 0.23885966E+04</rscale>
<asrwt>0</asrwt>
<pdfrwt beam="1">  1        1 0.39342995E+00 0.23885966E+04</pdfrwt>
<pdfrwt beam="2">  1       -1 0.85808734E-01 0.23885966E+04</pdfrwt>
<totfact> 0.14865759E+00</totfact>
</mgrwt>
</event>
<event>
12    3  0.8686020E-008  0.1864537E+04  0.7818608E-02  0.8672713E-01
         -2   -1    0    0    0  501 -0.00000000000E+00  0.00000000000E+00  0.56232873242E+03  0.56232873242E+03  0.00000000000E+00 0.  1.
          2   -1    0    0  501    0  0.00000000000E+00 -0.00000000000E+00 -0.15455802454E+04  0.15455802454E+04  0.00000000000E+00 0. -1.
         23    2    1    2    0    0 -0.40340529086E+03  0.22378757652E+03  0.23427939113E+03  0.52483122129E+03  0.88001531965E+02 0.  0.
        254    2    1    2    0    0  0.40340529086E+03 -0.22378757652E+03 -0.12175309041E+04  0.15830777565E+04  0.90052038990E+03 0.  0.
         23    2    4    4    0    0  0.18548620109E+03  0.34027419955E+03 -0.53203694722E+03  0.66452242959E+03  0.91296684224E+02 0.  0.
         23    2    4    4    0    0  0.21791908977E+03 -0.56406177607E+03 -0.68549395687E+03  0.91855532691E+03  0.90484842880E+02 0.  0.
          1    1    3    3  502    0 -0.24534253056E+03  0.17858838396E+03  0.17351250000E+03  0.34956166244E+03  0.00000000000E+00 0. -1.
         -1    1    3    3    0  502 -0.15806276030E+03  0.45199192557E+02  0.60766891124E+02  0.17526955885E+03  0.00000000000E+00 0.  1.
         13    1    5    5    0    0 -0.11277374073E+01  0.12197187480E+01  0.34441195869E+01  0.38238024547E+01  0.00000000000E+00 0. -1.
        -13    1    5    5    0    0  0.18661393850E+03  0.33905448080E+03 -0.53548106681E+03  0.66069862714E+03  0.00000000000E+00 0.  1.
          2    1    6    6  503    0  0.61653671468E+02 -0.28467528049E+03 -0.33132942710E+03  0.44115799867E+03  0.00000000000E+00 0. -1.
         -2    1    6    6    0  503  0.15626541830E+03 -0.27938649558E+03 -0.35416452977E+03  0.47739732825E+03  0.00000000000E+00 0.  1.
<mgrwt>
<rscale>  0 0.18645366E+04</rscale>
<asrwt>0</asrwt>
<pdfrwt beam="1">  1        2 0.23778157E+00 0.18645366E+04</pdfrwt>
<pdfrwt beam="2">  1       -2 0.86512113E-01 0.18645366E+04</pdfrwt>
<totfact> 0.13005469E+01</totfact>
</mgrwt>
</event>
<event>
12    3  0.8686020E-008  0.2713520E+04  0.7818608E-02  0.8330632E-01
          2   -1    0    0  501    0  0.00000000000E+00  0.00000000000E+00  0.88109477481E+03  0.88109477481E+03  0.00000000000E+00 0. -1.
         -2   -1    0    0    0  501 -0.00000000000E+00 -0.00000000000E+00 -0.20892157409E+04  0.20892157409E+04  0.00000000000E+00 0.  1.
         23    2    1    2    0    0 -0.10591777125E+04  0.57410079290E+03 -0.58474302911E+03  0.13418256729E+04  0.84395374772E+02 0.  0.
        254    2    1    2    0    0  0.10591777125E+04 -0.57410079290E+03 -0.62337793697E+03  0.16284848428E+04  0.90106253044E+03 0.  0.
         23    2    4    4    0    0  0.33098361165E+03 -0.48193906443E+03  0.92245200577E+02  0.59944620094E+03  0.94927118301E+02 0.  0.
         23    2    4    4    0    0  0.72819410087E+03 -0.92161728470E+02 -0.71562313755E+03  0.10290386418E+04  0.89686223437E+02 0.  0.
          2    1    3    3  502    0 -0.36619771333E+03  0.22990402607E+03 -0.17696941392E+03  0.46719888690E+03  0.00000000000E+00 0. -1.
         -2    1    3    3    0  502 -0.69297999919E+03  0.34419676683E+03 -0.40777361520E+03  0.87462678602E+03  0.00000000000E+00 0.  1.
         13    1    5    5    0    0  0.29660895397E+03 -0.47000223363E+03  0.89788786599E+02  0.56297513035E+03  0.00000000000E+00 0.  1.
        -13    1    5    5    0    0  0.34374657685E+02 -0.11936830794E+02  0.24564139785E+01  0.36471070590E+02  0.00000000000E+00 0. -1.
          3    1    6    6  503    0  0.22542080322E+02 -0.11065905618E+02 -0.78495378395E+01  0.26309977132E+02  0.00000000000E+00 0. -1.
         -3    1    6    6    0  503  0.70565202055E+03 -0.81095822852E+02 -0.70777359971E+03  0.10027286647E+04  0.00000000000E+00 0.  1.
<mgrwt>
<rscale>  0 0.27135195E+04</rscale>
<asrwt>0</asrwt>
<pdfrwt beam="1">  1        2 0.13555304E+00 0.27135195E+04</pdfrwt>
<pdfrwt beam="2">  1       -2 0.32141780E+00 0.27135195E+04</pdfrwt>
<totfact> 0.62115494E-01</totfact>
</mgrwt>
</event>
<event>
12    3  0.8686020E-008  0.2086236E+04  0.7818608E-02  0.8567331E-01
         -2   -1    0    0    0  501 -0.00000000000E+00  0.00000000000E+00  0.10872086658E+04  0.10872086658E+04  0.00000000000E+00 0.  1.
          2   -1    0    0  501    0  0.00000000000E+00 -0.00000000000E+00 -0.10008154462E+04  0.10008154462E+04  0.00000000000E+00 0. -1.
         23    2    1    2    0    0 -0.65274577392E+03 -0.32418431720E+03 -0.39456879450E+03  0.83401347003E+03  0.93388530913E+02 0.  0.
        254    2    1    2    0    0  0.65274577392E+03  0.32418431720E+03  0.48096201415E+03  0.12540106419E+04  0.90002539639E+03 0.  0.
         23    2    4    4    0    0  0.26833348822E+03  0.35972485810E+03  0.67273484894E+03  0.81371078832E+03  0.90267577860E+02 0.  0.
         23    2    4    4    0    0  0.38441228570E+03 -0.35540540895E+02 -0.19177283479E+03  0.44029985362E+03  0.89728509892E+02 0.  0.
          3    1    3    3  502    0 -0.28150962192E+03 -0.17565126756E+03 -0.14092031018E+03  0.36049905527E+03  0.00000000000E+00 0. -1.
         -3    1    3    3    0  502 -0.37123615200E+03 -0.14853304965E+03 -0.25364848432E+03  0.47351441477E+03  0.00000000000E+00 0.  1.
         13    1    5    5    0    0  0.26139770641E+02  0.79239479721E+02  0.86633041573E+02  0.12028078254E+03  0.00000000000E+00 0. -1.
        -13    1    5    5    0    0  0.24219371758E+03  0.28048537838E+03  0.58610180737E+03  0.69343000578E+03  0.00000000000E+00 0.  1.
          2    1    6    6  503    0  0.83663643435E+02 -0.11180567573E+02 -0.31617301390E+01  0.84466602048E+02  0.00000000000E+00 0. -1.
         -2    1    6    6    0  503  0.30074864227E+03 -0.24359973322E+02 -0.18861110465E+03  0.35583325157E+03  0.00000000000E+00 0.  1.
<mgrwt>
<rscale>  0 0.20862361E+04</rscale>
<asrwt>0</asrwt>
<pdfrwt beam="1">  1        2 0.15397161E+00 0.20862361E+04</pdfrwt>
<pdfrwt beam="2">  1       -2 0.16726287E+00 0.20862361E+04</pdfrwt>
<totfact> 0.51742226E+00</totfact>
</mgrwt>
</event>
<event>
12    3  0.8686020E-008  0.1181505E+04  0.7818608E-02  0.9129201E-01
         -2   -1    0    0    0  501 -0.00000000000E+00  0.00000000000E+00  0.15060500981E+03  0.15060500981E+03  0.00000000000E+00 0.  1.
          2   -1    0    0  501    0  0.00000000000E+00 -0.00000000000E+00 -0.23172434449E+04  0.23172434449E+04  0.00000000000E+00 0. -1.
         23    2    1    2    0    0  0.23019997633E+03  0.18318823789E+02 -0.38706053271E+03  0.45976677590E+03  0.90785592631E+02 0.  0.
        254    2    1    2    0    0 -0.23019997633E+03 -0.18318823789E+02 -0.17795779024E+04  0.20080816788E+04  0.90120303470E+03 0.  0.
         23    2    4    4    0    0 -0.55355225833E+02  0.13752243744E+03  0.34240722246E+02  0.17685496778E+03  0.90158919379E+02 0.  0.
         23    2    4    4    0    0 -0.17484475050E+03 -0.15584126123E+03 -0.18138186246E+04  0.18312267110E+04  0.92715040264E+02 0.  0.
          1    1    3    3  502    0  0.26536241213E+02  0.33294604111E+02 -0.50022288666E+02  0.65688142948E+02  0.00000000000E+00 0. -1.
         -1    1    3    3    0  502  0.20366373512E+03 -0.14975780322E+02 -0.33703824405E+03  0.39407863295E+03  0.00000000000E+00 0.  1.
         13    1    5    5    0    0  0.41572353306E+01  0.21327648303E+02  0.40710061846E+02  0.46146075925E+02  0.00000000000E+00 0. -1.
        -13    1    5    5    0    0 -0.59512461163E+02  0.11619478913E+03 -0.64693396009E+01  0.13070889186E+03  0.00000000000E+00 0.  1.
          3    1    6    6  503    0 -0.13031703586E+03 -0.55002827102E+02 -0.98139580702E+03  0.99153697402E+03  0.00000000000E+00 0. -1.
         -3    1    6    6    0  503 -0.44527714640E+02 -0.10083843412E+03 -0.83242281762E+03  0.83968973702E+03  0.00000000000E+00 0.  1.
<mgrwt>
<rscale>  0 0.11815049E+04</rscale>
<asrwt>0</asrwt>
<pdfrwt beam="1">  1        2 0.35649898E+00 0.11815049E+04</pdfrwt>
<pdfrwt beam="2">  1       -2 0.23170003E-01 0.11815049E+04</pdfrwt>
<totfact> 0.72385650E+01</totfact>
</mgrwt>
</event>
<event>
12    3  0.8686020E-008  0.2951424E+04  0.7818608E-02  0.8257740E-01
          2   -1    0    0  501    0  0.00000000000E+00  0.00000000000E+00  0.23546563763E+04  0.23546563763E+04  0.00000000000E+00 0. -1.
         -2   -1    0    0    0  501 -0.00000000000E+00 -0.00000000000E+00 -0.92485961684E+03  0.92485961684E+03  0.00000000000E+00 0.  1.
         23    2    1    2    0    0 -0.51822945687E+03  0.10260717531E+04 -0.10873319931E+03  0.11582206395E+04  0.90923751904E+02 0.  0.
        254    2    1    2    0    0  0.51822945687E+03 -0.10260717531E+04  0.15385299588E+04  0.21212953536E+04  0.90079660900E+03 0.  0.
         23    2    4    4    0    0  0.86346404662E+02 -0.97232379035E+03  0.12607948936E+04  0.15970397801E+04  0.89794436702E+02 0.  0.
         23    2    4    4    0    0  0.43188305221E+03 -0.53747962759E+02  0.27773506522E+03  0.52425557349E+03  0.91078678051E+02 0.  0.
          2    1    3    3  502    0 -0.13802357410E+03  0.19891001447E+03 -0.71568323611E+01  0.24221255359E+03  0.00000000000E+00 0.  1.
         -2    1    3    3    0  502 -0.38020588277E+03  0.82716173864E+03 -0.10157636695E+03  0.91600808593E+03  0.00000000000E+00 0. -1.
         13    1    5    5    0    0  0.37021688579E+01 -0.36057946331E+03  0.51928893869E+03  0.63221219323E+03  0.00000000000E+00 0. -1.
        -13    1    5    5    0    0  0.82644235804E+02 -0.61174432704E+03  0.74150595486E+03  0.96482758691E+03  0.00000000000E+00 0.  1.
          3    1    6    6  503    0  0.33235886014E+03 -0.65441044147E+02  0.24769836406E+03  0.41964201617E+03  0.00000000000E+00 0. -1.
         -3    1    6    6    0  503  0.99524192067E+02  0.11693081388E+02  0.30036701156E+02  0.10461355732E+03  0.00000000000E+00 0.  1.
<mgrwt>
<rscale>  0 0.29514245E+04</rscale>
<asrwt>0</asrwt>
<pdfrwt beam="1">  1        2 0.36225483E+00 0.29514245E+04</pdfrwt>
<pdfrwt beam="2">  1       -2 0.14228610E+00 0.29514245E+04</pdfrwt>
<totfact> 0.12486506E+00</totfact>
</mgrwt>
</event>
<event>
12    3  0.8686020E-008  0.2106930E+04  0.7818608E-02  0.8558197E-01
         -2   -1    0    0    0  501 -0.00000000000E+00  0.00000000000E+00  0.47245304848E+03  0.47245304848E+03  0.00000000000E+00 0.  1.
          2   -1    0    0  501    0  0.00000000000E+00 -0.00000000000E+00 -0.23489913925E+04  0.23489913925E+04  0.00000000000E+00 0. -1.
         23    2    1    2    0    0  0.84320318167E+03 -0.14072926664E+03 -0.90290454396E+03  0.12466899414E+04  0.90569654871E+02 0.  0.
        254    2    1    2    0    0 -0.84320318167E+03  0.14072926664E+03 -0.97363380003E+03  0.15747544996E+04  0.89503777870E+03 0.  0.
         23    2    4    4    0    0 -0.73381658093E+03 -0.21986117199E+03 -0.88869183693E+03  0.11776352401E+04  0.10112303523E+03 0.  0.
         23    2    4    4    0    0 -0.10938660074E+03  0.36059043863E+03 -0.84941963104E+02  0.39711925950E+03  0.92182841751E+02 0.  0.
          1    1    3    3  502    0  0.72558719892E+03 -0.15247892393E+03 -0.77631873357E+03  0.10734977324E+04  0.00000000000E+00 0. -1.
         -1    1    3    3    0  502  0.11761598274E+03  0.11749657293E+02 -0.12658581039E+03  0.17319220894E+03  0.00000000000E+00 0.  1.
         13    1    5    5    0    0 -0.16461824007E+03 -0.84485034112E+02 -0.17390550475E+03  0.25392914472E+03  0.00000000000E+00 0. -1.
        -13    1    5    5    0    0 -0.56919834086E+03 -0.13537613788E+03 -0.71478633217E+03  0.92370609536E+03  0.00000000000E+00 0.  1.
          4    1    6    6  503    0 -0.26656253858E+02  0.62999490653E+02 -0.53116585900E+02  0.86607525019E+02  0.00000000000E+00 0. -1.
         -4    1    6    6    0  503 -0.82730346880E+02  0.29759094798E+03 -0.31825377204E+02  0.31051173448E+03  0.00000000000E+00 0.  1.
<mgrwt>
<rscale>  0 0.21069297E+04</rscale>
<asrwt>0</asrwt>
<pdfrwt beam="1">  1        2 0.36138329E+00 0.21069297E+04</pdfrwt>
<pdfrwt beam="2">  1       -2 0.72685085E-01 0.21069297E+04</pdfrwt>
<totfact> 0.67024910E+00</totfact>
</mgrwt>
</event>
<event>
12    3  0.8686020E-008  0.1323047E+04  0.7818608E-02  0.9011486E-01
         -2   -1    0    0    0  501 -0.00000000000E+00  0.00000000000E+00  0.24399520486E+03  0.24399520486E+03  0.00000000000E+00 0.  1.
          2   -1    0    0  501    0  0.00000000000E+00 -0.00000000000E+00 -0.17935321416E+04  0.17935321416E+04  0.00000000000E+00 0. -1.
         23    2    1    2    0    0  0.17914636269E+03  0.21002593913E+03 -0.74290394593E+03  0.79778637658E+03  0.91392097017E+02 0.  0.
        254    2    1    2    0    0 -0.17914636269E+03 -0.21002593913E+03 -0.80663299085E+03  0.12397409699E+04  0.90005365184E+03 0.  0.
         23    2    4    4    0    0  0.30767519759E+01 -0.76007701142E+02  0.18437941508E+03  0.21895408170E+03  0.90324327596E+02 0.  0.
         23    2    4    4    0    0 -0.18222311467E+03 -0.13401823799E+03 -0.99101240592E+03  0.10207868882E+04  0.93456571808E+02 0.  0.
          3    1    3    3  502    0  0.13877037592E+03  0.19119730927E+03 -0.68585122072E+03  0.72540025177E+03  0.00000000000E+00 0. -1.
         -3    1    3    3    0  502  0.40375986777E+02  0.18828629859E+02 -0.57052725214E+02  0.72386124809E+02  0.00000000000E+00 0.  1.
         13    1    5    5    0    0  0.45799448494E+02 -0.40656928874E+02  0.79894831900E+02  0.10066657594E+03  0.00000000000E+00 0. -1.
        -13    1    5    5    0    0 -0.42722696518E+02 -0.35350772267E+02  0.10448458318E+03  0.11828750576E+03  0.00000000000E+00 0.  1.
          3    1    6    6  503    0 -0.67689642803E+02 -0.55595581405E+01 -0.19833928941E+03  0.20964558225E+03  0.00000000000E+00 0. -1.
         -3    1    6    6    0  503 -0.11453347187E+03 -0.12845867985E+03 -0.79267311651E+03  0.81114130596E+03  0.00000000000E+00 0.  1.
<mgrwt>
<rscale>  0 0.13230469E+04</rscale>
<asrwt>0</asrwt>
<pdfrwt beam="1">  1        2 0.27592802E+00 0.13230469E+04</pdfrwt>
<pdfrwt beam="2">  1       -2 0.37537725E-01 0.13230469E+04</pdfrwt>
<totfact> 0.56999562E+01</totfact>
</mgrwt>
</event>
<event>
12    3  0.8686020E-008  0.2171474E+04  0.7818608E-02  0.8530396E-01
          2   -1    0    0  501    0  0.00000000000E+00  0.00000000000E+00  0.84112004932E+03  0.84112004932E+03  0.00000000000E+00 0. -1.
         -2   -1    0    0    0  501 -0.00000000000E+00 -0.00000000000E+00 -0.14014945472E+04  0.14014945472E+04  0.00000000000E+00 0.  1.
         23    2    1    2    0    0 -0.28063926020E+03  0.76575143574E+03  0.15437232510E+03  0.83481538043E+03  0.89175383126E+02 0.  0.
        254    2    1    2    0    0  0.28063926020E+03 -0.76575143574E+03 -0.71474682303E+03  0.14077992161E+04  0.89772042207E+03 0.  0.
         23    2    4    4    0    0  0.43878175211E+03 -0.56149948925E+03 -0.87598634605E+02  0.72360087240E+03  0.90075520202E+02 0.  0.
         23    2    4    4    0    0 -0.15814249191E+03 -0.20425194649E+03 -0.62714818842E+03  0.68419834372E+03  0.89914503408E+02 0.  0.
          1    1    3    3  502    0 -0.17060136725E+03  0.34079257102E+03  0.59856524757E+02  0.38578129364E+03  0.00000000000E+00 0. -1.
         -1    1    3    3    0  502 -0.11003789295E+03  0.42495886472E+03  0.94515800342E+02  0.44903408679E+03  0.00000000000E+00 0.  1.
         13    1    5    5    0    0  0.13012048682E+03 -0.12819805699E+03  0.90809712132E+01  0.18288943912E+03  0.00000000000E+00 0.  1.
        -13    1    5    5    0    0  0.30866126529E+03 -0.43330143226E+03 -0.96679605819E+02  0.54071143328E+03  0.00000000000E+00 0. -1.
          3    1    6    6  503    0 -0.86996010656E+02 -0.43604459293E+02 -0.24387572025E+03  0.26257384041E+03  0.00000000000E+00 0. -1.
         -3    1    6    6    0  503 -0.71146481257E+02 -0.16064748719E+03 -0.38327246817E+03  0.42162450332E+03  0.00000000000E+00 0.  1.
<mgrwt>
<rscale>  0 0.21714743E+04</rscale>
<asrwt>0</asrwt>
<pdfrwt beam="1">  1        2 0.12940309E+00 0.21714743E+04</pdfrwt>
<pdfrwt beam="2">  1       -2 0.21561454E+00 0.21714743E+04</pdfrwt>
<totfact> 0.31077217E+00</totfact>
</mgrwt>
</event>
<event>
12    3  0.8686020E-008  0.1359435E+04  0.7818608E-02  0.8983717E-01
          2   -1    0    0  501    0  0.00000000000E+00  0.00000000000E+00  0.50885045348E+03  0.50885045348E+03  0.00000000000E+00 0. -1.
         -2   -1    0    0    0  501 -0.00000000000E+00 -0.00000000000E+00 -0.90795958005E+03  0.90795958005E+03  0.00000000000E+00 0.  1.
         23    2    1    2    0    0 -0.98159434892E+02  0.10858760419E+03 -0.47257244649E+03  0.50310195942E+03  0.91434796149E+02 0.  0.
        254    2    1    2    0    0  0.98159434892E+02 -0.10858760419E+03  0.73463319910E+02  0.91370807411E+03  0.89890991923E+03 0.  0.
         23    2    4    4    0    0  0.47853655002E+02 -0.49355711281E+03 -0.18234445601E+02  0.50464554997E+03  0.91902340530E+02 0.  0.
         23    2    4    4    0    0  0.50305779890E+02  0.38496950862E+03  0.91697765512E+02  0.40906252414E+03  0.90506764396E+02 0.  0.
          1    1    3    3  502    0 -0.11093447178E+02  0.39389258763E+02 -0.42973300726E+02  0.59340398140E+02  0.00000000000E+00 0. -1.
         -1    1    3    3    0  502 -0.87065987713E+02  0.69198345428E+02 -0.42959914576E+03  0.44376156128E+03  0.00000000000E+00 0.  1.
         13    1    5    5    0    0 -0.12925286938E+02 -0.22455638389E+03 -0.38172522668E+02  0.22814419579E+03  0.00000000000E+00 0. -1.
        -13    1    5    5    0    0  0.60778941940E+02 -0.26900072892E+03  0.19938077067E+02  0.27650135418E+03  0.00000000000E+00 0.  1.
          4    1    6    6  503    0 -0.97619996269E+01  0.20665854973E+03  0.20563944744E+02  0.20790846216E+03  0.00000000000E+00 0.  1.
         -4    1    6    6    0  503  0.60067779517E+02  0.17831095889E+03  0.71133820768E+02  0.20115406198E+03  0.00000000000E+00 0. -1.
<mgrwt>
<rscale>  0 0.13594347E+04</rscale>
<asrwt>0</asrwt>
<pdfrwt beam="1">  1        2 0.78284686E-01 0.13594347E+04</pdfrwt>
<pdfrwt beam="2">  1       -2 0.13968609E+00 0.13594347E+04</pdfrwt>
<totfact> 0.21260022E+01</totfact>
</mgrwt>
</event>
<event>
12    3  0.8686020E-008  0.1485590E+04  0.7818608E-02  0.8894092E-01
         -2   -1    0    0    0  501 -0.00000000000E+00  0.00000000000E+00  0.48155363220E+03  0.48155363220E+03  0.00000000000E+00 0.  1.
          2   -1    0    0  501    0  0.00000000000E+00 -0.00000000000E+00 -0.11457591528E+04  0.11457591528E+04  0.00000000000E+00 0. -1.
         23    2    1    2    0    0 -0.22318794925E+03  0.31896767643E+03  0.59467878609E+02  0.40452418769E+03  0.92467024091E+02 0.  0.
        254    2    1    2    0    0  0.22318794925E+03 -0.31896767643E+03 -0.72367339919E+03  0.12227885973E+04  0.90551395665E+03 0.  0.
         23    2    4    4    0    0  0.40011264368E+03  0.10536919700E+03 -0.60577436755E+03  0.73934930768E+03  0.92097877683E+02 0.  0.
         23    2    4    4    0    0 -0.17692469444E+03 -0.42433687343E+03 -0.11789903164E+03  0.48343928961E+03  0.91919722738E+02 0.  0.
          3    1    3    3  502    0 -0.13334145083E+03  0.23594199421E+03  0.61708661824E+01  0.27108420597E+03  0.00000000000E+00 0. -1.
         -3    1    3    3    0  502 -0.89846498421E+02  0.83025682224E+02  0.53297012426E+02  0.13343998172E+03  0.00000000000E+00 0.  1.
         13    1    5    5    0    0  0.13164688020E+02 -0.11846474159E+02 -0.42029016878E+02  0.45607962248E+02  0.00000000000E+00 0. -1.
        -13    1    5    5    0    0  0.38694795566E+03  0.11721567116E+03 -0.56374535067E+03  0.69374134543E+03  0.00000000000E+00 0.  1.
          3    1    6    6  503    0 -0.42604026197E+01  0.45127743753E+01 -0.37507511298E+01  0.72515030912E+01  0.00000000000E+00 0. -1.
         -3    1    6    6    0  503 -0.17266429182E+03 -0.42884964780E+03 -0.11414828051E+03  0.47618778652E+03  0.00000000000E+00 0.  1.
<mgrwt>
<rscale>  0 0.14855901E+04</rscale>
<asrwt>0</asrwt>
<pdfrwt beam="1">  1        2 0.17627064E+00 0.14855901E+04</pdfrwt>
<pdfrwt beam="2">  1       -2 0.74085175E-01 0.14855901E+04</pdfrwt>
<totfact> 0.32417975E+01</totfact>
</mgrwt>
</event>
<event>
12    3  0.8686020E-008  0.1356365E+04  0.7818608E-02  0.8986024E-01
         -2   -1    0    0    0  501 -0.00000000000E+00  0.00000000000E+00  0.30062079316E+03  0.30062079316E+03  0.00000000000E+00 0.  1.
          2   -1    0    0  501    0  0.00000000000E+00 -0.00000000000E+00 -0.15299395852E+04  0.15299395852E+04  0.00000000000E+00 0. -1.
         23    2    1    2    0    0  0.36732943958E+03  0.97656355246E+01 -0.26318816363E+03  0.46125217581E+03  0.91974319197E+02 0.  0.
        254    2    1    2    0    0 -0.36732943958E+03 -0.97656355246E+01 -0.96613062843E+03  0.13693082026E+04  0.89809257742E+03 0.  0.
         23    2    4    4    0    0  0.10127738739E+03 -0.13356469278E+03  0.84337610793E+02  0.20888251306E+03  0.91773826949E+02 0.  0.
         23    2    4    4    0    0 -0.46860682697E+03  0.12379905726E+03 -0.10504682392E+04  0.11604256895E+04  0.90474827501E+02 0.  0.
          2    1    3    3  502    0  0.30237564099E+03  0.28598602182E+02 -0.17643226374E+03  0.35125098149E+03  0.00000000000E+00 0.  1.
         -2    1    3    3    0  502  0.64953798593E+02 -0.18832966657E+02 -0.86755899899E+02  0.11000119432E+03  0.00000000000E+00 0. -1.
         13    1    5    5    0    0  0.56230238714E+02 -0.12814065917E+03  0.40227903469E+02  0.14560272146E+03  0.00000000000E+00 0.  1.
        -13    1    5    5    0    0  0.45047148672E+02 -0.54240336064E+01  0.44109707324E+02  0.63279791594E+02  0.00000000000E+00 0. -1.
          1    1    6    6  503    0 -0.28433296508E+03  0.51931692209E+02 -0.71154126489E+03  0.76800592923E+03  0.00000000000E+00 0. -1.
         -1    1    6    6    0  503 -0.18427386189E+03  0.71867365048E+02 -0.33892697433E+03  0.39241976029E+03  0.00000000000E+00 0.  1.
<mgrwt>
<rscale>  0 0.13563652E+04</rscale>
<asrwt>0</asrwt>
<pdfrwt beam="1">  1        2 0.23537532E+00 0.13563652E+04</pdfrwt>
<pdfrwt beam="2">  1       -2 0.46249353E-01 0.13563652E+04</pdfrwt>
<totfact> 0.52824421E+01</totfact>
</mgrwt>
</event>
<event>
12    3  0.8686020E-008  0.2549749E+04  0.7818608E-02  0.8385473E-01
          1   -1    0    0  501    0  0.00000000000E+00  0.00000000000E+00  0.81681784276E+03  0.81681784276E+03  0.00000000000E+00 0. -1.
         -1   -1    0    0    0  501 -0.00000000000E+00 -0.00000000000E+00 -0.19898012980E+04  0.19898012980E+04  0.00000000000E+00 0.  1.
         23    2    1    2    0    0 -0.97127271426E+03 -0.53486380512E+03 -0.39248554948E+03  0.11797113119E+04  0.90685706181E+02 0.  0.
        254    2    1    2    0    0  0.97127271426E+03  0.53486380512E+03 -0.78049790574E+03  0.16269078289E+04  0.89900062695E+03 0.  0.
         23    2    4    4    0    0 -0.31976180740E+02  0.35327117745E+03 -0.38073382690E+03  0.52802849774E+03  0.89626148712E+02 0.  0.
         23    2    4    4    0    0  0.10032488950E+04  0.18159262767E+03 -0.39976407885E+03  0.10988793311E+04  0.90775756061E+02 0.  0.
          2    1    3    3  502    0 -0.63133117711E+03 -0.29762134551E+03 -0.24587555061E+03  0.74000831541E+03  0.00000000000E+00 0. -1.
         -2    1    3    3    0  502 -0.33994153715E+03 -0.23724245961E+03 -0.14660999888E+03  0.43970299646E+03  0.00000000000E+00 0.  1.
         13    1    5    5    0    0 -0.33985746288E+02  0.12573356929E+03 -0.19401866476E+03  0.23368184284E+03  0.00000000000E+00 0. -1.
        -13    1    5    5    0    0  0.20095655477E+01  0.22753760816E+03 -0.18671516214E+03  0.29434665491E+03  0.00000000000E+00 0.  1.
          3    1    6    6  503    0  0.50650203496E+03  0.12685630774E+03 -0.23574698772E+03  0.57289918524E+03  0.00000000000E+00 0. -1.
         -3    1    6    6    0  503  0.49674686004E+03  0.54736319933E+02 -0.16401709113E+03  0.52598014588E+03  0.00000000000E+00 0.  1.
<mgrwt>
<rscale>  0 0.25497492E+04</rscale>
<asrwt>0</asrwt>
<pdfrwt beam="1">  1        1 0.12566428E+00 0.25497492E+04</pdfrwt>
<pdfrwt beam="2">  1       -1 0.30612328E+00 0.25497492E+04</pdfrwt>
<totfact> 0.56994949E-01</totfact>
</mgrwt>
</event>
<event>
12    3  0.8686020E-008  0.2899262E+04  0.7818608E-02  0.8273097E-01
         -1   -1    0    0    0  501 -0.00000000000E+00  0.00000000000E+00  0.16767871672E+04  0.16767871672E+04  0.00000000000E+00 0.  1.
          1   -1    0    0  501    0  0.00000000000E+00 -0.00000000000E+00 -0.12532477370E+04  0.12532477370E+04  0.00000000000E+00 0. -1.
         23    2    1    2    0    0 -0.78522249018E+03  0.20621228909E+03 -0.84567794937E+03  0.11759058945E+04  0.92117378879E+02 0.  0.
        254    2    1    2    0    0  0.78522249018E+03 -0.20621228909E+03  0.12692173796E+04  0.17541290096E+04  0.89830838718E+03 0.  0.
         23    2    4    4    0    0  0.66262361600E+03  0.23245445985E+03  0.97104946535E+03  0.12017817842E+04  0.90759353851E+02 0.  0.
         23    2    4    4    0    0  0.12259887418E+03 -0.43866674894E+03  0.29816791421E+03  0.55234722538E+03  0.93404238404E+02 0.  0.
          3    1    3    3  502    0 -0.98748986715E+02  0.18345108694E+02 -0.65717246728E+02  0.12002775474E+03  0.00000000000E+00 0. -1.
         -3    1    3    3    0  502 -0.68647350346E+03  0.18786718039E+03 -0.77996070264E+03  0.10558781398E+04  0.00000000000E+00 0.  1.
         13    1    5    5    0    0  0.21342995565E+03  0.30937240855E+02  0.28807420251E+03  0.35985581139E+03  0.00000000000E+00 0.  1.
        -13    1    5    5    0    0  0.44919366035E+03  0.20151721900E+03  0.68297526284E+03  0.84192597282E+03  0.00000000000E+00 0. -1.
          3    1    6    6  503    0  0.10282161950E+03 -0.19538251174E+03  0.13643161418E+03  0.25953843005E+03  0.00000000000E+00 0. -1.
         -3    1    6    6    0  503  0.19777254680E+02 -0.24328423720E+03  0.16173630003E+03  0.29280879533E+03  0.00000000000E+00 0.  1.
<mgrwt>
<rscale>  0 0.28992618E+04</rscale>
<asrwt>0</asrwt>
<pdfrwt beam="1">  1        1 0.19280734E+00 0.28992618E+04</pdfrwt>
<pdfrwt beam="2">  1       -1 0.25796726E+00 0.28992618E+04</pdfrwt>
<totfact> 0.51895428E-01</totfact>
</mgrwt>
</event>
<event>
12    3  0.8686020E-008  0.2233079E+04  0.7818608E-02  0.8504785E-01
          1   -1    0    0  501    0  0.00000000000E+00  0.00000000000E+00  0.13916680532E+04  0.13916680532E+04  0.00000000000E+00 0. -1.
         -1   -1    0    0    0  501 -0.00000000000E+00 -0.00000000000E+00 -0.89580265241E+03  0.89580265241E+03  0.00000000000E+00 0.  1.
         23    2    1    2    0    0 -0.80117675484E+03 -0.69180238482E+02 -0.27683872223E+03  0.85543726217E+03  0.91995290563E+02 0.  0.
        254    2    1    2    0    0  0.80117675484E+03  0.69180238482E+02  0.77270412301E+03  0.14320334434E+04  0.89831955534E+03 0.  0.
         23    2    4    4    0    0  0.24220094357E+03 -0.33472236282E+03  0.56458743150E+03  0.70584507351E+03  0.93583880842E+02 0.  0.
         23    2    4    4    0    0  0.55897581127E+03  0.40390260130E+03  0.20811669152E+03  0.72618836993E+03  0.91900611558E+02 0.  0.
          1    1    3    3  502    0 -0.23097688218E+03 -0.24144436072E+02 -0.12459280053E+03  0.26354627647E+03  0.00000000000E+00 0. -1.
         -1    1    3    3    0  502 -0.57019987266E+03 -0.45035802410E+02 -0.15224592170E+03  0.59189098570E+03  0.00000000000E+00 0.  1.
         13    1    5    5    0    0 -0.54725998528E+01 -0.31815033520E+02  0.39720544439E+02  0.51184639860E+02  0.00000000000E+00 0.  1.
        -13    1    5    5    0    0  0.24767354342E+03 -0.30290732930E+03  0.52486688706E+03  0.65466043365E+03  0.00000000000E+00 0. -1.
          4    1    6    6  503    0  0.47132312966E+03  0.32212187310E+03  0.13806289817E+03  0.58734092104E+03  0.00000000000E+00 0. -1.
         -4    1    6    6    0  503  0.87652681614E+02  0.81780728202E+02  0.70053793351E+02  0.13884744889E+03  0.00000000000E+00 0.  1.
<mgrwt>
<rscale>  0 0.22330785E+04</rscale>
<asrwt>0</asrwt>
<pdfrwt beam="1">  1        1 0.21410278E+00 0.22330785E+04</pdfrwt>
<pdfrwt beam="2">  1       -1 0.13781579E+00 0.22330785E+04</pdfrwt>
<totfact> 0.30919386E+00</totfact>
</mgrwt>
</event>
<event>
12    3  0.8686020E-008  0.3020623E+04  0.7818608E-02  0.8237866E-01
          1   -1    0    0  501    0  0.00000000000E+00  0.00000000000E+00  0.12273363204E+04  0.12273363204E+04  0.00000000000E+00 0. -1.
         -1   -1    0    0    0  501 -0.00000000000E+00 -0.00000000000E+00 -0.18585296042E+04  0.18585296042E+04  0.00000000000E+00 0.  1.
         23    2    1    2    0    0 -0.12121583868E+04  0.64137989619E+03 -0.37381998968E+03  0.14244488771E+04  0.92828298219E+02 0.  0.
        254    2    1    2    0    0  0.12121583868E+04 -0.64137989619E+03 -0.25737329407E+03  0.16614170475E+04  0.90186998356E+03 0.  0.
         23    2    4    4    0    0  0.70753054788E+03 -0.75162069675E+03  0.76489252896E+02  0.10391907228E+04  0.92377510705E+02 0.  0.
         23    2    4    4    0    0  0.50462783891E+03  0.11024080056E+03 -0.33386254696E+03  0.62222632472E+03  0.94335088934E+02 0.  0.
          3    1    3    3  502    0 -0.22098303892E+03  0.15869188671E+03 -0.72664794495E+02  0.28159685857E+03  0.00000000000E+00 0. -1.
         -3    1    3    3    0  502 -0.99117534787E+03  0.48268800948E+03 -0.30115519519E+03  0.11428520185E+04  0.00000000000E+00 0.  1.
         13    1    5    5    0    0  0.41121714807E+03 -0.50182161895E+03  0.51512483492E+02  0.65082871484E+03  0.00000000000E+00 0.  1.
        -13    1    5    5    0    0  0.29631339981E+03 -0.24979907780E+03  0.24976769404E+02  0.38836200791E+03  0.00000000000E+00 0. -1.
          4    1    6    6  503    0  0.20790425708E+03  0.84593824285E+02 -0.17542767333E+03  0.28487745398E+03  0.00000000000E+00 0. -1.
         -4    1    6    6    0  503  0.29672358183E+03  0.25646976273E+02 -0.15843487364E+03  0.33734887074E+03  0.00000000000E+00 0.  1.
<mgrwt>
<rscale>  0 0.30206230E+04</rscale>
<asrwt>0</asrwt>
<pdfrwt beam="1">  1        1 0.18882097E+00 0.30206230E+04</pdfrwt>
<pdfrwt beam="2">  1       -1 0.28592763E+00 0.30206230E+04</pdfrwt>
<totfact> 0.35322355E-01</totfact>
</mgrwt>
</event>
<event>
12    3  0.8686020E-008  0.3033512E+04  0.7818608E-02  0.8234226E-01
          2   -1    0    0  501    0  0.00000000000E+00  0.00000000000E+00  0.13420571278E+04  0.13420571278E+04  0.00000000000E+00 0. -1.
         -2   -1    0    0    0  501 -0.00000000000E+00 -0.00000000000E+00 -0.17141958555E+04  0.17141958555E+04  0.00000000000E+00 0.  1.
         23    2    1    2    0    0 -0.12293090172E+04  0.53855847220E+03 -0.50373819265E+03  0.14364321065E+04  0.91318902099E+02 0.  0.
        254    2    1    2    0    0  0.12293090172E+04 -0.53855847220E+03  0.13159946496E+03  0.16198208768E+04  0.89736022085E+03 0.  0.
         23    2    4    4    0    0  0.10102808261E+04 -0.51844524484E+03  0.44740655061E+03  0.12237978647E+04  0.89753955356E+02 0.  0.
         23    2    4    4    0    0  0.21902819112E+03 -0.20113227360E+02 -0.31580708565E+03  0.39602301216E+03  0.93392828365E+02 0.  0.
          1    1    3    3  502    0 -0.47895445345E+03  0.17772601911E+03 -0.15628077842E+03  0.53423551740E+03  0.00000000000E+00 0. -1.
         -1    1    3    3    0  502 -0.75035456379E+03  0.36083245308E+03 -0.34745741423E+03  0.90219658906E+03  0.00000000000E+00 0.  1.
         13    1    5    5    0    0  0.76966246901E+03 -0.42158117375E+03  0.37636079003E+03  0.95486043301E+03  0.00000000000E+00 0. -1.
        -13    1    5    5    0    0  0.24061835711E+03 -0.96864071090E+02  0.71045760588E+02  0.26893743165E+03  0.00000000000E+00 0.  1.
          3    1    6    6  503    0  0.14340244897E+02  0.32595805623E+01  0.43250730624E+01  0.15328853387E+02  0.00000000000E+00 0. -1.
         -3    1    6    6    0  503  0.20468794622E+03 -0.23372807922E+02 -0.32013215871E+03  0.38069415877E+03  0.00000000000E+00 0.  1.
<mgrwt>
<rscale>  0 0.30335120E+04</rscale>
<asrwt>0</asrwt>
<pdfrwt beam="1">  1        2 0.20647033E+00 0.30335120E+04</pdfrwt>
<pdfrwt beam="2">  1       -2 0.26372244E+00 0.30335120E+04</pdfrwt>
<totfact> 0.70624305E-01</totfact>
</mgrwt>
</event>
<event>
12    3  0.8686020E-008  0.1234160E+04  0.7818608E-02  0.9083471E-01
         -2   -1    0    0    0  501 -0.00000000000E+00  0.00000000000E+00  0.38320969223E+03  0.38320969223E+03  0.00000000000E+00 0.  1.
          2   -1    0    0  501    0  0.00000000000E+00 -0.00000000000E+00 -0.99367930023E+03  0.99367930023E+03  0.00000000000E+00 0. -1.
         23    2    1    2    0    0 -0.97536557794E+02 -0.20962665762E+03  0.22734657773E+02  0.25046150202E+03  0.93580893548E+02 0.  0.
        254    2    1    2    0    0  0.97536557794E+02  0.20962665762E+03 -0.63320426577E+03  0.11264274904E+04  0.90246026691E+03 0.  0.
         23    2    4    4    0    0 -0.53873513748E+02  0.37662214683E+03  0.56208213041E+02  0.39503739951E+03  0.90269523251E+02 0.  0.
         23    2    4    4    0    0  0.15141007154E+03 -0.16699548921E+03 -0.68941247881E+03  0.73139009094E+03  0.93964865768E+02 0.  0.
          3    1    3    3  502    0 -0.69693843893E+02 -0.93123363216E+02 -0.29167280523E+02  0.11991631626E+03  0.00000000000E+00 0. -1.
         -3    1    3    3    0  502 -0.27842713901E+02 -0.11650329441E+03  0.51901938296E+02  0.13054518575E+03  0.00000000000E+00 0.  1.
         13    1    5    5    0    0 -0.75783616322E+02  0.23244919221E+03  0.23759850111E+02  0.24564265497E+03  0.00000000000E+00 0. -1.
        -13    1    5    5    0    0  0.21910102574E+02  0.14417295462E+03  0.32448362931E+02  0.14939474454E+03  0.00000000000E+00 0.  1.
          3    1    6    6  503    0  0.23834329680E+02  0.36944449962E+01 -0.30550839518E+02  0.38924002754E+02  0.00000000000E+00 0. -1.
         -3    1    6    6    0  503  0.12757574186E+03 -0.17068993421E+03 -0.65886163929E+03  0.69246608818E+03  0.00000000000E+00 0.  1.
<mgrwt>
<rscale>  0 0.12341597E+04</rscale>
<asrwt>0</asrwt>
<pdfrwt beam="1">  1        2 0.15287374E+00 0.12341597E+04</pdfrwt>
<pdfrwt beam="2">  1       -2 0.58955338E-01 0.12341597E+04</pdfrwt>
<totfact> 0.67292237E+01</totfact>
</mgrwt>
</event>
<event>
12    3  0.8686020E-008  0.1509685E+04  0.7818608E-02  0.8878038E-01
          1   -1    0    0  501    0  0.00000000000E+00  0.00000000000E+00  0.32364155606E+03  0.32364155606E+03  0.00000000000E+00 0. -1.
         -1   -1    0    0    0  501 -0.00000000000E+00 -0.00000000000E+00 -0.17605496565E+04  0.17605496565E+04  0.00000000000E+00 0.  1.
         23    2    1    2    0    0 -0.18524589270E+03  0.38876065111E+03 -0.77750287277E+03  0.89340005387E+03  0.90565194674E+02 0.  0.
        254    2    1    2    0    0  0.18524589270E+03 -0.38876065111E+03 -0.65940522763E+03  0.11907911587E+04  0.89315029233E+03 0.  0.
         23    2    4    4    0    0  0.71416773624E+02  0.85857212039E+02 -0.67840780993E+03  0.69372469804E+03  0.92439080988E+02 0.  0.
         23    2    4    4    0    0  0.11382911908E+03 -0.47461786314E+03  0.19002582293E+02  0.49706646061E+03  0.92167151239E+02 0.  0.
          2    1    3    3  502    0 -0.18305495848E+03  0.30424603547E+03 -0.61161665316E+03  0.70721262598E+03  0.00000000000E+00 0. -1.
         -2    1    3    3    0  502 -0.21909342148E+01  0.84514615637E+02 -0.16588621960E+03  0.18618742789E+03  0.00000000000E+00 0.  1.
         13    1    5    5    0    0  0.93058469892E+01  0.68958885834E+02 -0.21792004549E+03  0.22875985869E+03  0.00000000000E+00 0.  1.
        -13    1    5    5    0    0  0.62110926635E+02  0.16898326205E+02 -0.46048776444E+03  0.46496483935E+03  0.00000000000E+00 0. -1.
          1    1    6    6  503    0  0.48288073929E+02 -0.35354950482E+03  0.34646566067E+02  0.35850993708E+03  0.00000000000E+00 0. -1.
         -1    1    6    6    0  503  0.65541045147E+02 -0.12106835832E+03 -0.15643983774E+02  0.13855652354E+03  0.00000000000E+00 0.  1.
<mgrwt>
<rscale>  0 0.15096848E+04</rscale>
<asrwt>0</asrwt>
<pdfrwt beam="1">  1        1 0.49791007E-01 0.15096848E+04</pdfrwt>
<pdfrwt beam="2">  1       -1 0.27085380E+00 0.15096848E+04</pdfrwt>
<totfact> 0.39195358E+00</totfact>
</mgrwt>
</event>
<event>
12    3  0.8686020E-008  0.1712599E+04  0.7818608E-02  0.8754211E-01
         -1   -1    0    0    0  501 -0.00000000000E+00  0.00000000000E+00  0.15494980210E+04  0.15494980210E+04  0.00000000000E+00 0.  1.
          1   -1    0    0  501    0  0.00000000000E+00 -0.00000000000E+00 -0.47321683884E+03  0.47321683884E+03  0.00000000000E+00 0. -1.
         23    2    1    2    0    0 -0.85562796630E+02 -0.19107857104E+03  0.10751048181E+04  0.10993574486E+04  0.94363221028E+02 0.  0.
        254    2    1    2    0    0  0.85562796630E+02  0.19107857104E+03  0.11763640613E+01  0.92335741120E+03  0.89930835230E+03 0.  0.
         23    2    4    4    0    0  0.28634575745E+03  0.34350742485E+03  0.28063082891E+03  0.53613775661E+03  0.93267294288E+02 0.  0.
         23    2    4    4    0    0 -0.20078296082E+03 -0.15242885382E+03 -0.27945446485E+03  0.38721965460E+03  0.91081887061E+02 0.  0.
          4    1    3    3  502    0  0.14021548273E+02 -0.88791202735E+01  0.35079056344E+02  0.38806994045E+02  0.00000000000E+00 0. -1.
         -4    1    3    3    0  502 -0.99584344902E+02 -0.18219945076E+03  0.10400257617E+04  0.10605504545E+04  0.00000000000E+00 0.  1.
         13    1    5    5    0    0  0.84780427832E+01  0.34652083340E+02  0.48576582975E+02  0.60268802068E+02  0.00000000000E+00 0.  1.
        -13    1    5    5    0    0  0.27786771466E+03  0.30885534152E+03  0.23205424594E+03  0.47586895454E+03  0.00000000000E+00 0. -1.
          4    1    6    6  503    0 -0.15579774245E+03 -0.72515160455E+02 -0.21446373943E+03  0.27482008765E+03  0.00000000000E+00 0. -1.
         -4    1    6    6    0  503 -0.44985218370E+02 -0.79913693363E+02 -0.64990725425E+02  0.11239956695E+03  0.00000000000E+00 0.  1.
<mgrwt>
<rscale>  0 0.17125987E+04</rscale>
<asrwt>0</asrwt>
<pdfrwt beam="1">  1        1 0.72802591E-01 0.17125987E+04</pdfrwt>
<pdfrwt beam="2">  1       -1 0.23838431E+00 0.17125987E+04</pdfrwt>
<totfact> 0.37762331E+00</totfact>
</mgrwt>
</event>
<event>
12    3  0.8686020E-008  0.2047591E+04  0.7818608E-02  0.8584688E-01
          1   -1    0    0  501    0  0.00000000000E+00  0.00000000000E+00  0.25359499837E+04  0.25359499837E+04  0.00000000000E+00 0. -1.
         -1   -1    0    0    0  501 -0.00000000000E+00 -0.00000000000E+00 -0.41331922427E+03  0.41331922427E+03  0.00000000000E+00 0.  1.
         23    2    1    2    0    0  0.57830186284E+03  0.52740208925E+03  0.11593245862E+04  0.14022402739E+04  0.98276554468E+02 0.  0.
        254    2    1    2    0    0 -0.57830186284E+03 -0.52740208925E+03  0.96330617317E+03  0.15470289340E+04  0.92344665856E+03 0.  0.
         23    2    4    4    0    0 -0.62334443338E+03 -0.31327055013E+02  0.79112746258E+03  0.10122447560E+04  0.96005818100E+02 0.  0.
         23    2    4    4    0    0  0.45042570537E+02 -0.49607503423E+03  0.17217871059E+03  0.53478417799E+03  0.90715687189E+02 0.  0.
          1    1    3    3  502    0  0.26443009082E+03  0.29222434175E+03  0.63700792968E+03  0.74906437729E+03  0.00000000000E+00 0. -1.
         -1    1    3    3    0  502  0.31387177201E+03  0.23517774750E+03  0.52231665655E+03  0.65317589659E+03  0.00000000000E+00 0.  1.
         13    1    5    5    0    0 -0.26125296740E+03 -0.45016003324E+02  0.27870400461E+03  0.38464980920E+03  0.00000000000E+00 0.  1.
        -13    1    5    5    0    0 -0.36209146597E+03  0.13688948311E+02  0.51242345796E+03  0.62759494685E+03  0.00000000000E+00 0. -1.
          2    1    6    6  503    0  0.49673170402E+02 -0.30382822486E+03  0.65065467800E+02  0.31466256399E+03  0.00000000000E+00 0. -1.
         -2    1    6    6    0  503 -0.46305998644E+01 -0.19224680938E+03  0.10711324279E+03  0.22012161400E+03  0.00000000000E+00 0.  1.
<mgrwt>
<rscale>  0 0.20475907E+04</rscale>
<asrwt>0</asrwt>
<pdfrwt beam="1">  1        1 0.39014614E+00 0.20475907E+04</pdfrwt>
<pdfrwt beam="2">  1       -1 0.63587575E-01 0.20475907E+04</pdfrwt>
<totfact> 0.29650086E+00</totfact>
</mgrwt>
</event>
<event>
12    3  0.8686020E-008  0.1778093E+04  0.7818608E-02  0.8718037E-01
         -1   -1    0    0    0  501 -0.00000000000E+00  0.00000000000E+00  0.50044500257E+03  0.50044500257E+03  0.00000000000E+00 0.  1.
          1   -1    0    0  501    0  0.00000000000E+00 -0.00000000000E+00 -0.15794021250E+04  0.15794021250E+04  0.00000000000E+00 0. -1.
         23    2    1    2    0    0 -0.19052620029E+03  0.56327199936E+03 -0.71953560490E+03  0.93829485080E+03  0.95342341350E+02 0.  0.
        254    2    1    2    0    0  0.19052620029E+03 -0.56327199936E+03 -0.35942151751E+03  0.11415522768E+04  0.90574952115E+03 0.  0.
         23    2    4    4    0    0  0.19682368199E+03  0.34257111932E+02 -0.47748029327E+03  0.52555853678E+03  0.91165967403E+02 0.  0.
         23    2    4    4    0    0 -0.62974817063E+01 -0.59752911129E+03  0.11805877576E+03  0.61599373997E+03  0.91813485056E+02 0.  0.
          3    1    3    3  502    0 -0.10862658083E+03  0.31422498704E+03 -0.47492493267E+03  0.57973335959E+03  0.00000000000E+00 0. -1.
         -3    1    3    3    0  502 -0.81899619458E+02  0.24904701231E+03 -0.24461067223E+03  0.35856149121E+03  0.00000000000E+00 0.  1.
         13    1    5    5    0    0  0.13226647023E+03 -0.20928134159E+02 -0.31308444313E+03  0.34052059332E+03  0.00000000000E+00 0.  1.
        -13    1    5    5    0    0  0.64557211762E+02  0.55185246091E+02 -0.16439585014E+03  0.18503794346E+03  0.00000000000E+00 0. -1.
          4    1    6    6  503    0 -0.13844399951E+01 -0.32908955022E+03  0.18388796393E+02  0.32960581999E+03  0.00000000000E+00 0. -1.
         -4    1    6    6    0  503 -0.49130417112E+01 -0.26843956107E+03  0.99669979365E+02  0.28638791999E+03  0.00000000000E+00 0.  1.
<mgrwt>
<rscale>  0 0.17780932E+04</rscale>
<asrwt>0</asrwt>
<pdfrwt beam="1">  1        1 0.24298494E+00 0.17780932E+04</pdfrwt>
<pdfrwt beam="2">  1       -1 0.76991541E-01 0.17780932E+04</pdfrwt>
<totfact> 0.92214720E+00</totfact>
</mgrwt>
</event>
<event>
12    3  0.8686020E-008  0.3846970E+04  0.7818608E-02  0.8036150E-01
         -1   -1    0    0    0  501 -0.00000000000E+00  0.00000000000E+00  0.20172830104E+04  0.20172830104E+04  0.00000000000E+00 0.  1.
          1   -1    0    0  501    0  0.00000000000E+00 -0.00000000000E+00 -0.18340484771E+04  0.18340484771E+04  0.00000000000E+00 0. -1.
         23    2    1    2    0    0 -0.92847156481E+03 -0.10280023146E+04  0.12711005812E+04  0.18822383719E+04  0.90974697513E+02 0.  0.
        254    2    1    2    0    0  0.92847156481E+03  0.10280023146E+04 -0.10878660479E+04  0.19690931156E+04  0.88035615182E+03 0.  0.
         23    2    4    4    0    0  0.88544324220E+03  0.74050810532E+03 -0.41362441192E+03  0.12294968514E+04  0.90638647101E+02 0.  0.
         23    2    4    4    0    0  0.43028322608E+02  0.28749420933E+03 -0.67424163599E+03  0.73959626414E+03  0.88862215209E+02 0.  0.
          2    1    3    3  502    0 -0.15034548687E+03 -0.16676010245E+03  0.16233453450E+03  0.27706533216E+03  0.00000000000E+00 0.  1.
         -2    1    3    3    0  502 -0.77812607794E+03 -0.86124221219E+03  0.11087660467E+04  0.16051730398E+04  0.00000000000E+00 0. -1.
         13    1    5    5    0    0  0.83158679743E+03  0.67606564414E+03 -0.40232374141E+03  0.11447557599E+04  0.00000000000E+00 0.  1.
        -13    1    5    5    0    0  0.53856444770E+02  0.64442461173E+02 -0.11300670509E+02  0.84741091563E+02  0.00000000000E+00 0. -1.
          3    1    6    6  503    0  0.38874272481E+02  0.50727187684E+02 -0.10299386599E+03  0.12121135699E+03  0.00000000000E+00 0. -1.
         -3    1    6    6    0  503  0.41540501274E+01  0.23676702164E+03 -0.57124777000E+03  0.61838490715E+03  0.00000000000E+00 0.  1.
<mgrwt>
<rscale>  0 0.38469701E+04</rscale>
<asrwt>0</asrwt>
<pdfrwt beam="1">  1        1 0.28216130E+00 0.38469701E+04</pdfrwt>
<pdfrwt beam="2">  1       -1 0.31035123E+00 0.38469701E+04</pdfrwt>
<totfact> 0.86587912E-02</totfact>
</mgrwt>
</event>
<event>
12    3  0.8686020E-008  0.3288123E+04  0.7818608E-02  0.8165924E-01
          2   -1    0    0  501    0  0.00000000000E+00  0.00000000000E+00  0.21156535219E+04  0.21156535219E+04  0.00000000000E+00 0. -1.
         -2   -1    0    0    0  501 -0.00000000000E+00 -0.00000000000E+00 -0.12775903894E+04  0.12775903894E+04  0.00000000000E+00 0.  1.
         23    2    1    2    0    0 -0.12658839798E+04 -0.78781218810E+03  0.69037271075E+03  0.16456567538E+04  0.91985746191E+02 0.  0.
        254    2    1    2    0    0  0.12658839798E+04  0.78781218810E+03  0.14769042173E+03  0.17475871575E+04  0.89952104935E+03 0.  0.
         23    2    4    4    0    0  0.12738015450E+04  0.45999526007E+03  0.27407668471E+03  0.13848371822E+04  0.92141070123E+02 0.  0.
         23    2    4    4    0    0 -0.79175651896E+01  0.32781692803E+03 -0.12638626298E+03  0.36274997525E+03  0.89930144738E+02 0.  0.
          1    1    3    3  502    0 -0.25555309045E+03 -0.19880916013E+03  0.16877586748E+03  0.36512704314E+03  0.00000000000E+00 0. -1.
         -1    1    3    3    0  502 -0.10103308894E+04 -0.58900302797E+03  0.52159684327E+03  0.12805297107E+04  0.00000000000E+00 0.  1.
         13    1    5    5    0    0  0.12040639477E+04  0.45410674796E+03  0.25063957761E+03  0.13110313217E+04  0.00000000000E+00 0.  1.
        -13    1    5    5    0    0  0.69737597336E+02  0.58885121123E+01  0.23437107105E+02  0.73805860517E+02  0.00000000000E+00 0. -1.
          3    1    6    6  503    0  0.20114924947E+02  0.44873963361E+02  0.51977497325E+01  0.49449968611E+02  0.00000000000E+00 0. -1.
         -3    1    6    6    0  503 -0.28032490136E+02  0.28294296467E+03 -0.13158401271E+03  0.31330000664E+03  0.00000000000E+00 0.  1.
<mgrwt>
<rscale>  0 0.32881232E+04</rscale>
<asrwt>0</asrwt>
<pdfrwt beam="1">  1        2 0.32548516E+00 0.32881232E+04</pdfrwt>
<pdfrwt beam="2">  1       -2 0.19655237E+00 0.32881232E+04</pdfrwt>
<totfact> 0.67476024E-01</totfact>
</mgrwt>
</event>
<event>
12    3  0.8686020E-008  0.1571888E+04  0.7818608E-02  0.8838007E-01
          2   -1    0    0  501    0  0.00000000000E+00  0.00000000000E+00  0.31140460047E+03  0.31140460047E+03  0.00000000000E+00 0. -1.
         -2   -1    0    0    0  501 -0.00000000000E+00 -0.00000000000E+00 -0.19836175295E+04  0.19836175295E+04  0.00000000000E+00 0.  1.
         23    2    1    2    0    0  0.77846714595E+02 -0.32092692416E+03 -0.11450349709E+04  0.11950621743E+04  0.89522702210E+02 0.  0.
        254    2    1    2    0    0 -0.77846714595E+02  0.32092692416E+03 -0.52717795820E+03  0.10999599557E+04  0.90716101273E+03 0.  0.
         23    2    4    4    0    0  0.17206527523E+03 -0.19275786127E+03  0.53996441284E+02  0.27998394723E+03  0.93345289204E+02 0.  0.
         23    2    4    4    0    0 -0.24991198982E+03  0.51368478542E+03 -0.58117439948E+03  0.81997600851E+03  0.90933549850E+02 0.  0.
          2    1    3    3  502    0  0.79541476524E+02 -0.26718566346E+03 -0.83249866209E+03  0.87793453493E+03  0.00000000000E+00 0. -1.
         -2    1    3    3    0  502 -0.16947619286E+01 -0.53741260691E+02 -0.31253630878E+03  0.31712763933E+03  0.00000000000E+00 0.  1.
         13    1    5    5    0    0  0.16917897930E+03 -0.16075815980E+03  0.21628275449E+02  0.23437682325E+03  0.00000000000E+00 0.  1.
        -13    1    5    5    0    0  0.28862959299E+01 -0.31999701471E+02  0.32368165835E+02  0.45607123983E+02  0.00000000000E+00 0. -1.
          2    1    6    6  503    0 -0.94165137789E+02  0.19348953840E+03 -0.15818458709E+03  0.26707234645E+03  0.00000000000E+00 0. -1.
         -2    1    6    6    0  503 -0.15574685203E+03  0.32019524703E+03 -0.42298981240E+03  0.55290366207E+03  0.00000000000E+00 0.  1.
<mgrwt>
<rscale>  0 0.15718876E+04</rscale>
<asrwt>0</asrwt>
<pdfrwt beam="1">  1        2 0.47908398E-01 0.15718876E+04</pdfrwt>
<pdfrwt beam="2">  1       -2 0.30517194E+00 0.15718876E+04</pdfrwt>
<totfact> 0.30003554E+00</totfact>
</mgrwt>
</event>
<event>
12    3  0.8686020E-008  0.1840151E+04  0.7818608E-02  0.8685234E-01
         -1   -1    0    0    0  501 -0.00000000000E+00  0.00000000000E+00  0.21476677726E+04  0.21476677726E+04  0.00000000000E+00 0.  1.
          1   -1    0    0  501    0  0.00000000000E+00 -0.00000000000E+00 -0.39416659549E+03  0.39416659549E+03  0.00000000000E+00 0. -1.
         23    2    1    2    0    0 -0.61914679978E+03 -0.38278841606E+02  0.11074194830E+04  0.12727213601E+04  0.92917811656E+02 0.  0.
        254    2    1    2    0    0  0.61914679978E+03  0.38278841606E+02  0.64608169416E+03  0.12691130080E+04  0.89912081628E+03 0.  0.
         23    2    4    4    0    0  0.79468859667E+03 -0.17437195607E+02  0.27864243645E+03  0.84706926674E+03  0.89725769935E+02 0.  0.
         23    2    4    4    0    0 -0.17554179689E+03  0.55716037212E+02  0.36743925771E+03  0.42204374131E+03  0.95865072947E+02 0.  0.
          1    1    3    3  502    0 -0.23219151122E+03 -0.12030784827E+02  0.32688022798E+03  0.40113379453E+03  0.00000000000E+00 0. -1.
         -1    1    3    3    0  502 -0.38695528856E+03 -0.26248056779E+02  0.78053925501E+03  0.87158756556E+03  0.00000000000E+00 0.  1.
         13    1    5    5    0    0  0.23588125225E+03  0.35831061815E+02  0.83445730501E+02  0.25275881803E+03  0.00000000000E+00 0. -1.
        -13    1    5    5    0    0  0.55880734443E+03 -0.53268257421E+02  0.19519670595E+03  0.59431044871E+03  0.00000000000E+00 0.  1.
          4    1    6    6  503    0 -0.28283874128E+01 -0.15288933760E+02  0.92302844024E+01  0.18081742754E+02  0.00000000000E+00 0. -1.
         -4    1    6    6    0  503 -0.17271340948E+03  0.71004970972E+02  0.35820897331E+03  0.40396199855E+03  0.00000000000E+00 0.  1.
<mgrwt>
<rscale>  0 0.18401510E+04</rscale>
<asrwt>0</asrwt>
<pdfrwt beam="1">  1        1 0.60641016E-01 0.18401510E+04</pdfrwt>
<pdfrwt beam="2">  1       -1 0.33041042E+00 0.18401510E+04</pdfrwt>
<totfact> 0.12058878E+00</totfact>
</mgrwt>
</event>
<event>
12    3  0.8686020E-008  0.1309784E+04  0.7818608E-02  0.9021843E-01
         -1   -1    0    0    0  501 -0.00000000000E+00  0.00000000000E+00  0.41680171232E+03  0.41680171232E+03  0.00000000000E+00 0.  1.
          1   -1    0    0  501    0  0.00000000000E+00 -0.00000000000E+00 -0.10289862654E+04  0.10289862654E+04  0.00000000000E+00 0. -1.
         23    2    1    2    0    0 -0.12876779388E+03  0.14697717003E+03  0.13880104613E+03  0.25653420773E+03  0.91436513916E+02 0.  0.
        254    2    1    2    0    0  0.12876779388E+03 -0.14697717003E+03 -0.75098559925E+03  0.11892537700E+04  0.90120015870E+03 0.  0.
         23    2    4    4    0    0 -0.35469797221E+03  0.81202831603E+02 -0.36215292382E+03  0.52150905807E+03  0.91719169599E+02 0.  0.
         23    2    4    4    0    0  0.48346576608E+03 -0.22818000164E+03 -0.38883267543E+03  0.66774471198E+03  0.94270306933E+02 0.  0.
          4    1    3    3  502    0 -0.61699661015E+00  0.41197088544E+02  0.59601810869E+02  0.72456584575E+02  0.00000000000E+00 0. -1.
         -4    1    3    3    0  502 -0.12815079727E+03  0.10578008149E+03  0.79199235256E+02  0.18407762315E+03  0.00000000000E+00 0.  1.
         13    1    5    5    0    0 -0.25068534491E+03  0.20893788536E+02 -0.21072226339E+03  0.32815174057E+03  0.00000000000E+00 0. -1.
        -13    1    5    5    0    0 -0.10401262730E+03  0.60309043066E+02 -0.15143066043E+03  0.19335731750E+03  0.00000000000E+00 0.  1.
          4    1    6    6  503    0  0.16324440149E+03 -0.29239401316E+02 -0.12183353392E+03  0.20578407906E+03  0.00000000000E+00 0. -1.
         -4    1    6    6    0  503  0.32022136460E+03 -0.19894060032E+03 -0.26699914151E+03  0.46196063292E+03  0.00000000000E+00 0.  1.
<mgrwt>
<rscale>  0 0.13097836E+04</rscale>
<asrwt>0</asrwt>
<pdfrwt beam="1">  1        1 0.15830558E+00 0.13097836E+04</pdfrwt>
<pdfrwt beam="2">  1       -1 0.64123341E-01 0.13097836E+04</pdfrwt>
<totfact> 0.34786697E+01</totfact>
</mgrwt>
</event>
<event>
12    3  0.8686020E-008  0.1688301E+04  0.7818608E-02  0.8768065E-01
          1   -1    0    0  501    0  0.00000000000E+00  0.00000000000E+00  0.19579445940E+04  0.19579445940E+04  0.00000000000E+00 0. -1.
         -1   -1    0    0    0  501 -0.00000000000E+00 -0.00000000000E+00 -0.36394784209E+03  0.36394784209E+03  0.00000000000E+00 0.  1.
         23    2    1    2    0    0  0.16807204072E+02  0.78036199857E+01 -0.25064462880E+03  0.26921853316E+03  0.96501347458E+02 0.  0.
        254    2    1    2    0    0 -0.16807204072E+02 -0.78036199857E+01  0.18446413807E+04  0.20526739030E+04  0.90023605226E+03 0.  0.
         23    2    4    4    0    0 -0.21293803898E+03 -0.14384044965E+03  0.17641200658E+04  0.17850823548E+04  0.91469796304E+02 0.  0.
         23    2    4    4    0    0  0.19613083490E+03  0.13603682967E+03  0.80521314979E+02  0.26759154816E+03  0.90267552602E+02 0.  0.
          4    1    3    3  502    0  0.15226833276E+02 -0.23744200488E+02 -0.15943246067E+02  0.32401089543E+02  0.00000000000E+00 0. -1.
         -4    1    3    3    0  502  0.15803707965E+01  0.31547820474E+02 -0.23470138273E+03  0.23681744362E+03  0.00000000000E+00 0.  1.
         13    1    5    5    0    0 -0.26250782779E+01  0.13533110782E+01  0.44422076233E+00  0.29866065903E+01  0.00000000000E+00 0.  1.
        -13    1    5    5    0    0 -0.21031296070E+03 -0.14519376073E+03  0.17636758450E+04  0.17820957482E+04  0.00000000000E+00 0. -1.
          1    1    6    6  503    0  0.12692404637E+03  0.12704291681E+03  0.82832345567E+02  0.19776454114E+03  0.00000000000E+00 0. -1.
         -1    1    6    6    0  503  0.69206788529E+02  0.89939128633E+01 -0.23110305884E+01  0.69827007021E+02  0.00000000000E+00 0.  1.
<mgrwt>
<rscale>  0 0.16883006E+04</rscale>
<asrwt>0</asrwt>
<pdfrwt beam="1">  1        1 0.30122224E+00 0.16883006E+04</pdfrwt>
<pdfrwt beam="2">  1       -1 0.55991977E-01 0.16883006E+04</pdfrwt>
<totfact> 0.97839400E+00</totfact>
</mgrwt>
</event>
<event>
12    3  0.8686020E-008  0.1566857E+04  0.7818608E-02  0.8841172E-01
         -1   -1    0    0    0  501 -0.00000000000E+00  0.00000000000E+00  0.11543285593E+04  0.11543285593E+04  0.00000000000E+00 0.  1.
          1   -1    0    0  501    0  0.00000000000E+00 -0.00000000000E+00 -0.53170312622E+03  0.53170312622E+03  0.00000000000E+00 0. -1.
         23    2    1    2    0    0  0.48230548105E+03  0.84254064665E+02  0.22913401193E+02  0.49889064037E+03  0.93002809758E+02 0.  0.
        254    2    1    2    0    0 -0.48230548105E+03 -0.84254064665E+02  0.59971203187E+03  0.11871410451E+04  0.89996223000E+03 0.  0.
         23    2    4    4    0    0 -0.69458302766E+03 -0.95040775140E+02  0.64039857447E+03  0.95371443967E+03  0.89345212445E+02 0.  0.
         23    2    4    4    0    0  0.21227754661E+03  0.10786710475E+02 -0.40686542604E+02  0.23342660547E+03  0.87489859278E+02 0.  0.
          1    1    3    3  502    0  0.34688415452E+03  0.10069965550E+03  0.44648143820E+01  0.36123257307E+03  0.00000000000E+00 0. -1.
         -1    1    3    3    0  502  0.13542132653E+03 -0.16445590833E+02  0.18448586811E+02  0.13765806730E+03  0.00000000000E+00 0.  1.
         13    1    5    5    0    0 -0.52029210351E+02 -0.16553621708E+02  0.23265403072E+02  0.59349305821E+02  0.00000000000E+00 0.  1.
        -13    1    5    5    0    0 -0.64255381731E+03 -0.78487153432E+02  0.61713317140E+03  0.89436513384E+03  0.00000000000E+00 0. -1.
          3    1    6    6  503    0  0.22033659472E+03  0.60518610630E+01 -0.40286130153E+02  0.22407099830E+03  0.00000000000E+00 0. -1.
         -3    1    6    6    0  503 -0.80590481137E+01  0.47348494123E+01 -0.40041245119E+00  0.93556071736E+01  0.00000000000E+00 0.  1.
<mgrwt>
<rscale>  0 0.15668569E+04</rscale>
<asrwt>0</asrwt>
<pdfrwt beam="1">  1        1 0.81800481E-01 0.15668569E+04</pdfrwt>
<pdfrwt beam="2">  1       -1 0.17758901E+00 0.15668569E+04</pdfrwt>
<totfact> 0.84779327E+00</totfact>
</mgrwt>
</event>
<event>
12    3  0.8686020E-008  0.2348300E+04  0.7818608E-02  0.8459117E-01
         -1   -1    0    0    0  501 -0.00000000000E+00  0.00000000000E+00  0.61471230575E+03  0.61471230575E+03  0.00000000000E+00 0.  1.
          1   -1    0    0  501    0  0.00000000000E+00 -0.00000000000E+00 -0.22427216910E+04  0.22427216910E+04  0.00000000000E+00 0. -1.
         23    2    1    2    0    0  0.23764330329E+03  0.58192767575E+03  0.24930388355E+03  0.68289655633E+03  0.95294915323E+02 0.  0.
        254    2    1    2    0    0 -0.23764330329E+03 -0.58192767575E+03 -0.18773132688E+04  0.21745374404E+04  0.89955200583E+03 0.  0.
         23    2    4    4    0    0 -0.14186946315E+03 -0.77432250086E+03 -0.17253213223E+04  0.18984314338E+04  0.87212177551E+02 0.  0.
         23    2    4    4    0    0 -0.95773840136E+02  0.19239482511E+03 -0.15199194654E+03  0.27610600662E+03  0.83334134028E+02 0.  0.
          3    1    3    3  502    0  0.18016650331E+03  0.31655320069E+03  0.14381631325E+03  0.39159804614E+03  0.00000000000E+00 0. -1.
         -3    1    3    3    0  502  0.57476799972E+02  0.26537447506E+03  0.10548757030E+03  0.29129851019E+03  0.00000000000E+00 0.  1.
         13    1    5    5    0    0 -0.10385093748E+02 -0.26614606340E+03 -0.54179997378E+03  0.60372906906E+03  0.00000000000E+00 0. -1.
        -13    1    5    5    0    0 -0.13148436940E+03 -0.50817643746E+03 -0.11835213485E+04  0.12947023648E+04  0.00000000000E+00 0.  1.
          4    1    6    6  503    0 -0.72594303208E+02  0.12341294911E+03 -0.14371239824E+03  0.20286434451E+03  0.00000000000E+00 0. -1.
         -4    1    6    6    0  503 -0.23179536928E+02  0.68981875994E+02 -0.82795483035E+01  0.73241662105E+02  0.00000000000E+00 0.  1.
<mgrwt>
<rscale>  0 0.23483003E+04</rscale>
<asrwt>0</asrwt>
<pdfrwt beam="1">  1        1 0.34503410E+00 0.23483003E+04</pdfrwt>
<pdfrwt beam="2">  1       -1 0.94571126E-01 0.23483003E+04</pdfrwt>
<totfact> 0.19829125E+00</totfact>
</mgrwt>
</event>
<event>
12    3  0.8686020E-008  0.2060364E+04  0.7818608E-02  0.8578907E-01
          2   -1    0    0  501    0  0.00000000000E+00  0.00000000000E+00  0.17491397239E+04  0.17491397239E+04  0.00000000000E+00 0. -1.
         -2   -1    0    0    0  501 -0.00000000000E+00 -0.00000000000E+00 -0.60674111664E+03  0.60674111664E+03  0.00000000000E+00 0.  1.
         23    2    1    2    0    0 -0.38827264633E+03 -0.51662289636E+03 -0.13475498453E+03  0.66541339913E+03  0.83433931619E+02 0.  0.
        254    2    1    2    0    0  0.38827264633E+03  0.51662289636E+03  0.12771535918E+04  0.16904674414E+04  0.89939090975E+03 0.  0.
         23    2    4    4    0    0  0.74146067346E+02 -0.18772156343E+03  0.32566431194E+02  0.22397816542E+03  0.91480169797E+02 0.  0.
         23    2    4    4    0    0  0.31412657899E+03  0.70434445979E+03  0.12445871606E+04  0.14664892760E+04  0.82564947872E+02 0.  0.
          2    1    3    3  502    0 -0.13303175137E+03 -0.14057865889E+03 -0.85667874111E+01  0.19373486019E+03  0.00000000000E+00 0. -1.
         -2    1    3    3    0  502 -0.25524089497E+03 -0.37604423747E+03 -0.12618819712E+03  0.47167853893E+03  0.00000000000E+00 0.  1.
         13    1    5    5    0    0  0.95485660118E+02 -0.15061708567E+03  0.20511441065E+02  0.17950971282E+03  0.00000000000E+00 0. -1.
        -13    1    5    5    0    0 -0.21339592772E+02 -0.37104477761E+02  0.12054990129E+02  0.44468452600E+02  0.00000000000E+00 0.  1.
          3    1    6    6  503    0  0.14368687594E+03  0.41743588714E+03  0.73303314975E+03  0.85570803247E+03  0.00000000000E+00 0. -1.
         -3    1    6    6    0  503  0.17043970305E+03  0.28690857265E+03  0.51155401087E+03  0.61078124355E+03  0.00000000000E+00 0.  1.
<mgrwt>
<rscale>  0 0.20603640E+04</rscale>
<asrwt>0</asrwt>
<pdfrwt beam="1">  1        2 0.26909842E+00 0.20603640E+04</pdfrwt>
<pdfrwt beam="2">  1       -2 0.93344788E-01 0.20603640E+04</pdfrwt>
<totfact> 0.82671632E+00</totfact>
</mgrwt>
</event>
<event>
12    3  0.8686020E-008  0.1724107E+04  0.7818608E-02  0.8747733E-01
          1   -1    0    0  501    0  0.00000000000E+00  0.00000000000E+00  0.16120620981E+04  0.16120620981E+04  0.00000000000E+00 0. -1.
         -1   -1    0    0    0  501 -0.00000000000E+00 -0.00000000000E+00 -0.46098494440E+03  0.46098494440E+03  0.00000000000E+00 0.  1.
         23    2    1    2    0    0  0.61334537939E+03  0.35108830157E+02  0.22772454265E+03  0.66189860676E+03  0.93947399814E+02 0.  0.
        254    2    1    2    0    0 -0.61334537939E+03 -0.35108830157E+02  0.92335261102E+03  0.14111484357E+04  0.87254494379E+03 0.  0.
         23    2    4    4    0    0  0.18566522072E+03  0.71168946508E+02  0.36558202655E+03  0.42665134744E+03  0.94045526217E+02 0.  0.
         23    2    4    4    0    0 -0.79901060012E+03 -0.10627777667E+03  0.55777058447E+03  0.98449708826E+03  0.91725607067E+02 0.  0.
          3    1    3    3  502    0  0.25112959495E+03  0.52542465133E+01  0.14176147523E+03  0.28842676094E+03  0.00000000000E+00 0. -1.
         -3    1    3    3    0  502  0.36221578444E+03  0.29854583644E+02  0.85963067424E+02  0.37347184582E+03  0.00000000000E+00 0.  1.
         13    1    5    5    0    0  0.13823662303E+03  0.89480742724E+02  0.31199150112E+03  0.35278160955E+03  0.00000000000E+00 0. -1.
        -13    1    5    5    0    0  0.47428597694E+02 -0.18311796217E+02  0.53590525425E+02  0.73869737885E+02  0.00000000000E+00 0.  1.
          1    1    6    6  503    0 -0.61711310707E+03 -0.11988228885E+03  0.42324677550E+03  0.75785102961E+03  0.00000000000E+00 0. -1.
         -1    1    6    6    0  503 -0.18189749304E+03  0.13604512181E+02  0.13452380897E+03  0.22664605866E+03  0.00000000000E+00 0.  1.
<mgrwt>
<rscale>  0 0.17241071E+04</rscale>
<asrwt>0</asrwt>
<pdfrwt beam="1">  1        1 0.24800955E+00 0.17241071E+04</pdfrwt>
<pdfrwt beam="2">  1       -1 0.70920761E-01 0.17241071E+04</pdfrwt>
<totfact> 0.10441615E+01</totfact>
</mgrwt>
</event>
<event>
12    3  0.8686020E-008  0.1399203E+04  0.7818608E-02  0.8954396E-01
          2   -1    0    0  501    0  0.00000000000E+00  0.00000000000E+00  0.32441279759E+04  0.32441279759E+04  0.00000000000E+00 0. -1.
         -2   -1    0    0    0  501 -0.00000000000E+00 -0.00000000000E+00 -0.15087021540E+03  0.15087021540E+03  0.00000000000E+00 0.  1.
         23    2    1    2    0    0 -0.32565200579E+03 -0.89175856072E+02  0.14445454076E+04  0.14863529650E+04  0.92369582210E+02 0.  0.
        254    2    1    2    0    0  0.32565200579E+03  0.89175856072E+02  0.16487123530E+04  0.19086452264E+04  0.90037359756E+03 0.  0.
         23    2    4    4    0    0  0.17112271274E+03  0.24187698044E+03  0.16432816805E+04  0.16721746416E+04  0.89475662332E+02 0.  0.
         23    2    4    4    0    0  0.15452929305E+03 -0.15270112437E+03  0.54306724617E+01  0.23647058475E+03  0.93230410570E+02 0.  0.
          2    1    3    3  502    0 -0.10805026055E+03 -0.39677032272E+02  0.32496139634E+03  0.34474488365E+03  0.00000000000E+00 0.  1.
         -2    1    3    3    0  502 -0.21760174524E+03 -0.49498823800E+02  0.11195840112E+04  0.11416080813E+04  0.00000000000E+00 0. -1.
         13    1    5    5    0    0  0.15522544952E+03  0.15022796146E+03  0.11053881084E+04  0.11262975854E+04  0.00000000000E+00 0.  1.
        -13    1    5    5    0    0  0.15897263221E+02  0.91649018980E+02  0.53789357210E+03  0.54587705627E+03  0.00000000000E+00 0. -1.
          2    1    6    6  503    0  0.24130349251E+02  0.47538035192E+00 -0.22961855204E+02  0.33312858416E+02  0.00000000000E+00 0. -1.
         -2    1    6    6    0  503  0.13039894379E+03 -0.15317650472E+03  0.28392527665E+02  0.20315772633E+03  0.00000000000E+00 0.  1.
<mgrwt>
<rscale>  0 0.13992030E+04</rscale>
<asrwt>0</asrwt>
<pdfrwt beam="1">  1        2 0.49909656E+00 0.13992030E+04</pdfrwt>
<pdfrwt beam="2">  1       -2 0.23210805E-01 0.13992030E+04</pdfrwt>
<totfact> 0.19620127E+01</totfact>
</mgrwt>
</event>
<event>
12    3  0.8686020E-008  0.1118926E+04  0.7818608E-02  0.9186939E-01
          2   -1    0    0  501    0  0.00000000000E+00  0.00000000000E+00  0.26312086519E+04  0.26312086519E+04  0.00000000000E+00 0. -1.
         -2   -1    0    0    0  501 -0.00000000000E+00 -0.00000000000E+00 -0.11895635597E+03  0.11895635597E+03  0.00000000000E+00 0.  1.
         23    2    1    2    0    0 -0.15954583966E+02 -0.18019829644E+03  0.40700164173E+03  0.45456622947E+03  0.90852329720E+02 0.  0.
        254    2    1    2    0    0  0.15954583966E+02  0.18019829644E+03  0.21052506542E+04  0.22955987784E+04  0.89719978802E+03 0.  0.
         23    2    4    4    0    0 -0.19951495013E+03 -0.26639662432E+03  0.46306818755E+03  0.57774642125E+03  0.92657456058E+02 0.  0.
         23    2    4    4    0    0  0.21546953410E+03  0.44659492076E+03  0.16421824666E+04  0.17178523571E+04  0.91538646879E+02 0.  0.
          2    1    3    3  502    0 -0.12943859519E+02 -0.16469839473E+03  0.40647780259E+03  0.43876794405E+03  0.00000000000E+00 0. -1.
         -2    1    3    3    0  502 -0.30107244473E+01 -0.15499901710E+02  0.52383913433E+00  0.15798285418E+02  0.00000000000E+00 0.  1.
         13    1    5    5    0    0 -0.11411709343E+01 -0.42678340538E+02  0.90251462953E+02  0.99840220289E+02  0.00000000000E+00 0. -1.
        -13    1    5    5    0    0 -0.19837377920E+03 -0.22371828378E+03  0.37281672460E+03  0.47790620096E+03  0.00000000000E+00 0.  1.
          1    1    6    6  503    0  0.61735115001E+02  0.20071092769E+03  0.58196564300E+03  0.61869225836E+03  0.00000000000E+00 0. -1.
         -1    1    6    6    0  503  0.15373441910E+03  0.24588399307E+03  0.10602168236E+04  0.10991600988E+04  0.00000000000E+00 0.  1.
<mgrwt>
<rscale>  0 0.11189263E+04</rscale>
<asrwt>0</asrwt>
<pdfrwt beam="1">  1        2 0.40480129E+00 0.11189263E+04</pdfrwt>
<pdfrwt beam="2">  1       -2 0.18300980E-01 0.11189263E+04</pdfrwt>
<totfact> 0.72983355E+01</totfact>
</mgrwt>
</event>
<event>
12    3  0.8686020E-008  0.1479399E+04  0.7818608E-02  0.8898269E-01
         -2   -1    0    0    0  501 -0.00000000000E+00  0.00000000000E+00  0.51581420713E+03  0.51581420713E+03  0.00000000000E+00 0.  1.
          2   -1    0    0  501    0  0.00000000000E+00 -0.00000000000E+00 -0.10607598995E+04  0.10607598995E+04  0.00000000000E+00 0. -1.
         23    2    1    2    0    0 -0.45320301259E+03 -0.39553418377E+02 -0.89913062773E+02  0.47262309695E+03  0.91273158082E+02 0.  0.
        254    2    1    2    0    0  0.45320301259E+03  0.39553418377E+02 -0.45503262957E+03  0.11039510097E+04  0.89704832323E+03 0.  0.
         23    2    4    4    0    0 -0.12244646873E+03 -0.24511952500E+03 -0.33994850840E+03  0.44603248014E+03  0.91122257061E+02 0.  0.
         23    2    4    4    0    0  0.57564948132E+03  0.28467294338E+03 -0.11508412117E+03  0.65791852952E+03  0.84861219118E+02 0.  0.
          4    1    3    3  502    0 -0.20457261355E+03 -0.57799865587E+02 -0.63862609002E+02  0.22196669008E+03  0.00000000000E+00 0. -1.
         -4    1    3    3    0  502 -0.24863039904E+03  0.18246447211E+02 -0.26050453771E+02  0.25065640687E+03  0.00000000000E+00 0.  1.
         13    1    5    5    0    0 -0.29896543781E+02 -0.93970990945E+01 -0.17057697997E+02  0.35680160628E+02  0.00000000000E+00 0. -1.
        -13    1    5    5    0    0 -0.92549924945E+02 -0.23572242590E+03 -0.32289081040E+03  0.41035231951E+03  0.00000000000E+00 0.  1.
          2    1    6    6  503    0  0.33346698571E+02  0.76448496133E+01 -0.24898453026E+02  0.42312870315E+02  0.00000000000E+00 0. -1.
         -2    1    6    6    0  503  0.54230278275E+03  0.27702809376E+03 -0.90185668146E+02  0.61560565921E+03  0.00000000000E+00 0.  1.
<mgrwt>
<rscale>  0 0.14793986E+04</rscale>
<asrwt>0</asrwt>
<pdfrwt beam="1">  1        2 0.16319383E+00 0.14793986E+04</pdfrwt>
<pdfrwt beam="2">  1       -2 0.79356032E-01 0.14793986E+04</pdfrwt>
<totfact> 0.31399852E+01</totfact>
</mgrwt>
</event>
<event>
12    3  0.8686020E-008  0.3154692E+04  0.7818608E-02  0.8200886E-01
         -2   -1    0    0    0  501 -0.00000000000E+00  0.00000000000E+00  0.34105413042E+04  0.34105413042E+04  0.00000000000E+00 0.  1.
          2   -1    0    0  501    0  0.00000000000E+00 -0.00000000000E+00 -0.72950899744E+03  0.72950899744E+03  0.00000000000E+00 0. -1.
         23    2    1    2    0    0 -0.91477934618E+03 -0.10216334988E+04  0.62550695978E+03  0.15101790333E+04  0.93944120300E+02 0.  0.
        254    2    1    2    0    0  0.91477934618E+03  0.10216334988E+04  0.20555253470E+04  0.26298712683E+04  0.90026783674E+03 0.  0.
         23    2    4    4    0    0  0.76951689883E+03  0.55456706095E+03  0.69004810912E+03  0.11765897308E+04  0.92174395296E+02 0.  0.
         23    2    4    4    0    0  0.14526244735E+03  0.46706643788E+03  0.13654772379E+04  0.14532815375E+04  0.90812466893E+02 0.  0.
          2    1    3    3  502    0 -0.41308834795E+03 -0.49962006345E+03  0.33877140210E+03  0.73145625563E+03  0.00000000000E+00 0.  1.
         -2    1    3    3    0  502 -0.50169099823E+03 -0.52201343537E+03  0.28673555769E+03  0.77872277766E+03  0.00000000000E+00 0. -1.
         13    1    5    5    0    0  0.19461246856E+03  0.97419871984E+02  0.13714556835E+03  0.25724220356E+03  0.00000000000E+00 0.  1.
        -13    1    5    5    0    0  0.57490443027E+03  0.45714718896E+03  0.55290254078E+03  0.91934752728E+03  0.00000000000E+00 0. -1.
          4    1    6    6  503    0  0.12630510093E+02  0.22046876793E+02  0.14969688386E+03  0.15183791226E+03  0.00000000000E+00 0. -1.
         -4    1    6    6    0  503  0.13263193726E+03  0.44501956109E+03  0.12157803540E+04  0.13014436252E+04  0.00000000000E+00 0.  1.
<mgrwt>
<rscale>  0 0.31546921E+04</rscale>
<asrwt>0</asrwt>
<pdfrwt beam="1">  1        2 0.11223216E+00 0.31546921E+04</pdfrwt>
<pdfrwt beam="2">  1       -2 0.52469865E+00 0.31546921E+04</pdfrwt>
<totfact> 0.38380990E-02</totfact>
</mgrwt>
</event>
<event>
12    3  0.8686020E-008  0.1404231E+04  0.7818608E-02  0.8950761E-01
          1   -1    0    0  501    0  0.00000000000E+00  0.00000000000E+00  0.61461885008E+03  0.61461885008E+03  0.00000000000E+00 0. -1.
         -1   -1    0    0    0  501 -0.00000000000E+00 -0.00000000000E+00 -0.80206832083E+03  0.80206832083E+03  0.00000000000E+00 0.  1.
         23    2    1    2    0    0  0.37035605180E+03  0.15316113751E+03  0.60724539762E+01  0.41115572683E+03  0.91598132410E+02 0.  0.
        254    2    1    2    0    0 -0.37035605180E+03 -0.15316113751E+03 -0.19352192472E+03  0.10055314441E+04  0.90167666630E+03 0.  0.
         23    2    4    4    0    0 -0.47598895851E+03  0.25582511648E+03 -0.16650759658E+03  0.57273316006E+03  0.91030292038E+02 0.  0.
         23    2    4    4    0    0  0.10563290672E+03 -0.40898625399E+03 -0.27014328146E+02  0.43279828402E+03  0.90313419801E+02 0.  0.
          2    1    3    3  502    0  0.14542830925E+03  0.32739055784E+02  0.38522996895E+02  0.15396512655E+03  0.00000000000E+00 0. -1.
         -2    1    3    3    0  502  0.22492774255E+03  0.12042208172E+03 -0.32450542919E+02  0.25719060028E+03  0.00000000000E+00 0.  1.
         13    1    5    5    0    0 -0.29033591218E+03  0.15945081476E+03 -0.14780998530E+03  0.36272206438E+03  0.00000000000E+00 0.  1.
        -13    1    5    5    0    0 -0.18565304633E+03  0.96374301720E+02 -0.18697611276E+02  0.21001109569E+03  0.00000000000E+00 0. -1.
          4    1    6    6  503    0 -0.67006342675E+01 -0.97174226599E+02 -0.28063308766E+02  0.10136704649E+03  0.00000000000E+00 0. -1.
         -4    1    6    6    0  503  0.11233354098E+03 -0.31181202739E+03  0.10489806197E+01  0.33143123754E+03  0.00000000000E+00 0.  1.
<mgrwt>
<rscale>  0 0.14042312E+04</rscale>
<asrwt>0</asrwt>
<pdfrwt beam="1">  1        1 0.94556746E-01 0.14042312E+04</pdfrwt>
<pdfrwt beam="2">  1       -1 0.12339513E+00 0.14042312E+04</pdfrwt>
<totfact> 0.18635013E+01</totfact>
</mgrwt>
</event>
<event>
12    3  0.8686020E-008  0.4151653E+04  0.7818608E-02  0.7974633E-01
         -2   -1    0    0    0  501 -0.00000000000E+00  0.00000000000E+00  0.14721571408E+04  0.14721571408E+04  0.00000000000E+00 0.  1.
          2   -1    0    0  501    0  0.00000000000E+00 -0.00000000000E+00 -0.29270353940E+04  0.29270353940E+04  0.00000000000E+00 0. -1.
         23    2    1    2    0    0 -0.86508767158E+03 -0.17407733307E+04 -0.31062469925E+03  0.19705175591E+04  0.88222889990E+02 0.  0.
        254    2    1    2    0    0  0.86508767158E+03  0.17407733307E+04 -0.11442535540E+04  0.24286749757E+04  0.90026522383E+03 0.  0.
         23    2    4    4    0    0  0.53299963337E+03  0.74392656129E+03 -0.10093514918E+04  0.13649016757E+04  0.81552513813E+02 0.  0.
         23    2    4    4    0    0  0.33208803820E+03  0.99684676943E+03 -0.13490206219E+03  0.10637733000E+04  0.97103659007E+02 0.  0.
          1    1    3    3  502    0 -0.54167846972E+03 -0.10098819039E+04 -0.15790807599E+03  0.11568111276E+04  0.00000000000E+00 0.  1.
         -1    1    3    3    0  502 -0.32340920186E+03 -0.73089142681E+03 -0.15271662326E+03  0.81370643150E+03  0.00000000000E+00 0. -1.
         13    1    5    5    0    0  0.72647224558E+02  0.15317205854E+03 -0.17263644459E+03  0.24195586530E+03  0.00000000000E+00 0. -1.
        -13    1    5    5    0    0  0.46035240882E+03  0.59075450275E+03 -0.83671504718E+03  0.11229458104E+04  0.00000000000E+00 0.  1.
          1    1    6    6  503    0 -0.12557404994E+01  0.49099728646E+02  0.52036152851E+01  0.49390665609E+02  0.00000000000E+00 0. -1.
         -1    1    6    6    0  503  0.33334377870E+03  0.94774704079E+03 -0.14010567748E+03  0.10143826344E+04  0.00000000000E+00 0.  1.
<mgrwt>
<rscale>  0 0.41516532E+04</rscale>
<asrwt>0</asrwt>
<pdfrwt beam="1">  1        2 0.45031313E+00 0.41516532E+04</pdfrwt>
<pdfrwt beam="2">  1       -2 0.22648572E+00 0.41516532E+04</pdfrwt>
<totfact> 0.13545811E-01</totfact>
</mgrwt>
</event>
<event>
12    3  0.8686020E-008  0.5061798E+04  0.7818608E-02  0.7819044E-01
          2   -1    0    0  501    0  0.00000000000E+00  0.00000000000E+00  0.35926751418E+04  0.35926751418E+04  0.00000000000E+00 0. -1.
         -2   -1    0    0    0  501 -0.00000000000E+00 -0.00000000000E+00 -0.17829191776E+04  0.17829191776E+04  0.00000000000E+00 0.  1.
         23    2    1    2    0    0  0.92939338479E+03 -0.13043543128E+04 -0.10925298934E+04  0.19406634245E+04  0.86259620975E+02 0.  0.
        254    2    1    2    0    0 -0.92939338479E+03  0.13043543128E+04  0.29022858576E+04  0.34349308949E+04  0.90020820719E+03 0.  0.
         23    2    4    4    0    0 -0.76518770014E+03  0.50577684234E+03  0.98318848831E+03  0.13477256060E+04  0.91554763437E+02 0.  0.
         23    2    4    4    0    0 -0.16420568465E+03  0.79857747049E+03  0.19190973693E+04  0.20872052890E+04  0.93817493284E+02 0.  0.
          3    1    3    3  502    0  0.35741406664E+03 -0.54041415576E+03 -0.48538690110E+03  0.80956328878E+03  0.00000000000E+00 0. -1.
         -3    1    3    3    0  502  0.57197931815E+03 -0.76394015707E+03 -0.60714299226E+03  0.11311001357E+04  0.00000000000E+00 0.  1.
         13    1    5    5    0    0 -0.16974569819E+03  0.81948488872E+02  0.24259797983E+03  0.30721806050E+03  0.00000000000E+00 0.  1.
        -13    1    5    5    0    0 -0.59544200195E+03  0.42382835347E+03  0.74059050848E+03  0.10405075455E+04  0.00000000000E+00 0. -1.
          3    1    6    6  503    0 -0.16646268311E+03  0.79884551971E+03  0.19185409502E+04  0.20848653115E+04  0.00000000000E+00 0. -1.
         -3    1    6    6    0  503  0.22569984614E+01 -0.26804921603E+00  0.55641908643E+00  0.23399774863E+01  0.00000000000E+00 0.  1.
<mgrwt>
<rscale>  0 0.50617979E+04</rscale>
<asrwt>0</asrwt>
<pdfrwt beam="1">  1        2 0.55271925E+00 0.50617979E+04</pdfrwt>
<pdfrwt beam="2">  1       -2 0.27429526E+00 0.50617979E+04</pdfrwt>
<totfact> 0.23044019E-02</totfact>
</mgrwt>
</event>
<event>
12    3  0.8686020E-008  0.2275674E+04  0.7818608E-02  0.8487575E-01
         -2   -1    0    0    0  501 -0.00000000000E+00  0.00000000000E+00  0.81249000854E+03  0.81249000854E+03  0.00000000000E+00 0.  1.
          2   -1    0    0  501    0  0.00000000000E+00 -0.00000000000E+00 -0.15934636189E+04  0.15934636189E+04  0.00000000000E+00 0. -1.
         23    2    1    2    0    0 -0.64677705154E+03  0.33945342318E+03  0.32176858236E+03  0.80501325719E+03  0.10470025195E+03 0.  0.
        254    2    1    2    0    0  0.64677705154E+03 -0.33945342318E+03 -0.11027421927E+04  0.16009403702E+04  0.90189830056E+03 0.  0.
         23    2    4    4    0    0  0.30696029225E+02 -0.48145550247E+03 -0.66254030547E+03  0.82469806788E+03  0.91791065605E+02 0.  0.
         23    2    4    4    0    0  0.61608102231E+03  0.14200207928E+03 -0.44020188722E+03  0.77624230234E+03  0.95152476899E+02 0.  0.
          1    1    3    3  502    0 -0.41049423048E+03  0.27034906457E+03  0.22335237285E+03  0.53988925941E+03  0.00000000000E+00 0. -1.
         -1    1    3    3    0  502 -0.23628282105E+03  0.69104358615E+02  0.98416209512E+02  0.26512399778E+03  0.00000000000E+00 0.  1.
         13    1    5    5    0    0  0.14651633027E+02 -0.12062369754E+03 -0.10611406690E+03  0.16132247814E+03  0.00000000000E+00 0. -1.
        -13    1    5    5    0    0  0.16044396199E+02 -0.36083180493E+03 -0.55642623857E+03  0.66337558975E+03  0.00000000000E+00 0.  1.
          2    1    6    6  503    0  0.37583345514E+03  0.13340868194E+03 -0.28261312164E+03  0.48879324765E+03  0.00000000000E+00 0. -1.
         -2    1    6    6    0  503  0.24024756717E+03  0.85933973433E+01 -0.15758876558E+03  0.28744905469E+03  0.00000000000E+00 0.  1.
<mgrwt>
<rscale>  0 0.22756742E+04</rscale>
<asrwt>0</asrwt>
<pdfrwt beam="1">  1        2 0.24514825E+00 0.22756742E+04</pdfrwt>
<pdfrwt beam="2">  1       -2 0.12499846E+00 0.22756742E+04</pdfrwt>
<totfact> 0.48994317E+00</totfact>
</mgrwt>
</event>
<event>
12    3  0.8686020E-008  0.1671106E+04  0.7818608E-02  0.8778017E-01
          2   -1    0    0  501    0  0.00000000000E+00  0.00000000000E+00  0.33672931301E+04  0.33672931301E+04  0.00000000000E+00 0. -1.
         -2   -1    0    0    0  501 -0.00000000000E+00 -0.00000000000E+00 -0.20733246438E+03  0.20733246438E+03  0.00000000000E+00 0.  1.
         23    2    1    2    0    0  0.26897050688E+03 -0.39103313485E+03  0.38269027821E+03  0.61591720576E+03  0.87464902573E+02 0.  0.
        254    2    1    2    0    0 -0.26897050688E+03  0.39103313485E+03  0.27772703875E+04  0.29587083887E+04  0.90303514771E+03 0.  0.
         23    2    4    4    0    0 -0.20520023700E+03 -0.16476954894E+03  0.18551725707E+04  0.18761103799E+04  0.94174035508E+02 0.  0.
         23    2    4    4    0    0 -0.63770269880E+02  0.55580268380E+03  0.92209781678E+03  0.10825980088E+04  0.93652518865E+02 0.  0.
          1    1    3    3  502    0  0.92131211516E+02 -0.20990994572E+03  0.17248489997E+03  0.28688218168E+03  0.00000000000E+00 0. -1.
         -1    1    3    3    0  502  0.17683929537E+03 -0.18112318914E+03  0.21020537824E+03  0.32903502408E+03  0.00000000000E+00 0.  1.
         13    1    5    5    0    0 -0.15050234333E+03 -0.11014436167E+03  0.15549785101E+04  0.15661228887E+04  0.00000000000E+00 0.  1.
        -13    1    5    5    0    0 -0.54697893670E+02 -0.54625187277E+02  0.30019406058E+03  0.30998749114E+03  0.00000000000E+00 0. -1.
          1    1    6    6  503    0  0.36421527015E+00  0.19589080899E+03  0.39795281639E+03  0.44355358839E+03  0.00000000000E+00 0. -1.
         -1    1    6    6    0  503 -0.64134485150E+02  0.35991187481E+03  0.52414500039E+03  0.63904442041E+03  0.00000000000E+00 0.  1.
<mgrwt>
<rscale>  0 0.16711064E+04</rscale>
<asrwt>0</asrwt>
<pdfrwt beam="1">  1        2 0.51804506E+00 0.16711064E+04</pdfrwt>
<pdfrwt beam="2">  1       -2 0.31897305E-01 0.16711064E+04</pdfrwt>
<totfact> 0.88250774E+00</totfact>
</mgrwt>
</event>
<event>
12    3  0.8686020E-008  0.1418856E+04  0.7818608E-02  0.8940281E-01
          1   -1    0    0  501    0  0.00000000000E+00  0.00000000000E+00  0.22585296895E+04  0.22585296895E+04  0.00000000000E+00 0. -1.
         -1   -1    0    0    0  501 -0.00000000000E+00 -0.00000000000E+00 -0.22283888289E+03  0.22283888289E+03  0.00000000000E+00 0.  1.
         23    2    1    2    0    0 -0.20703750510E+03  0.22812261265E+03  0.11960607606E+03  0.34244853745E+03  0.89782695719E+02 0.  0.
        254    2    1    2    0    0  0.20703750510E+03 -0.22812261265E+03  0.19160847306E+04  0.21389200350E+04  0.89927402181E+03 0.  0.
         23    2    4    4    0    0  0.54102262010E+03 -0.16368198090E+03  0.14156330926E+04  0.15270163717E+04  0.90910286879E+02 0.  0.
         23    2    4    4    0    0 -0.33398511500E+03 -0.64440631755E+02  0.50045163796E+03  0.61190366325E+03  0.90970319850E+02 0.  0.
          3    1    3    3  502    0 -0.18138914899E+03  0.19708656839E+03  0.13424007744E+03  0.29960897383E+03  0.00000000000E+00 0. -1.
         -3    1    3    3    0  502 -0.25648356106E+02  0.31036044265E+02 -0.14634001378E+02  0.42839563617E+02  0.00000000000E+00 0.  1.
         13    1    5    5    0    0 -0.32369158542E+01 -0.12426905633E+01  0.18873626131E+02  0.19189467617E+02  0.00000000000E+00 0. -1.
        -13    1    5    5    0    0  0.54425953595E+03 -0.16243929034E+03  0.13967594665E+04  0.15078269041E+04  0.00000000000E+00 0.  1.
          2    1    6    6  503    0 -0.69330260541E+02 -0.40281678338E+02  0.16908303281E+03  0.18713196045E+03  0.00000000000E+00 0. -1.
         -2    1    6    6    0  503 -0.26465485446E+03 -0.24158953416E+02  0.33136860515E+03  0.42477170280E+03  0.00000000000E+00 0.  1.
<mgrwt>
<rscale>  0 0.14188562E+04</rscale>
<asrwt>0</asrwt>
<pdfrwt beam="1">  1        1 0.34746609E+00 0.14188562E+04</pdfrwt>
<pdfrwt beam="2">  1       -1 0.34282907E-01 0.14188562E+04</pdfrwt>
<totfact> 0.15609193E+01</totfact>
</mgrwt>
</event>
<event>
12    3  0.8686020E-008  0.2314611E+04  0.7818608E-02  0.8472183E-01
          1   -1    0    0  501    0  0.00000000000E+00  0.00000000000E+00  0.11376653372E+04  0.11376653372E+04  0.00000000000E+00 0. -1.
         -1   -1    0    0    0  501 -0.00000000000E+00 -0.00000000000E+00 -0.11772843333E+04  0.11772843333E+04  0.00000000000E+00 0.  1.
         23    2    1    2    0    0  0.67621316837E+02 -0.91781773482E+03 -0.34611697940E+03  0.98745901801E+03  0.91193815461E+02 0.  0.
        254    2    1    2    0    0 -0.67621316837E+02  0.91781773482E+03  0.30649798330E+03  0.13274906525E+04  0.90627169319E+03 0.  0.
         23    2    4    4    0    0  0.25335354726E+03  0.43842725794E+03 -0.20154459550E+03  0.55318695144E+03  0.94810858267E+02 0.  0.
         23    2    4    4    0    0 -0.32097486410E+03  0.47939047687E+03  0.50804257880E+03  0.77430370107E+03  0.92730075536E+02 0.  0.
          4    1    3    3  502    0 -0.10837827049E+02 -0.42504029858E+03 -0.14081175205E+03  0.44788911956E+03  0.00000000000E+00 0. -1.
         -4    1    3    3    0  502  0.78459143885E+02 -0.49277743624E+03 -0.20530522736E+03  0.53956989844E+03  0.00000000000E+00 0.  1.
         13    1    5    5    0    0  0.17714616071E+03  0.35889638250E+03 -0.12591528517E+03  0.41957363438E+03  0.00000000000E+00 0. -1.
        -13    1    5    5    0    0  0.76207386551E+02  0.79530875439E+02 -0.75629310329E+02  0.13361331705E+03  0.00000000000E+00 0.  1.
          4    1    6    6  503    0 -0.25780786150E+02  0.14025764982E+02  0.48783658175E+02  0.56931681187E+02  0.00000000000E+00 0. -1.
         -4    1    6    6    0  503 -0.29519407795E+03  0.46536471189E+03  0.45925892063E+03  0.71737201988E+03  0.00000000000E+00 0.  1.
<mgrwt>
<rscale>  0 0.23146106E+04</rscale>
<asrwt>0</asrwt>
<pdfrwt beam="1">  1        1 0.17502544E+00 0.23146106E+04</pdfrwt>
<pdfrwt beam="2">  1       -1 0.18112067E+00 0.23146106E+04</pdfrwt>
<totfact> 0.21911564E+00</totfact>
</mgrwt>
</event>
<event>
12    3  0.8686020E-008  0.2688177E+04  0.7818608E-02  0.8338851E-01
          2   -1    0    0  501    0  0.00000000000E+00  0.00000000000E+00  0.14240672941E+04  0.14240672941E+04  0.00000000000E+00 0. -1.
         -2   -1    0    0    0  501 -0.00000000000E+00 -0.00000000000E+00 -0.12686014192E+04  0.12686014192E+04  0.00000000000E+00 0.  1.
         23    2    1    2    0    0  0.52724715082E+03  0.89657243089E+03  0.65096713419E+03  0.12304669367E+04  0.91972771318E+02 0.  0.
        254    2    1    2    0    0 -0.52724715082E+03 -0.89657243089E+03 -0.49550125932E+03  0.14622017765E+04  0.90037817358E+03 0.  0.
         23    2    4    4    0    0 -0.11546860689E+03 -0.39613103281E+03 -0.66357376464E+03  0.78658195140E+03  0.90156701457E+02 0.  0.
         23    2    4    4    0    0 -0.41177854393E+03 -0.50044139808E+03  0.16807250532E+03  0.67561982514E+03  0.90612465604E+02 0.  0.
          2    1    3    3  502    0  0.26558445565E+03  0.36182771070E+03  0.28098054785E+03  0.52953230646E+03  0.00000000000E+00 0. -1.
         -2    1    3    3    0  502  0.26166269517E+03  0.53474472019E+03  0.36998658634E+03  0.70093463025E+03  0.00000000000E+00 0.  1.
         13    1    5    5    0    0 -0.93435355897E+02 -0.31563675792E+03 -0.45214152425E+03  0.55927514394E+03  0.00000000000E+00 0. -1.
        -13    1    5    5    0    0 -0.22033250988E+02 -0.80494274891E+02 -0.21143224040E+03  0.22730680746E+03  0.00000000000E+00 0.  1.
          2    1    6    6  503    0 -0.38539319934E+03 -0.43676405700E+03  0.16960058013E+03  0.60667546214E+03  0.00000000000E+00 0. -1.
         -2    1    6    6    0  503 -0.26385344588E+02 -0.63677341085E+02 -0.15280748122E+01  0.68944362998E+02  0.00000000000E+00 0.  1.
<mgrwt>
<rscale>  0 0.26881769E+04</rscale>
<asrwt>0</asrwt>
<pdfrwt beam="1">  1        2 0.21908728E+00 0.26881769E+04</pdfrwt>
<pdfrwt beam="2">  1       -2 0.19516945E+00 0.26881769E+04</pdfrwt>
<totfact> 0.17624277E+00</totfact>
</mgrwt>
</event>
<event>
12    3  0.8686020E-008  0.2645575E+04  0.7818608E-02  0.8352883E-01
          1   -1    0    0  501    0  0.00000000000E+00  0.00000000000E+00  0.18148775533E+04  0.18148775533E+04  0.00000000000E+00 0. -1.
         -1   -1    0    0    0  501 -0.00000000000E+00 -0.00000000000E+00 -0.96412379039E+03  0.96412379039E+03  0.00000000000E+00 0.  1.
         23    2    1    2    0    0 -0.10617274934E+04 -0.44435894353E+03  0.58041110600E+03  0.12922406808E+04  0.91042760065E+02 0.  0.
        254    2    1    2    0    0  0.10617274934E+04  0.44435894353E+03  0.27034265693E+03  0.14867606629E+04  0.90147211593E+03 0.  0.
         23    2    4    4    0    0  0.10389788240E+02  0.39409200741E+03  0.88022492340E+02  0.41454887241E+03  0.93200592606E+02 0.  0.
         23    2    4    4    0    0  0.10513377052E+04  0.50266936125E+02  0.18232016460E+03  0.10722117905E+04  0.92518896379E+02 0.  0.
          2    1    3    3  502    0 -0.25544760801E+03 -0.12028426692E+03  0.10151891278E+03  0.30004645467E+03  0.00000000000E+00 0.  1.
         -2    1    3    3    0  502 -0.80627988538E+03 -0.32407467661E+03  0.47889219323E+03  0.99219422611E+03  0.00000000000E+00 0. -1.
         13    1    5    5    0    0 -0.40090170192E+02  0.14483825716E+03  0.42650394728E+02  0.15621907264E+03  0.00000000000E+00 0.  1.
        -13    1    5    5    0    0  0.50479958432E+02  0.24925375024E+03  0.45372097612E+02  0.25832979978E+03  0.00000000000E+00 0. -1.
          4    1    6    6  503    0  0.40657858748E+02  0.87567522045E+01 -0.94789142805E+01  0.42656675950E+02  0.00000000000E+00 0. -1.
         -4    1    6    6    0  503  0.10106798464E+04  0.41510183921E+02  0.19179907888E+03  0.10295551146E+04  0.00000000000E+00 0.  1.
<mgrwt>
<rscale>  0 0.26455749E+04</rscale>
<asrwt>0</asrwt>
<pdfrwt beam="1">  1        1 0.27921193E+00 0.26455749E+04</pdfrwt>
<pdfrwt beam="2">  1       -1 0.14832674E+00 0.26455749E+04</pdfrwt>
<totfact> 0.12555768E+00</totfact>
</mgrwt>
</event>
<event>
12    3  0.8686020E-008  0.1508637E+04  0.7818608E-02  0.8878730E-01
         -2   -1    0    0    0  501 -0.00000000000E+00  0.00000000000E+00  0.56334424010E+03  0.56334424010E+03  0.00000000000E+00 0.  1.
          2   -1    0    0  501    0  0.00000000000E+00 -0.00000000000E+00 -0.10100330691E+04  0.10100330691E+04  0.00000000000E+00 0. -1.
         23    2    1    2    0    0 -0.21365516425E+03 -0.21175625156E+03  0.24580315377E+03  0.39857660637E+03  0.89190142133E+02 0.  0.
        254    2    1    2    0    0  0.21365516425E+03  0.21175625156E+03 -0.69249198279E+03  0.11748007029E+04  0.90006794517E+03 0.  0.
         23    2    4    4    0    0 -0.32529105323E+03 -0.44410121370E+02 -0.30493505298E+03  0.45755157894E+03  0.92636562271E+02 0.  0.
         23    2    4    4    0    0  0.53894621749E+03  0.25616637293E+03 -0.38755692982E+03  0.71724912392E+03  0.90342105034E+02 0.  0.
          3    1    3    3  502    0 -0.15288811315E+03 -0.90759061937E+02  0.15128487242E+03  0.23345041249E+03  0.00000000000E+00 0. -1.
         -3    1    3    3    0  502 -0.60767051101E+02 -0.12099718963E+03  0.94518281348E+02  0.16512619388E+03  0.00000000000E+00 0.  1.
         13    1    5    5    0    0 -0.26541915356E+03 -0.61271407529E+02 -0.27969763569E+03  0.39042576742E+03  0.00000000000E+00 0. -1.
        -13    1    5    5    0    0 -0.59871899673E+02  0.16861286159E+02 -0.25237417285E+02  0.67125811523E+02  0.00000000000E+00 0.  1.
          3    1    6    6  503    0  0.50111512560E+03  0.25806207399E+03 -0.34775311185E+03  0.66230252147E+03  0.00000000000E+00 0. -1.
         -3    1    6    6    0  503  0.37831091886E+02 -0.18957010594E+01 -0.39803817970E+02  0.54946602450E+02  0.00000000000E+00 0.  1.
<mgrwt>
<rscale>  0 0.15086369E+04</rscale>
<asrwt>0</asrwt>
<pdfrwt beam="1">  1        2 0.15538970E+00 0.15086369E+04</pdfrwt>
<pdfrwt beam="2">  1       -2 0.86668345E-01 0.15086369E+04</pdfrwt>
<totfact> 0.27625815E+01</totfact>
</mgrwt>
</event>
<event>
12    3  0.8686020E-008  0.2029189E+04  0.7818608E-02  0.8593094E-01
         -3   -1    0    0    0  501 -0.00000000000E+00  0.00000000000E+00  0.25082356850E+04  0.25082356850E+04  0.00000000000E+00 0.  1.
          3   -1    0    0  501    0  0.00000000000E+00 -0.00000000000E+00 -0.41040874562E+03  0.41040874562E+03  0.00000000000E+00 0. -1.
         23    2    1    2    0    0 -0.26336010233E+03  0.64477302127E+03  0.14452154962E+04  0.16067391176E+04  0.88724117879E+02 0.  0.
        254    2    1    2    0    0  0.26336010233E+03 -0.64477302127E+03  0.65261144313E+03  0.13119053130E+04  0.90005725488E+03 0.  0.
         23    2    4    4    0    0 -0.31793410020E+03 -0.34448529778E+03  0.27931014535E+03  0.55309493677E+03  0.90264274933E+02 0.  0.
         23    2    4    4    0    0  0.58129420253E+03 -0.30028772349E+03  0.37330129778E+03  0.75881037621E+03  0.91453055464E+02 0.  0.
          4    1    3    3  502    0 -0.22893643711E+03  0.45706699840E+03  0.10630651156E+04  0.11795887305E+04  0.00000000000E+00 0. -1.
         -4    1    3    3    0  502 -0.34423665217E+02  0.18770602287E+03  0.38215038066E+03  0.42715038708E+03  0.00000000000E+00 0.  1.
         13    1    5    5    0    0 -0.27599901432E+03 -0.30667829261E+03  0.20773794369E+03  0.46193298682E+03  0.00000000000E+00 0.  1.
        -13    1    5    5    0    0 -0.41935085874E+02 -0.37807005167E+02  0.71572201667E+02  0.91161949948E+02  0.00000000000E+00 0. -1.
          3    1    6    6  503    0  0.17611166064E+03 -0.11793975930E+03  0.80712759520E+02  0.22680311591E+03  0.00000000000E+00 0. -1.
         -3    1    6    6    0  503  0.40518254189E+03 -0.18234796419E+03  0.29258853826E+03  0.53200726031E+03  0.00000000000E+00 0.  1.
<mgrwt>
<rscale>  0 0.20291889E+04</rscale>
<asrwt>0</asrwt>
<pdfrwt beam="1">  1        3 0.63139808E-01 0.20291889E+04</pdfrwt>
<pdfrwt beam="2">  1       -3 0.38588240E+00 0.20291889E+04</pdfrwt>
<totfact> 0.74925246E-02</totfact>
</mgrwt>
</event>
<event>
12    3  0.8686020E-008  0.2022005E+04  0.7818608E-02  0.8596401E-01
          1   -1    0    0  501    0  0.00000000000E+00  0.00000000000E+00  0.56699736814E+03  0.56699736814E+03  0.00000000000E+00 0. -1.
         -1   -1    0    0    0  501 -0.00000000000E+00 -0.00000000000E+00 -0.18026995929E+04  0.18026995929E+04  0.00000000000E+00 0.  1.
         23    2    1    2    0    0 -0.64347892839E+03 -0.42419726383E+03 -0.76964364173E+03  0.10948471260E+04  0.11104253270E+03 0.  0.
        254    2    1    2    0    0  0.64347892839E+03  0.42419726383E+03 -0.46605858301E+03  0.12748498351E+04  0.90223225903E+03 0.  0.
         23    2    4    4    0    0  0.53497888294E+03  0.33194343483E+03 -0.72637596035E+03  0.96556167324E+03  0.91095883185E+02 0.  0.
         23    2    4    4    0    0  0.10850004544E+03  0.92253828998E+02  0.26031737734E+03  0.30928816182E+03  0.87241052667E+02 0.  0.
          4    1    3    3  502    0 -0.24487842027E+03 -0.13447930482E+03 -0.21217678821E+03  0.35081207732E+03  0.00000000000E+00 0.  1.
         -4    1    3    3    0  502 -0.39860050812E+03 -0.28971795901E+03 -0.55746685352E+03  0.74403504865E+03  0.00000000000E+00 0. -1.
         13    1    5    5    0    0  0.22543770993E+03  0.12032004689E+03 -0.35864955474E+03  0.44037322564E+03  0.00000000000E+00 0.  1.
        -13    1    5    5    0    0  0.30954117301E+03  0.21162338794E+03 -0.36772640561E+03  0.52518844760E+03  0.00000000000E+00 0. -1.
          3    1    6    6  503    0  0.14171642039E+02  0.54121781034E+02  0.14545559994E+03  0.15584394174E+03  0.00000000000E+00 0. -1.
         -3    1    6    6    0  503  0.94328403405E+02  0.38132047964E+02  0.11486177739E+03  0.15344422008E+03  0.00000000000E+00 0.  1.
<mgrwt>
<rscale>  0 0.20220049E+04</rscale>
<asrwt>0</asrwt>
<pdfrwt beam="1">  1        1 0.87230364E-01 0.20220049E+04</pdfrwt>
<pdfrwt beam="2">  1       -1 0.27733840E+00 0.20220049E+04</pdfrwt>
<totfact> 0.15933167E+00</totfact>
</mgrwt>
</event>
<event>
12    3  0.8686020E-008  0.3152830E+04  0.7818608E-02  0.8201387E-01
         -2   -1    0    0    0  501 -0.00000000000E+00  0.00000000000E+00  0.15500796284E+04  0.15500796284E+04  0.00000000000E+00 0.  1.
          2   -1    0    0  501    0  0.00000000000E+00 -0.00000000000E+00 -0.16031976651E+04  0.16031976651E+04  0.00000000000E+00 0. -1.
         23    2    1    2    0    0 -0.11954500351E+04 -0.77723511033E+03 -0.26833607568E+03  0.14536966367E+04  0.89635143844E+02 0.  0.
        254    2    1    2    0    0  0.11954500351E+04  0.77723511033E+03  0.21521803902E+03  0.16995806567E+04  0.89947784919E+03 0.  0.
         23    2    4    4    0    0  0.10939889053E+04  0.95387624800E+03  0.24834319334E+03  0.14752147151E+04  0.88839701978E+02 0.  0.
         23    2    4    4    0    0  0.10146112980E+03 -0.17664113768E+03 -0.33125154321E+02  0.22436594157E+03  0.88013337109E+02 0.  0.
          3    1    3    3  502    0 -0.42348528685E+03 -0.28195774565E+03 -0.13921937217E+03  0.52746752705E+03  0.00000000000E+00 0. -1.
         -3    1    3    3    0  502 -0.77196474826E+03 -0.49527736467E+03 -0.12911670351E+03  0.92622910969E+03  0.00000000000E+00 0.  1.
         13    1    5    5    0    0  0.93037016367E+03  0.84731933259E+03  0.20151279743E+03  0.12744199074E+04  0.00000000000E+00 0. -1.
        -13    1    5    5    0    0  0.16361874164E+03  0.10655691541E+03  0.46830395912E+02  0.20079480775E+03  0.00000000000E+00 0.  1.
          1    1    6    6  503    0  0.10902874940E+03 -0.13783483599E+03 -0.49434653708E+01  0.17581282108E+03  0.00000000000E+00 0. -1.
         -1    1    6    6    0  503 -0.75676196003E+01 -0.38806301686E+02 -0.28181688950E+02  0.48553120487E+02  0.00000000000E+00 0.  1.
<mgrwt>
<rscale>  0 0.31528299E+04</rscale>
<asrwt>0</asrwt>
<pdfrwt beam="1">  1        2 0.24664579E+00 0.31528299E+04</pdfrwt>
<pdfrwt beam="2">  1       -2 0.23847379E+00 0.31528299E+04</pdfrwt>
<totfact> 0.71080248E-01</totfact>
</mgrwt>
</event>
<event>
12    3  0.8686020E-008  0.1366604E+04  0.7818608E-02  0.8978354E-01
         -1   -1    0    0    0  501 -0.00000000000E+00  0.00000000000E+00  0.34957067977E+03  0.34957067977E+03  0.00000000000E+00 0.  1.
          1   -1    0    0  501    0  0.00000000000E+00 -0.00000000000E+00 -0.13356421693E+04  0.13356421693E+04  0.00000000000E+00 0. -1.
         23    2    1    2    0    0 -0.34939097636E+03  0.15513729364E+03 -0.24734743504E+03  0.46458020921E+03  0.92262576012E+02 0.  0.
        254    2    1    2    0    0  0.34939097636E+03 -0.15513729364E+03 -0.73872405453E+03  0.12206326399E+04  0.89335837076E+03 0.  0.
         23    2    4    4    0    0 -0.12877749975E+02 -0.79087544942E+02 -0.82246010690E+03  0.83100478073E+03  0.87793177103E+02 0.  0.
         23    2    4    4    0    0  0.36226872633E+03 -0.76049748700E+02  0.83736052371E+02  0.38962785917E+03  0.88181334868E+02 0.  0.
          4    1    3    3  502    0 -0.27298435582E+03  0.76278868207E+02 -0.17634682087E+03  0.33382199671E+03  0.00000000000E+00 0. -1.
         -4    1    3    3    0  502 -0.76406620539E+02  0.78858425435E+02 -0.71000614165E+02  0.13075821250E+03  0.00000000000E+00 0.  1.
         13    1    5    5    0    0  0.15976666607E+02  0.10735386620E+02 -0.25778518135E+03  0.25850280874E+03  0.00000000000E+00 0.  1.
        -13    1    5    5    0    0 -0.28854416582E+02 -0.89822931562E+02 -0.56467492555E+03  0.57250197199E+03  0.00000000000E+00 0. -1.
          4    1    6    6  503    0  0.10734856018E+03  0.95586314611E+01  0.49324185279E+02  0.11852407376E+03  0.00000000000E+00 0. -1.
         -4    1    6    6    0  503  0.25492016616E+03 -0.85608380161E+02  0.34411867092E+02  0.27110378541E+03  0.00000000000E+00 0.  1.
<mgrwt>
<rscale>  0 0.13666036E+04</rscale>
<asrwt>0</asrwt>
<pdfrwt beam="1">  1        1 0.20548341E+00 0.13666036E+04</pdfrwt>
<pdfrwt beam="2">  1       -1 0.53780106E-01 0.13666036E+04</pdfrwt>
<totfact> 0.29100015E+01</totfact>
</mgrwt>
</event>
<event>
12    3  0.8686020E-008  0.2577679E+04  0.7818608E-02  0.8375823E-01
          2   -1    0    0  501    0  0.00000000000E+00  0.00000000000E+00  0.26850726796E+04  0.26850726796E+04  0.00000000000E+00 0.  1.
         -2   -1    0    0    0  501 -0.00000000000E+00 -0.00000000000E+00 -0.61864511640E+03  0.61864511640E+03  0.00000000000E+00 0. -1.
         23    2    1    2    0    0 -0.40322304082E+03  0.10288132840E+04  0.59967002658E+03  0.12588620774E+04  0.63906143008E+02 0.  0.
        254    2    1    2    0    0  0.40322304082E+03 -0.10288132840E+04  0.14667575366E+04  0.20448557187E+04  0.89945074624E+03 0.  0.
         23    2    4    4    0    0  0.56542794138E+03 -0.34608097537E+03  0.45192017891E+03  0.80761931589E+03  0.92392169001E+02 0.  0.
         23    2    4    4    0    0 -0.16220490056E+03 -0.68273230861E+03  0.10148373577E+04  0.12372364028E+04  0.91788990137E+02 0.  0.
          3    1    3    3  502    0 -0.23736106321E+03  0.68809281096E+03  0.39853712751E+03  0.82984566808E+03  0.00000000000E+00 0. -1.
         -3    1    3    3    0  502 -0.16586197761E+03  0.34072047301E+03  0.20113289906E+03  0.42901640928E+03  0.00000000000E+00 0.  1.
         13    1    5    5    0    0  0.28549208346E+02 -0.29677072230E+02  0.55241278521E+02  0.68901268246E+02  0.00000000000E+00 0. -1.
        -13    1    5    5    0    0  0.53687873303E+03 -0.31640390314E+03  0.39667890039E+03  0.73871804765E+03  0.00000000000E+00 0.  1.
          3    1    6    6  503    0 -0.54363586533E+02 -0.11327906486E+03  0.22289131723E+03  0.25586731986E+03  0.00000000000E+00 0. -1.
         -3    1    6    6    0  503 -0.10784131402E+03 -0.56945324374E+03  0.79194604051E+03  0.98136908291E+03  0.00000000000E+00 0.  1.
<mgrwt>
<rscale>  0 0.25776789E+04</rscale>
<asrwt>0</asrwt>
<pdfrwt beam="1">  1        2 0.41308810E+00 0.25776789E+04</pdfrwt>
<pdfrwt beam="2">  1       -2 0.95176173E-01 0.25776789E+04</pdfrwt>
<totfact> 0.22285034E+00</totfact>
</mgrwt>
</event>
<event>
12    3  0.8686020E-008  0.2024911E+04  0.7818608E-02  0.8595062E-01
          1   -1    0    0  501    0  0.00000000000E+00  0.00000000000E+00  0.73674533024E+03  0.73674533024E+03  0.00000000000E+00 0. -1.
         -1   -1    0    0    0  501 -0.00000000000E+00 -0.00000000000E+00 -0.13913435500E+04  0.13913435500E+04  0.00000000000E+00 0.  1.
         23    2    1    2    0    0  0.68127343988E+03 -0.40584819490E+03 -0.91174931102E+02  0.80346832207E+03  0.91663620522E+02 0.  0.
        254    2    1    2    0    0 -0.68127343988E+03  0.40584819490E+03 -0.56342328861E+03  0.13246205581E+04  0.89907038860E+03 0.  0.
         23    2    4    4    0    0 -0.54051270223E+03 -0.11820541474E+03 -0.35117509879E+02  0.56170064581E+03  0.90265578514E+02 0.  0.
         23    2    4    4    0    0 -0.14076073765E+03  0.52405360964E+03 -0.52830577873E+03  0.76291991231E+03  0.92163038761E+02 0.  0.
          2    1    3    3  502    0  0.49279154282E+03 -0.32395871978E+03 -0.36763124893E+02  0.59088432383E+03  0.00000000000E+00 0. -1.
         -2    1    3    3    0  502  0.18848189706E+03 -0.81889475120E+02 -0.54411806209E+02  0.21258399825E+03  0.00000000000E+00 0.  1.
         13    1    5    5    0    0 -0.25235672269E+03 -0.61658663668E+02 -0.61203476204E+02  0.26689243488E+03  0.00000000000E+00 0. -1.
        -13    1    5    5    0    0 -0.28815597953E+03 -0.56546751070E+02  0.26085966325E+02  0.29480821094E+03  0.00000000000E+00 0.  1.
          3    1    6    6  503    0 -0.21688125077E+01  0.26835074784E+02 -0.40884230531E+01  0.27231235547E+02  0.00000000000E+00 0. -1.
         -3    1    6    6    0  503 -0.13859192514E+03  0.49721853485E+03 -0.52421735568E+03  0.73568867676E+03  0.00000000000E+00 0.  1.
<mgrwt>
<rscale>  0 0.20249107E+04</rscale>
<asrwt>0</asrwt>
<pdfrwt beam="1">  1        1 0.11334544E+00 0.20249107E+04</pdfrwt>
<pdfrwt beam="2">  1       -1 0.21405285E+00 0.20249107E+04</pdfrwt>
<totfact> 0.28127087E+00</totfact>
</mgrwt>
</event>
<event>
12    3  0.8686020E-008  0.1172281E+04  0.7818608E-02  0.9137471E-01
         -2   -1    0    0    0  501 -0.00000000000E+00  0.00000000000E+00  0.11635138804E+03  0.11635138804E+03  0.00000000000E+00 0. -1.
          2   -1    0    0  501    0  0.00000000000E+00 -0.00000000000E+00 -0.29527833047E+04  0.29527833047E+04  0.00000000000E+00 0.  1.
         23    2    1    2    0    0  0.21080728751E+03 -0.64739994859E+01 -0.78854597226E+03  0.82159004933E+03  0.93401464971E+02 0.  0.
        254    2    1    2    0    0 -0.21080728751E+03  0.64739994859E+01 -0.20478859444E+04  0.22475446434E+04  0.90174190191E+03 0.  0.
         23    2    4    4    0    0 -0.50436933646E+03 -0.40037211633E+02 -0.72388772537E+03  0.88756354649E+03  0.88114722026E+02 0.  0.
         23    2    4    4    0    0  0.29356204895E+03  0.46511211119E+02 -0.13239982190E+04  0.13599810969E+04  0.90748722427E+02 0.  0.
          1    1    3    3  502    0  0.39624948670E+02  0.27901862109E+02 -0.98210464213E+02  0.10951687426E+03  0.00000000000E+00 0. -1.
         -1    1    3    3    0  502  0.17118233884E+03 -0.34375861595E+02 -0.69033550805E+03  0.71207317507E+03  0.00000000000E+00 0.  1.
         13    1    5    5    0    0 -0.11582774430E+03 -0.38884443561E+02 -0.21516436735E+03  0.24743437772E+03  0.00000000000E+00 0.  1.
        -13    1    5    5    0    0 -0.38854159216E+03 -0.11527680724E+01 -0.50872335802E+03  0.64012916877E+03  0.00000000000E+00 0. -1.
          1    1    6    6  503    0  0.11976546239E+03 -0.20934219797E+02 -0.61358006654E+03  0.62550979657E+03  0.00000000000E+00 0. -1.
         -1    1    6    6    0  503  0.17379658656E+03  0.67445430916E+02 -0.71041815246E+03  0.73447130032E+03  0.00000000000E+00 0.  1.
<mgrwt>
<rscale>  0 0.11722806E+04</rscale>
<asrwt>0</asrwt>
<pdfrwt beam="1">  1        2 0.45427434E+00 0.11722806E+04</pdfrwt>
<pdfrwt beam="2">  1       -2 0.17900214E-01 0.11722806E+04</pdfrwt>
<totfact> 0.48490809E+01</totfact>
</mgrwt>
</event>
<event>
12    3  0.8686020E-008  0.3270115E+04  0.7818608E-02  0.8170542E-01
         -1   -1    0    0    0  501 -0.00000000000E+00  0.00000000000E+00  0.23521540083E+04  0.23521540083E+04  0.00000000000E+00 0.  1.
          1   -1    0    0  501    0  0.00000000000E+00 -0.00000000000E+00 -0.11365804781E+04  0.11365804781E+04  0.00000000000E+00 0. -1.
         23    2    1    2    0    0 -0.58695248159E+03  0.12827747811E+04  0.11330609894E+04  0.18116942583E+04  0.91567053205E+02 0.  0.
        254    2    1    2    0    0  0.58695248159E+03 -0.12827747811E+04  0.82512540903E+02  0.16770402281E+04  0.90312305507E+03 0.  0.
         23    2    4    4    0    0  0.72882960640E+03 -0.53707527091E+03  0.63955469294E+02  0.91276574185E+03  0.96997709445E+02 0.  0.
         23    2    4    4    0    0 -0.14187712482E+03 -0.74569951021E+03  0.18557071608E+02  0.76427448627E+03  0.87030152177E+02 0.  0.
          2    1    3    3  502    0 -0.26335574338E+03  0.66580974521E+03  0.60782731471E+03  0.93920866100E+03  0.00000000000E+00 0.  1.
         -2    1    3    3    0  502 -0.32359673821E+03  0.61696503591E+03  0.52523367465E+03  0.87248559730E+03  0.00000000000E+00 0. -1.
         13    1    5    5    0    0  0.35449734667E+03 -0.30918078209E+03  0.37224275054E+01  0.47039874710E+03  0.00000000000E+00 0. -1.
        -13    1    5    5    0    0  0.37433225974E+03 -0.22789448882E+03  0.60233041789E+02  0.44236699474E+03  0.00000000000E+00 0.  1.
          3    1    6    6  503    0 -0.58521404849E+02 -0.24885970320E+03  0.45958412517E+02  0.25974618839E+03  0.00000000000E+00 0. -1.
         -3    1    6    6    0  503 -0.83355719967E+02 -0.49683980701E+03 -0.27401340908E+02  0.50452829788E+03  0.00000000000E+00 0.  1.
<mgrwt>
<rscale>  0 0.32701146E+04</rscale>
<asrwt>0</asrwt>
<pdfrwt beam="1">  1        1 0.17485854E+00 0.32701146E+04</pdfrwt>
<pdfrwt beam="2">  1       -1 0.36186985E+00 0.32701146E+04</pdfrwt>
<totfact> 0.12816226E-01</totfact>
</mgrwt>
</event>
<event>
12    3  0.8686020E-008  0.1919807E+04  0.7818608E-02  0.8645059E-01
         -1   -1    0    0    0  501 -0.00000000000E+00  0.00000000000E+00  0.47627315767E+03  0.47627315767E+03  0.00000000000E+00 0.  1.
          1   -1    0    0  501    0  0.00000000000E+00 -0.00000000000E+00 -0.19346360079E+04  0.19346360079E+04  0.00000000000E+00 0. -1.
         23    2    1    2    0    0  0.48142974982E+03 -0.54162456318E+03 -0.37485416554E+03  0.82116590394E+03  0.93091486788E+02 0.  0.
        254    2    1    2    0    0 -0.48142974982E+03  0.54162456318E+03 -0.10835086847E+04  0.15897432616E+04  0.91003340413E+03 0.  0.
         23    2    4    4    0    0 -0.25864560162E+03 -0.25488881538E+02  0.67123139665E+02  0.28474579176E+03  0.95012734548E+02 0.  0.
         23    2    4    4    0    0 -0.22278414820E+03  0.56711344472E+03 -0.11506318243E+04  0.13049974698E+04  0.88398898662E+02 0.  0.
          4    1    3    3  502    0  0.21514466815E+03 -0.19828691474E+03 -0.11163354288E+03  0.31315647317E+03  0.00000000000E+00 0.  1.
         -4    1    3    3    0  502  0.26628508167E+03 -0.34333764844E+03 -0.26322062267E+03  0.50800943077E+03  0.00000000000E+00 0. -1.
         13    1    5    5    0    0 -0.10589112052E+03 -0.40624903574E+02 -0.82897331858E+01  0.11371909194E+03  0.00000000000E+00 0. -1.
        -13    1    5    5    0    0 -0.15275448110E+03  0.15136022036E+02  0.75412872851E+02  0.17102669982E+03  0.00000000000E+00 0.  1.
          4    1    6    6  503    0 -0.21604120207E+03  0.55027781751E+03 -0.10709693712E+04  0.12232967226E+04  0.00000000000E+00 0. -1.
         -4    1    6    6    0  503 -0.67429461356E+01  0.16835627210E+02 -0.79662453087E+02  0.81700747231E+02  0.00000000000E+00 0.  1.
<mgrwt>
<rscale>  0 0.19198075E+04</rscale>
<asrwt>0</asrwt>
<pdfrwt beam="1">  1        1 0.29763631E+00 0.19198075E+04</pdfrwt>
<pdfrwt beam="2">  1       -1 0.73272793E-01 0.19198075E+04</pdfrwt>
<totfact> 0.57863258E+00</totfact>
</mgrwt>
</event>
<event>
12    3  0.8686020E-008  0.1854973E+04  0.7818608E-02  0.8677600E-01
          2   -1    0    0  501    0  0.00000000000E+00  0.00000000000E+00  0.87914053224E+03  0.87914053224E+03  0.00000000000E+00 0. -1.
         -2   -1    0    0    0  501 -0.00000000000E+00 -0.00000000000E+00 -0.97849063191E+03  0.97849063191E+03  0.00000000000E+00 0.  1.
         23    2    1    2    0    0 -0.24116518403E+03 -0.62718747805E+03 -0.24652978999E+03  0.72202682808E+03  0.94979074022E+02 0.  0.
        254    2    1    2    0    0  0.24116518403E+03  0.62718747805E+03  0.14717969032E+03  0.11356043361E+04  0.90355440801E+03 0.  0.
         23    2    4    4    0    0  0.12853306834E+03  0.68942543083E+03  0.41872430158E+03  0.82177020648E+03  0.90266589617E+02 0.  0.
         23    2    4    4    0    0  0.11263211569E+03 -0.62237952775E+02 -0.27154461126E+03  0.31383412958E+03  0.90530816507E+02 0.  0.
          1    1    3    3  502    0 -0.13583648139E+03 -0.22469737836E+03 -0.92291142951E+02  0.27831298314E+03  0.00000000000E+00 0.  1.
         -1    1    3    3    0  502 -0.10532870264E+03 -0.40249009970E+03 -0.15423864704E+03  0.44371384494E+03  0.00000000000E+00 0. -1.
         13    1    5    5    0    0  0.12969833981E+03  0.63480262658E+03  0.40918542562E+03  0.76630851920E+03  0.00000000000E+00 0. -1.
        -13    1    5    5    0    0 -0.11652714735E+01  0.54622804249E+02  0.95388759627E+01  0.55461687283E+02  0.00000000000E+00 0.  1.
          1    1    6    6  503    0  0.95136792543E+02 -0.84580889150E+02 -0.23792254666E+03  0.26983712553E+03  0.00000000000E+00 0. -1.
         -1    1    6    6    0  503  0.17495323146E+02  0.22342936375E+02 -0.33622064599E+02  0.43997004055E+02  0.00000000000E+00 0.  1.
<mgrwt>
<rscale>  0 0.18549725E+04</rscale>
<asrwt>0</asrwt>
<pdfrwt beam="1">  1        2 0.13525239E+00 0.18549725E+04</pdfrwt>
<pdfrwt beam="2">  1       -2 0.15053702E+00 0.18549725E+04</pdfrwt>
<totfact> 0.84496662E+00</totfact>
</mgrwt>
</event>
<event>
12    3  0.8686020E-008  0.2717024E+04  0.7818608E-02  0.8329502E-01
          1   -1    0    0  501    0  0.00000000000E+00  0.00000000000E+00  0.14956646749E+04  0.14956646749E+04  0.00000000000E+00 0. -1.
         -1   -1    0    0    0  501 -0.00000000000E+00 -0.00000000000E+00 -0.12339363560E+04  0.12339363560E+04  0.00000000000E+00 0.  1.
         23    2    1    2    0    0  0.54770622936E+03 -0.57477705273E+03 -0.79771486150E+03  0.11291750607E+04  0.91304673010E+02 0.  0.
        254    2    1    2    0    0 -0.54770622936E+03  0.57477705273E+03  0.10594431804E+04  0.16004259703E+04  0.89921780441E+03 0.  0.
         23    2    4    4    0    0 -0.24923972838E+03 -0.19279248943E+03  0.50786129760E+03  0.60539461507E+03  0.96385456242E+02 0.  0.
         23    2    4    4    0    0 -0.29846650098E+03  0.76756954216E+03  0.55158188281E+03  0.99503135520E+03  0.87175513352E+02 0.  0.
          3    1    3    3  502    0  0.23349396868E+01 -0.32169304094E+01  0.24996264046E+01  0.46956061124E+01  0.00000000000E+00 0. -1.
         -3    1    3    3    0  502  0.54537128967E+03 -0.57156012232E+03 -0.80021448791E+03  0.11244794545E+04  0.00000000000E+00 0.  1.
         13    1    5    5    0    0 -0.21226083453E+03 -0.18164197598E+03  0.37880149710E+03  0.47067934256E+03  0.00000000000E+00 0. -1.
        -13    1    5    5    0    0 -0.36978893841E+02 -0.11150513448E+02  0.12905980051E+03  0.13471527251E+03  0.00000000000E+00 0.  1.
          2    1    6    6  503    0 -0.28621272941E+02  0.14255145333E+03  0.71697936085E+02  0.16211319548E+03  0.00000000000E+00 0.  1.
         -2    1    6    6    0  503 -0.26984522804E+03  0.62501808883E+03  0.47988394672E+03  0.83291815971E+03  0.00000000000E+00 0. -1.
<mgrwt>
<rscale>  0 0.27170241E+04</rscale>
<asrwt>0</asrwt>
<pdfrwt beam="1">  1        1 0.23010226E+00 0.27170241E+04</pdfrwt>
<pdfrwt beam="2">  1       -1 0.18983636E+00 0.27170241E+04</pdfrwt>
<totfact> 0.10175719E+00</totfact>
</mgrwt>
</event>
<event>
12    3  0.8686020E-008  0.1505599E+04  0.7818608E-02  0.8880738E-01
         -2   -1    0    0    0  501 -0.00000000000E+00  0.00000000000E+00  0.34792657038E+03  0.34792657038E+03  0.00000000000E+00 0.  1.
          2   -1    0    0  501    0  0.00000000000E+00 -0.00000000000E+00 -0.16288114981E+04  0.16288114981E+04  0.00000000000E+00 0. -1.
         23    2    1    2    0    0 -0.39292381682E+03 -0.21920160611E+03 -0.19947847826E+03  0.50043242377E+03  0.90567530190E+02 0.  0.
        254    2    1    2    0    0  0.39292381682E+03  0.21920160611E+03 -0.10814064494E+04  0.14763056447E+04  0.89866566514E+03 0.  0.
         23    2    4    4    0    0 -0.15739540265E+03 -0.17548405277E+03 -0.82280344558E+02  0.26591932096E+03  0.91515379093E+02 0.  0.
         23    2    4    4    0    0  0.55031921947E+03  0.39468565888E+03 -0.99912610489E+03  0.12103863237E+04  0.90299870186E+02 0.  0.
          3    1    3    3  502    0 -0.30867345468E+03 -0.20445626542E+03 -0.18424602670E+03  0.41355563646E+03  0.00000000000E+00 0. -1.
         -3    1    3    3    0  502 -0.84250362139E+02 -0.14745340693E+02 -0.15232451563E+02  0.86876787310E+02  0.00000000000E+00 0.  1.
         13    1    5    5    0    0 -0.69751482741E+02 -0.68955721801E+02  0.12025042913E+02  0.98816813199E+02  0.00000000000E+00 0. -1.
        -13    1    5    5    0    0 -0.87643919908E+02 -0.10652833097E+03 -0.94305387471E+02  0.16710250777E+03  0.00000000000E+00 0.  1.
          3    1    6    6  503    0  0.38867916623E+03  0.27429189009E+03 -0.77126986133E+03  0.90618140250E+03  0.00000000000E+00 0. -1.
         -3    1    6    6    0  503  0.16164005323E+03  0.12039376879E+03 -0.22785624356E+03  0.30420492123E+03  0.00000000000E+00 0.  1.
<mgrwt>
<rscale>  0 0.15055986E+04</rscale>
<asrwt>0</asrwt>
<pdfrwt beam="1">  1        2 0.25058638E+00 0.15055986E+04</pdfrwt>
<pdfrwt beam="2">  1       -2 0.53527165E-01 0.15055986E+04</pdfrwt>
<totfact> 0.34130106E+01</totfact>
</mgrwt>
</event>
<event>
12    3  0.8686020E-008  0.2445682E+04  0.7818608E-02  0.8422596E-01
         -2   -1    0    0    0  501 -0.00000000000E+00  0.00000000000E+00  0.41621935297E+03  0.41621935297E+03  0.00000000000E+00 0.  1.
          2   -1    0    0  501    0  0.00000000000E+00 -0.00000000000E+00 -0.35926734529E+04  0.35926734529E+04  0.00000000000E+00 0. -1.
         23    2    1    2    0    0  0.85631786915E+03  0.61521307016E+03 -0.13269037598E+04  0.16972664046E+04  0.90951887961E+02 0.  0.
        254    2    1    2    0    0 -0.85631786915E+03 -0.61521307016E+03 -0.18495503402E+04  0.23116264012E+04  0.90056245941E+03 0.  0.
         23    2    4    4    0    0 -0.20603029800E+03 -0.56168184859E+03 -0.41735983102E+03  0.73514570041E+03  0.91186564521E+02 0.  0.
         23    2    4    4    0    0 -0.65028757115E+03 -0.53531221564E+02 -0.14321905092E+04  0.15764807008E+04  0.91554512003E+02 0.  0.
          4    1    3    3  502    0  0.54665734261E+03  0.34807032372E+03 -0.85391440914E+03  0.10719874153E+04  0.00000000000E+00 0. -1.
         -4    1    3    3    0  502  0.30966052654E+03  0.26714274643E+03 -0.47298935062E+03  0.62527898931E+03  0.00000000000E+00 0.  1.
         13    1    5    5    0    0 -0.54296300459E+02 -0.27360119414E+03 -0.20961155174E+03  0.34891647181E+03  0.00000000000E+00 0. -1.
        -13    1    5    5    0    0 -0.15173399754E+03 -0.28808065445E+03 -0.20774827928E+03  0.38622922860E+03  0.00000000000E+00 0.  1.
          2    1    6    6  503    0 -0.25327143240E+03 -0.64148703772E+02 -0.53993932661E+03  0.59982993513E+03  0.00000000000E+00 0. -1.
         -2    1    6    6    0  503 -0.39701613875E+03  0.10617482208E+02 -0.89225118255E+03  0.97665076569E+03  0.00000000000E+00 0.  1.
<mgrwt>
<rscale>  0 0.24456821E+04</rscale>
<asrwt>0</asrwt>
<pdfrwt beam="1">  1        2 0.55271898E+00 0.24456821E+04</pdfrwt>
<pdfrwt beam="2">  1       -2 0.64033748E-01 0.24456821E+04</pdfrwt>
<totfact> 0.14143083E+00</totfact>
</mgrwt>
</event>
<event>
12    3  0.8686020E-008  0.2460647E+04  0.7818608E-02  0.8417141E-01
          1   -1    0    0  501    0  0.00000000000E+00  0.00000000000E+00  0.18671583891E+04  0.18671583891E+04  0.00000000000E+00 0. -1.
         -1   -1    0    0    0  501 -0.00000000000E+00 -0.00000000000E+00 -0.81069469839E+03  0.81069469839E+03  0.00000000000E+00 0.  1.
         23    2    1    2    0    0 -0.12629160277E+03 -0.75635474362E+03  0.12574279492E+04  0.14755177119E+04  0.89472921568E+02 0.  0.
        254    2    1    2    0    0  0.12629160277E+03  0.75635474362E+03 -0.20096425844E+03  0.12023353756E+04  0.90399206585E+03 0.  0.
         23    2    4    4    0    0 -0.38007126641E+03  0.28039901027E+03 -0.13443770152E+03  0.49891851731E+03  0.88138634100E+02 0.  0.
         23    2    4    4    0    0  0.50636286918E+03  0.47595573335E+03 -0.66526556923E+02  0.70341685828E+03  0.86210662598E+02 0.  0.
          1    1    3    3  502    0 -0.35258982397E+02 -0.10594017503E+03  0.23742067648E+03  0.26236443002E+03  0.00000000000E+00 0. -1.
         -1    1    3    3    0  502 -0.91032620375E+02 -0.65041456859E+03  0.10200072727E+04  0.12131532819E+04  0.00000000000E+00 0.  1.
         13    1    5    5    0    0 -0.30339751390E+03  0.24073144735E+03 -0.76040384232E+02  0.39469459234E+03  0.00000000000E+00 0.  1.
        -13    1    5    5    0    0 -0.76673752507E+02  0.39667562913E+02 -0.58397317289E+02  0.10422392498E+03  0.00000000000E+00 0. -1.
          4    1    6    6  503    0  0.22145492798E+03  0.26584729311E+03 -0.23312209343E+02  0.34678599667E+03  0.00000000000E+00 0. -1.
         -4    1    6    6    0  503  0.28490794120E+03  0.21010844024E+03 -0.43214347580E+02  0.35663086162E+03  0.00000000000E+00 0.  1.
<mgrwt>
<rscale>  0 0.24606466E+04</rscale>
<asrwt>0</asrwt>
<pdfrwt beam="1">  1        1 0.28725514E+00 0.24606466E+04</pdfrwt>
<pdfrwt beam="2">  1       -1 0.12472226E+00 0.24606466E+04</pdfrwt>
<totfact> 0.18396447E+00</totfact>
</mgrwt>
</event>
<event>
12    3  0.8686020E-008  0.2167323E+04  0.7818608E-02  0.8532153E-01
         -1   -1    0    0    0  501 -0.00000000000E+00  0.00000000000E+00  0.90287777316E+03  0.90287777316E+03  0.00000000000E+00 0.  1.
          1   -1    0    0  501    0  0.00000000000E+00 -0.00000000000E+00 -0.13006441348E+04  0.13006441348E+04  0.00000000000E+00 0. -1.
         23    2    1    2    0    0  0.66679947745E+03 -0.50170244048E+03  0.15933838119E+03  0.85446492941E+03  0.91622671719E+02 0.  0.
        254    2    1    2    0    0 -0.66679947745E+03  0.50170244048E+03 -0.55710474281E+03  0.13490569785E+04  0.90181048726E+03 0.  0.
         23    2    4    4    0    0  0.93223240513E+01  0.49958082148E+03 -0.75382501814E+02  0.51400829408E+03  0.94096237414E+02 0.  0.
         23    2    4    4    0    0 -0.67612180150E+03  0.21216190037E+01 -0.48172224100E+03  0.83504868444E+03  0.90026641538E+02 0.  0.
          1    1    3    3  502    0  0.28499334265E+03 -0.18340143219E+03  0.26511320639E+02  0.33994137849E+03  0.00000000000E+00 0. -1.
         -1    1    3    3    0  502  0.38180613479E+03 -0.31830100829E+03  0.13282706055E+03  0.51452355093E+03  0.00000000000E+00 0.  1.
         13    1    5    5    0    0  0.18505466711E+02  0.23178956755E+03 -0.80336499339E+02  0.24601383914E+03  0.00000000000E+00 0. -1.
        -13    1    5    5    0    0 -0.91831426601E+01  0.26779125393E+03  0.49539975257E+01  0.26799445494E+03  0.00000000000E+00 0.  1.
          4    1    6    6  503    0 -0.58142374584E+03 -0.14091438234E+02 -0.37785796518E+03  0.69356238560E+03  0.00000000000E+00 0. -1.
         -4    1    6    6    0  503 -0.94698055652E+02  0.16213057238E+02 -0.10386427582E+03  0.14148629885E+03  0.00000000000E+00 0.  1.
<mgrwt>
<rscale>  0 0.21673234E+04</rscale>
<asrwt>0</asrwt>
<pdfrwt beam="1">  1        1 0.20009910E+00 0.21673234E+04</pdfrwt>
<pdfrwt beam="2">  1       -1 0.13890427E+00 0.21673234E+04</pdfrwt>
<totfact> 0.35351720E+00</totfact>
</mgrwt>
</event>
<event>
12    3  0.8686020E-008  0.1705047E+04  0.7818608E-02  0.8758491E-01
         -1   -1    0    0    0  501 -0.00000000000E+00  0.00000000000E+00  0.23961714617E+04  0.23961714617E+04  0.00000000000E+00 0.  1.
          1   -1    0    0  501    0  0.00000000000E+00 -0.00000000000E+00 -0.30331553435E+03  0.30331553435E+03  0.00000000000E+00 0. -1.
         23    2    1    2    0    0  0.20247588430E+03  0.55077698958E+03  0.10245174716E+04  0.11839524558E+04  0.88065839427E+02 0.  0.
        254    2    1    2    0    0 -0.20247588430E+03 -0.55077698958E+03  0.10683384557E+04  0.15155345402E+04  0.90063650304E+03 0.  0.
         23    2    4    4    0    0 -0.54310216098E+03 -0.24578280197E+03  0.67565871941E+03  0.90598396749E+03  0.94462168222E+02 0.  0.
         23    2    4    4    0    0  0.34062627668E+03 -0.30499418761E+03  0.39267973634E+03  0.60955057274E+03  0.91141705886E+02 0.  0.
          1    1    3    3  502    0  0.11051864837E+03  0.39056017075E+03  0.75521122685E+03  0.85737717241E+03  0.00000000000E+00 0. -1.
         -1    1    3    3    0  502  0.91957235930E+02  0.16021681883E+03  0.26930624472E+03  0.32657528339E+03  0.00000000000E+00 0.  1.
         13    1    5    5    0    0 -0.20797185712E+03 -0.44667963643E+02  0.24021616258E+03  0.32086028906E+03  0.00000000000E+00 0.  1.
        -13    1    5    5    0    0 -0.33513030386E+03 -0.20111483833E+03  0.43544255682E+03  0.58512367843E+03  0.00000000000E+00 0. -1.
          4    1    6    6  503    0  0.11789904510E+03 -0.80127067500E+02  0.17358237920E+03  0.22461383339E+03  0.00000000000E+00 0. -1.
         -4    1    6    6    0  503  0.22272723158E+03 -0.22486712011E+03  0.21909735714E+03  0.38493673935E+03  0.00000000000E+00 0.  1.
<mgrwt>
<rscale>  0 0.17050467E+04</rscale>
<asrwt>0</asrwt>
<pdfrwt beam="1">  1        1 0.46663930E-01 0.17050467E+04</pdfrwt>
<pdfrwt beam="2">  1       -1 0.36864175E+00 0.17050467E+04</pdfrwt>
<totfact> 0.96272159E-01</totfact>
</mgrwt>
</event>
<event>
12    3  0.8686020E-008  0.1519969E+04  0.7818608E-02  0.8871281E-01
         -2   -1    0    0    0  501 -0.00000000000E+00  0.00000000000E+00  0.36517028719E+03  0.36517028719E+03  0.00000000000E+00 0.  1.
          2   -1    0    0  501    0  0.00000000000E+00 -0.00000000000E+00 -0.15816633080E+04  0.15816633080E+04  0.00000000000E+00 0. -1.
         23    2    1    2    0    0  0.30830938228E+03  0.15518146566E+03 -0.83891429830E+03  0.91183435993E+03  0.92351164433E+02 0.  0.
        254    2    1    2    0    0 -0.30830938228E+03 -0.15518146566E+03 -0.37757872254E+03  0.10349992353E+04  0.89973427346E+03 0.  0.
         23    2    4    4    0    0 -0.55762248704E+03 -0.86684733425E+01 -0.18557433773E+02  0.56542043369E+03  0.91312146011E+02 0.  0.
         23    2    4    4    0    0  0.24931310476E+03 -0.14651299232E+03 -0.35902128876E+03  0.46957880159E+03  0.89358178104E+02 0.  0.
          1    1    3    3  502    0  0.19230547885E+03  0.64459076957E+02 -0.57340464756E+03  0.60821810204E+03  0.00000000000E+00 0. -1.
         -1    1    3    3    0  502  0.11600390343E+03  0.90722388707E+02 -0.26550965073E+03  0.30361625789E+03  0.00000000000E+00 0.  1.
         13    1    5    5    0    0 -0.35928065032E+03  0.23153074867E+02  0.21184264034E+02  0.36064861516E+03  0.00000000000E+00 0. -1.
        -13    1    5    5    0    0 -0.19834183671E+03 -0.31821548209E+02 -0.39741697807E+02  0.20477181853E+03  0.00000000000E+00 0.  1.
          2    1    6    6  503    0  0.18284638425E+03 -0.10528760335E+03 -0.31698190851E+03  0.38078315348E+03  0.00000000000E+00 0. -1.
         -2    1    6    6    0  503  0.66466720506E+02 -0.41225388968E+02 -0.42039380251E+02  0.88795648105E+02  0.00000000000E+00 0.  1.
<mgrwt>
<rscale>  0 0.15199690E+04</rscale>
<asrwt>0</asrwt>
<pdfrwt beam="1">  1        2 0.24333282E+00 0.15199690E+04</pdfrwt>
<pdfrwt beam="2">  1       -2 0.56180044E-01 0.15199690E+04</pdfrwt>
<totfact> 0.32760806E+01</totfact>
</mgrwt>
</event>
<event>
12    3  0.8686020E-008  0.3017783E+04  0.7818608E-02  0.8238671E-01
          2   -1    0    0  501    0  0.00000000000E+00  0.00000000000E+00  0.35593292901E+04  0.35593292901E+04  0.00000000000E+00 0. -1.
         -2   -1    0    0    0  501 -0.00000000000E+00 -0.00000000000E+00 -0.63965795524E+03  0.63965795524E+03  0.00000000000E+00 0.  1.
         23    2    1    2    0    0 -0.63623236153E+03 -0.51922258089E+03 -0.19874226772E+03  0.84969406329E+03  0.89987809410E+02 0.  0.
        254    2    1    2    0    0  0.63623236153E+03  0.51922258089E+03  0.31184136026E+04  0.33492931820E+04  0.90491862407E+03 0.  0.
         23    2    4    4    0    0  0.49203338106E+03  0.67300081039E+03  0.15362824246E+04  0.17502537152E+04  0.90539717524E+02 0.  0.
         23    2    4    4    0    0  0.14419898047E+03 -0.15377822951E+03  0.15821311779E+04  0.15990394668E+04  0.96680207293E+02 0.  0.
          2    1    3    3  502    0 -0.15820112379E+03 -0.88775313625E+02 -0.23086861399E+02  0.18287059645E+03  0.00000000000E+00 0. -1.
         -2    1    3    3    0  502 -0.47803123774E+03 -0.43044726726E+03 -0.17565540632E+03  0.66682346683E+03  0.00000000000E+00 0.  1.
         13    1    5    5    0    0  0.24700553850E+03  0.33439338092E+03  0.67171769026E+03  0.78995906518E+03  0.00000000000E+00 0. -1.
        -13    1    5    5    0    0  0.24502784255E+03  0.33860742948E+03  0.86456473437E+03  0.96029465001E+03  0.00000000000E+00 0.  1.
          3    1    6    6  503    0  0.66903228091E+02 -0.14424771898E+02  0.62462586297E+03  0.62836421339E+03  0.00000000000E+00 0. -1.
         -3    1    6    6    0  503  0.77295752383E+02 -0.13935345761E+03  0.95750531496E+03  0.97067525345E+03  0.00000000000E+00 0.  1.
<mgrwt>
<rscale>  0 0.30177828E+04</rscale>
<asrwt>0</asrwt>
<pdfrwt beam="1">  1        2 0.54758911E+00 0.30177828E+04</pdfrwt>
<pdfrwt beam="2">  1       -2 0.98408918E-01 0.30177828E+04</pdfrwt>
<totfact> 0.54091072E-01</totfact>
</mgrwt>
</event>
<event>
12    3  0.8686020E-008  0.4144963E+04  0.7818608E-02  0.7975925E-01
          1   -1    0    0  501    0  0.00000000000E+00  0.00000000000E+00  0.32351973409E+04  0.32351973409E+04  0.00000000000E+00 0. -1.
         -1   -1    0    0    0  501 -0.00000000000E+00 -0.00000000000E+00 -0.13276406490E+04  0.13276406490E+04  0.00000000000E+00 0.  1.
         23    2    1    2    0    0 -0.16104249605E+04  0.11144962580E+04  0.64007225673E+03  0.20624164345E+04  0.91096614578E+02 0.  0.
        254    2    1    2    0    0  0.16104249605E+04 -0.11144962580E+04  0.12674844352E+04  0.25004215554E+04  0.90001149917E+03 0.  0.
         23    2    4    4    0    0  0.10522134202E+04 -0.10832127247E+04  0.60520585499E+03  0.16297158225E+04  0.95899147426E+02 0.  0.
         23    2    4    4    0    0  0.55821154026E+03 -0.31283533310E+02  0.66227858019E+03  0.87070573289E+03  0.83287288169E+02 0.  0.
          1    1    3    3  502    0 -0.10038669358E+03  0.44543542181E+02  0.31758328729E+02  0.11432500532E+03  0.00000000000E+00 0.  1.
         -1    1    3    3    0  502 -0.15100382669E+04  0.10699527158E+04  0.60831392800E+03  0.19480914292E+04  0.00000000000E+00 0. -1.
         13    1    5    5    0    0  0.47606338175E+03 -0.42738851684E+03  0.23624782030E+03  0.68198997087E+03  0.00000000000E+00 0.  1.
        -13    1    5    5    0    0  0.57615003846E+03 -0.65582420784E+03  0.36895803470E+03  0.94772585158E+03  0.00000000000E+00 0. -1.
          1    1    6    6  503    0  0.48731003206E+03 -0.48860969433E+02  0.60158352094E+03  0.77573268227E+03  0.00000000000E+00 0. -1.
         -1    1    6    6    0  503  0.70901508206E+02  0.17577436123E+02  0.60695059252E+02  0.94973050620E+02  0.00000000000E+00 0.  1.
<mgrwt>
<rscale>  0 0.41449630E+04</rscale>
<asrwt>0</asrwt>
<pdfrwt beam="1">  1        1 0.49772267E+00 0.41449630E+04</pdfrwt>
<pdfrwt beam="2">  1       -1 0.20425241E+00 0.41449630E+04</pdfrwt>
<totfact> 0.43483733E-02</totfact>
</mgrwt>
</event>
<event>
12    3  0.8686020E-008  0.1511118E+04  0.7818608E-02  0.8877093E-01
         -2   -1    0    0    0  501 -0.00000000000E+00  0.00000000000E+00  0.12388262605E+04  0.12388262605E+04  0.00000000000E+00 0.  1.
          2   -1    0    0  501    0  0.00000000000E+00 -0.00000000000E+00 -0.46081463838E+03  0.46081463838E+03  0.00000000000E+00 0. -1.
         23    2    1    2    0    0 -0.77256914857E+02 -0.47632033334E+03  0.24866304253E+03  0.55004165040E+03  0.88672530186E+02 0.  0.
        254    2    1    2    0    0  0.77256914857E+02  0.47632033334E+03  0.52934857959E+03  0.11495992485E+04  0.89917674711E+03 0.  0.
         23    2    4    4    0    0 -0.25583494562E+03  0.43368409333E+03  0.60354424578E+03  0.79132464105E+03  0.91627608845E+02 0.  0.
         23    2    4    4    0    0  0.33309186048E+03  0.42636240009E+02 -0.74195666188E+02  0.35827460743E+03  0.10043734848E+03 0.  0.
          4    1    3    3  502    0  0.86545406058E+01 -0.22213622115E+03  0.11439526362E+03  0.25001135606E+03  0.00000000000E+00 0.  1.
         -4    1    3    3    0  502 -0.85911455462E+02 -0.25418411219E+03  0.13426777891E+03  0.30003029434E+03  0.00000000000E+00 0. -1.
         13    1    5    5    0    0 -0.12052322576E+03  0.28112136500E+03  0.39588537439E+03  0.50028022094E+03  0.00000000000E+00 0. -1.
        -13    1    5    5    0    0 -0.13531171987E+03  0.15256272833E+03  0.20765887139E+03  0.29104442011E+03  0.00000000000E+00 0.  1.
          1    1    6    6  503    0  0.14905375767E+03 -0.76903235889E+01 -0.75963570887E+02  0.16747127472E+03  0.00000000000E+00 0. -1.
         -1    1    6    6    0  503  0.18403810281E+03  0.50326563598E+02  0.17679046984E+01  0.19080333272E+03  0.00000000000E+00 0.  1.
<mgrwt>
<rscale>  0 0.15111178E+04</rscale>
<asrwt>0</asrwt>
<pdfrwt beam="1">  1        2 0.70894560E-01 0.15111178E+04</pdfrwt>
<pdfrwt beam="2">  1       -2 0.19058865E+00 0.15111178E+04</pdfrwt>
<totfact> 0.10024415E+01</totfact>
</mgrwt>
</event>
<event>
12    3  0.8686020E-008  0.1460794E+04  0.7818608E-02  0.8910951E-01
          1   -1    0    0  501    0  0.00000000000E+00  0.00000000000E+00  0.15380654007E+04  0.15380654007E+04  0.00000000000E+00 0. -1.
         -1   -1    0    0    0  501 -0.00000000000E+00 -0.00000000000E+00 -0.34685129965E+03  0.34685129965E+03  0.00000000000E+00 0.  1.
         23    2    1    2    0    0 -0.40603816996E+03 -0.18202930049E+03  0.39339470594E+03  0.60176043911E+03  0.96719024556E+02 0.  0.
        254    2    1    2    0    0  0.40603816996E+03  0.18202930049E+03  0.79781939514E+03  0.12831562613E+04  0.90109519025E+03 0.  0.
         23    2    4    4    0    0  0.49278740651E+03  0.19147681545E+03  0.94642624254E+03  0.10880242729E+04  0.92581785337E+02 0.  0.
         23    2    4    4    0    0 -0.86749236548E+02 -0.94475149602E+01 -0.14860684740E+03  0.19513198838E+03  0.91530389571E+02 0.  0.
          3    1    3    3  502    0 -0.20969603003E+03 -0.74569642951E+02  0.25561426089E+03  0.33892728871E+03  0.00000000000E+00 0. -1.
         -3    1    3    3    0  502 -0.19634213993E+03 -0.10745965754E+03  0.13778044505E+03  0.26283315040E+03  0.00000000000E+00 0.  1.
         13    1    5    5    0    0  0.13841651445E+03  0.13994342317E+02  0.27982595968E+03  0.31250206528E+03  0.00000000000E+00 0.  1.
        -13    1    5    5    0    0  0.35437089206E+03  0.17748247313E+03  0.66660028286E+03  0.77552220762E+03  0.00000000000E+00 0. -1.
          2    1    6    6  503    0 -0.10028137236E+03  0.43498755485E+01 -0.14353782976E+03  0.17515245825E+03  0.00000000000E+00 0. -1.
         -2    1    6    6    0  503  0.13532135809E+02 -0.13797390509E+02 -0.50690176382E+01  0.19979530130E+02  0.00000000000E+00 0.  1.
<mgrwt>
<rscale>  0 0.14607943E+04</rscale>
<asrwt>0</asrwt>
<pdfrwt beam="1">  1        1 0.23662544E+00 0.14607943E+04</pdfrwt>
<pdfrwt beam="2">  1       -1 0.53361739E-01 0.14607943E+04</pdfrwt>
<totfact> 0.21163529E+01</totfact>
</mgrwt>
</event>
<event>
12    3  0.8686020E-008  0.1470890E+04  0.7818608E-02  0.8904045E-01
         -1   -1    0    0    0  501 -0.00000000000E+00  0.00000000000E+00  0.94046359488E+03  0.94046359488E+03  0.00000000000E+00 0.  1.
          1   -1    0    0  501    0  0.00000000000E+00 -0.00000000000E+00 -0.57511955460E+03  0.57511955460E+03  0.00000000000E+00 0. -1.
         23    2    1    2    0    0 -0.14559441584E+03 -0.44325967729E+02  0.55571014719E+03  0.58222075926E+03  0.83694202225E+02 0.  0.
        254    2    1    2    0    0  0.14559441584E+03  0.44325967729E+02 -0.19036610691E+03  0.93336239021E+03  0.90097922921E+03 0.  0.
         23    2    4    4    0    0  0.46261317693E+03  0.16999377596E+03  0.53972914509E+02  0.50414472976E+03  0.91323587956E+02 0.  0.
         23    2    4    4    0    0 -0.31701876108E+03 -0.12566780823E+03 -0.24433902142E+03  0.42921766045E+03  0.90735603539E+02 0.  0.
          3    1    3    3  502    0 -0.13311320994E+03 -0.79989959608E+01  0.39188717275E+03  0.41395490909E+03  0.00000000000E+00 0. -1.
         -3    1    3    3    0  502 -0.12481205904E+02 -0.36326971768E+02  0.16382297444E+03  0.16826585017E+03  0.00000000000E+00 0.  1.
         13    1    5    5    0    0  0.20736341467E+03  0.11705890826E+03  0.94236832936E+00  0.23812446704E+03  0.00000000000E+00 0. -1.
        -13    1    5    5    0    0  0.25524976225E+03  0.52934867701E+02  0.53030546180E+02  0.26602026272E+03  0.00000000000E+00 0.  1.
          4    1    6    6  503    0 -0.13685391954E+03 -0.83037127762E+02 -0.69299032551E+02  0.17443198042E+03  0.00000000000E+00 0. -1.
         -4    1    6    6    0  503 -0.18016484155E+03 -0.42630680467E+02 -0.17503998887E+03  0.25478568003E+03  0.00000000000E+00 0.  1.
<mgrwt>
<rscale>  0 0.14708895E+04</rscale>
<asrwt>0</asrwt>
<pdfrwt beam="1">  1        1 0.88479932E-01 0.14708895E+04</pdfrwt>
<pdfrwt beam="2">  1       -1 0.14468671E+00 0.14708895E+04</pdfrwt>
<totfact> 0.13565333E+01</totfact>
</mgrwt>
</event>
<event>
12    3  0.8686020E-008  0.1211180E+04  0.7818608E-02  0.9103127E-01
         -2   -1    0    0    0  501 -0.00000000000E+00  0.00000000000E+00  0.75446990384E+03  0.75446990384E+03  0.00000000000E+00 0.  1.
          2   -1    0    0  501    0  0.00000000000E+00 -0.00000000000E+00 -0.48608864068E+03  0.48608864068E+03  0.00000000000E+00 0. -1.
         23    2    1    2    0    0 -0.18855988754E+03  0.23618130064E+01  0.24388259341E+03  0.32161854069E+03  0.91648005980E+02 0.  0.
        254    2    1    2    0    0  0.18855988754E+03 -0.23618130064E+01  0.24498669752E+02  0.91894000382E+03  0.89904957397E+03 0.  0.
         23    2    4    4    0    0  0.13823845208E+03  0.37520414751E+03  0.23585403410E+03  0.47399991870E+03  0.95711940661E+02 0.  0.
         23    2    4    4    0    0  0.50321435461E+02 -0.37756596052E+03 -0.21135536435E+03  0.44494008512E+03  0.90621674552E+02 0.  0.
          2    1    3    3  502    0 -0.74901138657E+02 -0.20783295748E+02  0.40905632133E+02  0.87837330871E+02  0.00000000000E+00 0. -1.
         -2    1    3    3    0  502 -0.11365874888E+03  0.23145108755E+02  0.20297696128E+03  0.23378120982E+03  0.00000000000E+00 0.  1.
         13    1    5    5    0    0  0.10772917610E+03  0.34128331934E+03  0.17621900608E+03  0.39891479986E+03  0.00000000000E+00 0.  1.
        -13    1    5    5    0    0  0.30509275979E+02  0.33920828174E+02  0.59635028024E+02  0.75085118847E+02  0.00000000000E+00 0. -1.
          3    1    6    6  503    0  0.10830851298E+01 -0.10129926990E+03 -0.14917868254E+02  0.10239754855E+03  0.00000000000E+00 0. -1.
         -3    1    6    6    0  503  0.49238350331E+02 -0.27626669062E+03 -0.19643749609E+03  0.34254253657E+03  0.00000000000E+00 0.  1.
<mgrwt>
<rscale>  0 0.12111800E+04</rscale>
<asrwt>0</asrwt>
<pdfrwt beam="1">  1        2 0.74782868E-01 0.12111800E+04</pdfrwt>
<pdfrwt beam="2">  1       -2 0.11607229E+00 0.12111800E+04</pdfrwt>
<totfact> 0.36158743E+01</totfact>
</mgrwt>
</event>
<event>
12    3  0.8686020E-008  0.1424845E+04  0.7818608E-02  0.8936028E-01
         -2   -1    0    0    0  501 -0.00000000000E+00  0.00000000000E+00  0.30530798750E+03  0.30530798750E+03  0.00000000000E+00 0.  1.
          2   -1    0    0  501    0  0.00000000000E+00 -0.00000000000E+00 -0.16624058434E+04  0.16624058434E+04  0.00000000000E+00 0. -1.
         23    2    1    2    0    0  0.28069257676E+03  0.19595420153E+03 -0.72187764318E+02  0.36186619569E+03  0.92464579819E+02 0.  0.
        254    2    1    2    0    0 -0.28069257676E+03 -0.19595420153E+03 -0.12849100916E+04  0.16058476352E+04  0.90031456296E+03 0.  0.
         23    2    4    4    0    0 -0.56694689285E+03 -0.27258544323E+03 -0.71255244718E+03  0.95487926679E+03  0.91278809123E+02 0.  0.
         23    2    4    4    0    0  0.28625431608E+03  0.76631241699E+02 -0.57235764441E+03  0.65096836841E+03  0.91392903883E+02 0.  0.
          3    1    3    3  502    0  0.22011424052E+03  0.18185583104E+03 -0.85926320955E+02  0.29816967451E+03  0.00000000000E+00 0. -1.
         -3    1    3    3    0  502  0.60578336248E+02  0.14098370487E+02  0.13738556637E+02  0.63696521188E+02  0.00000000000E+00 0.  1.
         13    1    5    5    0    0 -0.41240109178E+03 -0.17990912455E+03 -0.44928817938E+03  0.63584732580E+03  0.00000000000E+00 0.  1.
        -13    1    5    5    0    0 -0.15454580107E+03 -0.92676318675E+02 -0.26326426780E+03  0.31903194099E+03  0.00000000000E+00 0. -1.
          1    1    6    6  503    0  0.22292474152E+03  0.58858332848E+02 -0.35025721401E+03  0.41933263609E+03  0.00000000000E+00 0. -1.
         -1    1    6    6    0  503  0.63329574564E+02  0.17772908851E+02 -0.22210043040E+03  0.23163573232E+03  0.00000000000E+00 0.  1.
<mgrwt>
<rscale>  0 0.14248449E+04</rscale>
<asrwt>0</asrwt>
<pdfrwt beam="1">  1        2 0.25575474E+00 0.14248449E+04</pdfrwt>
<pdfrwt beam="2">  1       -2 0.46970460E-01 0.14248449E+04</pdfrwt>
<totfact> 0.42952976E+01</totfact>
</mgrwt>
</event>
<event>
12    3  0.8686020E-008  0.1782308E+04  0.7818608E-02  0.8715765E-01
          2   -1    0    0  501    0  0.00000000000E+00  0.00000000000E+00  0.16624258915E+04  0.16624258915E+04  0.00000000000E+00 0. -1.
         -2   -1    0    0    0  501 -0.00000000000E+00 -0.00000000000E+00 -0.47770896510E+03  0.47770896510E+03  0.00000000000E+00 0.  1.
         23    2    1    2    0    0 -0.75277864831E+02 -0.42121293998E+03 -0.16021096645E+03  0.46584293443E+03  0.90856964809E+02 0.  0.
        254    2    1    2    0    0  0.75277864831E+02  0.42121293998E+03  0.13449278929E+04  0.16742919222E+04  0.90074153115E+03 0.  0.
         23    2    4    4    0    0 -0.39887578506E+03  0.11094550635E+03  0.55668535988E+03  0.69991087426E+03  0.92551848819E+02 0.  0.
         23    2    4    4    0    0  0.47415364989E+03  0.31026743362E+03  0.78824253299E+03  0.97438104792E+03  0.83693319114E+02 0.  0.
          1    1    3    3  502    0 -0.32820436068E+02 -0.68020563755E+02  0.41271577509E+00  0.75525813148E+02  0.00000000000E+00 0. -1.
         -1    1    3    3    0  502 -0.42457428762E+02 -0.35319237622E+03 -0.16062368223E+03  0.39031712129E+03  0.00000000000E+00 0.  1.
         13    1    5    5    0    0 -0.22098081328E+03  0.10507084197E+03  0.29236679245E+03  0.38124892524E+03  0.00000000000E+00 0. -1.
        -13    1    5    5    0    0 -0.17789497177E+03  0.58746643833E+01  0.26431856742E+03  0.31866194901E+03  0.00000000000E+00 0.  1.
          3    1    6    6  503    0  0.15477434480E+03  0.57914939250E+02  0.24623747316E+03  0.29655038558E+03  0.00000000000E+00 0. -1.
         -3    1    6    6    0  503  0.31937930509E+03  0.25235249437E+03  0.54200505983E+03  0.67783066235E+03  0.00000000000E+00 0.  1.
<mgrwt>
<rscale>  0 0.17823083E+04</rscale>
<asrwt>0</asrwt>
<pdfrwt beam="1">  1        2 0.25575783E+00 0.17823083E+04</pdfrwt>
<pdfrwt beam="2">  1       -2 0.73493688E-01 0.17823083E+04</pdfrwt>
<totfact> 0.16248382E+01</totfact>
</mgrwt>
</event>
<event>
12    3  0.8686020E-008  0.1181957E+04  0.7818608E-02  0.9128798E-01
         -2   -1    0    0    0  501 -0.00000000000E+00  0.00000000000E+00  0.65369252711E+03  0.65369252711E+03  0.00000000000E+00 0.  1.
          2   -1    0    0  501    0  0.00000000000E+00 -0.00000000000E+00 -0.53428134711E+03  0.53428134711E+03  0.00000000000E+00 0. -1.
         23    2    1    2    0    0  0.12347772423E+03 -0.15826350605E+03  0.14674977524E+03  0.26183378409E+03  0.82020413487E+02 0.  0.
        254    2    1    2    0    0 -0.12347772423E+03  0.15826350605E+03 -0.27338595244E+02  0.92614009013E+03  0.90371122712E+03 0.  0.
         23    2    4    4    0    0  0.66404576789E+02 -0.32286580180E+03 -0.17005661907E+03  0.38198362559E+03  0.91325476935E+02 0.  0.
         23    2    4    4    0    0 -0.18988230102E+03  0.48112930785E+03  0.14271802382E+03  0.54415646454E+03  0.90537972524E+02 0.  0.
          2    1    3    3  502    0  0.57597847433E+02 -0.13393759258E+03  0.88190122341E+02  0.17039450817E+03  0.00000000000E+00 0. -1.
         -2    1    3    3    0  502  0.65879876800E+02 -0.24325913467E+02  0.58559652902E+02  0.91439275922E+02  0.00000000000E+00 0.  1.
         13    1    5    5    0    0  0.37899814381E+01  0.10084471741E+01 -0.18591106587E+02  0.19000267607E+02  0.00000000000E+00 0. -1.
        -13    1    5    5    0    0  0.62614595351E+02 -0.32387424898E+03 -0.15146551248E+03  0.36298335798E+03  0.00000000000E+00 0.  1.
          4    1    6    6  503    0 -0.88951641633E+00  0.85131798663E+02  0.98992174750E+01  0.85710027941E+02  0.00000000000E+00 0. -1.
         -4    1    6    6    0  503 -0.18899278461E+03  0.39599750919E+03  0.13281880635E+03  0.45844643660E+03  0.00000000000E+00 0.  1.
<mgrwt>
<rscale>  0 0.11819572E+04</rscale>
<asrwt>0</asrwt>
<pdfrwt beam="1">  1        2 0.82197130E-01 0.11819572E+04</pdfrwt>
<pdfrwt beam="2">  1       -2 0.10056808E+00 0.11819572E+04</pdfrwt>
<totfact> 0.45879051E+01</totfact>
</mgrwt>
</event>
<event>
12    3  0.8686020E-008  0.1452055E+04  0.7818608E-02  0.8916977E-01
         -1   -1    0    0    0  501 -0.00000000000E+00  0.00000000000E+00  0.59766575739E+03  0.59766575739E+03  0.00000000000E+00 0.  1.
          1   -1    0    0  501    0  0.00000000000E+00 -0.00000000000E+00 -0.88195815524E+03  0.88195815524E+03  0.00000000000E+00 0. -1.
         23    2    1    2    0    0 -0.19964982632E+03  0.38815306496E+03 -0.31367589075E+02  0.44716865770E+03  0.91940349148E+02 0.  0.
        254    2    1    2    0    0  0.19964982632E+03 -0.38815306496E+03 -0.25292480877E+03  0.10324552549E+04  0.90081631844E+03 0.  0.
         23    2    4    4    0    0  0.36300129228E+02  0.21541460017E+03 -0.31876615078E+03  0.39701155581E+03  0.91022893889E+02 0.  0.
         23    2    4    4    0    0  0.16334969709E+03 -0.60356766513E+03  0.65841342011E+02  0.63544369913E+03  0.92068249220E+02 0.  0.
          4    1    3    3  502    0 -0.52725262400E+02  0.62707377311E+02 -0.37361054343E+02  0.90044527019E+02  0.00000000000E+00 0. -1.
         -4    1    3    3    0  502 -0.14692456392E+03  0.32544568765E+03  0.59934652676E+01  0.35712413068E+03  0.00000000000E+00 0.  1.
         13    1    5    5    0    0 -0.40946337274E+01  0.10523462749E+03 -0.21890965492E+03  0.24292494698E+03  0.00000000000E+00 0.  1.
        -13    1    5    5    0    0  0.40394762956E+02  0.11017997268E+03 -0.99856495864E+02  0.15408660883E+03  0.00000000000E+00 0. -1.
          3    1    6    6  503    0  0.13886615343E+03 -0.34981948786E+03  0.24332885217E+02  0.37715987586E+03  0.00000000000E+00 0. -1.
         -3    1    6    6    0  503  0.24483543665E+02 -0.25374817727E+03  0.41508456793E+02  0.25828382327E+03  0.00000000000E+00 0.  1.
<mgrwt>
<rscale>  0 0.14520554E+04</rscale>
<asrwt>0</asrwt>
<pdfrwt beam="1">  1        1 0.13568587E+00 0.14520554E+04</pdfrwt>
<pdfrwt beam="2">  1       -1 0.91948578E-01 0.14520554E+04</pdfrwt>
<totfact> 0.21071621E+01</totfact>
</mgrwt>
</event>
<event>
12    3  0.8686020E-008  0.1156715E+04  0.7818608E-02  0.9151611E-01
          1   -1    0    0  501    0  0.00000000000E+00  0.00000000000E+00  0.16972246381E+04  0.16972246381E+04  0.00000000000E+00 0. -1.
         -1   -1    0    0    0  501 -0.00000000000E+00 -0.00000000000E+00 -0.19708499818E+03  0.19708499818E+03  0.00000000000E+00 0.  1.
         23    2    1    2    0    0 -0.12754940753E+03  0.73864721195E+02  0.43250903629E+02  0.17642572309E+03  0.86778722647E+02 0.  0.
        254    2    1    2    0    0  0.12754940753E+03 -0.73864721195E+02  0.14568887363E+04  0.17178839132E+04  0.89826248998E+03 0.  0.
         23    2    4    4    0    0 -0.84225155090E+02  0.72330035117E+02 -0.74504973063E+02  0.16225749340E+03  0.91929279459E+02 0.  0.
         23    2    4    4    0    0  0.21177456262E+03 -0.14619475631E+03  0.15313937094E+04  0.15556264198E+04  0.92657934322E+02 0.  0.
          1    1    3    3  502    0 -0.21510749436E+02 -0.19302970447E+02  0.14652512650E+02  0.32403906190E+02  0.00000000000E+00 0. -1.
         -1    1    3    3    0  502 -0.10603865809E+03  0.93167691643E+02  0.28598390979E+02  0.14402181690E+03  0.00000000000E+00 0.  1.
         13    1    5    5    0    0  0.19397329279E+02  0.36639152572E+01 -0.82548573758E+01  0.21396806502E+02  0.00000000000E+00 0. -1.
        -13    1    5    5    0    0 -0.10362248437E+03  0.68666119860E+02 -0.66250115687E+02  0.14086068689E+03  0.00000000000E+00 0.  1.
          1    1    6    6  503    0  0.39601578300E+02 -0.75043317275E+02  0.38944128630E+03  0.39857784678E+03  0.00000000000E+00 0. -1.
         -1    1    6    6    0  503  0.17217298432E+03 -0.71151439037E+02  0.11419524231E+04  0.11570485730E+04  0.00000000000E+00 0.  1.
<mgrwt>
<rscale>  0 0.11567152E+04</rscale>
<asrwt>0</asrwt>
<pdfrwt beam="1">  1        1 0.26111147E+00 0.11567152E+04</pdfrwt>
<pdfrwt beam="2">  1       -1 0.30320770E-01 0.11567152E+04</pdfrwt>
<totfact> 0.47610423E+01</totfact>
</mgrwt>
</event>
<event>
12    3  0.8686020E-008  0.1339368E+04  0.7818608E-02  0.8998916E-01
         -2   -1    0    0    0  501 -0.00000000000E+00  0.00000000000E+00  0.12915552982E+03  0.12915552982E+03  0.00000000000E+00 0.  1.
          2   -1    0    0  501    0  0.00000000000E+00 -0.00000000000E+00 -0.34723774867E+04  0.34723774867E+04  0.00000000000E+00 0. -1.
         23    2    1    2    0    0  0.11157864289E+03 -0.20091991470E+03 -0.16626238022E+04  0.16813201834E+04  0.98493887440E+02 0.  0.
        254    2    1    2    0    0 -0.11157864289E+03  0.20091991470E+03 -0.16805981547E+04  0.19202128331E+04  0.89999364510E+03 0.  0.
         23    2    4    4    0    0  0.25539212538E+03 -0.19809386838E+03 -0.37553405829E+03  0.50401532458E+03  0.92408333408E+02 0.  0.
         23    2    4    4    0    0 -0.36697076827E+03  0.39901378308E+03 -0.13050640964E+04  0.14161975086E+04  0.92431291264E+02 0.  0.
          1    1    3    3  502    0  0.44089986326E+02 -0.10062628878E+03 -0.11209644922E+04  0.11263351942E+04  0.00000000000E+00 0. -1.
         -1    1    3    3    0  502  0.67488656567E+02 -0.10029362592E+03 -0.54165930994E+03  0.55498498917E+03  0.00000000000E+00 0.  1.
         13    1    5    5    0    0  0.18005984733E+03 -0.15427099195E+03 -0.32804565411E+03  0.40476541201E+03  0.00000000000E+00 0.  1.
        -13    1    5    5    0    0  0.75332278050E+02 -0.43822876428E+02 -0.47488404183E+02  0.99249912576E+02  0.00000000000E+00 0. -1.
          3    1    6    6  503    0 -0.30969700264E+03  0.29596874548E+03 -0.10857922024E+04  0.11672422364E+04  0.00000000000E+00 0. -1.
         -3    1    6    6    0  503 -0.57273765630E+02  0.10304503759E+03 -0.21927189404E+03  0.24895527212E+03  0.00000000000E+00 0.  1.
<mgrwt>
<rscale>  0 0.13393681E+04</rscale>
<asrwt>0</asrwt>
<pdfrwt beam="1">  1        2 0.53421194E+00 0.13393681E+04</pdfrwt>
<pdfrwt beam="2">  1       -2 0.19870081E-01 0.13393681E+04</pdfrwt>
<totfact> 0.18303398E+01</totfact>
</mgrwt>
</event>
<event>
12    3  0.8686020E-008  0.1532264E+04  0.7818608E-02  0.8863277E-01
         -1   -1    0    0    0  501 -0.00000000000E+00  0.00000000000E+00  0.14194183289E+04  0.14194183289E+04  0.00000000000E+00 0.  1.
          1   -1    0    0  501    0  0.00000000000E+00 -0.00000000000E+00 -0.41352020575E+03  0.41352020575E+03  0.00000000000E+00 0. -1.
         23    2    1    2    0    0  0.41244322079E+03  0.31373713997E+02 -0.52321639035E-01  0.42346732941E+03  0.90724065356E+02 0.  0.
        254    2    1    2    0    0 -0.41244322079E+03 -0.31373713997E+02  0.10059504448E+04  0.14094712052E+04  0.89642571401E+03 0.  0.
         23    2    4    4    0    0 -0.40414393875E+03  0.26664650184E+03  0.98047367207E+03  0.10973283782E+04  0.91478236805E+02 0.  0.
         23    2    4    4    0    0 -0.82992820368E+01 -0.29802021583E+03  0.25476772716E+02  0.31214282704E+03  0.88877170270E+02 0.  0.
          1    1    3    3  502    0  0.39690032838E+03  0.38806323695E+02  0.17095850464E+02  0.39915920324E+03  0.00000000000E+00 0. -1.
         -1    1    3    3    0  502  0.15542892404E+02 -0.74326096985E+01 -0.17148172103E+02  0.24308126166E+02  0.00000000000E+00 0.  1.
         13    1    5    5    0    0 -0.22569868107E+03  0.14184785077E+03  0.43747130999E+03  0.51229079093E+03  0.00000000000E+00 0. -1.
        -13    1    5    5    0    0 -0.17844525768E+03  0.12479865107E+03  0.54300236208E+03  0.58503758727E+03  0.00000000000E+00 0.  1.
          1    1    6    6  503    0 -0.17880298318E+02 -0.18030549772E+03  0.56928483515E+02  0.18992269430E+03  0.00000000000E+00 0. -1.
         -1    1    6    6    0  503  0.95810162812E+01 -0.11771471812E+03 -0.31451710799E+02  0.12222013274E+03  0.00000000000E+00 0.  1.
<mgrwt>
<rscale>  0 0.15322639E+04</rscale>
<asrwt>0</asrwt>
<pdfrwt beam="1">  1        1 0.63618494E-01 0.15322639E+04</pdfrwt>
<pdfrwt beam="2">  1       -1 0.21837205E+00 0.15322639E+04</pdfrwt>
<totfact> 0.62483178E+00</totfact>
</mgrwt>
</event>
<event>
12    3  0.8686020E-008  0.1041290E+04  0.7818608E-02  0.9264383E-01
          2   -1    0    0  501    0  0.00000000000E+00  0.00000000000E+00  0.16794329246E+04  0.16794329246E+04  0.00000000000E+00 0. -1.
         -2   -1    0    0    0  501 -0.00000000000E+00 -0.00000000000E+00 -0.16140649213E+03  0.16140649213E+03  0.00000000000E+00 0.  1.
         23    2    1    2    0    0  0.59310674979E+02  0.85198509254E+02  0.20232664604E+03  0.24414689623E+03  0.88854336367E+02 0.  0.
        254    2    1    2    0    0 -0.59310674979E+02 -0.85198509254E+02  0.13156997865E+04  0.15966925205E+04  0.89865707303E+03 0.  0.
         23    2    4    4    0    0  0.46789811422E+02  0.79612688443E+01  0.14018320480E+04  0.14057114113E+04  0.92945214032E+02 0.  0.
         23    2    4    4    0    0 -0.10610048640E+03 -0.93159778098E+02 -0.86132261555E+02  0.19098110922E+03  0.95493246503E+02 0.  0.
          4    1    3    3  502    0 -0.13541888970E+02 -0.85746146463E+01  0.39424706633E+02  0.42558363060E+02  0.00000000000E+00 0. -1.
         -4    1    3    3    0  502  0.72852563949E+02  0.93773123900E+02  0.16290193941E+03  0.20158853317E+03  0.00000000000E+00 0.  1.
         13    1    5    5    0    0  0.40413305258E+02 -0.27163068586E+02  0.11817623017E+04  0.11827650677E+04  0.00000000000E+00 0.  1.
        -13    1    5    5    0    0  0.63765061636E+01  0.35124337431E+02  0.22006974629E+03  0.22294634364E+03  0.00000000000E+00 0. -1.
          1    1    6    6  503    0 -0.61013258371E+02 -0.14677041463E+02  0.44716884474E+01  0.62912870231E+02  0.00000000000E+00 0. -1.
         -1    1    6    6    0  503 -0.45087228030E+02 -0.78482736635E+02 -0.90603950002E+02  0.12806823899E+03  0.00000000000E+00 0.  1.
<mgrwt>
<rscale>  0 0.10412903E+04</rscale>
<asrwt>0</asrwt>
<pdfrwt beam="1">  1        2 0.25837428E+00 0.10412903E+04</pdfrwt>
<pdfrwt beam="2">  1       -2 0.24831769E-01 0.10412903E+04</pdfrwt>
<totfact> 0.14568009E+02</totfact>
</mgrwt>
</event>
<event>
12    3  0.8686020E-008  0.1632579E+04  0.7818608E-02  0.8800780E-01
         -1   -1    0    0    0  501 -0.00000000000E+00  0.00000000000E+00  0.82599834032E+03  0.82599834032E+03  0.00000000000E+00 0.  1.
          1   -1    0    0  501    0  0.00000000000E+00 -0.00000000000E+00 -0.80669502747E+03  0.80669502747E+03  0.00000000000E+00 0. -1.
         23    2    1    2    0    0 -0.23532272341E+03  0.41134522479E+03  0.31495569224E+03  0.57635385194E+03  0.91678767782E+02 0.  0.
        254    2    1    2    0    0  0.23532272341E+03 -0.41134522479E+03 -0.29565237939E+03  0.10563395158E+04  0.89658304980E+03 0.  0.
         23    2    4    4    0    0 -0.48563737857E+02 -0.63288036670E+03 -0.21643195501E+03  0.67693857400E+03  0.92233652385E+02 0.  0.
         23    2    4    4    0    0  0.28388646127E+03  0.22153514190E+03 -0.79220424383E+02  0.37940094185E+03  0.89441919963E+02 0.  0.
          1    1    3    3  502    0 -0.13530086076E+02  0.80960280951E+02  0.32087305678E+02  0.88131864309E+02  0.00000000000E+00 0. -1.
         -1    1    3    3    0  502 -0.22179263734E+03  0.33038494384E+03  0.28286838656E+03  0.48822198763E+03  0.00000000000E+00 0.  1.
         13    1    5    5    0    0 -0.61305270004E+02 -0.37873933704E+03 -0.16337896189E+03  0.41700660275E+03  0.00000000000E+00 0.  1.
        -13    1    5    5    0    0  0.12741532148E+02 -0.25414102966E+03 -0.53052993124E+02  0.25993197125E+03  0.00000000000E+00 0. -1.
          4    1    6    6  503    0  0.59523504010E+02  0.73482797020E+02 -0.55255261770E+02  0.10952585512E+03  0.00000000000E+00 0. -1.
         -4    1    6    6    0  503  0.22436295726E+03  0.14805234488E+03 -0.23965162613E+02  0.26987508673E+03  0.00000000000E+00 0.  1.
<mgrwt>
<rscale>  0 0.16325793E+04</rscale>
<asrwt>0</asrwt>
<pdfrwt beam="1">  1        1 0.12410693E+00 0.16325793E+04</pdfrwt>
<pdfrwt beam="2">  1       -1 0.12707667E+00 0.16325793E+04</pdfrwt>
<totfact> 0.11213636E+01</totfact>
</mgrwt>
</event>
<event>
12    3  0.8686020E-008  0.1452752E+04  0.7818608E-02  0.8916495E-01
         -1   -1    0    0    0  501 -0.00000000000E+00  0.00000000000E+00  0.94425035679E+03  0.94425035679E+03  0.00000000000E+00 0.  1.
          1   -1    0    0  501    0  0.00000000000E+00 -0.00000000000E+00 -0.55877346347E+03  0.55877346347E+03  0.00000000000E+00 0. -1.
         23    2    1    2    0    0 -0.33518548146E+03 -0.74952886763E+02  0.41069153991E+03  0.54316435522E+03  0.91611863916E+02 0.  0.
        254    2    1    2    0    0  0.33518548146E+03  0.74952886763E+02 -0.25214646579E+02  0.95985946505E+03  0.89595042944E+03 0.  0.
         23    2    4    4    0    0  0.26766299421E+02 -0.36511972691E+03  0.12091424560E+03  0.39546530771E+03  0.87998324105E+02 0.  0.
         23    2    4    4    0    0  0.30841918204E+03  0.44007261368E+03 -0.14612889218E+03  0.56439415734E+03  0.91655957509E+02 0.  0.
          1    1    3    3  502    0 -0.81801654281E+02 -0.10669033966E+02  0.45978362342E+02  0.94442303723E+02  0.00000000000E+00 0. -1.
         -1    1    3    3    0  502 -0.25338382718E+03 -0.64283852796E+02  0.36471317756E+03  0.44872205149E+03  0.00000000000E+00 0.  1.
         13    1    5    5    0    0 -0.13336194171E+01 -0.23857002170E+02 -0.13693492313E+02  0.27539913308E+02  0.00000000000E+00 0. -1.
        -13    1    5    5    0    0  0.28099918838E+02 -0.34126272474E+03  0.13460773792E+03  0.36792539440E+03  0.00000000000E+00 0.  1.
          1    1    6    6  503    0  0.25206052042E+02  0.97111632933E+02 -0.24381504494E+02  0.10324956209E+03  0.00000000000E+00 0. -1.
         -1    1    6    6    0  503  0.28321313000E+03  0.34296098074E+03 -0.12174738769E+03  0.46114459525E+03  0.00000000000E+00 0.  1.
<mgrwt>
<rscale>  0 0.14527519E+04</rscale>
<asrwt>0</asrwt>
<pdfrwt beam="1">  1        1 0.85965148E-01 0.14527519E+04</pdfrwt>
<pdfrwt beam="2">  1       -1 0.14526929E+00 0.14527519E+04</pdfrwt>
<totfact> 0.14004705E+01</totfact>
</mgrwt>
</event>
<event>
12    3  0.8686020E-008  0.2029202E+04  0.7818608E-02  0.8593088E-01
          1   -1    0    0  501    0  0.00000000000E+00  0.00000000000E+00  0.25276378227E+04  0.25276378227E+04  0.00000000000E+00 0. -1.
         -1   -1    0    0    0  501 -0.00000000000E+00 -0.00000000000E+00 -0.40726386113E+03  0.40726386113E+03  0.00000000000E+00 0.  1.
         23    2    1    2    0    0  0.29085908263E+03 -0.54451123377E+03  0.99204313706E+02  0.63175538015E+03  0.90453716531E+02 0.  0.
        254    2    1    2    0    0 -0.29085908263E+03  0.54451123377E+03  0.20211696478E+04  0.23031463037E+04  0.91556794454E+03 0.  0.
         23    2    4    4    0    0 -0.21847859793E+03  0.33646391029E+03  0.18448947665E+03  0.45078116571E+03  0.90699678515E+02 0.  0.
         23    2    4    4    0    0 -0.72380484699E+02  0.20804732348E+03  0.18366801712E+04  0.18523651380E+04  0.96643311602E+02 0.  0.
          3    1    3    3  502    0  0.21495460231E+03 -0.39417287970E+03  0.11238696566E+03  0.46282671724E+03  0.00000000000E+00 0. -1.
         -3    1    3    3    0  502  0.75904480317E+02 -0.15033835408E+03 -0.13182651950E+02  0.16892866291E+03  0.00000000000E+00 0.  1.
         13    1    5    5    0    0 -0.13775345516E+02  0.68153105452E+02  0.57398143121E+02  0.90161814315E+02  0.00000000000E+00 0.  1.
        -13    1    5    5    0    0 -0.20470325242E+03  0.26831080484E+03  0.12709133353E+03  0.36061935139E+03  0.00000000000E+00 0. -1.
          1    1    6    6  503    0  0.14038077202E+02  0.93849320625E+02  0.60679348613E+03  0.61416862294E+03  0.00000000000E+00 0. -1.
         -1    1    6    6    0  503 -0.86418561900E+02  0.11419800286E+03  0.12298866851E+04  0.12381965150E+04  0.00000000000E+00 0.  1.
<mgrwt>
<rscale>  0 0.20292023E+04</rscale>
<asrwt>0</asrwt>
<pdfrwt beam="1">  1        1 0.38886735E+00 0.20292023E+04</pdfrwt>
<pdfrwt beam="2">  1       -1 0.62655980E-01 0.20292023E+04</pdfrwt>
<totfact> 0.31000699E+00</totfact>
</mgrwt>
</event>
<event>
12    3  0.8686020E-008  0.1913179E+04  0.7818608E-02  0.8648324E-01
          2   -1    0    0  501    0  0.00000000000E+00  0.00000000000E+00  0.22276601266E+04  0.22276601266E+04  0.00000000000E+00 0. -1.
         -2   -1    0    0    0  501 -0.00000000000E+00 -0.00000000000E+00 -0.41077357283E+03  0.41077357283E+03  0.00000000000E+00 0.  1.
         23    2    1    2    0    0 -0.47993980888E+02 -0.12503531900E+02 -0.31161350666E+03  0.32764558967E+03  0.88254713102E+02 0.  0.
        254    2    1    2    0    0  0.47993980888E+02  0.12503531900E+02  0.21285000604E+04  0.23107881097E+04  0.89820344044E+03 0.  0.
         23    2    4    4    0    0 -0.33203974430E+03 -0.21442506746E+03  0.13577323598E+04  0.14170293858E+04  0.91140650138E+02 0.  0.
         23    2    4    4    0    0  0.38003372518E+03  0.22692859936E+03  0.77076770063E+03  0.89375872392E+03  0.93806112650E+02 0.  0.
          2    1    3    3  502    0 -0.25132905884E+02 -0.46040354131E+02 -0.10846855117E+03  0.12048569940E+03  0.00000000000E+00 0. -1.
         -2    1    3    3    0  502 -0.22861075004E+02  0.33536822230E+02 -0.20314495549E+03  0.20715989027E+03  0.00000000000E+00 0.  1.
         13    1    5    5    0    0 -0.16622199959E+03 -0.66439092091E+02  0.71041017572E+03  0.73261621868E+03  0.00000000000E+00 0. -1.
        -13    1    5    5    0    0 -0.16581774470E+03 -0.14798597537E+03  0.64732218405E+03  0.68441316712E+03  0.00000000000E+00 0.  1.
          3    1    6    6  503    0  0.17722265343E+03  0.10489362434E+03  0.26733430298E+03  0.33745839871E+03  0.00000000000E+00 0. -1.
         -3    1    6    6    0  503  0.20281107176E+03  0.12203497502E+03  0.50343339765E+03  0.55630032521E+03  0.00000000000E+00 0.  1.
<mgrwt>
<rscale>  0 0.19131795E+04</rscale>
<asrwt>0</asrwt>
<pdfrwt beam="1">  1        2 0.34271693E+00 0.19131795E+04</pdfrwt>
<pdfrwt beam="2">  1       -2 0.63195936E-01 0.19131795E+04</pdfrwt>
<totfact> 0.10810626E+01</totfact>
</mgrwt>
</event>
<event>
12    3  0.8686020E-008  0.2514540E+04  0.7818608E-02  0.8397824E-01
          1   -1    0    0  501    0  0.00000000000E+00  0.00000000000E+00  0.79283426699E+03  0.79283426699E+03  0.00000000000E+00 0. -1.
         -1   -1    0    0    0  501 -0.00000000000E+00 -0.00000000000E+00 -0.19937679217E+04  0.19937679217E+04  0.00000000000E+00 0.  1.
         23    2    1    2    0    0 -0.63469489060E+03 -0.66565679370E+03  0.13041285549E+03  0.93335451362E+03  0.90590088108E+02 0.  0.
        254    2    1    2    0    0  0.63469489060E+03  0.66565679370E+03 -0.13313465102E+04  0.18532476751E+04  0.90338632035E+03 0.  0.
         23    2    4    4    0    0  0.12062435791E+02 -0.19042829593E+03 -0.11025970394E+03  0.23466938961E+03  0.80647888123E+02 0.  0.
         23    2    4    4    0    0  0.62263245481E+03  0.85608508963E+03 -0.12210868063E+04  0.16185782855E+04  0.90497642438E+02 0.  0.
          2    1    3    3  502    0 -0.50813301425E+03 -0.48479287037E+03  0.11902240410E+03  0.71231286666E+03  0.00000000000E+00 0. -1.
         -2    1    3    3    0  502 -0.12656187635E+03 -0.18086392333E+03  0.11390451392E+02  0.22104164695E+03  0.00000000000E+00 0.  1.
         13    1    5    5    0    0 -0.65557848137E+01 -0.92148398042E+02 -0.96684846410E+02  0.13372458675E+03  0.00000000000E+00 0. -1.
        -13    1    5    5    0    0  0.18618220605E+02 -0.98279897888E+02 -0.13574857532E+02  0.10094480286E+03  0.00000000000E+00 0.  1.
          3    1    6    6  503    0  0.78781624791E+02  0.10709249426E+03 -0.11078885890E+03  0.17305929039E+03  0.00000000000E+00 0. -1.
         -3    1    6    6    0  503  0.54385083002E+03  0.74899259537E+03 -0.11102979474E+04  0.14455189951E+04  0.00000000000E+00 0.  1.
<mgrwt>
<rscale>  0 0.25145397E+04</rscale>
<asrwt>0</asrwt>
<pdfrwt beam="1">  1        1 0.12197450E+00 0.25145397E+04</pdfrwt>
<pdfrwt beam="2">  1       -1 0.30673352E+00 0.25145397E+04</pdfrwt>
<totfact> 0.59441079E-01</totfact>
</mgrwt>
</event>
<event>
12    3  0.8686020E-008  0.1747444E+04  0.7818608E-02  0.8734759E-01
         -1   -1    0    0    0  501 -0.00000000000E+00  0.00000000000E+00  0.53345633951E+03  0.53345633951E+03  0.00000000000E+00 0.  1.
          1   -1    0    0  501    0  0.00000000000E+00 -0.00000000000E+00 -0.14310258575E+04  0.14310258575E+04  0.00000000000E+00 0. -1.
         23    2    1    2    0    0 -0.62206670422E+03  0.10836287705E+03 -0.42387358982E+03  0.76599599097E+03  0.91496122388E+02 0.  0.
        254    2    1    2    0    0  0.62206670422E+03 -0.10836287705E+03 -0.47369592812E+03  0.11984862060E+04  0.90181586592E+03 0.  0.
         23    2    4    4    0    0  0.59804020257E+03  0.97951434192E+02  0.64602095438E+02  0.61611538894E+03  0.90433259394E+02 0.  0.
         23    2    4    4    0    0  0.24026501651E+02 -0.20631431125E+03 -0.53829802356E+03  0.58237081706E+03  0.79045168006E+02 0.  0.
          2    1    3    3  502    0 -0.11863032997E+03 -0.67236529410E-01 -0.11644928849E+03  0.16623356009E+03  0.00000000000E+00 0. -1.
         -2    1    3    3    0  502 -0.50343637425E+03  0.10843011358E+03 -0.30742430133E+03  0.59976243088E+03  0.00000000000E+00 0.  1.
         13    1    5    5    0    0  0.74195588407E+02  0.24479113099E+02 -0.19432801968E+02  0.80509913113E+02  0.00000000000E+00 0.  1.
        -13    1    5    5    0    0  0.52384461416E+03  0.73472321093E+02  0.84034897406E+02  0.53560547583E+03  0.00000000000E+00 0. -1.
          1    1    6    6  503    0  0.46413671623E+02 -0.14964552996E+03 -0.43606026784E+03  0.46335361307E+03  0.00000000000E+00 0. -1.
         -1    1    6    6    0  503 -0.22387169972E+02 -0.56668781286E+02 -0.10223775572E+03  0.11901720399E+03  0.00000000000E+00 0.  1.
<mgrwt>
<rscale>  0 0.17474436E+04</rscale>
<asrwt>0</asrwt>
<pdfrwt beam="1">  1        1 0.22015782E+00 0.17474436E+04</pdfrwt>
<pdfrwt beam="2">  1       -1 0.82070206E-01 0.17474436E+04</pdfrwt>
<totfact> 0.10228616E+01</totfact>
</mgrwt>
</event>
<event>
12    3  0.8686020E-008  0.3599534E+04  0.7818608E-02  0.8090598E-01
         -2   -1    0    0    0  501 -0.00000000000E+00  0.00000000000E+00  0.19386957320E+04  0.19386957320E+04  0.00000000000E+00 0. -1.
          2   -1    0    0  501    0  0.00000000000E+00 -0.00000000000E+00 -0.16707943416E+04  0.16707943416E+04  0.00000000000E+00 0.  1.
         23    2    1    2    0    0 -0.95823521572E+03  0.12259993826E+04  0.78679270250E+03  0.17461248064E+04  0.92843245097E+02 0.  0.
        254    2    1    2    0    0  0.95823521572E+03 -0.12259993826E+04 -0.51889131206E+03  0.18633652671E+04  0.88407732134E+03 0.  0.
         23    2    4    4    0    0  0.55150992875E+03 -0.58164194016E+03  0.17886005495E+03  0.82602801332E+03  0.88661217393E+02 0.  0.
         23    2    4    4    0    0  0.40672528697E+03 -0.64435744245E+03 -0.69775136701E+03  0.10373372538E+04  0.92680284952E+02 0.  0.
          2    1    3    3  502    0 -0.51413313025E+03  0.72285682851E+03  0.47312944500E+03  0.10053389189E+04  0.00000000000E+00 0.  1.
         -2    1    3    3    0  502 -0.44410208547E+03  0.50314255410E+03  0.31366325749E+03  0.74078588753E+03  0.00000000000E+00 0. -1.
         13    1    5    5    0    0  0.45948191770E+03 -0.45513379249E+03  0.11415952800E+03  0.65673647652E+03  0.00000000000E+00 0. -1.
        -13    1    5    5    0    0  0.92028011057E+02 -0.12650814767E+03  0.64700526948E+02  0.16929153680E+03  0.00000000000E+00 0.  1.
          2    1    6    6  503    0  0.19189741763E+03 -0.24092915901E+03 -0.24010135134E+03  0.39053826634E+03  0.00000000000E+00 0.  1.
         -2    1    6    6    0  503  0.21482786934E+03 -0.40342828344E+03 -0.45765001566E+03  0.64679898744E+03  0.00000000000E+00 0. -1.
<mgrwt>
<rscale>  0 0.35995343E+04</rscale>
<asrwt>0</asrwt>
<pdfrwt beam="1">  1        2 0.25704529E+00 0.35995343E+04</pdfrwt>
<pdfrwt beam="2">  1       -2 0.29826088E+00 0.35995343E+04</pdfrwt>
<totfact> 0.27027996E-01</totfact>
</mgrwt>
</event>
<event>
12    3  0.8686020E-008  0.2142380E+04  0.7818608E-02  0.8542801E-01
          1   -1    0    0  501    0  0.00000000000E+00  0.00000000000E+00  0.36956598842E+04  0.36956598842E+04  0.00000000000E+00 0. -1.
         -1   -1    0    0    0  501 -0.00000000000E+00 -0.00000000000E+00 -0.31048526578E+03  0.31048526578E+03  0.00000000000E+00 0.  1.
         23    2    1    2    0    0  0.59554647221E+03  0.64565681082E+03  0.13855654372E+04  0.16438550757E+04  0.10449694345E+03 0.  0.
        254    2    1    2    0    0 -0.59554647221E+03 -0.64565681082E+03  0.19996091813E+04  0.23622900743E+04  0.90023841262E+03 0.  0.
         23    2    4    4    0    0 -0.15248522434E+03 -0.39767302565E+03  0.17225397028E+04  0.17767419891E+04  0.90958722947E+02 0.  0.
         23    2    4    4    0    0 -0.44306124787E+03 -0.24798378516E+03  0.27706947850E+03  0.58554808522E+03  0.91103441881E+02 0.  0.
          3    1    3    3  502    0  0.25793872446E+03  0.21290150032E+03  0.56747478248E+03  0.65870104233E+03  0.00000000000E+00 0. -1.
         -3    1    3    3    0  502  0.33760774775E+03  0.43275531050E+03  0.81809065469E+03  0.98515403334E+03  0.00000000000E+00 0.  1.
         13    1    5    5    0    0  0.12377216015E+02 -0.33038488980E+02  0.14758699991E+03  0.15174537809E+03  0.00000000000E+00 0.  1.
        -13    1    5    5    0    0 -0.16486244036E+03 -0.36463453667E+03  0.15749527028E+04  0.16249966110E+04  0.00000000000E+00 0. -1.
          2    1    6    6  503    0 -0.16292413324E+03 -0.95241989472E+02  0.54207689846E+02  0.19635117364E+03  0.00000000000E+00 0. -1.
         -2    1    6    6    0  503 -0.28013711463E+03 -0.15274179569E+03  0.22286178865E+03  0.38919691158E+03  0.00000000000E+00 0.  1.
<mgrwt>
<rscale>  0 0.21423799E+04</rscale>
<asrwt>0</asrwt>
<pdfrwt beam="1">  1        1 0.56856303E+00 0.21423799E+04</pdfrwt>
<pdfrwt beam="2">  1       -1 0.47766967E-01 0.21423799E+04</pdfrwt>
<totfact> 0.70073343E-01</totfact>
</mgrwt>
</event>
<event>
12    3  0.8686020E-008  0.1853218E+04  0.7818608E-02  0.8678500E-01
         -1   -1    0    0    0  501 -0.00000000000E+00  0.00000000000E+00  0.15695823232E+04  0.15695823232E+04  0.00000000000E+00 0.  1.
          1   -1    0    0  501    0  0.00000000000E+00 -0.00000000000E+00 -0.54702741217E+03  0.54702741217E+03  0.00000000000E+00 0. -1.
         23    2    1    2    0    0 -0.21231581322E+03 -0.60599248768E+03  0.60798351315E+02  0.65148082894E+03  0.91792871642E+02 0.  0.
        254    2    1    2    0    0  0.21231581322E+03  0.60599248768E+03  0.96175655969E+03  0.14651289064E+04  0.89962332818E+03 0.  0.
         23    2    4    4    0    0  0.42415284843E+01 -0.22934424340E+02 -0.14361955380E+03  0.17334114213E+03  0.94215693685E+02 0.  0.
         23    2    4    4    0    0  0.20807428474E+03  0.62892691202E+03  0.11053761135E+04  0.12917877643E+04  0.89528247036E+02 0.  0.
          3    1    3    3  502    0 -0.18671548102E+03 -0.47250651180E+03  0.15795379385E+02  0.50830558580E+03  0.00000000000E+00 0. -1.
         -3    1    3    3    0  502 -0.25600332202E+02 -0.13348597588E+03  0.45002971929E+02  0.14317524314E+03  0.00000000000E+00 0.  1.
         13    1    5    5    0    0  0.11992630637E+02 -0.38248786352E+02 -0.13802953298E+02  0.42394744565E+02  0.00000000000E+00 0.  1.
        -13    1    5    5    0    0 -0.77511021523E+01  0.15314362012E+02 -0.12981660051E+03  0.13094639756E+03  0.00000000000E+00 0. -1.
          3    1    6    6  503    0  0.13649204400E+03  0.49570405726E+03  0.90342570115E+03  0.10394857324E+04  0.00000000000E+00 0. -1.
         -3    1    6    6    0  503  0.71582240739E+02  0.13322285476E+03  0.20195041234E+03  0.25230203182E+03  0.00000000000E+00 0.  1.
<mgrwt>
<rscale>  0 0.18532183E+04</rscale>
<asrwt>0</asrwt>
<pdfrwt beam="1">  1        1 0.84158064E-01 0.18532183E+04</pdfrwt>
<pdfrwt beam="2">  1       -1 0.24147420E+00 0.18532183E+04</pdfrwt>
<totfact> 0.29111503E+00</totfact>
</mgrwt>
</event>
<event>
12    3  0.8686020E-008  0.2852346E+04  0.7818608E-02  0.8287199E-01
         -1   -1    0    0    0  501 -0.00000000000E+00  0.00000000000E+00  0.12417496296E+04  0.12417496296E+04  0.00000000000E+00 0.  1.
          1   -1    0    0  501    0  0.00000000000E+00 -0.00000000000E+00 -0.16379864907E+04  0.16379864907E+04  0.00000000000E+00 0. -1.
         23    2    1    2    0    0 -0.85732549583E+03 -0.25910093401E+03  0.74902494953E+03  0.11709892137E+04  0.89649672402E+02 0.  0.
        254    2    1    2    0    0  0.85732549583E+03  0.25910093401E+03 -0.11452618107E+04  0.17087469067E+04  0.89780347309E+03 0.  0.
         23    2    4    4    0    0  0.80419388645E+03  0.53212645189E+03 -0.95043895623E+03  0.13570119838E+04  0.90889750863E+02 0.  0.
         23    2    4    4    0    0  0.53131609383E+02 -0.27302551787E+03 -0.19482285443E+03  0.35173492289E+03  0.91627561614E+02 0.  0.
          2    1    3    3  502    0 -0.11240837970E+03 -0.66502666773E+02  0.11419975760E+03  0.17349303488E+03  0.00000000000E+00 0. -1.
         -2    1    3    3    0  502 -0.74491711613E+03 -0.19259826724E+03  0.63482519194E+03  0.99749617882E+03  0.00000000000E+00 0.  1.
         13    1    5    5    0    0  0.17718639306E+03  0.14706699816E+03 -0.18622066862E+03  0.29614499363E+03  0.00000000000E+00 0.  1.
        -13    1    5    5    0    0  0.62700749339E+03  0.38505945373E+03 -0.76421828761E+03  0.10608669902E+04  0.00000000000E+00 0. -1.
          4    1    6    6  503    0 -0.16325586430E+02 -0.15419639989E+03 -0.97531485696E+02  0.18318145434E+03  0.00000000000E+00 0. -1.
         -4    1    6    6    0  503  0.69457195813E+02 -0.11882911798E+03 -0.97291368731E+02  0.16855346855E+03  0.00000000000E+00 0.  1.
<mgrwt>
<rscale>  0 0.28523458E+04</rscale>
<asrwt>0</asrwt>
<pdfrwt beam="1">  1        1 0.25199792E+00 0.28523458E+04</pdfrwt>
<pdfrwt beam="2">  1       -1 0.19103840E+00 0.28523458E+04</pdfrwt>
<totfact> 0.78700883E-01</totfact>
</mgrwt>
</event>
<event>
12    3  0.8686020E-008  0.2380930E+04  0.7818608E-02  0.8446678E-01
         -1   -1    0    0    0  501 -0.00000000000E+00  0.00000000000E+00  0.48670372040E+03  0.48670372040E+03  0.00000000000E+00 0.  1.
          1   -1    0    0  501    0  0.00000000000E+00 -0.00000000000E+00 -0.29118474395E+04  0.29118474395E+04  0.00000000000E+00 0. -1.
         23    2    1    2    0    0 -0.89814892174E+03  0.47610243651E+03 -0.10689001308E+04  0.14779129116E+04  0.91291122565E+02 0.  0.
        254    2    1    2    0    0  0.89814892174E+03 -0.47610243651E+03 -0.13562435883E+04  0.19206382482E+04  0.90338784262E+03 0.  0.
         23    2    4    4    0    0  0.58055949604E+03  0.64440127307E+02 -0.24275396768E+03  0.63888119275E+03  0.89653952357E+02 0.  0.
         23    2    4    4    0    0  0.31758942570E+03 -0.54054256382E+03 -0.11134896206E+04  0.12817570555E+04  0.99963530942E+02 0.  0.
          4    1    3    3  502    0 -0.60385455670E+03  0.30560674031E+03 -0.76967812694E+03  0.10249098616E+04  0.00000000000E+00 0. -1.
         -4    1    3    3    0  502 -0.29429436503E+03  0.17049569620E+03 -0.29922200387E+03  0.45300305000E+03  0.00000000000E+00 0.  1.
         13    1    5    5    0    0  0.51223560759E+03  0.70832671097E+02 -0.24029663208E+03  0.57021492121E+03  0.00000000000E+00 0.  1.
        -13    1    5    5    0    0  0.68323888447E+02 -0.63925437901E+01 -0.24573355977E+01  0.68666271538E+02  0.00000000000E+00 0. -1.
          1    1    6    6  503    0  0.17078657730E+03 -0.29444111382E+03 -0.50288601537E+03  0.60725445157E+03  0.00000000000E+00 0. -1.
         -1    1    6    6    0  503  0.14680284840E+03 -0.24610145000E+03 -0.61060360522E+03  0.67450260392E+03  0.00000000000E+00 0.  1.
<mgrwt>
<rscale>  0 0.23809301E+04</rscale>
<asrwt>0</asrwt>
<pdfrwt beam="1">  1        1 0.44797653E+00 0.23809301E+04</pdfrwt>
<pdfrwt beam="2">  1       -1 0.74877495E-01 0.23809301E+04</pdfrwt>
<totfact> 0.11156690E+00</totfact>
</mgrwt>
</event>
<event>
12    3  0.8686020E-008  0.1953548E+04  0.7818608E-02  0.8628652E-01
          1   -1    0    0  501    0  0.00000000000E+00  0.00000000000E+00  0.59449241178E+03  0.59449241178E+03  0.00000000000E+00 0. -1.
         -1   -1    0    0    0  501 -0.00000000000E+00 -0.00000000000E+00 -0.16048767415E+04  0.16048767415E+04  0.00000000000E+00 0.  1.
         23    2    1    2    0    0 -0.60493944987E+03 -0.46802063730E+03 -0.41804747272E+03  0.87635806335E+03  0.90800389847E+02 0.  0.
        254    2    1    2    0    0  0.60493944987E+03  0.46802063730E+03 -0.59233685698E+03  0.13230110899E+04  0.90249672405E+03 0.  0.
         23    2    4    4    0    0 -0.94965122368E+01  0.54740398114E+03 -0.30169042687E+03  0.63233261423E+03  0.95321136400E+02 0.  0.
         23    2    4    4    0    0  0.61443596211E+03 -0.79383343837E+02 -0.29064643011E+03  0.69067847567E+03  0.93424528951E+02 0.  0.
          4    1    3    3  502    0 -0.34418529009E+03 -0.32215177599E+03 -0.25370064737E+03  0.53535903762E+03  0.00000000000E+00 0.  1.
         -4    1    3    3    0  502 -0.26075415978E+03 -0.14586886132E+03 -0.16434682535E+03  0.34099902573E+03  0.00000000000E+00 0. -1.
         13    1    5    5    0    0 -0.32200104252E+02  0.75382148769E+02 -0.30378005007E+02  0.87419324265E+02  0.00000000000E+00 0.  1.
        -13    1    5    5    0    0  0.22703592015E+02  0.47202183237E+03 -0.27131242186E+03  0.54491328997E+03  0.00000000000E+00 0. -1.
          3    1    6    6  503    0  0.51718131171E+03 -0.10002837984E+03 -0.23582969608E+03  0.57714628259E+03  0.00000000000E+00 0. -1.
         -3    1    6    6    0  503  0.97254650399E+02  0.20645036008E+02 -0.54816734024E+02  0.11353219308E+03  0.00000000000E+00 0.  1.
<mgrwt>
<rscale>  0 0.19535476E+04</rscale>
<asrwt>0</asrwt>
<pdfrwt beam="1">  1        1 0.91460371E-01 0.19535476E+04</pdfrwt>
<pdfrwt beam="2">  1       -1 0.24690411E+00 0.19535476E+04</pdfrwt>
<totfact> 0.23613003E+00</totfact>
</mgrwt>
</event>
<event>
12    3  0.8686020E-008  0.1356237E+04  0.7818608E-02  0.8986120E-01
         -2   -1    0    0    0  501 -0.00000000000E+00  0.00000000000E+00  0.55393565207E+03  0.55393565207E+03  0.00000000000E+00 0.  1.
          2   -1    0    0  501    0  0.00000000000E+00 -0.00000000000E+00 -0.83014103118E+03  0.83014103118E+03  0.00000000000E+00 0. -1.
         23    2    1    2    0    0 -0.32655962827E+03 -0.10820737483E+03  0.79529327103E+02  0.36449745825E+03  0.90462458582E+02 0.  0.
        254    2    1    2    0    0  0.32655962827E+03  0.10820737483E+03 -0.35573470621E+03  0.10195792250E+04  0.89142839760E+03 0.  0.
         23    2    4    4    0    0  0.18486703760E+03 -0.29329232326E+03  0.11810166397E+03  0.37690611311E+03  0.88960702513E+02 0.  0.
         23    2    4    4    0    0  0.14169259067E+03  0.40149969810E+03 -0.47383637018E+03  0.64267311188E+03  0.85023674389E+02 0.  0.
          3    1    3    3  502    0 -0.14456698747E+03 -0.21954728966E+02 -0.44507681399E+01  0.14629228731E+03  0.00000000000E+00 0. -1.
         -3    1    3    3    0  502 -0.18199264081E+03 -0.86252645866E+02  0.83980095242E+02  0.21820517094E+03  0.00000000000E+00 0.  1.
         13    1    5    5    0    0  0.65812035691E+02 -0.47697524856E+02  0.50634323180E+02  0.95760704901E+02  0.00000000000E+00 0.  1.
        -13    1    5    5    0    0  0.11905500191E+03 -0.24559479841E+03  0.67467340791E+02  0.28114540821E+03  0.00000000000E+00 0. -1.
          4    1    6    6  503    0  0.73825556383E+02  0.30722462989E+03 -0.37307287206E+03  0.48889728353E+03  0.00000000000E+00 0. -1.
         -4    1    6    6    0  503  0.67867034291E+02  0.94275068211E+02 -0.10076349813E+03  0.15377582835E+03  0.00000000000E+00 0.  1.
<mgrwt>
<rscale>  0 0.13562370E+04</rscale>
<asrwt>0</asrwt>
<pdfrwt beam="1">  1        2 0.12771400E+00 0.13562370E+04</pdfrwt>
<pdfrwt beam="2">  1       -2 0.85220870E-01 0.13562370E+04</pdfrwt>
<totfact> 0.38344860E+01</totfact>
</mgrwt>
</event>
<event>
12    3  0.8686020E-008  0.1682557E+04  0.7818608E-02  0.8771376E-01
          2   -1    0    0  501    0  0.00000000000E+00  0.00000000000E+00  0.15015700633E+04  0.15015700633E+04  0.00000000000E+00 0.  1.
         -2   -1    0    0    0  501 -0.00000000000E+00 -0.00000000000E+00 -0.47133982390E+03  0.47133982390E+03  0.00000000000E+00 0. -1.
         23    2    1    2    0    0  0.42856240169E+03  0.41758210867E+03  0.40183066110E+03  0.72624682332E+03  0.89028189647E+02 0.  0.
        254    2    1    2    0    0 -0.42856240169E+03 -0.41758210867E+03  0.62839957830E+03  0.12466630639E+04  0.89512134106E+03 0.  0.
         23    2    4    4    0    0 -0.10118506774E+02  0.11260866346E+03  0.54040202123E+03  0.55940113137E+03  0.90067674331E+02 0.  0.
         23    2    4    4    0    0 -0.41844389491E+03 -0.53019077213E+03  0.87997557068E+02  0.68726193252E+03  0.91585183250E+02 0.  0.
          1    1    3    3  502    0  0.34817285114E+03  0.36281361443E+03  0.30056598353E+03  0.58583100254E+03  0.00000000000E+00 0. -1.
         -1    1    3    3    0  502  0.80389550551E+02  0.54768494238E+02  0.10126467758E+03  0.14041582077E+03  0.00000000000E+00 0.  1.
         13    1    5    5    0    0 -0.16466190281E+02  0.63895127365E+02  0.46332653667E+03  0.46800128451E+03  0.00000000000E+00 0. -1.
        -13    1    5    5    0    0  0.63476835072E+01  0.48713536094E+02  0.77075484562E+02  0.91399846856E+02  0.00000000000E+00 0.  1.
          3    1    6    6  503    0 -0.31245239683E+03 -0.39016723511E+03  0.24285779501E+02  0.50044657129E+03  0.00000000000E+00 0. -1.
         -3    1    6    6    0  503 -0.10599149809E+03 -0.14002353702E+03  0.63711777567E+02  0.18681536122E+03  0.00000000000E+00 0.  1.
<mgrwt>
<rscale>  0 0.16825573E+04</rscale>
<asrwt>0</asrwt>
<pdfrwt beam="1">  1        2 0.23101078E+00 0.16825573E+04</pdfrwt>
<pdfrwt beam="2">  1       -2 0.72513820E-01 0.16825573E+04</pdfrwt>
<totfact> 0.20765047E+01</totfact>
</mgrwt>
</event>
<event>
12    3  0.8686020E-008  0.1361134E+04  0.7818608E-02  0.8982442E-01
          1   -1    0    0  501    0  0.00000000000E+00  0.00000000000E+00  0.20614562140E+04  0.20614562140E+04  0.00000000000E+00 0. -1.
         -1   -1    0    0    0  501 -0.00000000000E+00 -0.00000000000E+00 -0.22468162435E+03  0.22468162435E+03  0.00000000000E+00 0.  1.
         23    2    1    2    0    0 -0.14536891536E+03 -0.35105548627E+03  0.55630065360E+03  0.67912669593E+03  0.85852058403E+02 0.  0.
        254    2    1    2    0    0  0.14536891536E+03  0.35105548627E+03  0.12804739361E+04  0.16070111425E+04  0.89358784404E+03 0.  0.
         23    2    4    4    0    0 -0.70153342221E+02  0.30670002542E+03  0.13244740476E+04  0.13643132938E+04  0.90182391415E+02 0.  0.
         23    2    4    4    0    0  0.21552225758E+03  0.44355460852E+02 -0.44000111544E+02  0.24269784868E+03  0.92460724199E+02 0.  0.
          4    1    3    3  502    0 -0.80638928784E+02 -0.91419921935E+02  0.17948907175E+03  0.21697134797E+03  0.00000000000E+00 0. -1.
         -4    1    3    3    0  502 -0.64729986577E+02 -0.25963556433E+03  0.37681158185E+03  0.46215534796E+03  0.00000000000E+00 0.  1.
         13    1    5    5    0    0 -0.21486976957E+02  0.33536264050E+02  0.31113687072E+03  0.31367582550E+03  0.00000000000E+00 0. -1.
        -13    1    5    5    0    0 -0.48666365264E+02  0.27316376137E+03  0.10133371769E+04  0.10506374683E+04  0.00000000000E+00 0.  1.
          4    1    6    6  503    0  0.23518702553E+02 -0.35208487982E+01 -0.37873402702E+02  0.44720469343E+02  0.00000000000E+00 0. -1.
         -4    1    6    6    0  503  0.19200355503E+03  0.47876309650E+02 -0.61267088417E+01  0.19797737934E+03  0.00000000000E+00 0.  1.
<mgrwt>
<rscale>  0 0.13611338E+04</rscale>
<asrwt>0</asrwt>
<pdfrwt beam="1">  1        1 0.31714710E+00 0.13611338E+04</pdfrwt>
<pdfrwt beam="2">  1       -1 0.34566405E-01 0.13611338E+04</pdfrwt>
<totfact> 0.21035097E+01</totfact>
</mgrwt>
</event>
<event>
12    3  0.8686020E-008  0.1456239E+04  0.7818608E-02  0.8914087E-01
         -1   -1    0    0    0  501 -0.00000000000E+00  0.00000000000E+00  0.85175634792E+03  0.85175634792E+03  0.00000000000E+00 0.  1.
          1   -1    0    0  501    0  0.00000000000E+00 -0.00000000000E+00 -0.62242901379E+03  0.62242901379E+03  0.00000000000E+00 0. -1.
         23    2    1    2    0    0 -0.64049694934E+02  0.25334706961E+03 -0.29242669922E+03  0.40234966178E+03  0.89915375867E+02 0.  0.
        254    2    1    2    0    0  0.64049694934E+02 -0.25334706961E+03  0.52175403335E+03  0.10718356999E+04  0.89906473360E+03 0.  0.
         23    2    4    4    0    0 -0.18625156933E+02 -0.27825615186E+03 -0.18818799537E+03  0.35091998046E+03  0.99783408265E+02 0.  0.
         23    2    4    4    0    0  0.82674851867E+02  0.24909082253E+02  0.70994202872E+03  0.72091571946E+03  0.90808572897E+02 0.  0.
          1    1    3    3  502    0 -0.23356656950E+02  0.22449691260E+03 -0.22745280037E+03  0.32043591183E+03  0.00000000000E+00 0. -1.
         -1    1    3    3    0  502 -0.40693037984E+02  0.28850157007E+02 -0.64973898855E+02  0.81913749957E+02  0.00000000000E+00 0.  1.
         13    1    5    5    0    0 -0.19421802475E+02 -0.26806343440E+03 -0.14270556665E+03  0.30430262901E+03  0.00000000000E+00 0. -1.
        -13    1    5    5    0    0  0.79664554187E+00 -0.10192717466E+02 -0.45482428724E+02  0.46617351448E+02  0.00000000000E+00 0.  1.
          3    1    6    6  503    0  0.31132704373E+02  0.44413030619E+02  0.52885225184E+03  0.53162624733E+03  0.00000000000E+00 0. -1.
         -3    1    6    6    0  503  0.51542147494E+02 -0.19503948365E+02  0.18108977688E+03  0.18928947213E+03  0.00000000000E+00 0.  1.
<mgrwt>
<rscale>  0 0.14562388E+04</rscale>
<asrwt>0</asrwt>
<pdfrwt beam="1">  1        1 0.95758310E-01 0.14562388E+04</pdfrwt>
<pdfrwt beam="2">  1       -1 0.13103944E+00 0.14562388E+04</pdfrwt>
<totfact> 0.15668093E+01</totfact>
</mgrwt>
</event>
<event>
12    3  0.8686020E-008  0.3238371E+04  0.7818608E-02  0.8178756E-01
         -2   -1    0    0    0  501 -0.00000000000E+00  0.00000000000E+00  0.16666820686E+04  0.16666820686E+04  0.00000000000E+00 0.  1.
          2   -1    0    0  501    0  0.00000000000E+00 -0.00000000000E+00 -0.15730422078E+04  0.15730422078E+04  0.00000000000E+00 0. -1.
         23    2    1    2    0    0 -0.38611430028E+03 -0.11994295249E+04 -0.75689925880E+03  0.14724971827E+04  0.87384363046E+02 0.  0.
        254    2    1    2    0    0  0.38611430028E+03  0.11994295249E+04  0.85053911958E+03  0.17672270937E+04  0.90108788068E+03 0.  0.
         23    2    4    4    0    0  0.31639941623E+03  0.13148791385E+04  0.85819207334E+03  0.16042789023E+04  0.90561703221E+02 0.  0.
         23    2    4    4    0    0  0.69714884049E+02 -0.11544961361E+03 -0.76529537639E+01  0.16294819142E+03  0.91130494599E+02 0.  0.
          1    1    3    3  502    0 -0.32814974071E+03 -0.10987880402E+04 -0.67982142909E+03  0.13331071168E+04  0.00000000000E+00 0. -1.
         -1    1    3    3    0  502 -0.57964559568E+02 -0.10064148471E+03 -0.77077829712E+02  0.13939006580E+03  0.00000000000E+00 0.  1.
         13    1    5    5    0    0  0.18612457696E+03  0.63249826585E+03  0.38121412217E+03  0.76159084908E+03  0.00000000000E+00 0. -1.
        -13    1    5    5    0    0  0.13027483927E+03  0.68238087264E+03  0.47697795117E+03  0.84268805319E+03  0.00000000000E+00 0.  1.
          4    1    6    6  503    0  0.53241231601E+02 -0.12937512400E+03 -0.13630706096E+02  0.14056438952E+03  0.00000000000E+00 0. -1.
         -4    1    6    6    0  503  0.16473652448E+02  0.13925510391E+02  0.59777523322E+01  0.22383801902E+02  0.00000000000E+00 0.  1.
<mgrwt>
<rscale>  0 0.32383707E+04</rscale>
<asrwt>0</asrwt>
<pdfrwt beam="1">  1        2 0.24200649E+00 0.32383707E+04</pdfrwt>
<pdfrwt beam="2">  1       -2 0.25641263E+00 0.32383707E+04</pdfrwt>
<totfact> 0.56884921E-01</totfact>
</mgrwt>
</event>
<event>
12    3  0.8686020E-008  0.1806945E+04  0.7818608E-02  0.8702615E-01
         -1   -1    0    0    0  501 -0.00000000000E+00  0.00000000000E+00  0.21604133695E+04  0.21604133695E+04  0.00000000000E+00 0.  1.
          1   -1    0    0  501    0  0.00000000000E+00 -0.00000000000E+00 -0.37782687165E+03  0.37782687165E+03  0.00000000000E+00 0. -1.
         23    2    1    2    0    0  0.48873264712E+03 -0.15018024795E+03  0.12882806797E+04  0.13890573396E+04  0.91648653872E+02 0.  0.
        254    2    1    2    0    0 -0.48873264712E+03  0.15018024795E+03  0.49430581812E+03  0.11491829015E+04  0.90270116434E+03 0.  0.
         23    2    4    4    0    0 -0.44051263980E+03 -0.24313669336E+03  0.53517685667E+03  0.74021524421E+03  0.91309924796E+02 0.  0.
         23    2    4    4    0    0 -0.48220007314E+02  0.39331694131E+03 -0.40871038550E+02  0.40896765731E+03  0.92524145536E+02 0.  0.
          3    1    3    3  502    0  0.28320745052E+03 -0.10469042428E+03  0.86785227250E+03  0.91887654876E+03  0.00000000000E+00 0. -1.
         -3    1    3    3    0  502  0.20552519659E+03 -0.45489823675E+02  0.42042840720E+03  0.47018079084E+03  0.00000000000E+00 0.  1.
         13    1    5    5    0    0 -0.52999993824E+02 -0.12148129146E+02  0.97624656091E+02  0.11174591654E+03  0.00000000000E+00 0. -1.
        -13    1    5    5    0    0 -0.38751264598E+03 -0.23098856421E+03  0.43755220058E+03  0.62846932767E+03  0.00000000000E+00 0.  1.
          3    1    6    6  503    0 -0.65780297787E+02  0.17455182639E+03 -0.32455120923E+02  0.18933758884E+03  0.00000000000E+00 0. -1.
         -3    1    6    6    0  503  0.17560290473E+02  0.21876511492E+03 -0.84159176272E+01  0.21963006848E+03  0.00000000000E+00 0.  1.
<mgrwt>
<rscale>  0 0.18069446E+04</rscale>
<asrwt>0</asrwt>
<pdfrwt beam="1">  1        1 0.58127212E-01 0.18069446E+04</pdfrwt>
<pdfrwt beam="2">  1       -1 0.33237128E+00 0.18069446E+04</pdfrwt>
<totfact> 0.12422602E+00</totfact>
</mgrwt>
</event>
<event>
12    3  0.8686020E-008  0.1542068E+04  0.7818608E-02  0.8856950E-01
         -2   -1    0    0    0  501 -0.00000000000E+00  0.00000000000E+00  0.72857555017E+03  0.72857555017E+03  0.00000000000E+00 0.  1.
          2   -1    0    0  501    0  0.00000000000E+00 -0.00000000000E+00 -0.81596636519E+03  0.81596636519E+03  0.00000000000E+00 0. -1.
         23    2    1    2    0    0 -0.43530831851E+03 -0.25200817770E+03  0.11899095130E+02  0.51112971092E+03  0.90058531643E+02 0.  0.
        254    2    1    2    0    0  0.43530831851E+03  0.25200817770E+03 -0.99289910149E+02  0.10334122044E+04  0.89726297385E+03 0.  0.
         23    2    4    4    0    0 -0.27416198799E+02  0.88337558695E+02 -0.41991510941E+03  0.43996991679E+03  0.93218326185E+02 0.  0.
         23    2    4    4    0    0  0.46272451731E+03  0.16367061900E+03  0.32062519926E+03  0.59344228765E+03  0.92039013042E+02 0.  0.
          1    1    3    3  502    0 -0.49320716736E+02 -0.28029467738E+02 -0.27662323251E+02  0.63114089462E+02  0.00000000000E+00 0. -1.
         -1    1    3    3    0  502 -0.38598760178E+03 -0.22397870996E+03  0.39561418382E+02  0.44801562145E+03  0.00000000000E+00 0.  1.
         13    1    5    5    0    0  0.19969133332E+02  0.78248098196E+01 -0.20130119130E+02  0.29414547947E+02  0.00000000000E+00 0.  1.
        -13    1    5    5    0    0 -0.47385332131E+02  0.80512748875E+02 -0.39978499028E+03  0.41055536884E+03  0.00000000000E+00 0. -1.
          4    1    6    6  503    0  0.13431441375E+03  0.47503650715E+02  0.14517496052E+03  0.20340287052E+03  0.00000000000E+00 0. -1.
         -4    1    6    6    0  503  0.32841010356E+03  0.11616696829E+03  0.17545023874E+03  0.39003941713E+03  0.00000000000E+00 0.  1.
<mgrwt>
<rscale>  0 0.15420676E+04</rscale>
<asrwt>0</asrwt>
<pdfrwt beam="1">  1        2 0.12553329E+00 0.15420676E+04</pdfrwt>
<pdfrwt beam="2">  1       -2 0.11208855E+00 0.15420676E+04</pdfrwt>
<totfact> 0.20282387E+01</totfact>
</mgrwt>
</event>
<event>
12    3  0.8686020E-008  0.1232910E+04  0.7818608E-02  0.9084528E-01
          2   -1    0    0  501    0  0.00000000000E+00  0.00000000000E+00  0.86321610405E+03  0.86321610405E+03  0.00000000000E+00 0. -1.
         -2   -1    0    0    0  501 -0.00000000000E+00 -0.00000000000E+00 -0.44023370746E+03  0.44023370746E+03  0.00000000000E+00 0.  1.
         23    2    1    2    0    0 -0.14532734338E+03 -0.23528536170E+03  0.12450151151E+03  0.31624856666E+03  0.89628630350E+02 0.  0.
        254    2    1    2    0    0  0.14532734338E+03  0.23528536170E+03  0.29848088507E+03  0.98720124485E+03  0.89944217208E+03 0.  0.
         23    2    4    4    0    0  0.51426242943E+03  0.19085532739E+03  0.14201576124E+03  0.57399784399E+03  0.91724839349E+02 0.  0.
         23    2    4    4    0    0 -0.36893508604E+03  0.44430034312E+02  0.15646512383E+03  0.41320340086E+03  0.90380251415E+02 0.  0.
          1    1    3    3  502    0 -0.97627499209E+02 -0.10056406411E+03  0.97677509233E+02  0.17083663367E+03  0.00000000000E+00 0. -1.
         -1    1    3    3    0  502 -0.47699844176E+02 -0.13472129759E+03  0.26824002281E+02  0.14541193299E+03  0.00000000000E+00 0.  1.
         13    1    5    5    0    0  0.61176117436E+02 -0.58118463691E+01  0.63621170415E+01  0.61780024571E+02  0.00000000000E+00 0.  1.
        -13    1    5    5    0    0  0.45308631199E+03  0.19666717376E+03  0.13565364420E+03  0.51221781942E+03  0.00000000000E+00 0. -1.
          1    1    6    6  503    0 -0.16802793688E+03  0.33941197287E+02  0.11870506976E+03  0.20850967851E+03  0.00000000000E+00 0. -1.
         -1    1    6    6    0  503 -0.20090714916E+03  0.10488837026E+02  0.37760054069E+02  0.20469372235E+03  0.00000000000E+00 0.  1.
<mgrwt>
<rscale>  0 0.12329101E+04</rscale>
<asrwt>0</asrwt>
<pdfrwt beam="1">  1        2 0.13280248E+00 0.12329101E+04</pdfrwt>
<pdfrwt beam="2">  1       -2 0.67728263E-01 0.12329101E+04</pdfrwt>
<totfact> 0.61136018E+01</totfact>
</mgrwt>
</event>
<event>
12    3  0.8686020E-008  0.3265938E+04  0.7818608E-02  0.8171617E-01
          1   -1    0    0  501    0  0.00000000000E+00  0.00000000000E+00  0.17338613710E+04  0.17338613710E+04  0.00000000000E+00 0. -1.
         -1   -1    0    0    0  501 -0.00000000000E+00 -0.00000000000E+00 -0.15379470661E+04  0.15379470661E+04  0.00000000000E+00 0.  1.
         23    2    1    2    0    0  0.76361407621E+03 -0.77696681838E+03  0.11349642953E+04  0.15760925029E+04  0.95601945387E+02 0.  0.
        254    2    1    2    0    0 -0.76361407621E+03  0.77696681838E+03 -0.93904999040E+03  0.16957159341E+04  0.89825038291E+03 0.  0.
         23    2    4    4    0    0 -0.58619875914E+03  0.51875422443E+01 -0.25685838240E+03  0.64657193224E+03  0.91777661458E+02 0.  0.
         23    2    4    4    0    0 -0.17741531708E+03  0.77177927614E+03 -0.68219160800E+03  0.10491440019E+04  0.90544468555E+02 0.  0.
          1    1    3    3  502    0  0.41513187680E+03 -0.44373010766E+03  0.69732161875E+03  0.92492611789E+03  0.00000000000E+00 0. -1.
         -1    1    3    3    0  502  0.34848219941E+03 -0.33323671073E+03  0.43764267654E+03  0.65116638504E+03  0.00000000000E+00 0.  1.
         13    1    5    5    0    0 -0.27334979786E+03 -0.10275960575E+02 -0.71998653477E+02  0.28285952955E+03  0.00000000000E+00 0.  1.
        -13    1    5    5    0    0 -0.31284896128E+03  0.15463502819E+02 -0.18485972893E+03  0.36371240269E+03  0.00000000000E+00 0. -1.
          3    1    6    6  503    0 -0.96937587575E+02  0.56221738053E+03 -0.52283791378E+03  0.77385060764E+03  0.00000000000E+00 0. -1.
         -3    1    6    6    0  503 -0.80477729502E+02  0.20956189561E+03 -0.15935369422E+03  0.27529339422E+03  0.00000000000E+00 0.  1.
<mgrwt>
<rscale>  0 0.32659375E+04</rscale>
<asrwt>0</asrwt>
<pdfrwt beam="1">  1        1 0.26674790E+00 0.32659375E+04</pdfrwt>
<pdfrwt beam="2">  1       -1 0.23660724E+00 0.32659375E+04</pdfrwt>
<totfact> 0.32093494E-01</totfact>
</mgrwt>
</event>
<event>
12    3  0.8686020E-008  0.1150752E+04  0.7818608E-02  0.9157090E-01
         -2   -1    0    0    0  501 -0.00000000000E+00  0.00000000000E+00  0.37739232484E+03  0.37739232484E+03  0.00000000000E+00 0. -1.
          2   -1    0    0  501    0  0.00000000000E+00 -0.00000000000E+00 -0.87722356623E+03  0.87722356623E+03  0.00000000000E+00 0.  1.
         23    2    1    2    0    0  0.11078788586E+03 -0.10610932110E+03  0.53587943955E+02  0.18645307666E+03  0.91432698631E+02 0.  0.
        254    2    1    2    0    0 -0.11078788586E+03  0.10610932110E+03 -0.55341918535E+03  0.10681628144E+04  0.90064746694E+03 0.  0.
         23    2    4    4    0    0  0.34909670281E+03 -0.12280090292E+03 -0.30909314228E+03  0.49179980114E+03  0.96849905122E+02 0.  0.
         23    2    4    4    0    0 -0.45988458867E+03  0.22891022402E+03 -0.24432604307E+03  0.57636301328E+03  0.92765199267E+02 0.  0.
          1    1    3    3  502    0  0.37696955016E+02 -0.72840532083E+02  0.65895187904E+02  0.10520921690E+03  0.00000000000E+00 0. -1.
         -1    1    3    3    0  502  0.73090930844E+02 -0.33268789018E+02 -0.12307243949E+02  0.81243859756E+02  0.00000000000E+00 0.  1.
         13    1    5    5    0    0  0.24806268630E+03 -0.80947802534E+02 -0.27046672910E+03  0.37581896522E+03  0.00000000000E+00 0.  1.
        -13    1    5    5    0    0  0.10103401651E+03 -0.41853100384E+02 -0.38626413175E+02  0.11598083591E+03  0.00000000000E+00 0. -1.
          2    1    6    6  503    0 -0.29016598550E+03  0.18169723311E+03 -0.19234034448E+03  0.39268943425E+03  0.00000000000E+00 0. -1.
         -2    1    6    6    0  503 -0.16971860317E+03  0.47212990910E+02 -0.51985698588E+02  0.18367357902E+03  0.00000000000E+00 0.  1.
<mgrwt>
<rscale>  0 0.11507518E+04</rscale>
<asrwt>0</asrwt>
<pdfrwt beam="1">  1        2 0.13495747E+00 0.11507518E+04</pdfrwt>
<pdfrwt beam="2">  1       -2 0.58060358E-01 0.11507518E+04</pdfrwt>
<totfact> 0.83517235E+01</totfact>
</mgrwt>
</event>
<event>
12    3  0.8686020E-008  0.2060269E+04  0.7818608E-02  0.8578950E-01
         -1   -1    0    0    0  501 -0.00000000000E+00  0.00000000000E+00  0.38966224644E+03  0.38966224644E+03  0.00000000000E+00 0.  1.
          1   -1    0    0  501    0  0.00000000000E+00 -0.00000000000E+00 -0.27233253573E+04  0.27233253573E+04  0.00000000000E+00 0. -1.
         23    2    1    2    0    0 -0.28082965563E+03 -0.53541859315E+03 -0.18067311323E+04  0.19076903422E+04  0.97296925285E+02 0.  0.
        254    2    1    2    0    0  0.28082965563E+03  0.53541859315E+03 -0.52693197848E+03  0.12052972615E+04  0.89974763870E+03 0.  0.
         23    2    4    4    0    0  0.10047169961E+03 -0.20278491362E+03 -0.33862545358E+03  0.41702116647E+03  0.89572160062E+02 0.  0.
         23    2    4    4    0    0  0.18035795601E+03  0.73820350677E+03 -0.18830652490E+03  0.78827609507E+03  0.91904543000E+02 0.  0.
          1    1    3    3  502    0 -0.74098374060E+02 -0.97806071268E+02 -0.27065888591E+03  0.29717474512E+03  0.00000000000E+00 0. -1.
         -1    1    3    3    0  502 -0.20673128157E+03 -0.43761252188E+03 -0.15360722464E+04  0.16105155971E+04  0.00000000000E+00 0.  1.
         13    1    5    5    0    0  0.22721455792E+01 -0.49258313665E+02 -0.13513680399E+03  0.14385235453E+03  0.00000000000E+00 0. -1.
        -13    1    5    5    0    0  0.98199554035E+02 -0.15352659996E+03 -0.20348864958E+03  0.27316881194E+03  0.00000000000E+00 0.  1.
          2    1    6    6  503    0  0.53402102903E+02  0.10085931478E+03 -0.10979517281E+02  0.11465136621E+03  0.00000000000E+00 0. -1.
         -2    1    6    6    0  503  0.12695585311E+03  0.63734419199E+03 -0.17732700762E+03  0.67362472886E+03  0.00000000000E+00 0.  1.
<mgrwt>
<rscale>  0 0.20602690E+04</rscale>
<asrwt>0</asrwt>
<pdfrwt beam="1">  1        1 0.41897311E+00 0.20602690E+04</pdfrwt>
<pdfrwt beam="2">  1       -1 0.59948040E-01 0.20602690E+04</pdfrwt>
<totfact> 0.24618996E+00</totfact>
</mgrwt>
</event>
<event>
12    3  0.8686020E-008  0.1206844E+04  0.7818608E-02  0.9106887E-01
         -1   -1    0    0    0  501 -0.00000000000E+00  0.00000000000E+00  0.55593119184E+03  0.55593119184E+03  0.00000000000E+00 0.  1.
          1   -1    0    0  501    0  0.00000000000E+00 -0.00000000000E+00 -0.65496985886E+03  0.65496985886E+03  0.00000000000E+00 0. -1.
         23    2    1    2    0    0  0.20105739011E+03 -0.14650228856E+03  0.24998113895E+02  0.26588971746E+03  0.90473429710E+02 0.  0.
        254    2    1    2    0    0 -0.20105739011E+03  0.14650228856E+03 -0.12403678091E+03  0.94501133324E+03  0.90320224881E+03 0.  0.
         23    2    4    4    0    0 -0.39037834700E+03  0.64584767106E+02  0.27228328365E+03  0.48902484128E+03  0.91873080322E+02 0.  0.
         23    2    4    4    0    0  0.18932095689E+03  0.81917521453E+02 -0.39632006456E+03  0.45598649196E+03  0.91110823939E+02 0.  0.
          3    1    3    3  502    0  0.71796252977E+02 -0.98841025915E+02 -0.13328628368E+02  0.12288979892E+03  0.00000000000E+00 0. -1.
         -3    1    3    3    0  502  0.12926113713E+03 -0.47661262644E+02  0.38326742263E+02  0.14299991854E+03  0.00000000000E+00 0.  1.
         13    1    5    5    0    0 -0.61891174656E+02 -0.23148982854E+02  0.39790114457E+02  0.77133949179E+02  0.00000000000E+00 0. -1.
        -13    1    5    5    0    0 -0.32848717234E+03  0.87733749960E+02  0.23249316919E+03  0.41189089210E+03  0.00000000000E+00 0.  1.
          4    1    6    6  503    0  0.54040205099E+02  0.30093000936E+02 -0.46583495162E+02  0.77433548891E+02  0.00000000000E+00 0. -1.
         -4    1    6    6    0  503  0.13528075179E+03  0.51824520517E+02 -0.34973656939E+03  0.37855294307E+03  0.00000000000E+00 0.  1.
<mgrwt>
<rscale>  0 0.12068441E+04</rscale>
<asrwt>0</asrwt>
<pdfrwt beam="1">  1        1 0.10076459E+00 0.12068441E+04</pdfrwt>
<pdfrwt beam="2">  1       -1 0.85527875E-01 0.12068441E+04</pdfrwt>
<totfact> 0.40260854E+01</totfact>
</mgrwt>
</event>
<event>
12    3  0.8686020E-008  0.2436377E+04  0.7818608E-02  0.8426009E-01
         -1   -1    0    0    0  501 -0.00000000000E+00  0.00000000000E+00  0.56559520009E+03  0.56559520009E+03  0.00000000000E+00 0.  1.
          1   -1    0    0  501    0  0.00000000000E+00 -0.00000000000E+00 -0.26237539998E+04  0.26237539998E+04  0.00000000000E+00 0. -1.
         23    2    1    2    0    0  0.79161440349E+03  0.24093066000E+03 -0.17341588880E+04  0.19232527454E+04  0.83024858309E+02 0.  0.
        254    2    1    2    0    0 -0.79161440349E+03 -0.24093066000E+03 -0.32399991171E+03  0.12660964545E+04  0.90184441151E+03 0.  0.
         23    2    4    4    0    0 -0.18437908351E+03 -0.43820922514E+03 -0.38325741088E+03  0.61817460525E+03  0.96076158058E+02 0.  0.
         23    2    4    4    0    0 -0.60723531998E+03  0.19727856514E+03  0.59257499175E+02  0.64792184924E+03  0.92939256641E+02 0.  0.
          2    1    3    3  502    0  0.65071986819E+03  0.19152101251E+03 -0.14886412462E+04  0.16359001818E+04  0.00000000000E+00 0. -1.
         -2    1    3    3    0  502  0.14089453530E+03  0.49409647482E+02 -0.24551764185E+03  0.28735256359E+03  0.00000000000E+00 0.  1.
         13    1    5    5    0    0 -0.12508455006E+03 -0.19583423028E+03 -0.14983878199E+03  0.27649385346E+03  0.00000000000E+00 0. -1.
        -13    1    5    5    0    0 -0.59294533452E+02 -0.24237499486E+03 -0.23341862890E+03  0.34168075179E+03  0.00000000000E+00 0.  1.
          2    1    6    6  503    0 -0.19105640751E+03  0.10272575618E+03  0.40889646324E+02  0.22074214598E+03  0.00000000000E+00 0. -1.
         -2    1    6    6    0  503 -0.41617891247E+03  0.94552808963E+02  0.18367852851E+02  0.42717970327E+03  0.00000000000E+00 0.  1.
<mgrwt>
<rscale>  0 0.24363765E+04</rscale>
<asrwt>0</asrwt>
<pdfrwt beam="1">  1        1 0.40365447E+00 0.24363765E+04</pdfrwt>
<pdfrwt beam="2">  1       -1 0.87014645E-01 0.24363765E+04</pdfrwt>
<totfact> 0.12902414E+00</totfact>
</mgrwt>
</event>
<event>
12    3  0.8686020E-008  0.2554220E+04  0.7818608E-02  0.8383920E-01
          3   -1    0    0  501    0  0.00000000000E+00  0.00000000000E+00  0.14667307611E+04  0.14667307611E+04  0.00000000000E+00 0. -1.
         -3   -1    0    0    0  501 -0.00000000000E+00 -0.00000000000E+00 -0.11120032257E+04  0.11120032257E+04  0.00000000000E+00 0.  1.
         23    2    1    2    0    0  0.40335519652E+03 -0.94881301387E+03  0.58761397652E+03  0.11902598222E+04  0.92123335703E+02 0.  0.
        254    2    1    2    0    0 -0.40335519652E+03  0.94881301387E+03 -0.23288644106E+03  0.13884741647E+04  0.90037928771E+03 0.  0.
         23    2    4    4    0    0 -0.85416697421E+02  0.51096047294E+03  0.31498326013E+03  0.61302105313E+03  0.90574501418E+02 0.  0.
         23    2    4    4    0    0 -0.31793849910E+03  0.43785254093E+03 -0.54786970119E+03  0.77545311156E+03  0.91469021716E+02 0.  0.
          4    1    3    3  502    0  0.30658157848E+03 -0.67925597846E+03  0.38004555761E+03  0.83654980389E+03  0.00000000000E+00 0.  1.
         -4    1    3    3    0  502  0.96773618041E+02 -0.26955703541E+03  0.20756841891E+03  0.35371001826E+03  0.00000000000E+00 0. -1.
         13    1    5    5    0    0 -0.22575437292E+02  0.29215491939E+03  0.21966925948E+03  0.36622224244E+03  0.00000000000E+00 0.  1.
        -13    1    5    5    0    0 -0.62841260129E+02  0.21880555355E+03  0.95314000653E+02  0.24679881069E+03  0.00000000000E+00 0. -1.
          1    1    6    6  503    0 -0.21959310526E+02  0.54898473000E+01 -0.38741541038E+02  0.44869329661E+02  0.00000000000E+00 0. -1.
         -1    1    6    6    0  503 -0.29597918857E+03  0.43236269363E+03 -0.50912816016E+03  0.73058378190E+03  0.00000000000E+00 0.  1.
<mgrwt>
<rscale>  0 0.25542195E+04</rscale>
<asrwt>0</asrwt>
<pdfrwt beam="1">  1        3 0.22565089E+00 0.25542195E+04</pdfrwt>
<pdfrwt beam="2">  1       -3 0.17107742E+00 0.25542195E+04</pdfrwt>
<totfact> 0.53906098E-02</totfact>
</mgrwt>
</event>
<event>
12    3  0.8686020E-008  0.1640139E+04  0.7818608E-02  0.8796262E-01
          1   -1    0    0  501    0  0.00000000000E+00  0.00000000000E+00  0.28814852199E+03  0.28814852199E+03  0.00000000000E+00 0. -1.
         -1   -1    0    0    0  501 -0.00000000000E+00 -0.00000000000E+00 -0.23339141411E+04  0.23339141411E+04  0.00000000000E+00 0.  1.
         23    2    1    2    0    0  0.25405430296E+03  0.44462224257E+03 -0.31811674779E+03  0.60982325725E+03  0.91943528401E+02 0.  0.
        254    2    1    2    0    0 -0.25405430296E+03 -0.44462224257E+03 -0.17276488713E+04  0.20122394058E+04  0.89560274473E+03 0.  0.
         23    2    4    4    0    0 -0.47128348602E+03 -0.81347572368E+02 -0.13595705784E+04  0.14441787214E+04  0.92165449784E+02 0.  0.
         23    2    4    4    0    0  0.21722918306E+03 -0.36327467020E+03 -0.36807829295E+03  0.56806068440E+03  0.89745793448E+02 0.  0.
          3    1    3    3  502    0  0.42118409467E+02  0.47820219172E+02 -0.98466987643E+01  0.64480161711E+02  0.00000000000E+00 0. -1.
         -3    1    3    3    0  502  0.21193589350E+03  0.39680202340E+03 -0.30827004902E+03  0.54534309553E+03  0.00000000000E+00 0.  1.
         13    1    5    5    0    0 -0.13465847001E+03 -0.45396949990E+02 -0.51605941363E+03  0.53526732107E+03  0.00000000000E+00 0.  1.
        -13    1    5    5    0    0 -0.33662501602E+03 -0.35950622379E+02 -0.84351116474E+03  0.90891140036E+03  0.00000000000E+00 0. -1.
          1    1    6    6  503    0  0.22463275326E+03 -0.33785263456E+03 -0.33868220575E+03  0.52849778903E+03  0.00000000000E+00 0. -1.
         -1    1    6    6    0  503 -0.74035701990E+01 -0.25422035637E+02 -0.29396087202E+02  0.39562895374E+02  0.00000000000E+00 0.  1.
<mgrwt>
<rscale>  0 0.16401389E+04</rscale>
<asrwt>0</asrwt>
<pdfrwt beam="1">  1        1 0.44330544E-01 0.16401389E+04</pdfrwt>
<pdfrwt beam="2">  1       -1 0.35906370E+00 0.16401389E+04</pdfrwt>
<totfact> 0.12000085E+00</totfact>
</mgrwt>
</event>
<event>
12    3  0.8686020E-008  0.1293605E+04  0.7818608E-02  0.9034652E-01
          2   -1    0    0  501    0  0.00000000000E+00  0.00000000000E+00  0.95180543694E+03  0.95180543694E+03  0.00000000000E+00 0.  1.
         -2   -1    0    0    0  501 -0.00000000000E+00 -0.00000000000E+00 -0.43953655479E+03  0.43953655479E+03  0.00000000000E+00 0. -1.
         23    2    1    2    0    0  0.23540488017E+03  0.17794437137E+02 -0.10793634246E+03  0.27495866857E+03  0.90663751291E+02 0.  0.
        254    2    1    2    0    0 -0.23540488017E+03 -0.17794437137E+02  0.62020522461E+03  0.11163833232E+04  0.89773331452E+03 0.  0.
         23    2    4    4    0    0  0.83117826145E+02 -0.38975557062E+03  0.16309551088E+03  0.44033916390E+03  0.92089389949E+02 0.  0.
         23    2    4    4    0    0 -0.31852270632E+03  0.37196113348E+03  0.45710971373E+03  0.67604415927E+03  0.90964914324E+02 0.  0.
          3    1    3    3  502    0  0.50683838708E+02  0.19257969023E+02 -0.66210889060E+02  0.85578050382E+02  0.00000000000E+00 0. -1.
         -3    1    3    3    0  502  0.18472104146E+03 -0.14635318864E+01 -0.41725453400E+02  0.18938061819E+03  0.00000000000E+00 0.  1.
         13    1    5    5    0    0  0.28657701427E+02 -0.19738097985E+02  0.17991632799E+02  0.39173399315E+02  0.00000000000E+00 0.  1.
        -13    1    5    5    0    0  0.54460124718E+02 -0.37001747263E+03  0.14510387809E+03  0.40116576458E+03  0.00000000000E+00 0. -1.
          3    1    6    6  503    0 -0.26310557447E+03  0.28279329101E+03  0.30978668535E+03  0.49514076703E+03  0.00000000000E+00 0. -1.
         -3    1    6    6    0  503 -0.55417131851E+02  0.89167842472E+02  0.14732302837E+03  0.18090339224E+03  0.00000000000E+00 0.  1.
<mgrwt>
<rscale>  0 0.12936047E+04</rscale>
<asrwt>0</asrwt>
<pdfrwt beam="1">  1        2 0.14643161E+00 0.12936047E+04</pdfrwt>
<pdfrwt beam="2">  1       -2 0.67621008E-01 0.12936047E+04</pdfrwt>
<totfact> 0.53230797E+01</totfact>
</mgrwt>
</event>
<event>
12    3  0.1042999E-007  0.2779355E+04  0.7818608E-02  0.8309707E-01
          1   -1    0    0  501    0  0.00000000000E+00  0.00000000000E+00  0.20501399298E+04  0.20501399298E+04  0.00000000000E+00 0. -1.
         -1   -1    0    0    0  501 -0.00000000000E+00 -0.00000000000E+00 -0.94198639086E+03  0.94198639086E+03  0.00000000000E+00 0.  1.
         23    2    1    2    0    0 -0.43828152055E+03  0.11498228483E+04  0.54740580396E+03  0.13496729739E+04  0.88208551922E+02 0.  0.
        254    2    1    2    0    0  0.43828152055E+03 -0.11498228483E+04  0.56074773499E+03  0.16424533468E+04  0.93221869777E+03 0.  0.
         23    2    4    4    0    0 -0.22722396270E+02  0.10581196505E+03  0.21106386960E+03  0.25690715249E+03  0.98695738038E+02 0.  0.
         23    2    4    4    0    0  0.46100391682E+03 -0.12556348133E+04  0.34968386539E+03  0.13855461943E+04  0.91192407185E+02 0.  0.
          2    1    3    3  502    0 -0.16640253431E+03  0.34006418164E+03  0.19208364001E+03  0.42453454019E+03  0.00000000000E+00 0. -1.
         -2    1    3    3    0  502 -0.27187898624E+03  0.80975866661E+03  0.35532216395E+03  0.92513843370E+03  0.00000000000E+00 0.  1.
         13    1    5    5    0    0 -0.44780784356E+02  0.11408110207E+03  0.17008285982E+03  0.20963777260E+03  0.00000000000E+00 0. -1.
        -13    1    5    5    0    0  0.22058388086E+02 -0.82691370169E+01  0.40981009784E+02  0.47269379886E+02  0.00000000000E+00 0.  1.
          4    1    6    6  503    0  0.24508581222E+03 -0.68225378963E+03  0.14278461940E+03  0.73886719804E+03  0.00000000000E+00 0. -1.
         -4    1    6    6    0  503  0.21591810461E+03 -0.57338102368E+03  0.20689924599E+03  0.64667899626E+03  0.00000000000E+00 0.  1.
<mgrwt>
<rscale>  0 0.27793553E+04</rscale>
<asrwt>0</asrwt>
<pdfrwt beam="1">  1        1 0.31540614E+00 0.27793553E+04</pdfrwt>
<pdfrwt beam="2">  1       -1 0.14492098E+00 0.27793553E+04</pdfrwt>
<totfact> 0.91419423E-01</totfact>
</mgrwt>
</event>
<event>
12    3  0.8686020E-008  0.1821661E+04  0.7818608E-02  0.8694864E-01
          2   -1    0    0  501    0  0.00000000000E+00  0.00000000000E+00  0.80565397106E+03  0.80565397106E+03  0.00000000000E+00 0. -1.
         -2   -1    0    0    0  501 -0.00000000000E+00 -0.00000000000E+00 -0.10297380231E+04  0.10297380231E+04  0.00000000000E+00 0.  1.
         23    2    1    2    0    0  0.18384322971E+03 -0.65923744610E+03 -0.92697242750E+02  0.69658065489E+03  0.90771617240E+02 0.  0.
        254    2    1    2    0    0 -0.18384322971E+03  0.65923744610E+03 -0.13138680931E+03  0.11388113393E+04  0.90068664329E+03 0.  0.
         23    2    4    4    0    0 -0.50728549247E+03  0.19485415460E+03 -0.13626266434E+01  0.55162909626E+03  0.94794992754E+02 0.  0.
         23    2    4    4    0    0  0.32344226276E+03  0.46438329150E+03 -0.13002418267E+03  0.58718224304E+03  0.87235082915E+02 0.  0.
          2    1    3    3  502    0  0.97723571165E+02 -0.32875366434E+03 -0.10303791124E+01  0.34297219983E+03  0.00000000000E+00 0. -1.
         -2    1    3    3    0  502  0.86119658546E+02 -0.33048378177E+03 -0.91666863638E+02  0.35360845506E+03  0.00000000000E+00 0.  1.
         13    1    5    5    0    0 -0.28020424646E+02  0.37844349805E+02 -0.43782216632E+01  0.47291731142E+02  0.00000000000E+00 0.  1.
        -13    1    5    5    0    0 -0.47926506783E+03  0.15700980480E+03  0.30155950197E+01  0.50433736512E+03  0.00000000000E+00 0. -1.
          1    1    6    6  503    0  0.28433735163E+03  0.36884843719E+03 -0.13154317543E+03  0.48394266825E+03  0.00000000000E+00 0. -1.
         -1    1    6    6    0  503  0.39104911130E+02  0.95534854318E+02  0.15189927591E+01  0.10323957479E+03  0.00000000000E+00 0.  1.
<mgrwt>
<rscale>  0 0.18216614E+04</rscale>
<asrwt>0</asrwt>
<pdfrwt beam="1">  1        2 0.12394677E+00 0.18216614E+04</pdfrwt>
<pdfrwt beam="2">  1       -2 0.15842123E+00 0.18216614E+04</pdfrwt>
<totfact> 0.83186497E+00</totfact>
</mgrwt>
</event>
<event>
12    3  0.8686020E-008  0.1796419E+04  0.7818608E-02  0.8708206E-01
          1   -1    0    0  501    0  0.00000000000E+00  0.00000000000E+00  0.58083764157E+03  0.58083764157E+03  0.00000000000E+00 0. -1.
         -1   -1    0    0    0  501 -0.00000000000E+00 -0.00000000000E+00 -0.13889946332E+04  0.13889946332E+04  0.00000000000E+00 0.  1.
         23    2    1    2    0    0 -0.69172601644E+01 -0.56269514978E+03 -0.69786569921E+03  0.90135464480E+03  0.93541335778E+02 0.  0.
        254    2    1    2    0    0  0.69172601644E+01  0.56269514978E+03 -0.11029129242E+03  0.10684776300E+04  0.90155787196E+03 0.  0.
         23    2    4    4    0    0 -0.12744827757E+03  0.14113170576E+02 -0.39828781212E+03  0.42801372077E+03  0.90112811773E+02 0.  0.
         23    2    4    4    0    0  0.13436553773E+03  0.54858197920E+03  0.28799651970E+03  0.64046390919E+03  0.90861091710E+02 0.  0.
          1    1    3    3  502    0 -0.49357227682E+01 -0.34650708860E+03 -0.35564498291E+03  0.49656306516E+03  0.00000000000E+00 0. -1.
         -1    1    3    3    0  502 -0.19815373963E+01 -0.21618806118E+03 -0.34222071629E+03  0.40479157964E+03  0.00000000000E+00 0.  1.
         13    1    5    5    0    0 -0.20461160695E+02 -0.31826057603E+02 -0.68192014591E+02  0.77985305625E+02  0.00000000000E+00 0. -1.
        -13    1    5    5    0    0 -0.10698711688E+03  0.45939228179E+02 -0.33009579753E+03  0.35002841515E+03  0.00000000000E+00 0.  1.
          1    1    6    6  503    0  0.18771724718E+02  0.26261528778E+03  0.12182467664E+03  0.29010415175E+03  0.00000000000E+00 0. -1.
         -1    1    6    6    0  503  0.11559381302E+03  0.28596669142E+03  0.16617184306E+03  0.35035975744E+03  0.00000000000E+00 0.  1.
<mgrwt>
<rscale>  0 0.17964191E+04</rscale>
<asrwt>0</asrwt>
<pdfrwt beam="1">  1        1 0.89359638E-01 0.17964191E+04</pdfrwt>
<pdfrwt beam="2">  1       -1 0.21369148E+00 0.17964191E+04</pdfrwt>
<totfact> 0.41104399E+00</totfact>
</mgrwt>
</event>
<event>
12    3  0.8686020E-008  0.1358651E+04  0.7818608E-02  0.8984305E-01
         -1   -1    0    0    0  501 -0.00000000000E+00  0.00000000000E+00  0.20515344909E+03  0.20515344909E+03  0.00000000000E+00 0.  1.
          1   -1    0    0  501    0  0.00000000000E+00 -0.00000000000E+00 -0.22494544192E+04  0.22494544192E+04  0.00000000000E+00 0. -1.
         23    2    1    2    0    0  0.15665846174E+03  0.31218266548E+03 -0.79649172599E+03  0.87445203265E+03  0.90925230632E+02 0.  0.
        254    2    1    2    0    0 -0.15665846174E+03 -0.31218266548E+03 -0.12478092442E+04  0.15801558357E+04  0.90435870371E+03 0.  0.
         23    2    4    4    0    0 -0.44885762776E+03 -0.41845070127E+03 -0.64728280763E+03  0.89723067896E+03  0.97332927684E+02 0.  0.
         23    2    4    4    0    0  0.29219916601E+03  0.10626803579E+03 -0.60052643653E+03  0.68292515673E+03  0.95297012949E+02 0.  0.
          1    1    3    3  502    0  0.41004112678E+02  0.11511855139E+03 -0.18552496274E+03  0.22215564348E+03  0.00000000000E+00 0. -1.
         -1    1    3    3    0  502  0.11565434907E+03  0.19706411408E+03 -0.61096676325E+03  0.65229638916E+03  0.00000000000E+00 0.  1.
         13    1    5    5    0    0 -0.28847332766E+03 -0.21940224610E+03 -0.33366065145E+03  0.49262930961E+03  0.00000000000E+00 0. -1.
        -13    1    5    5    0    0 -0.16038430010E+03 -0.19904845517E+03 -0.31362215619E+03  0.40460136934E+03  0.00000000000E+00 0.  1.
          1    1    6    6  503    0  0.22091687774E+03  0.34971269818E+02 -0.43437130109E+03  0.48857515675E+03  0.00000000000E+00 0. -1.
         -1    1    6    6    0  503  0.71282288274E+02  0.71296765976E+02 -0.16615513544E+03  0.19434999998E+03  0.00000000000E+00 0.  1.
<mgrwt>
<rscale>  0 0.13586513E+04</rscale>
<asrwt>0</asrwt>
<pdfrwt beam="1">  1        1 0.34606990E+00 0.13586513E+04</pdfrwt>
<pdfrwt beam="2">  1       -1 0.31562070E-01 0.13586513E+04</pdfrwt>
<totfact> 0.18436466E+01</totfact>
</mgrwt>
</event>
<event>
12    3  0.8686020E-008  0.2569709E+04  0.7818608E-02  0.8378564E-01
         -2   -1    0    0    0  501 -0.00000000000E+00  0.00000000000E+00  0.46990775760E+03  0.46990775760E+03  0.00000000000E+00 0. -1.
          2   -1    0    0  501    0  0.00000000000E+00 -0.00000000000E+00 -0.35131383342E+04  0.35131383342E+04  0.00000000000E+00 0.  1.
         23    2    1    2    0    0  0.84377197250E+03 -0.57686253133E+03 -0.60681682564E+03  0.11921648822E+04  0.91153304525E+02 0.  0.
        254    2    1    2    0    0 -0.84377197250E+03  0.57686253133E+03 -0.24364137510E+04  0.27908812096E+04  0.89899078883E+03 0.  0.
         23    2    4    4    0    0  0.16536301793E+03  0.96804170292E+02 -0.63195144691E+03  0.66646771746E+03  0.90003400333E+02 0.  0.
         23    2    4    4    0    0 -0.10091349904E+04  0.48005836104E+03 -0.18044623041E+04  0.21244134921E+04  0.90769046605E+02 0.  0.
          4    1    3    3  502    0  0.21442932852E+03 -0.15701562890E+03 -0.11343850633E+03  0.28896736730E+03  0.00000000000E+00 0. -1.
         -4    1    3    3    0  502  0.62934264398E+03 -0.41984690243E+03 -0.49337831931E+03  0.90319751493E+03  0.00000000000E+00 0.  1.
         13    1    5    5    0    0  0.14724361091E+03  0.11438474567E+03 -0.55631574786E+03  0.58672971828E+03  0.00000000000E+00 0. -1.
        -13    1    5    5    0    0  0.18119407021E+02 -0.17580575379E+02 -0.75635699058E+02  0.79737999181E+02  0.00000000000E+00 0.  1.
          4    1    6    6  503    0 -0.14872439081E+03  0.10600234017E+03 -0.31384910510E+03  0.36312078062E+03  0.00000000000E+00 0.  1.
         -4    1    6    6    0  503 -0.86041059962E+03  0.37405602086E+03 -0.14906131990E+04  0.17612927115E+04  0.00000000000E+00 0. -1.
<mgrwt>
<rscale>  0 0.25697089E+04</rscale>
<asrwt>0</asrwt>
<pdfrwt beam="1">  1        2 0.54048281E+00 0.25697089E+04</pdfrwt>
<pdfrwt beam="2">  1       -2 0.72293503E-01 0.25697089E+04</pdfrwt>
<totfact> 0.12235184E+00</totfact>
</mgrwt>
</event>
<event>
12    3  0.8686020E-008  0.1683412E+04  0.7818608E-02  0.8770882E-01
          2   -1    0    0  501    0  0.00000000000E+00  0.00000000000E+00  0.95286575772E+03  0.95286575772E+03  0.00000000000E+00 0.  1.
         -2   -1    0    0    0  501 -0.00000000000E+00 -0.00000000000E+00 -0.74351368318E+03  0.74351368318E+03  0.00000000000E+00 0. -1.
         23    2    1    2    0    0 -0.20796777398E+02 -0.50275064206E+03  0.39958620056E+03  0.64905200958E+03  0.91698775446E+02 0.  0.
        254    2    1    2    0    0  0.20796777398E+02  0.50275064206E+03 -0.19023412603E+03  0.10473274313E+04  0.89861839045E+03 0.  0.
         23    2    4    4    0    0  0.23039039425E+03  0.19478004106E+03  0.29329057410E+03  0.43000005744E+03  0.88666173809E+02 0.  0.
         23    2    4    4    0    0 -0.20959361686E+03  0.30797060100E+03 -0.48352470014E+03  0.61732737388E+03  0.92312380508E+02 0.  0.
          3    1    3    3  502    0  0.35358802877E+02 -0.25266104432E+03  0.19593396535E+03  0.32167991394E+03  0.00000000000E+00 0. -1.
         -3    1    3    3    0  502 -0.56155580275E+02 -0.25008959774E+03  0.20365223522E+03  0.32737209564E+03  0.00000000000E+00 0.  1.
         13    1    5    5    0    0  0.12761710459E+03  0.12361343256E+03  0.22774658920E+03  0.28885102559E+03  0.00000000000E+00 0.  1.
        -13    1    5    5    0    0  0.10277328967E+03  0.71166608499E+02  0.65543984907E+02  0.14114903185E+03  0.00000000000E+00 0. -1.
          2    1    6    6  503    0 -0.11233419182E+03  0.87100342835E+02 -0.19133168524E+03  0.23835531072E+03  0.00000000000E+00 0. -1.
         -2    1    6    6    0  503 -0.97259425040E+02  0.22087025817E+03 -0.29219301490E+03  0.37897206316E+03  0.00000000000E+00 0.  1.
<mgrwt>
<rscale>  0 0.16834117E+04</rscale>
<asrwt>0</asrwt>
<pdfrwt beam="1">  1        2 0.14659473E+00 0.16834117E+04</pdfrwt>
<pdfrwt beam="2">  1       -2 0.11438672E+00 0.16834117E+04</pdfrwt>
<totfact> 0.15387794E+01</totfact>
</mgrwt>
</event>
<event>
12    3  0.8686020E-008  0.3538409E+04  0.7818608E-02  0.8104747E-01
         -1   -1    0    0    0  501 -0.00000000000E+00  0.00000000000E+00  0.14476426142E+04  0.14476426142E+04  0.00000000000E+00 0.  1.
          1   -1    0    0  501    0  0.00000000000E+00 -0.00000000000E+00 -0.21621938161E+04  0.21621938161E+04  0.00000000000E+00 0. -1.
         23    2    1    2    0    0  0.12293512773E+03  0.15832822995E+04  0.13628942641E+03  0.15964912274E+04  0.91178647956E+02 0.  0.
        254    2    1    2    0    0 -0.12293512773E+03 -0.15832822995E+04 -0.85084062831E+03  0.20133452029E+04  0.89873980975E+03 0.  0.
         23    2    4    4    0    0 -0.28289495140E+03 -0.15562579351E+04 -0.58511882210E+03  0.16890847158E+04  0.93138751809E+02 0.  0.
         23    2    4    4    0    0  0.15995982367E+03 -0.27024364401E+02 -0.26572180622E+03  0.32426048708E+03  0.90660486007E+02 0.  0.
          2    1    3    3  502    0  0.18736685884E+02  0.23619858512E+03 -0.12162550929E+02  0.23725252929E+03  0.00000000000E+00 0. -1.
         -2    1    3    3    0  502  0.10419844185E+03  0.13470837144E+04  0.14845197734E+03  0.13592386981E+04  0.00000000000E+00 0.  1.
         13    1    5    5    0    0 -0.10307029671E+03 -0.66445756811E+03 -0.29423189545E+03  0.73396168441E+03  0.00000000000E+00 0.  1.
        -13    1    5    5    0    0 -0.17982465469E+03 -0.89180036700E+03 -0.29088692665E+03  0.95512303140E+03  0.00000000000E+00 0. -1.
          3    1    6    6  503    0  0.16014063381E+03 -0.34336791633E+02 -0.20169437306E+03  0.25981658527E+03  0.00000000000E+00 0. -1.
         -3    1    6    6    0  503 -0.18081013817E+00  0.73124272326E+01 -0.64027433155E+02  0.64443901812E+02  0.00000000000E+00 0.  1.
<mgrwt>
<rscale>  0 0.35384086E+04</rscale>
<asrwt>0</asrwt>
<pdfrwt beam="1">  1        1 0.33264520E+00 0.35384086E+04</pdfrwt>
<pdfrwt beam="2">  1       -1 0.22271425E+00 0.35384086E+04</pdfrwt>
<totfact> 0.19842875E-01</totfact>
</mgrwt>
</event>
<event>
12    3  0.8686020E-008  0.1484230E+04  0.7818608E-02  0.8895008E-01
         -1   -1    0    0    0  501 -0.00000000000E+00  0.00000000000E+00  0.41901818578E+03  0.41901818578E+03  0.00000000000E+00 0.  1.
          1   -1    0    0  501    0  0.00000000000E+00 -0.00000000000E+00 -0.13143458741E+04  0.13143458741E+04  0.00000000000E+00 0. -1.
         23    2    1    2    0    0  0.63857615306E+02  0.36558627885E+03  0.48412774219E+02  0.38530632760E+03  0.91575362799E+02 0.  0.
        254    2    1    2    0    0 -0.63857615306E+02 -0.36558627885E+03 -0.94374046256E+03  0.13480577323E+04  0.88819055759E+03 0.  0.
         23    2    4    4    0    0 -0.22191877124E+03 -0.16062430257E+02  0.78227631630E+02  0.25280210459E+03  0.91013180580E+02 0.  0.
         23    2    4    4    0    0  0.15806115593E+03 -0.34952384859E+03 -0.10219680942E+04  0.10952556277E+04  0.89531305866E+02 0.  0.
          1    1    3    3  502    0  0.68306920137E+02  0.13206150971E+03  0.17921843036E+02  0.14975737092E+03  0.00000000000E+00 0.  1.
         -1    1    3    3    0  502 -0.44493048311E+01  0.23352476913E+03  0.30490931183E+02  0.23554895669E+03  0.00000000000E+00 0. -1.
         13    1    5    5    0    0 -0.18226008897E+03 -0.47931403131E+02  0.51676817967E+02  0.19541405516E+03  0.00000000000E+00 0.  1.
        -13    1    5    5    0    0 -0.39658682268E+02  0.31868972874E+02  0.26550813663E+02  0.57388049431E+02  0.00000000000E+00 0. -1.
          4    1    6    6  503    0  0.71319455346E+02 -0.85773456042E+02 -0.22151844855E+03  0.24802010709E+03  0.00000000000E+00 0. -1.
         -4    1    6    6    0  503  0.86741700585E+02 -0.26375039255E+03 -0.80044964563E+03  0.84723552061E+03  0.00000000000E+00 0.  1.
<mgrwt>
<rscale>  0 0.14842302E+04</rscale>
<asrwt>0</asrwt>
<pdfrwt beam="1">  1        1 0.20220705E+00 0.14842302E+04</pdfrwt>
<pdfrwt beam="2">  1       -1 0.64464338E-01 0.14842302E+04</pdfrwt>
<totfact> 0.20879331E+01</totfact>
</mgrwt>
</event>
<event>
12    3  0.8686020E-008  0.3016105E+04  0.7818608E-02  0.8239147E-01
         -1   -1    0    0    0  501 -0.00000000000E+00  0.00000000000E+00  0.11813202775E+04  0.11813202775E+04  0.00000000000E+00 0.  1.
          1   -1    0    0  501    0  0.00000000000E+00 -0.00000000000E+00 -0.19251534455E+04  0.19251534455E+04  0.00000000000E+00 0. -1.
         23    2    1    2    0    0 -0.79679749743E+03  0.93014925748E+03 -0.97468047845E+03  0.15677343738E+04  0.87892766946E+02 0.  0.
        254    2    1    2    0    0  0.79679749743E+03 -0.93014925748E+03  0.23084731051E+03  0.15387393493E+04  0.90242141546E+03 0.  0.
         23    2    4    4    0    0 -0.13073684937E+02 -0.31083065668E+03 -0.24844360245E+03  0.40852976371E+03  0.91573609008E+02 0.  0.
         23    2    4    4    0    0  0.80987118236E+03 -0.61931860080E+03  0.47929091296E+03  0.11302095855E+04  0.90592862287E+02 0.  0.
          2    1    3    3  502    0 -0.67417934340E+03  0.80369461719E+03 -0.79605639838E+03  0.13168707659E+04  0.00000000000E+00 0.  1.
         -2    1    3    3    0  502 -0.12261815403E+03  0.12645464029E+03 -0.17862408007E+03  0.25086360782E+03  0.00000000000E+00 0. -1.
         13    1    5    5    0    0  0.32209097020E+02 -0.97435949457E+02 -0.10855730706E+03  0.14938500291E+03  0.00000000000E+00 0. -1.
        -13    1    5    5    0    0 -0.45282781957E+02 -0.21339470722E+03 -0.13988629539E+03  0.25914476080E+03  0.00000000000E+00 0.  1.
          3    1    6    6  503    0  0.34152008577E+03 -0.31614385050E+03  0.23045719473E+03  0.51932015347E+03  0.00000000000E+00 0. -1.
         -3    1    6    6    0  503  0.46835109659E+03 -0.30317475029E+03  0.24883371822E+03  0.61088943208E+03  0.00000000000E+00 0.  1.
<mgrwt>
<rscale>  0 0.30161053E+04</rscale>
<asrwt>0</asrwt>
<pdfrwt beam="1">  1        1 0.29617745E+00 0.30161053E+04</pdfrwt>
<pdfrwt beam="2">  1       -1 0.18174158E+00 0.30161053E+04</pdfrwt>
<totfact> 0.57568511E-01</totfact>
</mgrwt>
</event>
<event>
12    3  0.8686020E-008  0.1338262E+04  0.7818608E-02  0.8999761E-01
         -1   -1    0    0    0  501 -0.00000000000E+00  0.00000000000E+00  0.34565949598E+03  0.34565949598E+03  0.00000000000E+00 0.  1.
          1   -1    0    0  501    0  0.00000000000E+00 -0.00000000000E+00 -0.12953103425E+04  0.12953103425E+04  0.00000000000E+00 0. -1.
         23    2    1    2    0    0  0.16632459967E+03 -0.31285693817E+03 -0.22933513047E+03  0.43154069425E+03  0.89941272540E+02 0.  0.
        254    2    1    2    0    0 -0.16632459967E+03  0.31285693817E+03 -0.72031571603E+03  0.12094291442E+04  0.90461084887E+03 0.  0.
         23    2    4    4    0    0  0.79766241470E+02 -0.22213151500E+03  0.23193551509E+02  0.25635730265E+03  0.97345069483E+02 0.  0.
         23    2    4    4    0    0 -0.24609084114E+03  0.53498845318E+03 -0.74350926754E+03  0.95307184157E+03  0.93629894493E+02 0.  0.
          4    1    3    3  502    0  0.17617781977E+03 -0.30412799680E+03 -0.22632398044E+03  0.41803708776E+03  0.00000000000E+00 0. -1.
         -4    1    3    3    0  502 -0.98532200994E+01 -0.87289413716E+01 -0.30111500301E+01  0.13503606492E+02  0.00000000000E+00 0.  1.
         13    1    5    5    0    0  0.29609246272E+02 -0.30505900759E+02 -0.29065261662E+02  0.51498610481E+02  0.00000000000E+00 0.  1.
        -13    1    5    5    0    0  0.50156995198E+02 -0.19162561425E+03  0.52258813172E+02  0.20485869217E+03  0.00000000000E+00 0. -1.
          3    1    6    6  503    0 -0.10691756920E+03  0.29787662833E+03 -0.33694008289E+03  0.46226666738E+03  0.00000000000E+00 0. -1.
         -3    1    6    6    0  503 -0.13917327194E+03  0.23711182485E+03 -0.40656918465E+03  0.49080517419E+03  0.00000000000E+00 0.  1.
<mgrwt>
<rscale>  0 0.13382620E+04</rscale>
<asrwt>0</asrwt>
<pdfrwt beam="1">  1        1 0.19927851E+00 0.13382620E+04</pdfrwt>
<pdfrwt beam="2">  1       -1 0.53178384E-01 0.13382620E+04</pdfrwt>
<totfact> 0.31845346E+01</totfact>
</mgrwt>
</event>
<event>
12    3  0.8686020E-008  0.1559092E+04  0.7818608E-02  0.8846081E-01
         -2   -1    0    0    0  501 -0.00000000000E+00  0.00000000000E+00  0.33246292311E+03  0.33246292311E+03  0.00000000000E+00 0.  1.
          2   -1    0    0  501    0  0.00000000000E+00 -0.00000000000E+00 -0.18278495461E+04  0.18278495461E+04  0.00000000000E+00 0. -1.
         23    2    1    2    0    0  0.39395449675E+03  0.98610842652E+02 -0.93522975444E+03  0.10241943037E+04  0.96927985530E+02 0.  0.
        254    2    1    2    0    0 -0.39395449675E+03 -0.98610842652E+02 -0.56015686850E+03  0.11361181654E+04  0.90114622826E+03 0.  0.
         23    2    4    4    0    0 -0.49967494242E+03  0.15505464644E+02 -0.72967755403E+03  0.88929530300E+03  0.92202687367E+02 0.  0.
         23    2    4    4    0    0  0.10572044568E+03 -0.11411630730E+03  0.16952068553E+03  0.24682286244E+03  0.89358370485E+02 0.  0.
          4    1    3    3  502    0  0.13851719912E+03 -0.12150610617E+02 -0.31893603226E+03  0.34792936706E+03  0.00000000000E+00 0. -1.
         -4    1    3    3    0  502  0.25543729763E+03  0.11076145327E+03 -0.61629372218E+03  0.67626493666E+03  0.00000000000E+00 0.  1.
         13    1    5    5    0    0 -0.27540804221E+03  0.19835019173E+02 -0.47920743520E+03  0.55306670814E+03  0.00000000000E+00 0.  1.
        -13    1    5    5    0    0 -0.22426690022E+03 -0.43295545292E+01 -0.25047011883E+03  0.33622859486E+03  0.00000000000E+00 0. -1.
          4    1    6    6  503    0  0.95259309051E+02 -0.11368718651E+03  0.10565488522E+03  0.18210454994E+03  0.00000000000E+00 0. -1.
         -4    1    6    6    0  503  0.10461136624E+02 -0.42912078996E+00  0.63865800309E+02  0.64718312503E+02  0.00000000000E+00 0.  1.
<mgrwt>
<rscale>  0 0.15590923E+04</rscale>
<asrwt>0</asrwt>
<pdfrwt beam="1">  1        2 0.28120762E+00 0.15590923E+04</pdfrwt>
<pdfrwt beam="2">  1       -2 0.51148142E-01 0.15590923E+04</pdfrwt>
<totfact> 0.28933963E+01</totfact>
</mgrwt>
</event>
<event>
12    3  0.8686020E-008  0.2885421E+04  0.7818608E-02  0.8277228E-01
          2   -1    0    0  501    0  0.00000000000E+00  0.00000000000E+00  0.32042997138E+04  0.32042997138E+04  0.00000000000E+00 0. -1.
         -2   -1    0    0    0  501 -0.00000000000E+00 -0.00000000000E+00 -0.64956890491E+03  0.64956890491E+03  0.00000000000E+00 0.  1.
         23    2    1    2    0    0  0.11270983911E+04  0.26187384371E+03  0.36148626587E+03  0.12156418757E+04  0.90466327141E+02 0.  0.
        254    2    1    2    0    0 -0.11270983911E+04 -0.26187384371E+03  0.21932445430E+04  0.26382267430E+04  0.90054984785E+03 0.  0.
         23    2    4    4    0    0 -0.43282757950E+03  0.38235359235E+02  0.16834752241E+03  0.47474485780E+03  0.90775191743E+02 0.  0.
         23    2    4    4    0    0 -0.69427081163E+03 -0.30010920295E+03  0.20248970206E+04  0.21634818852E+04  0.91479121985E+02 0.  0.
          1    1    3    3  502    0  0.47668642262E+03  0.84268361184E+02  0.18932323207E+03  0.51978302051E+03  0.00000000000E+00 0. -1.
         -1    1    3    3    0  502  0.65041196851E+03  0.17760548253E+03  0.17216303379E+03  0.69585885523E+03  0.00000000000E+00 0.  1.
         13    1    5    5    0    0 -0.41403729195E+03  0.22324374451E+02  0.17369336184E+03  0.44954937523E+03  0.00000000000E+00 0.  1.
        -13    1    5    5    0    0 -0.18790287543E+02  0.15910984784E+02 -0.53458394260E+01  0.25195482570E+02  0.00000000000E+00 0. -1.
          3    1    6    6  503    0 -0.26391973241E+02 -0.43158272204E+01  0.12890576333E+03  0.13165051628E+03  0.00000000000E+00 0. -1.
         -3    1    6    6    0  503 -0.66787883839E+03 -0.29579337573E+03  0.18959912573E+04  0.20318313689E+04  0.00000000000E+00 0.  1.
<mgrwt>
<rscale>  0 0.28854209E+04</rscale>
<asrwt>0</asrwt>
<pdfrwt beam="1">  1        2 0.49296918E+00 0.28854209E+04</pdfrwt>
<pdfrwt beam="2">  1       -2 0.99933680E-01 0.28854209E+04</pdfrwt>
<totfact> 0.92056249E-01</totfact>
</mgrwt>
</event>
<event>
12    3  0.8686020E-008  0.1935935E+04  0.7818608E-02  0.8637173E-01
          1   -1    0    0  501    0  0.00000000000E+00  0.00000000000E+00  0.91822096477E+03  0.91822096477E+03  0.00000000000E+00 0. -1.
         -1   -1    0    0    0  501 -0.00000000000E+00 -0.00000000000E+00 -0.10204091513E+04  0.10204091513E+04  0.00000000000E+00 0.  1.
         23    2    1    2    0    0 -0.60526534119E+03 -0.44502549077E+03 -0.13084096526E+03  0.76621031187E+03  0.74599350829E+02 0.  0.
        254    2    1    2    0    0  0.60526534119E+03  0.44502549077E+03  0.28652778748E+02  0.11724198042E+04  0.89964070317E+03 0.  0.
         23    2    4    4    0    0  0.45603618345E+03 -0.17911527697E+03 -0.10817139980E+03  0.50990075476E+03  0.90809938387E+02 0.  0.
         23    2    4    4    0    0  0.14922915775E+03  0.62414076774E+03  0.13682417855E+03  0.66251904941E+03  0.91594735244E+02 0.  0.
          1    1    3    3  502    0 -0.46524404698E+03 -0.32087518858E+03 -0.70273404621E+02  0.56951844684E+03  0.00000000000E+00 0. -1.
         -1    1    3    3    0  502 -0.14002129421E+03 -0.12415030219E+03 -0.60567560638E+02  0.19669186503E+03  0.00000000000E+00 0.  1.
         13    1    5    5    0    0  0.30206083656E+03 -0.16280015440E+03 -0.66077905744E+02  0.34944374208E+03  0.00000000000E+00 0.  1.
        -13    1    5    5    0    0  0.15397534689E+03 -0.16315122574E+02 -0.42093494056E+02  0.16045701267E+03  0.00000000000E+00 0. -1.
          4    1    6    6  503    0  0.13237150666E+03  0.60531546479E+03  0.14423242682E+03  0.63618552375E+03  0.00000000000E+00 0. -1.
         -4    1    6    6    0  503  0.16857651087E+02  0.18825302956E+02 -0.74082482682E+01  0.26333525665E+02  0.00000000000E+00 0.  1.
<mgrwt>
<rscale>  0 0.19359350E+04</rscale>
<asrwt>0</asrwt>
<pdfrwt beam="1">  1        1 0.14126476E+00 0.19359350E+04</pdfrwt>
<pdfrwt beam="2">  1       -1 0.15698602E+00 0.19359350E+04</pdfrwt>
<totfact> 0.50535255E+00</totfact>
</mgrwt>
</event>
<event>
12    3  0.8686020E-008  0.2087862E+04  0.7818608E-02  0.8566609E-01
          2   -1    0    0  501    0  0.00000000000E+00  0.00000000000E+00  0.18031714733E+04  0.18031714733E+04  0.00000000000E+00 0. -1.
         -2   -1    0    0    0  501 -0.00000000000E+00 -0.00000000000E+00 -0.60437525601E+03  0.60437525601E+03  0.00000000000E+00 0.  1.
         23    2    1    2    0    0 -0.84789424787E+02  0.84252638315E+03  0.50638351431E+03  0.99086483209E+03  0.91372310048E+02 0.  0.
        254    2    1    2    0    0  0.84789424787E+02 -0.84252638315E+03  0.69241270302E+03  0.14166818973E+04  0.90028456272E+03 0.  0.
         23    2    4    4    0    0  0.36154351179E+03 -0.25532441167E+03  0.60572669237E+03  0.75539807772E+03  0.88414726436E+02 0.  0.
         23    2    4    4    0    0 -0.27675408700E+03 -0.58720197148E+03  0.86686010650E+02  0.66128381955E+03  0.91557880988E+02 0.  0.
          2    1    3    3  502    0 -0.10157732815E+02  0.48709997792E+03  0.26278570878E+03  0.55355749184E+03  0.00000000000E+00 0. -1.
         -2    1    3    3    0  502 -0.74631691972E+02  0.35542640523E+03  0.24359780553E+03  0.43730734025E+03  0.00000000000E+00 0.  1.
         13    1    5    5    0    0  0.22903733228E+03 -0.20922221465E+03  0.39526308474E+03  0.50245889468E+03  0.00000000000E+00 0. -1.
        -13    1    5    5    0    0  0.13250617952E+03 -0.46102197019E+02  0.21046360763E+03  0.25293918304E+03  0.00000000000E+00 0.  1.
          1    1    6    6  503    0 -0.39781201744E+02 -0.16546649054E+03  0.43208482035E+02  0.17558096828E+03  0.00000000000E+00 0. -1.
         -1    1    6    6    0  503 -0.23697288526E+03 -0.42173548094E+03  0.43477528615E+02  0.48570285127E+03  0.00000000000E+00 0.  1.
<mgrwt>
<rscale>  0 0.20878623E+04</rscale>
<asrwt>0</asrwt>
<pdfrwt beam="1">  1        2 0.27741099E+00 0.20878623E+04</pdfrwt>
<pdfrwt beam="2">  1       -2 0.92980809E-01 0.20878623E+04</pdfrwt>
<totfact> 0.77681304E+00</totfact>
</mgrwt>
</event>
<event>
12    3  0.8686020E-008  0.1583871E+04  0.7818608E-02  0.8830518E-01
          2   -1    0    0  501    0  0.00000000000E+00  0.00000000000E+00  0.17610395739E+04  0.17610395739E+04  0.00000000000E+00 0. -1.
         -2   -1    0    0    0  501 -0.00000000000E+00 -0.00000000000E+00 -0.35613173575E+03  0.35613173575E+03  0.00000000000E+00 0.  1.
         23    2    1    2    0    0  0.36672080073E+03 -0.37671625582E+03  0.38391607357E+03  0.65720106700E+03  0.90124401976E+02 0.  0.
        254    2    1    2    0    0 -0.36672080073E+03  0.37671625582E+03  0.10209917646E+04  0.14599702427E+04  0.90149300774E+03 0.  0.
         23    2    4    4    0    0 -0.16049775916E+03  0.56232543534E+03  0.26269627215E+03  0.64744442333E+03  0.90584347287E+02 0.  0.
         23    2    4    4    0    0 -0.20622304158E+03 -0.18560917952E+03  0.75829549245E+03  0.81252581934E+03  0.90594938211E+02 0.  0.
          3    1    3    3  502    0  0.25405181775E+03 -0.30462524377E+03  0.31625631522E+03  0.50730357988E+03  0.00000000000E+00 0. -1.
         -3    1    3    3    0  502  0.11266898298E+03 -0.72091012056E+02  0.67659758348E+02  0.14989748712E+03  0.00000000000E+00 0.  1.
         13    1    5    5    0    0 -0.17717219660E+02  0.21602873040E+03  0.10816638670E+03  0.24224425574E+03  0.00000000000E+00 0.  1.
        -13    1    5    5    0    0 -0.14278053950E+03  0.34629670494E+03  0.15452988546E+03  0.40520016758E+03  0.00000000000E+00 0. -1.
          1    1    6    6  503    0 -0.16634269430E+03 -0.18385108494E+03  0.69275172439E+03  0.73578262077E+03  0.00000000000E+00 0. -1.
         -1    1    6    6    0  503 -0.39880347278E+02 -0.17580945715E+01  0.65543768059E+02  0.76743198571E+02  0.00000000000E+00 0.  1.
<mgrwt>
<rscale>  0 0.15838713E+04</rscale>
<asrwt>0</asrwt>
<pdfrwt beam="1">  1        2 0.27092916E+00 0.15838713E+04</pdfrwt>
<pdfrwt beam="2">  1       -2 0.54789499E-01 0.15838713E+04</pdfrwt>
<totfact> 0.27286934E+01</totfact>
</mgrwt>
</event>
<event>
12    3  0.8686020E-008  0.1742647E+04  0.7818608E-02  0.8737408E-01
         -2   -1    0    0    0  501 -0.00000000000E+00  0.00000000000E+00  0.49054083282E+03  0.49054083282E+03  0.00000000000E+00 0. -1.
          2   -1    0    0  501    0  0.00000000000E+00 -0.00000000000E+00 -0.15476887480E+04  0.15476887480E+04  0.00000000000E+00 0.  1.
         23    2    1    2    0    0  0.63407090974E+03 -0.92514728310E+01 -0.42080643320E+03  0.76683566184E+03  0.93954083018E+02 0.  0.
        254    2    1    2    0    0 -0.63407090974E+03  0.92514728310E+01 -0.63634148197E+03  0.12713939190E+04  0.89965577151E+03 0.  0.
         23    2    4    4    0    0 -0.85073525311E+03 -0.24637236798E+02 -0.55578469747E+03  0.10206237868E+04  0.91754127575E+02 0.  0.
         23    2    4    4    0    0  0.21666434337E+03  0.33888709629E+02 -0.80556784500E+02  0.25077013217E+03  0.91128378303E+02 0.  0.
          1    1    3    3  502    0  0.96757278220E+02  0.76340395173E+01 -0.27933435009E+02  0.10099765462E+03  0.00000000000E+00 0. -1.
         -1    1    3    3    0  502  0.53731363152E+03 -0.16885512348E+02 -0.39287299819E+03  0.66583800721E+03  0.00000000000E+00 0.  1.
         13    1    5    5    0    0 -0.30659366342E+03  0.58087536188E+01 -0.25044494974E+03  0.39592434747E+03  0.00000000000E+00 0. -1.
        -13    1    5    5    0    0 -0.54414158969E+03 -0.30445990417E+02 -0.30533974773E+03  0.62469943934E+03  0.00000000000E+00 0.  1.
          2    1    6    6  503    0 -0.56434474257E+01 -0.34419184545E+00 -0.15686647525E+02  0.16674467831E+02  0.00000000000E+00 0. -1.
         -2    1    6    6    0  503  0.22230779080E+03  0.34232901475E+02 -0.64870136975E+02  0.23409566434E+03  0.00000000000E+00 0.  1.
<mgrwt>
<rscale>  0 0.17426469E+04</rscale>
<asrwt>0</asrwt>
<pdfrwt beam="1">  1        2 0.23810596E+00 0.17426469E+04</pdfrwt>
<pdfrwt beam="2">  1       -2 0.75467822E-01 0.17426469E+04</pdfrwt>
<totfact> 0.17820287E+01</totfact>
</mgrwt>
</event>
<event>
12    3  0.8686020E-008  0.5868317E+04  0.7818608E-02  0.7706947E-01
         -2   -1    0    0    0  501 -0.00000000000E+00  0.00000000000E+00  0.20356526547E+04  0.20356526547E+04  0.00000000000E+00 0.  1.
          2   -1    0    0  501    0  0.00000000000E+00 -0.00000000000E+00 -0.42292510768E+04  0.42292510768E+04  0.00000000000E+00 0. -1.
         23    2    1    2    0    0  0.77444133883E+03 -0.25312713902E+04 -0.22392169259E+04  0.34683681424E+04  0.91601809980E+02 0.  0.
        254    2    1    2    0    0 -0.77444133883E+03  0.25312713902E+04  0.45618503867E+02  0.27965355891E+04  0.90079743300E+03 0.  0.
         23    2    4    4    0    0 -0.10159761805E+02  0.10355574938E+04  0.32984719196E+03  0.10907756690E+04  0.92248828379E+02 0.  0.
         23    2    4    4    0    0 -0.76428157702E+03  0.14957138964E+04 -0.28422868809E+03  0.17057599201E+04  0.86859479196E+02 0.  0.
          2    1    3    3  502    0  0.36074587677E+03 -0.10443049083E+04 -0.96307794929E+03  0.14656839583E+04  0.00000000000E+00 0. -1.
         -2    1    3    3    0  502  0.41369546206E+03 -0.14869664818E+04 -0.12761389766E+04  0.20026841841E+04  0.00000000000E+00 0.  1.
         13    1    5    5    0    0  0.19829259060E+02  0.86317583576E+03  0.25329328553E+03  0.89979064868E+03  0.00000000000E+00 0. -1.
        -13    1    5    5    0    0 -0.29989020865E+02  0.17238165800E+03  0.76553906427E+02  0.19098502029E+03  0.00000000000E+00 0.  1.
          3    1    6    6  503    0 -0.35155321878E+03  0.59435424559E+03 -0.11992245267E+03  0.70087661506E+03  0.00000000000E+00 0. -1.
         -3    1    6    6    0  503 -0.41272835824E+03  0.90135965082E+03 -0.16430623542E+03  0.10048833051E+04  0.00000000000E+00 0.  1.
<mgrwt>
<rscale>  0 0.58683170E+04</rscale>
<asrwt>0</asrwt>
<pdfrwt beam="1">  1        2 0.65065401E+00 0.58683170E+04</pdfrwt>
<pdfrwt beam="2">  1       -2 0.31317733E+00 0.58683170E+04</pdfrwt>
<totfact> 0.39025087E-03</totfact>
</mgrwt>
</event>
<event>
12    3  0.8686020E-008  0.2501892E+04  0.7818608E-02  0.8402312E-01
         -1   -1    0    0    0  501 -0.00000000000E+00  0.00000000000E+00  0.12644261677E+04  0.12644261677E+04  0.00000000000E+00 0.  1.
          1   -1    0    0  501    0  0.00000000000E+00 -0.00000000000E+00 -0.12376099887E+04  0.12376099887E+04  0.00000000000E+00 0. -1.
         23    2    1    2    0    0  0.49204377096E+03  0.86061216312E+03  0.45598733714E+03  0.10948088429E+04  0.89003274898E+02 0.  0.
        254    2    1    2    0    0 -0.49204377096E+03 -0.86061216312E+03 -0.42917115823E+03  0.14072273135E+04  0.90185390227E+03 0.  0.
         23    2    4    4    0    0 -0.12867597715E+03  0.91319292003E+02  0.14604284429E+03  0.23368560925E+03  0.91562718472E+02 0.  0.
         23    2    4    4    0    0 -0.36336779382E+03 -0.95193145512E+03 -0.57521400252E+03  0.11735417043E+04  0.90107348012E+02 0.  0.
          1    1    3    3  502    0  0.20150909599E+03  0.37605226647E+03  0.14969157554E+03  0.45213802170E+03  0.00000000000E+00 0. -1.
         -1    1    3    3    0  502  0.29053467498E+03  0.48455989665E+03  0.30629576160E+03  0.64267082117E+03  0.00000000000E+00 0.  1.
         13    1    5    5    0    0 -0.10302213922E+03  0.75300886835E+02  0.15627594740E+03  0.20175717203E+03  0.00000000000E+00 0. -1.
        -13    1    5    5    0    0 -0.25653837922E+02  0.16018405168E+02 -0.10233103106E+02  0.31928437222E+02  0.00000000000E+00 0.  1.
          1    1    6    6  503    0 -0.26294828652E+03 -0.73048958876E+03 -0.47771588107E+03  0.91157517720E+03  0.00000000000E+00 0. -1.
         -1    1    6    6    0  503 -0.10041950730E+03 -0.22144186636E+03 -0.97498121454E+02  0.26196652708E+03  0.00000000000E+00 0.  1.
<mgrwt>
<rscale>  0 0.25018924E+04</rscale>
<asrwt>0</asrwt>
<pdfrwt beam="1">  1        1 0.19040154E+00 0.25018924E+04</pdfrwt>
<pdfrwt beam="2">  1       -1 0.19452710E+00 0.25018924E+04</pdfrwt>
<totfact> 0.14637866E+00</totfact>
</mgrwt>
</event>
<event>
12    3  0.8686020E-008  0.3089901E+04  0.7818608E-02  0.8218515E-01
          1   -1    0    0  501    0  0.00000000000E+00  0.00000000000E+00  0.27356193277E+04  0.27356193277E+04  0.00000000000E+00 0. -1.
         -1   -1    0    0    0  501 -0.00000000000E+00 -0.00000000000E+00 -0.87251625134E+03  0.87251625134E+03  0.00000000000E+00 0.  1.
         23    2    1    2    0    0  0.91707837057E+03  0.10740394893E+04  0.84149288445E+03  0.16465057971E+04  0.90980782548E+02 0.  0.
        254    2    1    2    0    0 -0.91707837057E+03 -0.10740394893E+04  0.10216101919E+04  0.19616297820E+04  0.89983912720E+03 0.  0.
         23    2    4    4    0    0 -0.71493778531E+03 -0.11398757778E+04  0.10743783357E+04  0.17241443071E+04  0.89061539926E+02 0.  0.
         23    2    4    4    0    0 -0.20214058526E+03  0.65836288501E+02 -0.52768143730E+02  0.23748547485E+03  0.91758600024E+02 0.  0.
          1    1    3    3  502    0  0.62266869214E+03  0.69405327756E+03  0.59737572938E+03  0.11073770877E+04  0.00000000000E+00 0. -1.
         -1    1    3    3    0  502  0.29440967843E+03  0.37998621178E+03  0.24411715507E+03  0.53912870939E+03  0.00000000000E+00 0.  1.
         13    1    5    5    0    0 -0.41495522610E+03 -0.68091979180E+03  0.69061115107E+03  0.10548854746E+04  0.00000000000E+00 0. -1.
        -13    1    5    5    0    0 -0.29998255921E+03 -0.45895598604E+03  0.38376718459E+03  0.66925883253E+03  0.00000000000E+00 0.  1.
          4    1    6    6  503    0 -0.20848817751E+03  0.67273263731E+02 -0.39359370194E+02  0.22258070940E+03  0.00000000000E+00 0. -1.
         -4    1    6    6    0  503  0.63475922549E+01 -0.14369752294E+01 -0.13408773535E+02  0.14904765445E+02  0.00000000000E+00 0.  1.
<mgrwt>
<rscale>  0 0.30899012E+04</rscale>
<asrwt>0</asrwt>
<pdfrwt beam="1">  1        1 0.42086451E+00 0.30899012E+04</pdfrwt>
<pdfrwt beam="2">  1       -1 0.13423327E+00 0.30899012E+04</pdfrwt>
<totfact> 0.36535540E-01</totfact>
</mgrwt>
</event>
<event>
12    3  0.8686020E-008  0.1804578E+04  0.7818608E-02  0.8703869E-01
         -2   -1    0    0    0  501 -0.00000000000E+00  0.00000000000E+00  0.34924942634E+03  0.34924942634E+03  0.00000000000E+00 0. -1.
          2   -1    0    0  501    0  0.00000000000E+00 -0.00000000000E+00 -0.23310705239E+04  0.23310705239E+04  0.00000000000E+00 0.  1.
         23    2    1    2    0    0  0.49244656917E+03 -0.45921349996E+03 -0.79330860820E+03  0.10445195477E+04  0.91114629452E+02 0.  0.
        254    2    1    2    0    0 -0.49244656917E+03  0.45921349996E+03 -0.11885124894E+04  0.16358004026E+04  0.89994464137E+03 0.  0.
         23    2    4    4    0    0  0.21456161182E+03  0.61303740635E+02 -0.69428277583E+02  0.25028278645E+03  0.89589918983E+02 0.  0.
         23    2    4    4    0    0 -0.70700818099E+03  0.39790975933E+03 -0.11190842118E+04  0.13855176161E+04  0.95482180918E+02 0.  0.
          3    1    3    3  502    0  0.30411605190E+03 -0.31093841879E+03 -0.45021123926E+03  0.62598676764E+03  0.00000000000E+00 0. -1.
         -3    1    3    3    0  502  0.18833051727E+03 -0.14827508117E+03 -0.34309736895E+03  0.41853278009E+03  0.00000000000E+00 0.  1.
         13    1    5    5    0    0  0.13397634770E+03 -0.58286827803E+01 -0.52633478434E+02  0.14406220302E+03  0.00000000000E+00 0. -1.
        -13    1    5    5    0    0  0.80585264119E+02  0.67132423415E+02 -0.16794799150E+02  0.10622058343E+03  0.00000000000E+00 0.  1.
          1    1    6    6  503    0 -0.34309312731E+02  0.45227036538E+02 -0.91774071545E+02  0.10791243664E+03  0.00000000000E+00 0. -1.
         -1    1    6    6    0  503 -0.67269886826E+03  0.35268272279E+03 -0.10273101403E+04  0.12776051795E+04  0.00000000000E+00 0.  1.
<mgrwt>
<rscale>  0 0.18045776E+04</rscale>
<asrwt>0</asrwt>
<pdfrwt beam="1">  1        2 0.35862624E+00 0.18045776E+04</pdfrwt>
<pdfrwt beam="2">  1       -2 0.53730681E-01 0.18045776E+04</pdfrwt>
<totfact> 0.13414096E+01</totfact>
</mgrwt>
</event>
<event>
12    3  0.8686020E-008  0.1849992E+04  0.7818608E-02  0.8680157E-01
          2   -1    0    0  501    0  0.00000000000E+00  0.00000000000E+00  0.18622562801E+04  0.18622562801E+04  0.00000000000E+00 0. -1.
         -2   -1    0    0    0  501 -0.00000000000E+00 -0.00000000000E+00 -0.45945213092E+03  0.45945213092E+03  0.00000000000E+00 0.  1.
         23    2    1    2    0    0 -0.52617713896E+03  0.18524003039E+03  0.12217729361E+01  0.56518266926E+03  0.90849911797E+02 0.  0.
        254    2    1    2    0    0  0.52617713896E+03 -0.18524003039E+03  0.14015823762E+04  0.17565257417E+04  0.89987403208E+03 0.  0.
         23    2    4    4    0    0  0.39805015309E+03 -0.53398978881E+03  0.97804291600E+03  0.11867811955E+04  0.91063941984E+02 0.  0.
         23    2    4    4    0    0  0.12812698588E+03  0.34874975843E+03  0.42353946021E+03  0.56974454623E+03  0.84736385848E+02 0.  0.
          4    1    3    3  502    0 -0.28866101592E+03  0.13967255863E+03  0.27796866022E+02  0.32187928096E+03  0.00000000000E+00 0. -1.
         -4    1    3    3    0  502 -0.23751612304E+03  0.45567471758E+02 -0.26575093086E+02  0.24330338830E+03  0.00000000000E+00 0.  1.
         13    1    5    5    0    0  0.11371247928E+03 -0.22465655860E+03  0.38272007790E+03  0.45812198735E+03  0.00000000000E+00 0. -1.
        -13    1    5    5    0    0  0.28433767381E+03 -0.30933323021E+03  0.59532283810E+03  0.72865920815E+03  0.00000000000E+00 0.  1.
          2    1    6    6  503    0  0.41920986657E+02  0.19210737861E+03  0.17268418492E+03  0.26169150113E+03  0.00000000000E+00 0.  1.
         -2    1    6    6    0  503  0.86205999221E+02  0.15664237981E+03  0.25085527529E+03  0.30805304510E+03  0.00000000000E+00 0. -1.
<mgrwt>
<rscale>  0 0.18499920E+04</rscale>
<asrwt>0</asrwt>
<pdfrwt beam="1">  1        2 0.28650096E+00 0.18499920E+04</pdfrwt>
<pdfrwt beam="2">  1       -2 0.70684944E-01 0.18499920E+04</pdfrwt>
<totfact> 0.13633913E+01</totfact>
</mgrwt>
</event>
<event>
12    3  0.8686020E-008  0.1757897E+04  0.7818608E-02  0.8729015E-01
         -2   -1    0    0    0  501 -0.00000000000E+00  0.00000000000E+00  0.32168772367E+03  0.32168772367E+03  0.00000000000E+00 0.  1.
          2   -1    0    0  501    0  0.00000000000E+00 -0.00000000000E+00 -0.24015553618E+04  0.24015553618E+04  0.00000000000E+00 0. -1.
         23    2    1    2    0    0 -0.29747023003E+03  0.42838157063E+03 -0.13394326103E+04  0.14403307932E+04  0.92053073151E+02 0.  0.
        254    2    1    2    0    0  0.29747023003E+03 -0.42838157063E+03 -0.74043502781E+03  0.12829122923E+04  0.90863667744E+03 0.  0.
         23    2    4    4    0    0  0.69870904516E+00 -0.59884444457E+03 -0.69890924204E+03  0.92595584956E+03  0.10151329837E+03 0.  0.
         23    2    4    4    0    0  0.29677152098E+03  0.17046287394E+03 -0.41525785775E+02  0.35695644277E+03  0.92534232020E+02 0.  0.
          1    1    3    3  502    0 -0.12550232476E+03  0.22976702136E+03 -0.76799482207E+03  0.81139371722E+03  0.00000000000E+00 0. -1.
         -1    1    3    3    0  502 -0.17196790527E+03  0.19861454927E+03 -0.57143778826E+03  0.62893707593E+03  0.00000000000E+00 0.  1.
         13    1    5    5    0    0 -0.17607003826E+02 -0.57931989243E+03 -0.65577308248E+03  0.87519133911E+03  0.00000000000E+00 0.  1.
        -13    1    5    5    0    0  0.18305712871E+02 -0.19524552140E+02 -0.43136159556E+02  0.50764510450E+02  0.00000000000E+00 0. -1.
          3    1    6    6  503    0  0.47225197870E+02  0.66602027079E+02 -0.28027728417E+02  0.86322667273E+02  0.00000000000E+00 0. -1.
         -3    1    6    6    0  503  0.24954632311E+03  0.10386084686E+03 -0.13498057358E+02  0.27063377550E+03  0.00000000000E+00 0.  1.
<mgrwt>
<rscale>  0 0.17578975E+04</rscale>
<asrwt>0</asrwt>
<pdfrwt beam="1">  1        2 0.36947006E+00 0.17578975E+04</pdfrwt>
<pdfrwt beam="2">  1       -2 0.49490418E-01 0.17578975E+04</pdfrwt>
<totfact> 0.14535866E+01</totfact>
</mgrwt>
</event>
<event>
12    3  0.8686020E-008  0.1843670E+04  0.7818608E-02  0.8683415E-01
         -2   -1    0    0    0  501 -0.00000000000E+00  0.00000000000E+00  0.97227610037E+03  0.97227610037E+03  0.00000000000E+00 0.  1.
          2   -1    0    0  501    0  0.00000000000E+00 -0.00000000000E+00 -0.87401066956E+03  0.87401066956E+03  0.00000000000E+00 0. -1.
         23    2    1    2    0    0  0.37476499317E+03  0.56322390243E+03 -0.13813365307E+03  0.69636347114E+03  0.90394764520E+02 0.  0.
        254    2    1    2    0    0 -0.37476499317E+03 -0.56322390243E+03  0.23639908388E+03  0.11499232988E+04  0.89931590771E+03 0.  0.
         23    2    4    4    0    0 -0.50472013193E+03 -0.54393391008E+03 -0.12241660410E+03  0.75740428828E+03  0.89827172037E+02 0.  0.
         23    2    4    4    0    0  0.12995513875E+03 -0.19289992344E+02  0.35881568798E+03  0.39251901050E+03  0.89788828769E+02 0.  0.
          1    1    3    3  502    0  0.26838072495E+03  0.33139247315E+03 -0.10473251142E+03  0.43911055981E+03  0.00000000000E+00 0. -1.
         -1    1    3    3    0  502  0.10638426823E+03  0.23183142927E+03 -0.33401141651E+02  0.25725291133E+03  0.00000000000E+00 0.  1.
         13    1    5    5    0    0 -0.56644007778E+02 -0.89098986212E+02  0.75072885388E+01  0.10584673988E+03  0.00000000000E+00 0. -1.
        -13    1    5    5    0    0 -0.44807612415E+03 -0.45483492387E+03 -0.12992389264E+03  0.65155754840E+03  0.00000000000E+00 0.  1.
          1    1    6    6  503    0  0.15339737941E+02  0.25741895841E+02  0.34984037499E+02  0.46063387210E+02  0.00000000000E+00 0. -1.
         -1    1    6    6    0  503  0.11461540081E+03 -0.45031888185E+02  0.32383165048E+03  0.34645562329E+03  0.00000000000E+00 0.  1.
<mgrwt>
<rscale>  0 0.18436699E+04</rscale>
<asrwt>0</asrwt>
<pdfrwt beam="1">  1        2 0.13446318E+00 0.18436699E+04</pdfrwt>
<pdfrwt beam="2">  1       -2 0.14958094E+00 0.18436699E+04</pdfrwt>
<totfact> 0.86716011E+00</totfact>
</mgrwt>
</event>
<event>
12    3  0.8686020E-008  0.2563811E+04  0.7818608E-02  0.8380599E-01
         -2   -1    0    0    0  501 -0.00000000000E+00  0.00000000000E+00  0.89029058932E+03  0.89029058932E+03  0.00000000000E+00 0.  1.
          2   -1    0    0  501    0  0.00000000000E+00 -0.00000000000E+00 -0.18457809251E+04  0.18457809251E+04  0.00000000000E+00 0. -1.
         23    2    1    2    0    0  0.10630861351E+04 -0.32318234780E+03 -0.26398666302E+03  0.11460920281E+04  0.96119810948E+02 0.  0.
        254    2    1    2    0    0 -0.10630861351E+04  0.32318234780E+03 -0.69150367278E+03  0.15899794863E+04  0.90291664995E+03 0.  0.
         23    2    4    4    0    0  0.87081845560E+02  0.35459025982E+02  0.97105477054E+02  0.16312390964E+03  0.91320019007E+02 0.  0.
         23    2    4    4    0    0 -0.11501679807E+04  0.28772332182E+03 -0.78860914984E+03  0.14268555767E+04  0.91331000934E+02 0.  0.
          4    1    3    3  502    0  0.76779664530E+03 -0.27675522051E+03 -0.18345818989E+03  0.83651781096E+03  0.00000000000E+00 0.  1.
         -4    1    3    3    0  502  0.29528948984E+03 -0.46427127287E+02 -0.80528473126E+02  0.30957421718E+03  0.00000000000E+00 0. -1.
         13    1    5    5    0    0 -0.15673869653E+02  0.22081914855E+02  0.15305684085E+02  0.31105387296E+02  0.00000000000E+00 0.  1.
        -13    1    5    5    0    0  0.10275571521E+03  0.13377111127E+02  0.81799792969E+02  0.13201852234E+03  0.00000000000E+00 0. -1.
          3    1    6    6  503    0 -0.11090457008E+04  0.26210291181E+03 -0.74373508909E+03  0.13608167348E+04  0.00000000000E+00 0. -1.
         -3    1    6    6    0  503 -0.41122279861E+02  0.25620410010E+02 -0.44874060744E+02  0.66038841886E+02  0.00000000000E+00 0.  1.
<mgrwt>
<rscale>  0 0.25638107E+04</rscale>
<asrwt>0</asrwt>
<pdfrwt beam="1">  1        2 0.28396630E+00 0.25638107E+04</pdfrwt>
<pdfrwt beam="2">  1       -2 0.13696778E+00 0.25638107E+04</pdfrwt>
<totfact> 0.27450635E+00</totfact>
</mgrwt>
</event>
<event>
12    3  0.8686020E-008  0.1504544E+04  0.7818608E-02  0.8881437E-01
          2   -1    0    0  501    0  0.00000000000E+00  0.00000000000E+00  0.48330495325E+03  0.48330495325E+03  0.00000000000E+00 0. -1.
         -2   -1    0    0    0  501 -0.00000000000E+00 -0.00000000000E+00 -0.11709229049E+04  0.11709229049E+04  0.00000000000E+00 0.  1.
         23    2    1    2    0    0 -0.15035610957E+03 -0.13876452524E+03  0.25146327584E+03  0.33738243742E+03  0.93437555783E+02 0.  0.
        254    2    1    2    0    0  0.15035610957E+03  0.13876452524E+03 -0.93908122751E+03  0.13168454207E+04  0.90019206679E+03 0.  0.
         23    2    4    4    0    0 -0.10410334840E+03 -0.13898088443E+03  0.90599204894E+02  0.21630886505E+03  0.91804769960E+02 0.  0.
         23    2    4    4    0    0  0.25445945797E+03  0.27774540968E+03 -0.10296804324E+04  0.11005365557E+04  0.95114610775E+02 0.  0.
          3    1    3    3  502    0 -0.30466500074E+02 -0.33017818691E+01  0.89404179430E+02  0.94510405193E+02  0.00000000000E+00 0. -1.
         -3    1    3    3    0  502 -0.11988960950E+03 -0.13546274338E+03  0.16205909641E+03  0.24287203223E+03  0.00000000000E+00 0.  1.
         13    1    5    5    0    0 -0.58675862723E+02 -0.12948211929E+02  0.43966262685E+02  0.74454988502E+02  0.00000000000E+00 0.  1.
        -13    1    5    5    0    0 -0.45427485677E+02 -0.12603267250E+03  0.46632942209E+02  0.14185387655E+03  0.00000000000E+00 0. -1.
          2    1    6    6  503    0  0.17480705599E+03  0.19917468594E+03 -0.58892590540E+03  0.64580320872E+03  0.00000000000E+00 0. -1.
         -2    1    6    6    0  503  0.79652401981E+02  0.78570723742E+02 -0.44075452701E+03  0.45473334697E+03  0.00000000000E+00 0.  1.
<mgrwt>
<rscale>  0 0.15045436E+04</rscale>
<asrwt>0</asrwt>
<pdfrwt beam="1">  1        2 0.74354609E-01 0.15045436E+04</pdfrwt>
<pdfrwt beam="2">  1       -2 0.18014198E+00 0.15045436E+04</pdfrwt>
<totfact> 0.11181182E+01</totfact>
</mgrwt>
</event>
<event>
12    3  0.8686020E-008  0.1252258E+04  0.7818608E-02  0.9068306E-01
         -1   -1    0    0    0  501 -0.00000000000E+00  0.00000000000E+00  0.50640824182E+03  0.50640824182E+03  0.00000000000E+00 0.  1.
          1   -1    0    0  501    0  0.00000000000E+00 -0.00000000000E+00 -0.77415281583E+03  0.77415281583E+03  0.00000000000E+00 0. -1.
         23    2    1    2    0    0  0.19659001719E+03 -0.52707081055E+01 -0.31016161921E+03  0.37778057086E+03  0.88557972344E+02 0.  0.
        254    2    1    2    0    0 -0.19659001719E+03  0.52707081055E+01  0.42417045208E+02  0.90278048679E+03  0.88007839786E+03 0.  0.
         23    2    4    4    0    0 -0.36809454203E+03  0.78154591266E+02 -0.30835856659E+03  0.49500578362E+03  0.91345433489E+02 0.  0.
         23    2    4    4    0    0  0.17150452484E+03 -0.72883883160E+02  0.35077561180E+03  0.40777470317E+03  0.92254085265E+02 0.  0.
          1    1    3    3  502    0  0.20944906156E+02 -0.30828229110E+02 -0.67890051584E+02  0.77447581680E+02  0.00000000000E+00 0. -1.
         -1    1    3    3    0  502  0.17564511104E+03  0.25557521004E+02 -0.24227156763E+03  0.30033298918E+03  0.00000000000E+00 0.  1.
         13    1    5    5    0    0 -0.15163631794E+03  0.74845299696E+02 -0.15799825960E+03  0.23142783291E+03  0.00000000000E+00 0.  1.
        -13    1    5    5    0    0 -0.21645822408E+03  0.33092915703E+01 -0.15036030699E+03  0.26357795071E+03  0.00000000000E+00 0. -1.
          2    1    6    6  503    0  0.77896160702E+02  0.14867348040E+02  0.12305064949E+03  0.14639095679E+03  0.00000000000E+00 0. -1.
         -2    1    6    6    0  503  0.93608364134E+02 -0.87751231200E+02  0.22772496231E+03  0.26138374638E+03  0.00000000000E+00 0.  1.
<mgrwt>
<rscale>  0 0.12522577E+04</rscale>
<asrwt>0</asrwt>
<pdfrwt beam="1">  1        1 0.11910043E+00 0.12522577E+04</pdfrwt>
<pdfrwt beam="2">  1       -1 0.77908961E-01 0.12522577E+04</pdfrwt>
<totfact> 0.37927797E+01</totfact>
</mgrwt>
</event>
<event>
12    3  0.8686020E-008  0.1493617E+04  0.7818608E-02  0.8888709E-01
         -2   -1    0    0    0  501 -0.00000000000E+00  0.00000000000E+00  0.28683837936E+03  0.28683837936E+03  0.00000000000E+00 0.  1.
          2   -1    0    0  501    0  0.00000000000E+00 -0.00000000000E+00 -0.19443798388E+04  0.19443798388E+04  0.00000000000E+00 0. -1.
         23    2    1    2    0    0  0.41868325082E+03 -0.16971396842E+03 -0.34316962756E+03  0.57468387833E+03  0.91638808058E+02 0.  0.
        254    2    1    2    0    0 -0.41868325082E+03  0.16971396842E+03 -0.13143718319E+04  0.16565343398E+04  0.90135132498E+03 0.  0.
         23    2    4    4    0    0  0.29191372576E+02 -0.13136884988E+03  0.62613006895E+02  0.17473643828E+03  0.92209127952E+02 0.  0.
         23    2    4    4    0    0 -0.44787462339E+03  0.30108281830E+03 -0.13769848388E+04  0.14817979016E+04  0.91625504650E+02 0.  0.
          1    1    3    3  502    0  0.95321795484E+02 -0.47504120476E+02 -0.36524728654E+02  0.11259192671E+03  0.00000000000E+00 0. -1.
         -1    1    3    3    0  502  0.32336145533E+03 -0.12220984794E+03 -0.30664489891E+03  0.46209195163E+03  0.00000000000E+00 0.  1.
         13    1    5    5    0    0 -0.23429422287E+02 -0.88845570391E+02  0.17814193781E+02  0.93593903150E+02  0.00000000000E+00 0. -1.
        -13    1    5    5    0    0  0.52620794863E+02 -0.42523279491E+02  0.44798813114E+02  0.81142535128E+02  0.00000000000E+00 0.  1.
          4    1    6    6  503    0 -0.16957365061E+02  0.37226265979E+02 -0.13169305982E+03  0.13789999679E+03  0.00000000000E+00 0. -1.
         -4    1    6    6    0  503 -0.43091725833E+03  0.26385655232E+03 -0.12452917790E+04  0.13438979048E+04  0.00000000000E+00 0.  1.
<mgrwt>
<rscale>  0 0.14936168E+04</rscale>
<asrwt>0</asrwt>
<pdfrwt beam="1">  1        2 0.29913535E+00 0.14936168E+04</pdfrwt>
<pdfrwt beam="2">  1       -2 0.44128982E-01 0.14936168E+04</pdfrwt>
<totfact> 0.33781460E+01</totfact>
</mgrwt>
</event>
<event>
12    3  0.8686020E-008  0.2451593E+04  0.7818608E-02  0.8420436E-01
         -2   -1    0    0    0  501 -0.00000000000E+00  0.00000000000E+00  0.21343901512E+04  0.21343901512E+04  0.00000000000E+00 0.  1.
          2   -1    0    0  501    0  0.00000000000E+00 -0.00000000000E+00 -0.70398441236E+03  0.70398441236E+03  0.00000000000E+00 0. -1.
         23    2    1    2    0    0 -0.87099715709E+03 -0.57118113019E+03  0.83941983200E+03  0.13409413971E+04  0.92812957191E+02 0.  0.
        254    2    1    2    0    0  0.87099715709E+03  0.57118113019E+03  0.59098590685E+03  0.14974331665E+04  0.89897598119E+03 0.  0.
         23    2    4    4    0    0  0.77103297244E+03  0.20040184159E+02  0.17847981022E+03  0.79606840820E+03  0.83524932217E+02 0.  0.
         23    2    4    4    0    0  0.99964184649E+02  0.55114094603E+03  0.41250609662E+03  0.70136475825E+03  0.89454255129E+02 0.  0.
          4    1    3    3  502    0 -0.58753803400E+03 -0.36978139430E+03  0.50465769063E+03  0.85826488084E+03  0.00000000000E+00 0. -1.
         -4    1    3    3    0  502 -0.28345912309E+03 -0.20139973589E+03  0.33476214137E+03  0.48267651629E+03  0.00000000000E+00 0.  1.
         13    1    5    5    0    0  0.22518709147E+03  0.34817115684E+02  0.78080116673E+02  0.24086918095E+03  0.00000000000E+00 0. -1.
        -13    1    5    5    0    0  0.54584588097E+03 -0.14776931525E+02  0.10039969355E+03  0.55519922725E+03  0.00000000000E+00 0.  1.
          4    1    6    6  503    0  0.10564429353E+03  0.46031618932E+03  0.37449835797E+03  0.60274433305E+03  0.00000000000E+00 0.  1.
         -4    1    6    6    0  503 -0.56801088834E+01  0.90824756714E+02  0.38007738654E+02  0.98620425200E+02  0.00000000000E+00 0. -1.
<mgrwt>
<rscale>  0 0.24515933E+04</rscale>
<asrwt>0</asrwt>
<pdfrwt beam="1">  1        2 0.10830529E+00 0.24515933E+04</pdfrwt>
<pdfrwt beam="2">  1       -2 0.32836771E+00 0.24515933E+04</pdfrwt>
<totfact> 0.77437695E-01</totfact>
</mgrwt>
</event>
<event>
12    3  0.8686020E-008  0.1302920E+04  0.7818608E-02  0.9027253E-01
         -1   -1    0    0    0  501 -0.00000000000E+00  0.00000000000E+00  0.25400415610E+03  0.25400415610E+03  0.00000000000E+00 0.  1.
          1   -1    0    0  501    0  0.00000000000E+00 -0.00000000000E+00 -0.16708389647E+04  0.16708389647E+04  0.00000000000E+00 0. -1.
         23    2    1    2    0    0 -0.10414134576E+03  0.76369555781E+02 -0.82359988481E+03  0.83892996802E+03  0.93856230686E+02 0.  0.
        254    2    1    2    0    0  0.10414134576E+03 -0.76369555781E+02 -0.59323492383E+03  0.10859131528E+04  0.90033436658E+03 0.  0.
         23    2    4    4    0    0 -0.16716830193E+03  0.24673700354E+03 -0.57515604513E+03  0.65389455812E+03  0.89158436527E+02 0.  0.
         23    2    4    4    0    0  0.27130964769E+03 -0.32310655932E+03 -0.18078878699E+02  0.43201859469E+03  0.91139709801E+02 0.  0.
          3    1    3    3  502    0 -0.11469538711E+03  0.46531043635E+02 -0.72140381719E+03  0.73194510539E+03  0.00000000000E+00 0. -1.
         -3    1    3    3    0  502  0.10554041345E+02  0.29838512146E+02 -0.10219606762E+03  0.10698486264E+03  0.00000000000E+00 0.  1.
         13    1    5    5    0    0 -0.14414695337E+03  0.13727763628E+03 -0.37864115036E+03  0.42777636019E+03  0.00000000000E+00 0.  1.
        -13    1    5    5    0    0 -0.23021348555E+02  0.10945936725E+03 -0.19651489477E+03  0.22611819793E+03  0.00000000000E+00 0. -1.
          4    1    6    6  503    0  0.20747074253E+02 -0.24438836932E+02 -0.27227653244E+02  0.42059992176E+02  0.00000000000E+00 0. -1.
         -4    1    6    6    0  503  0.25056257343E+03 -0.29866772239E+03  0.91487745448E+01  0.38995860252E+03  0.00000000000E+00 0.  1.
<mgrwt>
<rscale>  0 0.13029199E+04</rscale>
<asrwt>0</asrwt>
<pdfrwt beam="1">  1        1 0.25705214E+00 0.13029199E+04</pdfrwt>
<pdfrwt beam="2">  1       -1 0.39077563E-01 0.13029199E+04</pdfrwt>
<totfact> 0.31160705E+01</totfact>
</mgrwt>
</event>
<event>
12    3  0.8686020E-008  0.2510061E+04  0.7818608E-02  0.8399410E-01
         -2   -1    0    0    0  501 -0.00000000000E+00  0.00000000000E+00  0.14608478125E+04  0.14608478125E+04  0.00000000000E+00 0. -1.
          2   -1    0    0  501    0  0.00000000000E+00 -0.00000000000E+00 -0.10782104696E+04  0.10782104696E+04  0.00000000000E+00 0.  1.
         23    2    1    2    0    0 -0.10535408884E+04 -0.22392862948E+03 -0.54779403620E+01  0.10832368784E+04  0.11523754762E+03 0.  0.
        254    2    1    2    0    0  0.10535408884E+04  0.22392862948E+03  0.38811528325E+03  0.14558214037E+04  0.89927195647E+03 0.  0.
         23    2    4    4    0    0  0.44960776997E+01  0.22406167624E+03 -0.13852684859E+03  0.27838898538E+03  0.89927136780E+02 0.  0.
         23    2    4    4    0    0  0.10490448107E+04 -0.13304675506E+00  0.52664213184E+03  0.11774324183E+04  0.92196160923E+02 0.  0.
          1    1    3    3  502    0 -0.76737835081E+03 -0.11217118330E+03  0.10592380551E+02  0.77560563831E+03  0.00000000000E+00 0. -1.
         -1    1    3    3    0  502 -0.28616253757E+03 -0.11175744618E+03 -0.16070320913E+02  0.30763124012E+03  0.00000000000E+00 0.  1.
         13    1    5    5    0    0 -0.31262222575E+02  0.18654837547E+03 -0.11594038113E+03  0.22185534686E+03  0.00000000000E+00 0. -1.
        -13    1    5    5    0    0  0.35758300274E+02  0.37513300763E+02 -0.22586467454E+02  0.56533638524E+02  0.00000000000E+00 0.  1.
          2    1    6    6  503    0  0.80856745340E+03  0.12930353521E+02  0.36394463694E+03  0.88679435017E+03  0.00000000000E+00 0. -1.
         -2    1    6    6    0  503  0.24047735728E+03 -0.13063400276E+02  0.16269749490E+03  0.29063806812E+03  0.00000000000E+00 0.  1.
<mgrwt>
<rscale>  0 0.25100609E+04</rscale>
<asrwt>0</asrwt>
<pdfrwt beam="1">  1        2 0.16587853E+00 0.25100609E+04</pdfrwt>
<pdfrwt beam="2">  1       -2 0.22474582E+00 0.25100609E+04</pdfrwt>
<totfact> 0.18472604E+00</totfact>
</mgrwt>
</event>
<event>
12    3  0.8686020E-008  0.1925608E+04  0.7818608E-02  0.8642213E-01
         -2   -1    0    0    0  501 -0.00000000000E+00  0.00000000000E+00  0.10668993999E+04  0.10668993999E+04  0.00000000000E+00 0.  1.
          2   -1    0    0  501    0  0.00000000000E+00 -0.00000000000E+00 -0.86886530265E+03  0.86886530265E+03  0.00000000000E+00 0. -1.
         23    2    1    2    0    0  0.67949661791E+03 -0.12255157711E+03  0.37137845789E+03  0.78930319370E+03  0.91340187170E+02 0.  0.
        254    2    1    2    0    0 -0.67949661791E+03  0.12255157711E+03 -0.17334436065E+03  0.11464615089E+04  0.89866077087E+03 0.  0.
         23    2    4    4    0    0  0.79186147959E+02  0.30221779009E+03  0.50956943103E+02  0.32998651213E+03  0.93211852596E+02 0.  0.
         23    2    4    4    0    0 -0.75868276587E+03 -0.17966621298E+03 -0.22430130375E+03  0.81647499672E+03  0.91874142652E+02 0.  0.
          2    1    3    3  502    0  0.61013136273E+03 -0.10545313364E+03  0.29895038789E+03  0.68756961655E+03  0.00000000000E+00 0. -1.
         -2    1    3    3    0  502  0.69365255178E+02 -0.17098443475E+02  0.72428070002E+02  0.10173357715E+03  0.00000000000E+00 0.  1.
         13    1    5    5    0    0 -0.63997870084E+01  0.11149249413E+03  0.46281004292E+02  0.12088616496E+03  0.00000000000E+00 0. -1.
        -13    1    5    5    0    0  0.85585934968E+02  0.19072529596E+03  0.46759388107E+01  0.20910034717E+03  0.00000000000E+00 0.  1.
          1    1    6    6  503    0 -0.64429430309E+02 -0.43061873738E+02 -0.22434718727E+02  0.80677091322E+02  0.00000000000E+00 0. -1.
         -1    1    6    6    0  503 -0.69425333556E+03 -0.13660433924E+03 -0.20186658502E+03  0.73579790540E+03  0.00000000000E+00 0.  1.
<mgrwt>
<rscale>  0 0.19256083E+04</rscale>
<asrwt>0</asrwt>
<pdfrwt beam="1">  1        2 0.13367158E+00 0.19256083E+04</pdfrwt>
<pdfrwt beam="2">  1       -2 0.16413837E+00 0.19256083E+04</pdfrwt>
<totfact> 0.67580473E+00</totfact>
</mgrwt>
</event>
<event>
12    3  0.8686020E-008  0.1536958E+04  0.7818608E-02  0.8860241E-01
         -1   -1    0    0    0  501 -0.00000000000E+00  0.00000000000E+00  0.48097918809E+03  0.48097918809E+03  0.00000000000E+00 0.  1.
          1   -1    0    0  501    0  0.00000000000E+00 -0.00000000000E+00 -0.12278291810E+04  0.12278291810E+04  0.00000000000E+00 0. -1.
         23    2    1    2    0    0 -0.48034554852E+03  0.11603436421E+03 -0.27907624440E+03  0.57439274415E+03  0.88586989373E+02 0.  0.
        254    2    1    2    0    0  0.48034554852E+03 -0.11603436421E+03 -0.46777374845E+03  0.11344156249E+04  0.90768425711E+03 0.  0.
         23    2    4    4    0    0 -0.33379759225E+02 -0.13550057194E+03 -0.57680142490E+03  0.60081644956E+03  0.93839804780E+02 0.  0.
         23    2    4    4    0    0  0.51372530774E+03  0.19466207729E+02  0.10902767645E+03  0.53359917534E+03  0.92457669400E+02 0.  0.
          1    1    3    3  502    0 -0.28075966306E+03  0.34444976302E+02 -0.12428139693E+03  0.30896328329E+03  0.00000000000E+00 0. -1.
         -1    1    3    3    0  502 -0.19958588546E+03  0.81589387912E+02 -0.15479484747E+03  0.26542946087E+03  0.00000000000E+00 0.  1.
         13    1    5    5    0    0 -0.63057508363E+02 -0.11777928273E+03 -0.46007984940E+03  0.47908420619E+03  0.00000000000E+00 0. -1.
        -13    1    5    5    0    0  0.29677749138E+02 -0.17721289215E+02 -0.11672157551E+03  0.12173224336E+03  0.00000000000E+00 0.  1.
          4    1    6    6  503    0  0.36343532494E+03 -0.19375685799E+02  0.49293770036E+02  0.36727445920E+03  0.00000000000E+00 0. -1.
         -4    1    6    6    0  503  0.15028998280E+03  0.38841893528E+02  0.59733906418E+02  0.16632471614E+03  0.00000000000E+00 0.  1.
<mgrwt>
<rscale>  0 0.15369584E+04</rscale>
<asrwt>0</asrwt>
<pdfrwt beam="1">  1        1 0.18889680E+00 0.15369584E+04</pdfrwt>
<pdfrwt beam="2">  1       -1 0.73996797E-01 0.15369584E+04</pdfrwt>
<totfact> 0.18087454E+01</totfact>
</mgrwt>
</event>
<event>
12    3  0.8686020E-008  0.1371370E+04  0.7818608E-02  0.8974807E-01
          2   -1    0    0  501    0  0.00000000000E+00  0.00000000000E+00  0.97509614430E+03  0.97509614430E+03  0.00000000000E+00 0.  1.
         -2   -1    0    0    0  501 -0.00000000000E+00 -0.00000000000E+00 -0.48217178422E+03  0.48217178422E+03  0.00000000000E+00 0. -1.
         23    2    1    2    0    0 -0.15605575840E+03  0.29711215306E+03 -0.54277281726E+02  0.35129053003E+03  0.88487185233E+02 0.  0.
        254    2    1    2    0    0  0.15605575840E+03 -0.29711215306E+03  0.54720164181E+03  0.11059773985E+04  0.90062608109E+03 0.  0.
         23    2    4    4    0    0 -0.14815883239E+03 -0.40869481431E+03  0.61810444924E+03  0.76134286389E+03  0.92775833907E+02 0.  0.
         23    2    4    4    0    0  0.30421459080E+03  0.11158266125E+03 -0.70902807430E+02  0.34463453460E+03  0.93533666632E+02 0.  0.
          2    1    3    3  502    0 -0.15196613468E+03  0.30146442696E+03 -0.60146500678E+02  0.34291705755E+03  0.00000000000E+00 0.  1.
         -2    1    3    3    0  502 -0.40896237277E+01 -0.43522739016E+01  0.58692189522E+01  0.83734724850E+01  0.00000000000E+00 0. -1.
         13    1    5    5    0    0 -0.13373523263E+03 -0.23698772920E+03  0.38550427410E+03  0.47187057716E+03  0.00000000000E+00 0.  1.
        -13    1    5    5    0    0 -0.14423599763E+02 -0.17170708512E+03  0.23260017514E+03  0.28947228673E+03  0.00000000000E+00 0. -1.
          4    1    6    6  503    0  0.27834207419E+03  0.77015342999E+02 -0.40044073379E+02  0.29156337413E+03  0.00000000000E+00 0.  1.
         -4    1    6    6    0  503  0.25872516610E+02  0.34567318254E+02 -0.30858734051E+02  0.53071160476E+02  0.00000000000E+00 0. -1.
<mgrwt>
<rscale>  0 0.13713699E+04</rscale>
<asrwt>0</asrwt>
<pdfrwt beam="1">  1        2 0.15001479E+00 0.13713699E+04</pdfrwt>
<pdfrwt beam="2">  1       -2 0.74180275E-01 0.13713699E+04</pdfrwt>
<totfact> 0.41726779E+01</totfact>
</mgrwt>
</event>
<event>
12    3  0.8686020E-008  0.1757408E+04  0.7818608E-02  0.8729283E-01
          2   -1    0    0  501    0  0.00000000000E+00  0.00000000000E+00  0.29122742325E+04  0.29122742325E+04  0.00000000000E+00 0. -1.
         -2   -1    0    0    0  501 -0.00000000000E+00 -0.00000000000E+00 -0.26512644713E+03  0.26512644713E+03  0.00000000000E+00 0.  1.
         23    2    1    2    0    0  0.55977450361E+03 -0.30479643848E+03  0.11627707745E+04  0.13291152301E+04  0.90901358930E+02 0.  0.
        254    2    1    2    0    0 -0.55977450361E+03  0.30479643848E+03  0.14843770108E+04  0.18482854495E+04  0.89807328694E+03 0.  0.
         23    2    4    4    0    0 -0.35219866701E+03  0.30234597716E+03  0.15216926991E+03  0.49691040232E+03  0.91145325028E+02 0.  0.
         23    2    4    4    0    0 -0.20757583660E+03  0.24504613203E+01  0.13322077409E+04  0.13513750472E+04  0.91341778229E+02 0.  0.
          3    1    3    3  502    0  0.44823182080E+03 -0.27124367984E+03  0.10004073535E+04  0.11292917125E+04  0.00000000000E+00 0. -1.
         -3    1    3    3    0  502  0.11154268281E+03 -0.33552758642E+02  0.16236342105E+03  0.19982351763E+03  0.00000000000E+00 0.  1.
         13    1    5    5    0    0 -0.18536064659E+03  0.16925145645E+03  0.34986569615E+02  0.25343378793E+03  0.00000000000E+00 0. -1.
        -13    1    5    5    0    0 -0.16683802043E+03  0.13309452072E+03  0.11718270029E+03  0.24347661438E+03  0.00000000000E+00 0.  1.
          3    1    6    6  503    0 -0.14087867916E+03 -0.41568097160E+02  0.86117747891E+03  0.87361396459E+03  0.00000000000E+00 0.  1.
         -3    1    6    6    0  503 -0.66697157445E+02  0.44018558480E+02  0.47103026201E+03  0.47776108258E+03  0.00000000000E+00 0. -1.
<mgrwt>
<rscale>  0 0.17574082E+04</rscale>
<asrwt>0</asrwt>
<pdfrwt beam="1">  1        2 0.44804217E+00 0.17574082E+04</pdfrwt>
<pdfrwt beam="2">  1       -2 0.40788686E-01 0.17574082E+04</pdfrwt>
<totfact> 0.10683724E+01</totfact>
</mgrwt>
</event>
<event>
12    3  0.8686020E-008  0.3151967E+04  0.7818608E-02  0.8201619E-01
         -1   -1    0    0    0  501 -0.00000000000E+00  0.00000000000E+00  0.84596558774E+03  0.84596558774E+03  0.00000000000E+00 0.  1.
          1   -1    0    0  501    0  0.00000000000E+00 -0.00000000000E+00 -0.29359642872E+04  0.29359642872E+04  0.00000000000E+00 0. -1.
         23    2    1    2    0    0 -0.66028918495E+03 -0.14999481971E+03  0.57196919035E+03  0.89113057560E+03  0.92112400674E+02 0.  0.
        254    2    1    2    0    0  0.66028918495E+03  0.14999481971E+03 -0.26619678898E+04  0.28907992994E+04  0.90120324514E+03 0.  0.
         23    2    4    4    0    0  0.72167129517E+03  0.33516937256E+03 -0.24888720075E+04  0.26145672328E+04  0.91268717326E+02 0.  0.
         23    2    4    4    0    0 -0.61382110219E+02 -0.18517455285E+03 -0.17309588233E+03  0.27623206653E+03  0.91019732037E+02 0.  0.
          4    1    3    3  502    0 -0.34809055685E+03 -0.43434645630E+02  0.25533252315E+03  0.43387590575E+03  0.00000000000E+00 0. -1.
         -4    1    3    3    0  502 -0.31219862810E+03 -0.10656017408E+03  0.31663666720E+03  0.45725466985E+03  0.00000000000E+00 0.  1.
         13    1    5    5    0    0  0.12221684426E+03  0.95365801952E+02 -0.50879341936E+03  0.53188564259E+03  0.00000000000E+00 0. -1.
        -13    1    5    5    0    0  0.59945445091E+03  0.23980357061E+03 -0.19800785881E+04  0.20826815902E+04  0.00000000000E+00 0.  1.
          1    1    6    6  503    0 -0.25734095593E+02 -0.11852068785E+03 -0.15794931924E+03  0.19914161939E+03  0.00000000000E+00 0. -1.
         -1    1    6    6    0  503 -0.35648014625E+02 -0.66653865004E+02 -0.15146563088E+02  0.77090447139E+02  0.00000000000E+00 0.  1.
<mgrwt>
<rscale>  0 0.31519675E+04</rscale>
<asrwt>0</asrwt>
<pdfrwt beam="1">  1        1 0.45168682E+00 0.31519675E+04</pdfrwt>
<pdfrwt beam="2">  1       -1 0.13014855E+00 0.31519675E+04</pdfrwt>
<totfact> 0.28246644E-01</totfact>
</mgrwt>
</event>
<event>
12    3  0.8686020E-008  0.2292168E+04  0.7818608E-02  0.8481016E-01
         -2   -1    0    0    0  501 -0.00000000000E+00  0.00000000000E+00  0.11601104477E+04  0.11601104477E+04  0.00000000000E+00 0.  1.
          2   -1    0    0  501    0  0.00000000000E+00 -0.00000000000E+00 -0.11322270199E+04  0.11322270199E+04  0.00000000000E+00 0. -1.
         23    2    1    2    0    0  0.18703754894E+02  0.87146394824E+03 -0.40654672371E+03  0.96609320272E+03  0.90865803570E+02 0.  0.
        254    2    1    2    0    0 -0.18703754894E+02 -0.87146394824E+03  0.43443015156E+03  0.13262442649E+04  0.90021944551E+03 0.  0.
         23    2    4    4    0    0 -0.13371201255E+03 -0.80830705971E+03  0.65549505766E+03  0.10531111220E+04  0.90166842620E+02 0.  0.
         23    2    4    4    0    0  0.11500825766E+03 -0.63156888526E+02 -0.22106490610E+03  0.27313314294E+03  0.92283959413E+02 0.  0.
          3    1    3    3  502    0  0.23118983703E+01  0.57287212191E+03 -0.31274844072E+03  0.65268629532E+03  0.00000000000E+00 0. -1.
         -3    1    3    3    0  502  0.16391856524E+02  0.29859182633E+03 -0.93798282994E+02  0.31340690740E+03  0.00000000000E+00 0.  1.
         13    1    5    5    0    0 -0.74627982883E+02 -0.39045665806E+03  0.37423712302E+03  0.54596626444E+03  0.00000000000E+00 0. -1.
        -13    1    5    5    0    0 -0.59084029669E+02 -0.41785040165E+03  0.28125793463E+03  0.50714485752E+03  0.00000000000E+00 0.  1.
          4    1    6    6  503    0  0.18791325689E+02 -0.46584937646E+02 -0.29843045847E+02  0.58428398250E+02  0.00000000000E+00 0. -1.
         -4    1    6    6    0  503  0.96216931969E+02 -0.16571950880E+02 -0.19122186025E+03  0.21470474469E+03  0.00000000000E+00 0.  1.
<mgrwt>
<rscale>  0 0.22921679E+04</rscale>
<asrwt>0</asrwt>
<pdfrwt beam="1">  1        2 0.17418877E+00 0.22921679E+04</pdfrwt>
<pdfrwt beam="2">  1       -2 0.17847853E+00 0.22921679E+04</pdfrwt>
<totfact> 0.35080368E+00</totfact>
</mgrwt>
</event>
<event>
12    3  0.8686020E-008  0.2184390E+04  0.7818608E-02  0.8524954E-01
          2   -1    0    0  501    0  0.00000000000E+00  0.00000000000E+00  0.13975921599E+04  0.13975921599E+04  0.00000000000E+00 0. -1.
         -2   -1    0    0    0  501 -0.00000000000E+00 -0.00000000000E+00 -0.85353210205E+03  0.85353210205E+03  0.00000000000E+00 0.  1.
         23    2    1    2    0    0  0.22109928859E+03 -0.52883464219E+03  0.94841582647E+03  0.11120512290E+04  0.92813694094E+02 0.  0.
        254    2    1    2    0    0 -0.22109928859E+03  0.52883464219E+03 -0.40435576866E+03  0.11390730329E+04  0.89745908678E+03 0.  0.
         23    2    4    4    0    0 -0.34811374248E+03  0.13895208503E+03 -0.57085602049E+03  0.68753541209E+03  0.79608335718E+02 0.  0.
         23    2    4    4    0    0  0.12701445389E+03  0.38988255717E+03  0.16650025183E+03  0.45153762082E+03  0.89570136071E+02 0.  0.
          2    1    3    3  502    0  0.13760893188E+03 -0.30907521838E+03  0.64366242080E+03  0.72716230699E+03  0.00000000000E+00 0. -1.
         -2    1    3    3    0  502  0.83490356708E+02 -0.21975942381E+03  0.30475340567E+03  0.38488892201E+03  0.00000000000E+00 0.  1.
         13    1    5    5    0    0 -0.48720473153E+02  0.18437769681E+02 -0.37691709131E+02  0.64298528694E+02  0.00000000000E+00 0. -1.
        -13    1    5    5    0    0 -0.29939326932E+03  0.12051431535E+03 -0.53316431136E+03  0.62323688340E+03  0.00000000000E+00 0.  1.
          4    1    6    6  503    0 -0.35565242748E+01  0.15793972340E+02 -0.86212026723E+01  0.18341852762E+02  0.00000000000E+00 0. -1.
         -4    1    6    6    0  503  0.13057097816E+03  0.37408858483E+03  0.17512145450E+03  0.43319576805E+03  0.00000000000E+00 0.  1.
<mgrwt>
<rscale>  0 0.21843899E+04</rscale>
<asrwt>0</asrwt>
<pdfrwt beam="1">  1        2 0.21501418E+00 0.21843899E+04</pdfrwt>
<pdfrwt beam="2">  1       -2 0.13131263E+00 0.21843899E+04</pdfrwt>
<totfact> 0.56258498E+00</totfact>
</mgrwt>
</event>
<event>
12    3  0.8686020E-008  0.2665215E+04  0.7818608E-02  0.8346380E-01
          2   -1    0    0  501    0  0.00000000000E+00  0.00000000000E+00  0.19380121596E+04  0.19380121596E+04  0.00000000000E+00 0. -1.
         -2   -1    0    0    0  501 -0.00000000000E+00 -0.00000000000E+00 -0.91632187504E+03  0.91632187504E+03  0.00000000000E+00 0.  1.
         23    2    1    2    0    0 -0.10351716977E+04  0.41769726952E+03  0.48535372204E+02  0.11212177744E+04  0.93392518834E+02 0.  0.
        254    2    1    2    0    0  0.10351716977E+04 -0.41769726952E+03  0.97315491239E+03  0.17331162603E+04  0.90033884490E+03 0.  0.
         23    2    4    4    0    0  0.67520396087E+03 -0.62826054250E+03  0.91501722849E+03  0.13023086451E+04  0.90219624594E+02 0.  0.
         23    2    4    4    0    0  0.35996773679E+03  0.21056327298E+03  0.58137683904E+02  0.43080761520E+03  0.91112828772E+02 0.  0.
          2    1    3    3  502    0 -0.53215396120E+03  0.18669722419E+03  0.63319894234E+02  0.56749722549E+03  0.00000000000E+00 0.  1.
         -2    1    3    3    0  502 -0.50301773646E+03  0.23100004533E+03 -0.14784522031E+02  0.55372054886E+03  0.00000000000E+00 0. -1.
         13    1    5    5    0    0  0.46973878116E+03 -0.48518340593E+03  0.69387982130E+03  0.96825960689E+03  0.00000000000E+00 0.  1.
        -13    1    5    5    0    0  0.20546517970E+03 -0.14307713657E+03  0.22113740718E+03  0.33404903822E+03  0.00000000000E+00 0. -1.
          3    1    6    6  503    0  0.17606475019E+03  0.13973879173E+03  0.63794995362E+02  0.23365685867E+03  0.00000000000E+00 0. -1.
         -3    1    6    6    0  503  0.18390298661E+03  0.70824481254E+02 -0.56573114580E+01  0.19715075653E+03  0.00000000000E+00 0.  1.
<mgrwt>
<rscale>  0 0.26652151E+04</rscale>
<asrwt>0</asrwt>
<pdfrwt beam="1">  1        2 0.29815572E+00 0.26652151E+04</pdfrwt>
<pdfrwt beam="2">  1       -2 0.14097260E+00 0.26652151E+04</pdfrwt>
<totfact> 0.22449713E+00</totfact>
</mgrwt>
</event>
<event>
12    3  0.8686020E-008  0.1925250E+04  0.7818608E-02  0.8642389E-01
          2   -1    0    0  501    0  0.00000000000E+00  0.00000000000E+00  0.26092037579E+04  0.26092037579E+04  0.00000000000E+00 0. -1.
         -2   -1    0    0    0  501 -0.00000000000E+00 -0.00000000000E+00 -0.35514563561E+03  0.35514563561E+03  0.00000000000E+00 0.  1.
         23    2    1    2    0    0 -0.62343767964E+03  0.40869685614E+03  0.77766658288E+03  0.10811116096E+04  0.91265205747E+02 0.  0.
        254    2    1    2    0    0  0.62343767964E+03 -0.40869685614E+03  0.14763915394E+04  0.18832377839E+04  0.90063583781E+03 0.  0.
         23    2    4    4    0    0  0.38088089533E+02 -0.46957207569E+03  0.10386144254E+04  0.11442130594E+04  0.92493047126E+02 0.  0.
         23    2    4    4    0    0  0.58534959010E+03  0.60875219544E+02  0.43777711403E+03  0.73902472452E+03  0.90381452134E+02 0.  0.
          4    1    3    3  502    0 -0.80766926419E+01  0.23875391840E+02  0.28132941444E+02  0.37772075583E+02  0.00000000000E+00 0. -1.
         -4    1    3    3    0  502 -0.61536098699E+03  0.38482146430E+03  0.74953364143E+03  0.10433395341E+04  0.00000000000E+00 0.  1.
         13    1    5    5    0    0  0.15355975070E+02 -0.19761298894E+03  0.54888543884E+03  0.58357683670E+03  0.00000000000E+00 0.  1.
        -13    1    5    5    0    0  0.22732114463E+02 -0.27195908675E+03  0.48972898654E+03  0.56063622265E+03  0.00000000000E+00 0. -1.
          3    1    6    6  503    0  0.46593127532E+03  0.32285265000E+02  0.38538723291E+03  0.60552259326E+03  0.00000000000E+00 0. -1.
         -3    1    6    6    0  503  0.11941831478E+03  0.28589954544E+02  0.52389881122E+02  0.13350213126E+03  0.00000000000E+00 0.  1.
<mgrwt>
<rscale>  0 0.19252505E+04</rscale>
<asrwt>0</asrwt>
<pdfrwt beam="1">  1        2 0.40141595E+00 0.19252505E+04</pdfrwt>
<pdfrwt beam="2">  1       -2 0.54637792E-01 0.19252505E+04</pdfrwt>
<totfact> 0.88644055E+00</totfact>
</mgrwt>
</event>
<event>
12    3  0.8686020E-008  0.2647689E+04  0.7818608E-02  0.8352181E-01
         -1   -1    0    0    0  501 -0.00000000000E+00  0.00000000000E+00  0.10904319327E+04  0.10904319327E+04  0.00000000000E+00 0.  1.
          1   -1    0    0  501    0  0.00000000000E+00 -0.00000000000E+00 -0.16072196717E+04  0.16072196717E+04  0.00000000000E+00 0. -1.
         23    2    1    2    0    0  0.23773850652E+03 -0.49695151940E+03 -0.12786527556E+04  0.13952262635E+04  0.90681016332E+02 0.  0.
        254    2    1    2    0    0 -0.23773850652E+03  0.49695151940E+03  0.76186501655E+03  0.13024253409E+04  0.90132849456E+03 0.  0.
         23    2    4    4    0    0 -0.15026480021E+03  0.16167255836E+03  0.89025080962E+03  0.92177797373E+03  0.91709337156E+02 0.  0.
         23    2    4    4    0    0 -0.87473706311E+02  0.33527896104E+03 -0.12838579306E+03  0.38064736719E+03  0.91355762128E+02 0.  0.
          4    1    3    3  502    0  0.16210604884E+03 -0.27463598716E+03 -0.64680039360E+03  0.72114772805E+03  0.00000000000E+00 0.  1.
         -4    1    3    3    0  502  0.75632457684E+02 -0.22231553224E+03 -0.63185236200E+03  0.67407853541E+03  0.00000000000E+00 0. -1.
         13    1    5    5    0    0 -0.95051306918E+02  0.36140023940E+02  0.36115753497E+03  0.37520076937E+03  0.00000000000E+00 0. -1.
        -13    1    5    5    0    0 -0.55213493292E+02  0.12553253442E+03  0.52909327465E+03  0.54657720436E+03  0.00000000000E+00 0.  1.
          3    1    6    6  503    0 -0.59207636921E+02  0.25994054174E+03 -0.13696783173E+03  0.29972456763E+03  0.00000000000E+00 0. -1.
         -3    1    6    6    0  503 -0.28266069390E+02  0.75338419298E+02  0.85820386633E+01  0.80922799561E+02  0.00000000000E+00 0.  1.
<mgrwt>
<rscale>  0 0.26476885E+04</rscale>
<asrwt>0</asrwt>
<pdfrwt beam="1">  1        1 0.24726456E+00 0.26476885E+04</pdfrwt>
<pdfrwt beam="2">  1       -1 0.16775876E+00 0.26476885E+04</pdfrwt>
<totfact> 0.12369337E+00</totfact>
</mgrwt>
</event>
<event>
12    3  0.8686020E-008  0.1601558E+04  0.7818608E-02  0.8819592E-01
          2   -1    0    0  501    0  0.00000000000E+00  0.00000000000E+00  0.77020966253E+03  0.77020966253E+03  0.00000000000E+00 0.  1.
         -2   -1    0    0    0  501 -0.00000000000E+00 -0.00000000000E+00 -0.83256120796E+03  0.83256120796E+03  0.00000000000E+00 0. -1.
         23    2    1    2    0    0 -0.12855161349E+03 -0.52544043397E+03 -0.66030029591E+02  0.55245537283E+03  0.90740328309E+02 0.  0.
        254    2    1    2    0    0  0.12855161349E+03  0.52544043397E+03  0.36784841622E+01  0.10503154977E+04  0.90029769877E+03 0.  0.
         23    2    4    4    0    0  0.38151109645E+03  0.32232718784E+03 -0.30489031023E+03  0.59235932328E+03  0.92119128689E+02 0.  0.
         23    2    4    4    0    0 -0.25295948296E+03  0.20311324613E+03  0.30856879439E+03  0.45795617438E+03  0.96258329557E+02 0.  0.
          3    1    3    3  502    0 -0.47520576067E+01 -0.20374923792E+03 -0.24458489801E+02  0.20526702543E+03  0.00000000000E+00 0. -1.
         -3    1    3    3    0  502 -0.12379955588E+03 -0.32169119604E+03 -0.41571539791E+02  0.34718834740E+03  0.00000000000E+00 0.  1.
         13    1    5    5    0    0  0.33198912399E+01  0.22197721830E+01 -0.20874508046E+02  0.21253097482E+02  0.00000000000E+00 0. -1.
        -13    1    5    5    0    0  0.37819120521E+03  0.32010741565E+03 -0.28401580219E+03  0.57110622580E+03  0.00000000000E+00 0.  1.
          4    1    6    6  503    0 -0.10624758691E+03  0.27958446269E+02  0.10376197245E+03  0.15111840182E+03  0.00000000000E+00 0. -1.
         -4    1    6    6    0  503 -0.14671189605E+03  0.17515479986E+03  0.20480682195E+03  0.30683777257E+03  0.00000000000E+00 0.  1.
<mgrwt>
<rscale>  0 0.16015576E+04</rscale>
<asrwt>0</asrwt>
<pdfrwt beam="1">  1        2 0.11849379E+00 0.16015576E+04</pdfrwt>
<pdfrwt beam="2">  1       -2 0.12808634E+00 0.16015576E+04</pdfrwt>
<totfact> 0.15656261E+01</totfact>
</mgrwt>
</event>
<event>
12    3  0.8686020E-008  0.1807897E+04  0.7818608E-02  0.8702111E-01
          2   -1    0    0  501    0  0.00000000000E+00  0.00000000000E+00  0.27874683096E+04  0.27874683096E+04  0.00000000000E+00 0.  1.
         -2   -1    0    0    0  501 -0.00000000000E+00 -0.00000000000E+00 -0.29314173159E+03  0.29314173159E+03  0.00000000000E+00 0. -1.
         23    2    1    2    0    0 -0.37676260811E+03 -0.55994350839E+03  0.10144147716E+04  0.12218858495E+04  0.92091827926E+02 0.  0.
        254    2    1    2    0    0  0.37676260811E+03  0.55994350839E+03  0.14799118064E+04  0.18587241918E+04  0.89957204869E+03 0.  0.
         23    2    4    4    0    0  0.24784387373E+03  0.19166821550E+03  0.55979349367E+00  0.32642856268E+03  0.91607874028E+02 0.  0.
         23    2    4    4    0    0  0.12891873438E+03  0.36827529289E+03  0.14793520129E+04  0.15322956291E+04  0.84857441191E+02 0.  0.
          1    1    3    3  502    0 -0.18894546433E+03 -0.21525859407E+03  0.47688095774E+03  0.55628418876E+03  0.00000000000E+00 0. -1.
         -1    1    3    3    0  502 -0.18781714378E+03 -0.34468491433E+03  0.53753381387E+03  0.66560166069E+03  0.00000000000E+00 0.  1.
         13    1    5    5    0    0  0.14374466381E+03  0.53377292154E+02  0.52256371833E+00  0.15333602566E+03  0.00000000000E+00 0. -1.
        -13    1    5    5    0    0  0.10409920992E+03  0.13829092335E+03  0.37229775340E-01  0.17309253702E+03  0.00000000000E+00 0.  1.
          1    1    6    6  503    0  0.75491325488E+02  0.31116513046E+03  0.11457412103E+04  0.11896409541E+04  0.00000000000E+00 0. -1.
         -1    1    6    6    0  503  0.53427408889E+02  0.57110162434E+02  0.33361080261E+03  0.34265467499E+03  0.00000000000E+00 0.  1.
<mgrwt>
<rscale>  0 0.18078974E+04</rscale>
<asrwt>0</asrwt>
<pdfrwt beam="1">  1        2 0.42884126E+00 0.18078974E+04</pdfrwt>
<pdfrwt beam="2">  1       -2 0.45098730E-01 0.18078974E+04</pdfrwt>
<totfact> 0.10377351E+01</totfact>
</mgrwt>
</event>
<event>
12    3  0.8686020E-008  0.2592699E+04  0.7818608E-02  0.8370686E-01
         -2   -1    0    0    0  501 -0.00000000000E+00  0.00000000000E+00  0.61205210060E+03  0.61205210060E+03  0.00000000000E+00 0.  1.
          2   -1    0    0  501    0  0.00000000000E+00 -0.00000000000E+00 -0.27457162704E+04  0.27457162704E+04  0.00000000000E+00 0. -1.
         23    2    1    2    0    0  0.24359137877E+03 -0.11069209900E+04 -0.10628897439E+04  0.15565277466E+04  0.91832349197E+02 0.  0.
        254    2    1    2    0    0 -0.24359137877E+03  0.11069209900E+04 -0.10707744260E+04  0.18012406245E+04  0.90183095870E+03 0.  0.
         23    2    4    4    0    0  0.17932392894E+03  0.97015304007E+03 -0.79242789834E+03  0.12686332118E+04  0.90190129341E+02 0.  0.
         23    2    4    4    0    0 -0.42291530770E+03  0.13676794990E+03 -0.27834652765E+03  0.53260741266E+03  0.92903374262E+02 0.  0.
          1    1    3    3  502    0  0.18902280299E+03 -0.92893737532E+03 -0.84470448336E+03  0.12697164768E+04  0.00000000000E+00 0.  1.
         -1    1    3    3    0  502  0.54568575781E+02 -0.17798361465E+03 -0.21818526049E+03  0.28681126973E+03  0.00000000000E+00 0. -1.
         13    1    5    5    0    0  0.14957352707E+02  0.14131383000E+02 -0.18752414380E+02  0.27840104715E+02  0.00000000000E+00 0. -1.
        -13    1    5    5    0    0  0.16436657623E+03  0.95602165707E+03 -0.77367548396E+03  0.12407931071E+04  0.00000000000E+00 0.  1.
          2    1    6    6  503    0 -0.18658046327E+03  0.99960114047E+02 -0.16245642043E+03  0.26682650208E+03  0.00000000000E+00 0. -1.
         -2    1    6    6    0  503 -0.23633484443E+03  0.36807835854E+02 -0.11589010723E+03  0.26578091057E+03  0.00000000000E+00 0.  1.
<mgrwt>
<rscale>  0 0.25926985E+04</rscale>
<asrwt>0</asrwt>
<pdfrwt beam="1">  1        2 0.42241788E+00 0.25926985E+04</pdfrwt>
<pdfrwt beam="2">  1       -2 0.94161864E-01 0.25926985E+04</pdfrwt>
<totfact> 0.20994705E+00</totfact>
</mgrwt>
</event>
<event>
12    3  0.8686020E-008  0.2570502E+04  0.7818608E-02  0.8378290E-01
         -2   -1    0    0    0  501 -0.00000000000E+00  0.00000000000E+00  0.12126278479E+04  0.12126278479E+04  0.00000000000E+00 0.  1.
          2   -1    0    0  501    0  0.00000000000E+00 -0.00000000000E+00 -0.13622237526E+04  0.13622237526E+04  0.00000000000E+00 0. -1.
         23    2    1    2    0    0  0.53170035423E+03  0.99173487067E+03 -0.89697648863E+02  0.11324136206E+04  0.89842191819E+02 0.  0.
        254    2    1    2    0    0 -0.53170035423E+03 -0.99173487067E+03 -0.59898255781E+02  0.14424379799E+04  0.90044222719E+03 0.  0.
         23    2    4    4    0    0  0.25675638447E+02 -0.46390984480E+03 -0.37923082824E+03  0.60630394289E+03  0.88976781054E+02 0.  0.
         23    2    4    4    0    0 -0.55737599268E+03 -0.52782502587E+03  0.31933257246E+03  0.83613403703E+03  0.88767003456E+02 0.  0.
          3    1    3    3  502    0  0.46199803039E+03  0.84409586845E+03 -0.10720834465E+03  0.96821157005E+03  0.00000000000E+00 0. -1.
         -3    1    3    3    0  502  0.69702323842E+02  0.14763900222E+03  0.17510695783E+02  0.16420205051E+03  0.00000000000E+00 0.  1.
         13    1    5    5    0    0  0.43390722336E+02 -0.33908036259E+03 -0.31481126420E+03  0.46471967803E+03  0.00000000000E+00 0.  1.
        -13    1    5    5    0    0 -0.17715083889E+02 -0.12482948221E+03 -0.64419564041E+02  0.14158426486E+03  0.00000000000E+00 0. -1.
          3    1    6    6  503    0 -0.72904530015E+02 -0.11236953808E+03  0.43156554933E+02  0.14072836181E+03  0.00000000000E+00 0. -1.
         -3    1    6    6    0  503 -0.48447146267E+03 -0.41545548779E+03  0.27617601753E+03  0.69540567522E+03  0.00000000000E+00 0.  1.
<mgrwt>
<rscale>  0 0.25705023E+04</rscale>
<asrwt>0</asrwt>
<pdfrwt beam="1">  1        2 0.20957289E+00 0.25705023E+04</pdfrwt>
<pdfrwt beam="2">  1       -2 0.18655813E+00 0.25705023E+04</pdfrwt>
<totfact> 0.22059062E+00</totfact>
</mgrwt>
</event>
<event>
12    3  0.8686020E-008  0.1657554E+04  0.7818608E-02  0.8785950E-01
          2   -1    0    0  501    0  0.00000000000E+00  0.00000000000E+00  0.22737247331E+04  0.22737247331E+04  0.00000000000E+00 0. -1.
         -2   -1    0    0    0  501 -0.00000000000E+00 -0.00000000000E+00 -0.30209089406E+03  0.30209089406E+03  0.00000000000E+00 0.  1.
         23    2    1    2    0    0  0.52139906099E+03 -0.12346049892E+03  0.35847406386E+03  0.65257180517E+03  0.10122663112E+03 0.  0.
        254    2    1    2    0    0 -0.52139906099E+03  0.12346049892E+03  0.16131597752E+04  0.19232438220E+04  0.89971265579E+03 0.  0.
         23    2    4    4    0    0 -0.42487952572E+03  0.21985512264E+03  0.24577935432E+03  0.54660150127E+03  0.97502942805E+02 0.  0.
         23    2    4    4    0    0 -0.96519535266E+02 -0.96394623723E+02  0.13673804208E+04  0.13766423207E+04  0.82504058610E+02 0.  0.
          1    1    3    3  502    0  0.40964724914E+03 -0.13735660880E+03  0.29672694491E+03  0.52414176187E+03  0.00000000000E+00 0. -1.
         -1    1    3    3    0  502  0.11175181185E+03  0.13896109878E+02  0.61747118954E+02  0.12843004330E+03  0.00000000000E+00 0.  1.
         13    1    5    5    0    0 -0.12814684677E+03  0.36268143889E+02  0.10793981189E+03  0.17142927285E+03  0.00000000000E+00 0.  1.
        -13    1    5    5    0    0 -0.29673267895E+03  0.18358697875E+03  0.13783954243E+03  0.37517222843E+03  0.00000000000E+00 0. -1.
          4    1    6    6  503    0 -0.64941217672E+02 -0.15339720260E+02  0.41892746312E+03  0.42420854320E+03  0.00000000000E+00 0. -1.
         -4    1    6    6    0  503 -0.31578317594E+02 -0.81054903463E+02  0.94845295772E+03  0.95243377750E+03  0.00000000000E+00 0.  1.
<mgrwt>
<rscale>  0 0.16575543E+04</rscale>
<asrwt>0</asrwt>
<pdfrwt beam="1">  1        2 0.34980379E+00 0.16575543E+04</pdfrwt>
<pdfrwt beam="2">  1       -2 0.46475524E-01 0.16575543E+04</pdfrwt>
<totfact> 0.19677775E+01</totfact>
</mgrwt>
</event>
<event>
12    3  0.8686020E-008  0.2052491E+04  0.7818608E-02  0.8582465E-01
         -2   -1    0    0    0  501 -0.00000000000E+00  0.00000000000E+00  0.56266303541E+03  0.56266303541E+03  0.00000000000E+00 0. -1.
          2   -1    0    0  501    0  0.00000000000E+00 -0.00000000000E+00 -0.18717764481E+04  0.18717764481E+04  0.00000000000E+00 0.  1.
         23    2    1    2    0    0  0.68347962465E+03 -0.30932670176E+03 -0.94001611674E+03  0.12062168854E+04  0.92203411847E+02 0.  0.
        254    2    1    2    0    0 -0.68347962465E+03  0.30932670176E+03 -0.36909729595E+03  0.12282225981E+04  0.89970580242E+03 0.  0.
         23    2    4    4    0    0 -0.56676667911E+03 -0.14535149443E+03  0.46251919346E+02  0.59488227892E+03  0.96923476262E+02 0.  0.
         23    2    4    4    0    0 -0.11671294554E+03  0.45467819619E+03 -0.41534921529E+03  0.63334031919E+03  0.90833999826E+02 0.  0.
          4    1    3    3  502    0  0.89457068999E+02 -0.34248095846E+02 -0.76337446105E+02  0.12248634594E+03  0.00000000000E+00 0. -1.
         -4    1    3    3    0  502  0.59402255565E+03 -0.27507860592E+03 -0.86367867063E+03  0.10837305395E+04  0.00000000000E+00 0.  1.
         13    1    5    5    0    0 -0.48143677893E+03 -0.12455897636E+03  0.74026350714E+02  0.50276854645E+03  0.00000000000E+00 0. -1.
        -13    1    5    5    0    0 -0.85329900178E+02 -0.20792518063E+02 -0.27774431368E+02  0.92113732470E+02  0.00000000000E+00 0.  1.
          4    1    6    6  503    0 -0.78136516532E+02  0.36855937315E+03 -0.28492910206E+03  0.47236206448E+03  0.00000000000E+00 0. -1.
         -4    1    6    6    0  503 -0.38576429007E+02  0.86118823036E+02 -0.13042011323E+03  0.16097825472E+03  0.00000000000E+00 0.  1.
<mgrwt>
<rscale>  0 0.20524906E+04</rscale>
<asrwt>0</asrwt>
<pdfrwt beam="1">  1        2 0.28796561E+00 0.20524906E+04</pdfrwt>
<pdfrwt beam="2">  1       -2 0.86563543E-01 0.20524906E+04</pdfrwt>
<totfact> 0.84168226E+00</totfact>
</mgrwt>
</event>
<event>
12    3  0.8686020E-008  0.1348256E+04  0.7818608E-02  0.8992149E-01
         -1   -1    0    0    0  501 -0.00000000000E+00  0.00000000000E+00  0.67701711512E+03  0.67701711512E+03  0.00000000000E+00 0.  1.
          1   -1    0    0  501    0  0.00000000000E+00 -0.00000000000E+00 -0.67125126070E+03  0.67125126070E+03  0.00000000000E+00 0. -1.
         23    2    1    2    0    0  0.26837819122E+03 -0.34591240587E+02 -0.24145865416E+03  0.37306787044E+03  0.87486838076E+02 0.  0.
        254    2    1    2    0    0 -0.26837819122E+03  0.34591240587E+02  0.24722450858E+03  0.97520050538E+03  0.90369943045E+03 0.  0.
         23    2    4    4    0    0 -0.39576196244E+02 -0.84142012299E+02  0.55128852553E+03  0.56619590478E+03  0.89513187135E+02 0.  0.
         23    2    4    4    0    0 -0.22880199498E+03  0.11873325289E+03 -0.30406401695E+03  0.40900460059E+03  0.91552709728E+02 0.  0.
          1    1    3    3  502    0  0.11352346471E+03 -0.12348936625E+02 -0.16032903472E+03  0.19683869703E+03  0.00000000000E+00 0. -1.
         -1    1    3    3    0  502  0.15485472652E+03 -0.22242303962E+02 -0.81129619442E+02  0.17622917341E+03  0.00000000000E+00 0.  1.
         13    1    5    5    0    0 -0.40141932156E+01  0.18821682727E+02  0.10932036997E+03  0.11100140890E+03  0.00000000000E+00 0.  1.
        -13    1    5    5    0    0 -0.35562003028E+02 -0.10296369503E+03  0.44196815556E+03  0.45519449588E+03  0.00000000000E+00 0. -1.
          2    1    6    6  503    0 -0.23085036443E+02  0.85199032295E+01 -0.86538047449E+02  0.89968557368E+02  0.00000000000E+00 0. -1.
         -2    1    6    6    0  503 -0.20571695854E+03  0.11021334966E+03 -0.21752596950E+03  0.31903604323E+03  0.00000000000E+00 0.  1.
<mgrwt>
<rscale>  0 0.13482560E+04</rscale>
<asrwt>0</asrwt>
<pdfrwt beam="1">  1        1 0.10326942E+00 0.13482560E+04</pdfrwt>
<pdfrwt beam="2">  1       -1 0.10415648E+00 0.13482560E+04</pdfrwt>
<totfact> 0.24663832E+01</totfact>
</mgrwt>
</event>
<event>
12    3  0.8686020E-008  0.3862710E+04  0.7818608E-02  0.8032830E-01
         -1   -1    0    0    0  501 -0.00000000000E+00  0.00000000000E+00  0.13686368451E+04  0.13686368451E+04  0.00000000000E+00 0.  1.
          1   -1    0    0  501    0  0.00000000000E+00 -0.00000000000E+00 -0.27254359361E+04  0.27254359361E+04  0.00000000000E+00 0. -1.
         23    2    1    2    0    0  0.97891281469E+03 -0.56563962758E+03  0.87629917602E+03  0.14333317121E+04  0.91219865806E+02 0.  0.
        254    2    1    2    0    0 -0.97891281469E+03  0.56563962758E+03 -0.22330982670E+04  0.26607410691E+04  0.90255009831E+03 0.  0.
         23    2    4    4    0    0 -0.22829359572E+03  0.28719895517E+02 -0.13752320099E+04  0.13973199452E+04  0.91088692435E+02 0.  0.
         23    2    4    4    0    0 -0.75061921897E+03  0.53691973206E+03 -0.85786625706E+03  0.12634211239E+04  0.92662888317E+02 0.  0.
          3    1    3    3  502    0  0.45399962202E+03 -0.28376204073E+03  0.36230993421E+03  0.64645575330E+03  0.00000000000E+00 0. -1.
         -3    1    3    3    0  502  0.52491319268E+03 -0.28187758684E+03  0.51398924181E+03  0.78687595878E+03  0.00000000000E+00 0.  1.
         13    1    5    5    0    0  0.41521431508E+00 -0.62473852012E+01 -0.59797141382E+01  0.86578984722E+01  0.00000000000E+00 0. -1.
        -13    1    5    5    0    0 -0.22870881004E+03  0.34967280719E+02 -0.13692522958E+04  0.13886620467E+04  0.00000000000E+00 0.  1.
          3    1    6    6  503    0 -0.81847956806E+02  0.57390988637E+02 -0.13578636431E+03  0.16861420564E+03  0.00000000000E+00 0. -1.
         -3    1    6    6    0  503 -0.66877126216E+03  0.47952874342E+03 -0.72207989275E+03  0.10948069183E+04  0.00000000000E+00 0.  1.
<mgrwt>
<rscale>  0 0.38627100E+04</rscale>
<asrwt>0</asrwt>
<pdfrwt beam="1">  1        1 0.41929784E+00 0.38627100E+04</pdfrwt>
<pdfrwt beam="2">  1       -1 0.21055951E+00 0.38627100E+04</pdfrwt>
<totfact> 0.94956876E-02</totfact>
</mgrwt>
</event>
<event>
12    3  0.8686020E-008  0.2956803E+04  0.7818608E-02  0.8256175E-01
         -1   -1    0    0    0  501 -0.00000000000E+00  0.00000000000E+00  0.10479886251E+04  0.10479886251E+04  0.00000000000E+00 0.  1.
          1   -1    0    0  501    0  0.00000000000E+00 -0.00000000000E+00 -0.20855860463E+04  0.20855860463E+04  0.00000000000E+00 0. -1.
         23    2    1    2    0    0 -0.72552647171E+03 -0.86908481800E+03  0.28932866182E+03  0.11721161004E+04  0.91912981608E+02 0.  0.
        254    2    1    2    0    0  0.72552647171E+03  0.86908481800E+03 -0.13269260831E+04  0.19614585710E+04  0.89715651579E+03 0.  0.
         23    2    4    4    0    0  0.34765835698E+02  0.24674274221E+03 -0.89310092895E+03  0.93170894282E+03  0.91442007141E+02 0.  0.
         23    2    4    4    0    0  0.69076063601E+03  0.62234207579E+03 -0.43382515412E+03  0.10297496282E+04  0.87864195510E+02 0.  0.
          4    1    3    3  502    0 -0.41491839958E+03 -0.54455912915E+03  0.20870506239E+03  0.71572321921E+03  0.00000000000E+00 0. -1.
         -4    1    3    3    0  502 -0.31060807213E+03 -0.32452568886E+03  0.80623599429E+02  0.45639288118E+03  0.00000000000E+00 0.  1.
         13    1    5    5    0    0 -0.30945034818E+02  0.91614019931E+02 -0.34566094363E+03  0.35893204340E+03  0.00000000000E+00 0. -1.
        -13    1    5    5    0    0  0.65710870516E+02  0.15512872228E+03 -0.54743998532E+03  0.57277689942E+03  0.00000000000E+00 0.  1.
          1    1    6    6  503    0  0.13517184539E+03  0.11764033608E+03 -0.12294342843E+03  0.21731489376E+03  0.00000000000E+00 0. -1.
         -1    1    6    6    0  503  0.55558879063E+03  0.50470173971E+03 -0.31088172569E+03  0.81243473443E+03  0.00000000000E+00 0.  1.
<mgrwt>
<rscale>  0 0.29568026E+04</rscale>
<asrwt>0</asrwt>
<pdfrwt beam="1">  1        1 0.32085939E+00 0.29568026E+04</pdfrwt>
<pdfrwt beam="2">  1       -1 0.16122902E+00 0.29568026E+04</pdfrwt>
<totfact> 0.63685088E-01</totfact>
</mgrwt>
</event>
<event>
12    3  0.8686020E-008  0.2489383E+04  0.7818608E-02  0.8406778E-01
          2   -1    0    0  501    0  0.00000000000E+00  0.00000000000E+00  0.18503105355E+04  0.18503105355E+04  0.00000000000E+00 0. -1.
         -2   -1    0    0    0  501 -0.00000000000E+00 -0.00000000000E+00 -0.83729576948E+03  0.83729576948E+03  0.00000000000E+00 0.  1.
         23    2    1    2    0    0  0.87366168860E+03  0.62719549093E+03  0.51488584561E+03  0.11959633111E+04  0.92530414480E+02 0.  0.
        254    2    1    2    0    0 -0.87366168860E+03 -0.62719549093E+03  0.49812892041E+03  0.14916429938E+04  0.90565306255E+03 0.  0.
         23    2    4    4    0    0 -0.19992689820E+02 -0.53277646181E+03  0.16011236644E+03  0.56455465434E+03  0.93997457115E+02 0.  0.
         23    2    4    4    0    0 -0.85366899878E+03 -0.94419029128E+02  0.33801655397E+03  0.92708833949E+03  0.87016584160E+02 0.  0.
          1    1    3    3  502    0  0.19156189308E+03  0.11136520916E+03  0.72563627557E+02  0.23316013539E+03  0.00000000000E+00 0. -1.
         -1    1    3    3    0  502  0.68209979552E+03  0.51583028178E+03  0.44232221805E+03  0.96280317575E+03  0.00000000000E+00 0.  1.
         13    1    5    5    0    0 -0.11162022585E+02 -0.19719238143E+03  0.10715377899E+03  0.22470282240E+03  0.00000000000E+00 0.  1.
        -13    1    5    5    0    0 -0.88306672353E+01 -0.33558408038E+03  0.52958587450E+02  0.33985183194E+03  0.00000000000E+00 0. -1.
          4    1    6    6  503    0 -0.71921192686E+03 -0.10641597085E+03  0.30281343713E+03  0.78758246063E+03  0.00000000000E+00 0. -1.
         -4    1    6    6    0  503 -0.13445707192E+03  0.11996941721E+02  0.35203116833E+02  0.13950587886E+03  0.00000000000E+00 0.  1.
<mgrwt>
<rscale>  0 0.24893832E+04</rscale>
<asrwt>0</asrwt>
<pdfrwt beam="1">  1        2 0.28466316E+00 0.24893832E+04</pdfrwt>
<pdfrwt beam="2">  1       -2 0.12881473E+00 0.24893832E+04</pdfrwt>
<totfact> 0.32107567E+00</totfact>
</mgrwt>
</event>
<event>
12    3  0.8686020E-008  0.1242886E+04  0.7818608E-02  0.9076125E-01
         -2   -1    0    0    0  501 -0.00000000000E+00  0.00000000000E+00  0.12935719264E+04  0.12935719264E+04  0.00000000000E+00 0.  1.
          2   -1    0    0  501    0  0.00000000000E+00 -0.00000000000E+00 -0.29854649422E+03  0.29854649422E+03  0.00000000000E+00 0. -1.
         23    2    1    2    0    0 -0.13474618054E+03  0.17842709326E+03  0.17153147636E+02  0.24422027869E+03  0.96729278238E+02 0.  0.
        254    2    1    2    0    0  0.13474618054E+03 -0.17842709326E+03  0.97787228452E+03  0.13478981419E+04  0.90033462408E+03 0.  0.
         23    2    4    4    0    0 -0.23479810320E+03  0.46320170804E+02 -0.19878866652E+02  0.25655240832E+03  0.90267720618E+02 0.  0.
         23    2    4    4    0    0  0.36954428374E+03 -0.22474726406E+03  0.99775115117E+03  0.10913457336E+04  0.91944767073E+02 0.  0.
          2    1    3    3  502    0 -0.12272018946E+02  0.63935957360E+02 -0.27574127594E+02  0.70701779363E+02  0.00000000000E+00 0. -1.
         -2    1    3    3    0  502 -0.12247416160E+03  0.11449113590E+03  0.44727275230E+02  0.17351849933E+03  0.00000000000E+00 0.  1.
         13    1    5    5    0    0 -0.20412658009E+03  0.53325054098E+02 -0.45678850420E+02  0.21586518819E+03  0.00000000000E+00 0.  1.
        -13    1    5    5    0    0 -0.30671523103E+02 -0.70048832944E+01  0.25799983768E+02  0.40687220130E+02  0.00000000000E+00 0. -1.
          4    1    6    6  503    0  0.16801709360E+03 -0.52823869605E+02  0.36024752986E+03  0.40099674277E+03  0.00000000000E+00 0. -1.
         -4    1    6    6    0  503  0.20152719014E+03 -0.17192339446E+03  0.63750362131E+03  0.69034899081E+03  0.00000000000E+00 0.  1.
<mgrwt>
<rscale>  0 0.12428859E+04</rscale>
<asrwt>0</asrwt>
<pdfrwt beam="1">  1        2 0.45930231E-01 0.12428859E+04</pdfrwt>
<pdfrwt beam="2">  1       -2 0.19901106E+00 0.12428859E+04</pdfrwt>
<totfact> 0.14653470E+01</totfact>
</mgrwt>
</event>
<event>
12    3  0.8686020E-008  0.4556386E+04  0.7818608E-02  0.7900839E-01
         -1   -1    0    0    0  501 -0.00000000000E+00  0.00000000000E+00  0.20483410268E+04  0.20483410268E+04  0.00000000000E+00 0.  1.
          1   -1    0    0  501    0  0.00000000000E+00 -0.00000000000E+00 -0.25338377451E+04  0.25338377451E+04  0.00000000000E+00 0. -1.
         23    2    1    2    0    0  0.12851647588E+04  0.16676657914E+04 -0.83247976874E+03  0.22657169003E+04  0.87708939785E+02 0.  0.
        254    2    1    2    0    0 -0.12851647588E+04 -0.16676657914E+04  0.34698305043E+03  0.23164618716E+04  0.90157679457E+03 0.  0.
         23    2    4    4    0    0 -0.95490503257E+03 -0.54732016757E+03  0.39344512890E+02  0.11052228063E+04  0.92555247522E+02 0.  0.
         23    2    4    4    0    0 -0.33025972619E+03 -0.11203456238E+04  0.30763853754E+03  0.12112390653E+04  0.90624500068E+02 0.  0.
          1    1    3    3  502    0  0.59789699200E+02  0.52634508244E+02 -0.24291937120E+02  0.83278435369E+02  0.00000000000E+00 0. -1.
         -1    1    3    3    0  502  0.12253750596E+04  0.16150312832E+04 -0.80818783162E+03  0.21824384650E+04  0.00000000000E+00 0.  1.
         13    1    5    5    0    0 -0.86689723725E+03 -0.51599948802E+03  0.55727815680E+02  0.10103820471E+04  0.00000000000E+00 0.  1.
        -13    1    5    5    0    0 -0.88007795325E+02 -0.31320679549E+02 -0.16383302790E+02  0.94840759253E+02  0.00000000000E+00 0. -1.
          3    1    6    6  503    0 -0.13459260311E+03 -0.35196542965E+03  0.13060549247E+03  0.39881402576E+03  0.00000000000E+00 0. -1.
         -3    1    6    6    0  503 -0.19566712308E+03 -0.76838019419E+03  0.17703304506E+03  0.81242503957E+03  0.00000000000E+00 0.  1.
<mgrwt>
<rscale>  0 0.45563862E+04</rscale>
<asrwt>0</asrwt>
<pdfrwt beam="1">  1        1 0.38982119E+00 0.45563862E+04</pdfrwt>
<pdfrwt beam="2">  1       -1 0.31512939E+00 0.45563862E+04</pdfrwt>
<totfact> 0.25278224E-02</totfact>
</mgrwt>
</event>
<event>
12    3  0.8686020E-008  0.1278830E+04  0.7818608E-02  0.9046524E-01
          1   -1    0    0  501    0  0.00000000000E+00  0.00000000000E+00  0.77236708975E+03  0.77236708975E+03  0.00000000000E+00 0. -1.
         -1   -1    0    0    0  501 -0.00000000000E+00 -0.00000000000E+00 -0.52934841106E+03  0.52934841106E+03  0.00000000000E+00 0.  1.
         23    2    1    2    0    0 -0.16649449193E+03  0.17823391966E+03 -0.13774069309E+03  0.29480112825E+03  0.91910068680E+02 0.  0.
        254    2    1    2    0    0  0.16649449193E+03 -0.17823391966E+03  0.38075937178E+03  0.10069143726E+04  0.89967277858E+03 0.  0.
         23    2    4    4    0    0  0.43809807411E+03 -0.36803524814E+03  0.17217378360E+03  0.60451422332E+03  0.91726593876E+02 0.  0.
         23    2    4    4    0    0 -0.27160358218E+03  0.18980132847E+03  0.20858558818E+03  0.40240014924E+03  0.92870244811E+02 0.  0.
          1    1    3    3  502    0  0.37453625003E+01  0.26891372159E+02  0.25651864833E+01  0.27271850296E+02  0.00000000000E+00 0. -1.
         -1    1    3    3    0  502 -0.17023985443E+03  0.15134254750E+03 -0.14030587958E+03  0.26752927796E+03  0.00000000000E+00 0.  1.
         13    1    5    5    0    0  0.20796980910E+03 -0.19952270393E+03  0.42977844028E+02  0.29138950901E+03  0.00000000000E+00 0. -1.
        -13    1    5    5    0    0  0.23012826501E+03 -0.16851254420E+03  0.12919593957E+03  0.31312471431E+03  0.00000000000E+00 0.  1.
          1    1    6    6  503    0 -0.22560630011E+03  0.18865622837E+03  0.19984356723E+03  0.35556550243E+03  0.00000000000E+00 0. -1.
         -1    1    6    6    0  503 -0.45997282067E+02  0.11451001012E+01  0.87420209463E+01  0.46834646812E+02  0.00000000000E+00 0.  1.
<mgrwt>
<rscale>  0 0.12788296E+04</rscale>
<asrwt>0</asrwt>
<pdfrwt beam="1">  1        1 0.11882571E+00 0.12788296E+04</pdfrwt>
<pdfrwt beam="2">  1       -1 0.81438217E-01 0.12788296E+04</pdfrwt>
<totfact> 0.34571355E+01</totfact>
</mgrwt>
</event>
<event>
12    3  0.8686020E-008  0.1774689E+04  0.7818608E-02  0.8719877E-01
         -1   -1    0    0    0  501 -0.00000000000E+00  0.00000000000E+00  0.41728152455E+03  0.41728152455E+03  0.00000000000E+00 0.  1.
          1   -1    0    0  501    0  0.00000000000E+00 -0.00000000000E+00 -0.18869276235E+04  0.18869276235E+04  0.00000000000E+00 0. -1.
         23    2    1    2    0    0 -0.20157474690E+03 -0.56884268417E+03 -0.21821082839E+03  0.64810390435E+03  0.90599819460E+02 0.  0.
        254    2    1    2    0    0  0.20157474690E+03  0.56884268417E+03 -0.12514352706E+04  0.16561052437E+04  0.90132123239E+03 0.  0.
         23    2    4    4    0    0  0.14238127329E+03 -0.15771950691E+02  0.87651620092E+02  0.19096804376E+03  0.90910977442E+02 0.  0.
         23    2    4    4    0    0  0.59193473610E+02  0.58461463486E+03 -0.13390868907E+04  0.14651372000E+04  0.90527207869E+02 0.  0.
          4    1    3    3  502    0 -0.18404652809E+03 -0.41067406616E+03 -0.14393536221E+03  0.47248672110E+03  0.00000000000E+00 0. -1.
         -4    1    3    3    0  502 -0.17528218811E+02 -0.15816861801E+03 -0.74275466180E+02  0.17561718325E+03  0.00000000000E+00 0.  1.
         13    1    5    5    0    0  0.13459307833E+03 -0.84508791660E+01  0.10477916504E+03  0.17077876777E+03  0.00000000000E+00 0. -1.
        -13    1    5    5    0    0  0.77881949606E+01 -0.73210715245E+01 -0.17127544950E+02  0.20189275991E+02  0.00000000000E+00 0.  1.
          4    1    6    6  503    0  0.86139543918E+01  0.35213889969E+03 -0.88442726000E+03  0.95199137765E+03  0.00000000000E+00 0. -1.
         -4    1    6    6    0  503  0.50579519218E+02  0.23247573517E+03 -0.45465963069E+03  0.51314582234E+03  0.00000000000E+00 0.  1.
<mgrwt>
<rscale>  0 0.17746887E+04</rscale>
<asrwt>0</asrwt>
<pdfrwt beam="1">  1        1 0.29029655E+00 0.17746887E+04</pdfrwt>
<pdfrwt beam="2">  1       -1 0.64197159E-01 0.17746887E+04</pdfrwt>
<totfact> 0.82746389E+00</totfact>
</mgrwt>
</event>
<event>
12    3  0.8686020E-008  0.1703500E+04  0.7818608E-02  0.8759371E-01
          2   -1    0    0  501    0  0.00000000000E+00  0.00000000000E+00  0.12129439148E+04  0.12129439148E+04  0.00000000000E+00 0. -1.
         -2   -1    0    0    0  501 -0.00000000000E+00 -0.00000000000E+00 -0.59811330411E+03  0.59811330411E+03  0.00000000000E+00 0.  1.
         23    2    1    2    0    0  0.28436206944E+03  0.51922947374E+03  0.37735682380E+03  0.70786700572E+03  0.90644869600E+02 0.  0.
        254    2    1    2    0    0 -0.28436206944E+03 -0.51922947374E+03  0.23747378689E+03  0.11031902132E+04  0.90009655820E+03 0.  0.
         23    2    4    4    0    0 -0.59802775431E+03 -0.37927716064E+03  0.22145594439E+03  0.74760238968E+03  0.91532716781E+02 0.  0.
         23    2    4    4    0    0  0.31366568488E+03 -0.13995231310E+03  0.16017842501E+02  0.35558782351E+03  0.90627353132E+02 0.  0.
          2    1    3    3  502    0  0.46458946891E+02  0.16674706393E+03  0.12298688550E+03  0.21234121380E+03  0.00000000000E+00 0. -1.
         -2    1    3    3    0  502  0.23790312254E+03  0.35248240982E+03  0.25436993830E+03  0.49552579192E+03  0.00000000000E+00 0.  1.
         13    1    5    5    0    0 -0.34168321466E+01  0.42820140380E+01  0.55740724423E+01  0.78154123200E+01  0.00000000000E+00 0. -1.
        -13    1    5    5    0    0 -0.59461092217E+03 -0.38355917468E+03  0.21588187195E+03  0.73978697736E+03  0.00000000000E+00 0.  1.
          1    1    6    6  503    0  0.13114055992E+03 -0.10720672035E+02  0.49579167007E+01  0.13167140996E+03  0.00000000000E+00 0. -1.
         -1    1    6    6    0  503  0.18252512496E+03 -0.12923164107E+03  0.11059925801E+02  0.22391641354E+03  0.00000000000E+00 0.  1.
<mgrwt>
<rscale>  0 0.17034998E+04</rscale>
<asrwt>0</asrwt>
<pdfrwt beam="1">  1        2 0.18660676E+00 0.17034998E+04</pdfrwt>
<pdfrwt beam="2">  1       -2 0.92017431E-01 0.17034998E+04</pdfrwt>
<totfact> 0.17772578E+01</totfact>
</mgrwt>
</event>
<event>
12    3  0.8686020E-008  0.2104368E+04  0.7818608E-02  0.8559322E-01
          2   -1    0    0  501    0  0.00000000000E+00  0.00000000000E+00  0.21544446177E+04  0.21544446177E+04  0.00000000000E+00 0. -1.
         -2   -1    0    0    0  501 -0.00000000000E+00 -0.00000000000E+00 -0.51386363675E+03  0.51386363675E+03  0.00000000000E+00 0.  1.
         23    2    1    2    0    0  0.70692563562E+03 -0.20760736603E+03  0.12296766109E+04  0.14364392225E+04  0.91697328016E+02 0.  0.
        254    2    1    2    0    0 -0.70692563562E+03  0.20760736603E+03  0.41090437011E+03  0.12318690319E+04  0.89767156453E+03 0.  0.
         23    2    4    4    0    0 -0.54022892845E+03  0.27768075181E+02  0.66890985068E+03  0.86487444566E+03  0.89157485913E+02 0.  0.
         23    2    4    4    0    0 -0.16669670717E+03  0.17983929085E+03 -0.25800548057E+03  0.36699458628E+03  0.89376930129E+02 0.  0.
          4    1    3    3  502    0  0.59685569412E+03 -0.14838937529E+03  0.10631001104E+04  0.12281848277E+04  0.00000000000E+00 0. -1.
         -4    1    3    3    0  502  0.11006994150E+03 -0.59217990744E+02  0.16657650050E+03  0.20825439484E+03  0.00000000000E+00 0.  1.
         13    1    5    5    0    0 -0.34676491829E+03  0.40286408160E+01  0.36202693002E+03  0.50132388389E+03  0.00000000000E+00 0. -1.
        -13    1    5    5    0    0 -0.19346401016E+03  0.23739434365E+02  0.30688292066E+03  0.36355056177E+03  0.00000000000E+00 0.  1.
          1    1    6    6  503    0 -0.15058798199E+03  0.18668152952E+03 -0.25337236901E+03  0.34889008464E+03  0.00000000000E+00 0. -1.
         -1    1    6    6    0  503 -0.16108725175E+02 -0.68422386671E+01 -0.46331115582E+01  0.18104501635E+02  0.00000000000E+00 0.  1.
<mgrwt>
<rscale>  0 0.21043676E+04</rscale>
<asrwt>0</asrwt>
<pdfrwt beam="1">  1        2 0.33145301E+00 0.21043676E+04</pdfrwt>
<pdfrwt beam="2">  1       -2 0.79055946E-01 0.21043676E+04</pdfrwt>
<totfact> 0.71630221E+00</totfact>
</mgrwt>
</event>
<event>
12    3  0.8686020E-008  0.1141962E+04  0.7818608E-02  0.9165231E-01
          2   -1    0    0  501    0  0.00000000000E+00  0.00000000000E+00  0.66594360647E+03  0.66594360647E+03  0.00000000000E+00 0. -1.
         -2   -1    0    0    0  501 -0.00000000000E+00 -0.00000000000E+00 -0.48955977671E+03  0.48955977671E+03  0.00000000000E+00 0.  1.
         23    2    1    2    0    0  0.29953985420E+02 -0.18738784030E+03 -0.40603775852E+02  0.21305387894E+03  0.87930909136E+02 0.  0.
        254    2    1    2    0    0 -0.29953985420E+02  0.18738784030E+03  0.21698760561E+03  0.94244950425E+03  0.89728256593E+03 0.  0.
         23    2    4    4    0    0 -0.28377007141E+03 -0.14835793053E+03 -0.16065160514E+03  0.36953876810E+03  0.90633514324E+02 0.  0.
         23    2    4    4    0    0  0.25381608599E+03  0.33574577083E+03  0.37763921074E+03  0.57291073615E+03  0.92019073943E+02 0.  0.
          2    1    3    3  502    0  0.51207147215E+02 -0.55644692620E+02 -0.11829311137E+02  0.76540422945E+02  0.00000000000E+00 0. -1.
         -2    1    3    3    0  502 -0.21253161795E+02 -0.13174314768E+03 -0.28774464715E+02  0.13651345599E+03  0.00000000000E+00 0.  1.
         13    1    5    5    0    0 -0.27118137105E+03 -0.12457866068E+03 -0.16688429140E+03  0.34192037877E+03  0.00000000000E+00 0. -1.
        -13    1    5    5    0    0 -0.12588700351E+02 -0.23779269844E+02  0.62326862628E+01  0.27618389325E+02  0.00000000000E+00 0.  1.
          1    1    6    6  503    0  0.13892617932E+03  0.18285313873E+03  0.26619319534E+03  0.35156019526E+03  0.00000000000E+00 0. -1.
         -1    1    6    6    0  503  0.11488990666E+03  0.15289263210E+03  0.11144601540E+03  0.22135054089E+03  0.00000000000E+00 0.  1.
<mgrwt>
<rscale>  0 0.11419618E+04</rscale>
<asrwt>0</asrwt>
<pdfrwt beam="1">  1        2 0.10245286E+00 0.11419618E+04</pdfrwt>
<pdfrwt beam="2">  1       -2 0.75316888E-01 0.11419618E+04</pdfrwt>
<totfact> 0.68389953E+01</totfact>
</mgrwt>
</event>
<event>
12    3  0.8686020E-008  0.1386423E+04  0.7818608E-02  0.8963705E-01
         -2   -1    0    0    0  501 -0.00000000000E+00  0.00000000000E+00  0.30442131585E+03  0.30442131585E+03  0.00000000000E+00 0.  1.
          2   -1    0    0  501    0  0.00000000000E+00 -0.00000000000E+00 -0.15785441804E+04  0.15785441804E+04  0.00000000000E+00 0. -1.
         23    2    1    2    0    0 -0.21710622628E+03  0.32358397250E+03 -0.44457131004E+03  0.59796106831E+03  0.89844803730E+02 0.  0.
        254    2    1    2    0    0  0.21710622628E+03 -0.32358397250E+03 -0.82955155452E+03  0.12850044279E+04  0.90068801340E+03 0.  0.
         23    2    4    4    0    0 -0.22973617977E+03  0.17692515953E+03 -0.24727347438E+03  0.39209677507E+03  0.92273969893E+02 0.  0.
         23    2    4    4    0    0  0.44684240606E+03 -0.50050913203E+03 -0.58227808014E+03  0.89290765287E+03  0.89770746025E+02 0.  0.
          3    1    3    3  502    0 -0.91370716456E+02  0.12866681033E+03 -0.24782575341E+03  0.29380496925E+03  0.00000000000E+00 0. -1.
         -3    1    3    3    0  502 -0.12573550983E+03  0.19491716217E+03 -0.19674555663E+03  0.30415609906E+03  0.00000000000E+00 0.  1.
         13    1    5    5    0    0 -0.23523339121E+03  0.16824796075E+03 -0.22129582891E+03  0.36416200863E+03  0.00000000000E+00 0.  1.
        -13    1    5    5    0    0  0.54972114347E+01  0.86771987833E+01 -0.25977645468E+02  0.27934766445E+02  0.00000000000E+00 0. -1.
          2    1    6    6  503    0  0.30000546268E+03 -0.39065548206E+03 -0.40244514501E+03  0.63606373741E+03  0.00000000000E+00 0. -1.
         -2    1    6    6    0  503  0.14683694337E+03 -0.10985364997E+03 -0.17983293513E+03  0.25684391546E+03  0.00000000000E+00 0.  1.
<mgrwt>
<rscale>  0 0.13864235E+04</rscale>
<asrwt>0</asrwt>
<pdfrwt beam="1">  1        2 0.24285295E+00 0.13864235E+04</pdfrwt>
<pdfrwt beam="2">  1       -2 0.46834048E-01 0.13864235E+04</pdfrwt>
<totfact> 0.48262357E+01</totfact>
</mgrwt>
</event>
<event>
12    3  0.8686020E-008  0.2356511E+04  0.7818608E-02  0.8455967E-01
         -1   -1    0    0    0  501 -0.00000000000E+00  0.00000000000E+00  0.10177523618E+04  0.10177523618E+04  0.00000000000E+00 0.  1.
          1   -1    0    0  501    0  0.00000000000E+00 -0.00000000000E+00 -0.13640709838E+04  0.13640709838E+04  0.00000000000E+00 0. -1.
         23    2    1    2    0    0 -0.49818032239E+03  0.86822760370E+03 -0.85348611988E+02  0.10110451285E+04  0.11368843787E+03 0.  0.
        254    2    1    2    0    0  0.49818032239E+03 -0.86822760370E+03 -0.26097001010E+03  0.13707782171E+04  0.89940245095E+03 0.  0.
         23    2    4    4    0    0  0.15565152299E+03  0.16846974511E+03 -0.10683237141E+02  0.24695357261E+03  0.90898205937E+02 0.  0.
         23    2    4    4    0    0  0.34252879940E+03 -0.10366973488E+04 -0.25028677296E+03  0.11238246445E+04  0.90944990732E+02 0.  0.
          1    1    3    3  502    0 -0.27273717904E+03  0.57169668691E+03 -0.80489408216E+02  0.63851485142E+03  0.00000000000E+00 0. -1.
         -1    1    3    3    0  502 -0.22544314335E+03  0.29653091679E+03 -0.48592037720E+01  0.37253027711E+03  0.00000000000E+00 0.  1.
         13    1    5    5    0    0  0.75033068509E+02  0.14036734124E+03 -0.22564128614E+02  0.16075475656E+03  0.00000000000E+00 0. -1.
        -13    1    5    5    0    0  0.80618454481E+02  0.28102403868E+02  0.11880891473E+02  0.86198816049E+02  0.00000000000E+00 0.  1.
          1    1    6    6  503    0  0.32291071142E+03 -0.98160924521E+03 -0.25735384262E+03  0.10649220808E+04  0.00000000000E+00 0. -1.
         -1    1    6    6    0  503  0.19618087977E+02 -0.55088103593E+02  0.70670696666E+01  0.58902563671E+02  0.00000000000E+00 0.  1.
<mgrwt>
<rscale>  0 0.23565114E+04</rscale>
<asrwt>0</asrwt>
<pdfrwt beam="1">  1        1 0.20985707E+00 0.23565114E+04</pdfrwt>
<pdfrwt beam="2">  1       -1 0.15657729E+00 0.23565114E+04</pdfrwt>
<totfact> 0.22736660E+00</totfact>
</mgrwt>
</event>
<event>
12    3  0.8686020E-008  0.1337171E+04  0.7818608E-02  0.9000597E-01
          2   -1    0    0  501    0  0.00000000000E+00  0.00000000000E+00  0.16814234722E+04  0.16814234722E+04  0.00000000000E+00 0. -1.
         -2   -1    0    0    0  501 -0.00000000000E+00 -0.00000000000E+00 -0.26585011760E+03  0.26585011760E+03  0.00000000000E+00 0.  1.
         23    2    1    2    0    0  0.11764755027E+03  0.13721715702E+03  0.84055053073E+03  0.86447528873E+03  0.90126776599E+02 0.  0.
        254    2    1    2    0    0 -0.11764755027E+03 -0.13721715702E+03  0.57502282386E+03  0.10827983011E+04  0.89951732531E+03 0.  0.
         23    2    4    4    0    0  0.11532932546E+03 -0.44461276692E+03  0.12790948128E+03  0.48547836328E+03  0.91362136537E+02 0.  0.
         23    2    4    4    0    0 -0.23297687572E+03  0.30739560990E+03  0.44711334258E+03  0.59731993777E+03  0.90058210846E+02 0.  0.
          4    1    3    3  502    0  0.76273904634E+02  0.38942092569E+02  0.51033775145E+03  0.51747349271E+03  0.00000000000E+00 0.  1.
         -4    1    3    3    0  502  0.41373645632E+02  0.98275064452E+02  0.33021277928E+03  0.34700179603E+03  0.00000000000E+00 0. -1.
         13    1    5    5    0    0  0.62291996340E+02 -0.94449490521E+02  0.44885891715E+02  0.12171993404E+03  0.00000000000E+00 0.  1.
        -13    1    5    5    0    0  0.53037329117E+02 -0.35016327640E+03  0.83023589567E+02  0.36375842924E+03  0.00000000000E+00 0. -1.
          1    1    6    6  503    0 -0.12966596436E+03  0.23864197475E+03  0.29442285170E+03  0.40055969596E+03  0.00000000000E+00 0. -1.
         -1    1    6    6    0  503 -0.10331091136E+03  0.68753635154E+02  0.15269049088E+03  0.19676024181E+03  0.00000000000E+00 0.  1.
<mgrwt>
<rscale>  0 0.13371711E+04</rscale>
<asrwt>0</asrwt>
<pdfrwt beam="1">  1        2 0.25868053E+00 0.13371711E+04</pdfrwt>
<pdfrwt beam="2">  1       -2 0.40900019E-01 0.13371711E+04</pdfrwt>
<totfact> 0.55578385E+01</totfact>
</mgrwt>
</event>
<event>
12    3  0.8686020E-008  0.1047506E+04  0.7818608E-02  0.9257923E-01
          2   -1    0    0  501    0  0.00000000000E+00  0.00000000000E+00  0.81344827555E+03  0.81344827555E+03  0.00000000000E+00 0. -1.
         -2   -1    0    0    0  501 -0.00000000000E+00 -0.00000000000E+00 -0.33722762014E+03  0.33722762014E+03  0.00000000000E+00 0.  1.
         23    2    1    2    0    0  0.10171289862E+03  0.12797401553E+01  0.29793645450E+02  0.14034024496E+03  0.91981365323E+02 0.  0.
        254    2    1    2    0    0 -0.10171289862E+03 -0.12797401553E+01  0.44642700996E+03  0.10103356507E+04  0.90062972436E+03 0.  0.
         23    2    4    4    0    0  0.11487981438E+03  0.40473873762E+03  0.15284012402E+03  0.45678249361E+03  0.90990798865E+02 0.  0.
         23    2    4    4    0    0 -0.21659271300E+03 -0.40601847777E+03  0.29358688594E+03  0.55355315711E+03  0.92002339805E+02 0.  0.
          1    1    3    3  502    0  0.20894364597E+01  0.86243529738E+01  0.39024611727E+02  0.40020813702E+02  0.00000000000E+00 0. -1.
         -1    1    3    3    0  502  0.99623462160E+02 -0.73446128185E+01 -0.92309662771E+01  0.10031943126E+03  0.00000000000E+00 0.  1.
         13    1    5    5    0    0  0.25037287310E+02  0.25201871045E+03  0.91250860693E+02  0.26919698318E+03  0.00000000000E+00 0.  1.
        -13    1    5    5    0    0  0.89842527069E+02  0.15272002717E+03  0.61589263329E+02  0.18758551043E+03  0.00000000000E+00 0. -1.
          1    1    6    6  503    0 -0.12228205142E+03 -0.15733125430E+03  0.90187508040E+02  0.21872313615E+03  0.00000000000E+00 0. -1.
         -1    1    6    6    0  503 -0.94310661577E+02 -0.24868722347E+03  0.20339937790E+03  0.33483002096E+03  0.00000000000E+00 0.  1.
<mgrwt>
<rscale>  0 0.10475060E+04</rscale>
<asrwt>0</asrwt>
<pdfrwt beam="1">  1        2 0.12514589E+00 0.10475060E+04</pdfrwt>
<pdfrwt beam="2">  1       -2 0.51881173E-01 0.10475060E+04</pdfrwt>
<totfact> 0.11769784E+02</totfact>
</mgrwt>
</event>
<event>
12    3  0.8686020E-008  0.1604146E+04  0.7818608E-02  0.8818005E-01
          2   -1    0    0  501    0  0.00000000000E+00  0.00000000000E+00  0.24861972031E+04  0.24861972031E+04  0.00000000000E+00 0. -1.
         -2   -1    0    0    0  501 -0.00000000000E+00 -0.00000000000E+00 -0.25875693452E+03  0.25875693452E+03  0.00000000000E+00 0.  1.
         23    2    1    2    0    0 -0.51602028663E+03 -0.62474999896E+02  0.48600204486E+03  0.71742697410E+03  0.91232744851E+02 0.  0.
        254    2    1    2    0    0  0.51602028663E+03  0.62474999896E+02  0.17414382237E+04  0.20275271635E+04  0.89893228326E+03 0.  0.
         23    2    4    4    0    0  0.58502729679E+03  0.30927410189E+03  0.15685592107E+04  0.17048747379E+04  0.91172728524E+02 0.  0.
         23    2    4    4    0    0 -0.69007010153E+02 -0.24679910200E+03  0.17287901297E+03  0.32265242555E+03  0.92442795213E+02 0.  0.
          3    1    3    3  502    0 -0.46474880567E+03 -0.83548236824E+02  0.43919809406E+03  0.64487729536E+03  0.00000000000E+00 0. -1.
         -3    1    3    3    0  502 -0.51271480964E+02  0.21073236928E+02  0.46803950795E+02  0.72549678737E+02  0.00000000000E+00 0.  1.
         13    1    5    5    0    0  0.37209517712E+03  0.24439190820E+03  0.10662586575E+04  0.11554608389E+04  0.00000000000E+00 0.  1.
        -13    1    5    5    0    0  0.21293211966E+03  0.64882193696E+02  0.50230055321E+03  0.54941389899E+03  0.00000000000E+00 0. -1.
          2    1    6    6  503    0 -0.91693470207E+01 -0.12013983897E+03  0.12744776579E+03  0.17538697454E+03  0.00000000000E+00 0. -1.
         -2    1    6    6    0  503 -0.59837663132E+02 -0.12665926303E+03  0.45431247181E+02  0.14726545101E+03  0.00000000000E+00 0.  1.
<mgrwt>
<rscale>  0 0.16041456E+04</rscale>
<asrwt>0</asrwt>
<pdfrwt beam="1">  1        2 0.38249186E+00 0.16041456E+04</pdfrwt>
<pdfrwt beam="2">  1       -2 0.39808761E-01 0.16041456E+04</pdfrwt>
<totfact> 0.20334832E+01</totfact>
</mgrwt>
</event>
<event>
12    3  0.8686020E-008  0.4403488E+04  0.7818608E-02  0.7927754E-01
         -1   -1    0    0    0  501 -0.00000000000E+00  0.00000000000E+00  0.20251940492E+04  0.20251940492E+04  0.00000000000E+00 0.  1.
          1   -1    0    0  501    0  0.00000000000E+00 -0.00000000000E+00 -0.23936854676E+04  0.23936854676E+04  0.00000000000E+00 0. -1.
         23    2    1    2    0    0  0.55240990214E+03  0.19586449666E+04  0.37824902980E+03  0.20719309094E+04  0.91534471397E+02 0.  0.
        254    2    1    2    0    0 -0.55240990214E+03 -0.19586449666E+04 -0.74674044824E+03  0.23469486075E+04  0.89949967419E+03 0.  0.
         23    2    4    4    0    0 -0.69876603964E+02 -0.61038010232E+03  0.16986780816E+03  0.64426747285E+03  0.93695758892E+02 0.  0.
         23    2    4    4    0    0 -0.48253329817E+03 -0.13482648643E+04 -0.91660825640E+03  0.17026811346E+04  0.91081405205E+02 0.  0.
          3    1    3    3  502    0  0.17020526203E+03  0.46474544163E+03  0.80693230305E+02  0.50146740089E+03  0.00000000000E+00 0. -1.
         -3    1    3    3    0  502  0.38220464011E+03  0.14938995250E+04  0.29755579950E+03  0.15704635085E+04  0.00000000000E+00 0.  1.
         13    1    5    5    0    0 -0.34758685521E+02 -0.10152099964E+03  0.21376838749E+01  0.10732776565E+03  0.00000000000E+00 0. -1.
        -13    1    5    5    0    0 -0.35117918443E+02 -0.50885910268E+03  0.16773012428E+03  0.53693970720E+03  0.00000000000E+00 0.  1.
          2    1    6    6  503    0 -0.49428895315E+02 -0.23940940907E+03 -0.15848285690E+03  0.29133639796E+03  0.00000000000E+00 0. -1.
         -2    1    6    6    0  503 -0.43310440286E+03 -0.11088554552E+04 -0.75812539950E+03  0.14113447367E+04  0.00000000000E+00 0.  1.
<mgrwt>
<rscale>  0 0.44034884E+04</rscale>
<asrwt>0</asrwt>
<pdfrwt beam="1">  1        1 0.36825930E+00 0.44034884E+04</pdfrwt>
<pdfrwt beam="2">  1       -1 0.31156832E+00 0.44034884E+04</pdfrwt>
<totfact> 0.33758254E-02</totfact>
</mgrwt>
</event>
<event>
12    3  0.8686020E-008  0.1319032E+04  0.7818608E-02  0.9014607E-01
          4   -1    0    0  501    0  0.00000000000E+00  0.00000000000E+00  0.22121133109E+03  0.22121133109E+03  0.00000000000E+00 0. -1.
         -4   -1    0    0    0  501 -0.00000000000E+00 -0.00000000000E+00 -0.19662715216E+04  0.19662715216E+04  0.00000000000E+00 0.  1.
         23    2    1    2    0    0  0.18242366885E+03 -0.36704597026E+02  0.90319096015E+01  0.20765858315E+03  0.91732706072E+02 0.  0.
        254    2    1    2    0    0 -0.18242366885E+03  0.36704597026E+02 -0.17540921002E+04  0.19798242696E+04  0.89902136805E+03 0.  0.
         23    2    4    4    0    0 -0.41189311558E+03  0.52729698029E+02 -0.16623586941E+04  0.17158688991E+04  0.91286862815E+02 0.  0.
         23    2    4    4    0    0  0.22946944673E+03 -0.16025101003E+02 -0.91733406005E+02  0.26395537044E+03  0.91347627018E+02 0.  0.
          3    1    3    3  502    0  0.62659962553E+02 -0.84885339503E+00  0.45488908318E+02  0.77435342313E+02  0.00000000000E+00 0. -1.
         -3    1    3    3    0  502  0.11976370630E+03 -0.35855743631E+02 -0.36456998716E+02  0.13022324084E+03  0.00000000000E+00 0.  1.
         13    1    5    5    0    0 -0.28048174784E+03  0.69208203457E+02 -0.12411883197E+04  0.12743658154E+04  0.00000000000E+00 0.  1.
        -13    1    5    5    0    0 -0.13141136774E+03 -0.16478505428E+02 -0.42117037441E+03  0.44150308379E+03  0.00000000000E+00 0. -1.
          4    1    6    6  503    0 -0.23990508516E+01 -0.25203503063E+01 -0.20821137455E+02  0.21109888099E+02  0.00000000000E+00 0. -1.
         -4    1    6    6    0  503  0.23186849758E+03 -0.13504750697E+02 -0.70912268550E+02  0.24284548234E+03  0.00000000000E+00 0.  1.
<mgrwt>
<rscale>  0 0.13190323E+04</rscale>
<asrwt>0</asrwt>
<pdfrwt beam="1">  1        4 0.34032513E-01 0.13190323E+04</pdfrwt>
<pdfrwt beam="2">  1       -4 0.30250331E+00 0.13190323E+04</pdfrwt>
<totfact> 0.49528996E-01</totfact>
</mgrwt>
</event>
<event>
12    3  0.8686020E-008  0.2225723E+04  0.7818608E-02  0.8507797E-01
         -2   -1    0    0    0  501 -0.00000000000E+00  0.00000000000E+00  0.30424678200E+04  0.30424678200E+04  0.00000000000E+00 0.  1.
          2   -1    0    0  501    0  0.00000000000E+00 -0.00000000000E+00 -0.40705780804E+03  0.40705780804E+03  0.00000000000E+00 0. -1.
         23    2    1    2    0    0 -0.56820130739E+03  0.70686513634E+03  0.14044117942E+04  0.16744525654E+04  0.94381455711E+02 0.  0.
        254    2    1    2    0    0  0.56820130739E+03 -0.70686513634E+03  0.12309982178E+04  0.17750730627E+04  0.90167439753E+03 0.  0.
         23    2    4    4    0    0  0.25277023239E+03  0.80087809954E+02  0.30309151627E+01  0.27997240612E+03  0.89824907758E+02 0.  0.
         23    2    4    4    0    0  0.31543107500E+03 -0.78695294629E+03  0.12279673026E+04  0.14951006566E+04  0.92900884567E+02 0.  0.
          1    1    3    3  502    0 -0.29992130717E+03  0.42818159404E+03  0.86433144218E+03  0.10101292541E+04  0.00000000000E+00 0. -1.
         -1    1    3    3    0  502 -0.26828000022E+03  0.27868354230E+03  0.54008035205E+03  0.66432331130E+03  0.00000000000E+00 0.  1.
         13    1    5    5    0    0  0.20728392431E+03  0.89840779471E+02 -0.22280840279E+02  0.22701195294E+03  0.00000000000E+00 0.  1.
        -13    1    5    5    0    0  0.45486308075E+02 -0.97529695172E+01  0.25311755442E+02  0.52960453173E+02  0.00000000000E+00 0. -1.
          1    1    6    6  503    0  0.25567844332E+03 -0.55412337060E+03  0.92845787172E+03  0.11110617426E+04  0.00000000000E+00 0.  1.
         -1    1    6    6    0  503  0.59752631689E+02 -0.23282957570E+03  0.29950943089E+03  0.38403891405E+03  0.00000000000E+00 0. -1.
<mgrwt>
<rscale>  0 0.22257226E+04</rscale>
<asrwt>0</asrwt>
<pdfrwt beam="1">  1        2 0.62624280E-01 0.22257226E+04</pdfrwt>
<pdfrwt beam="2">  1       -2 0.46807196E+00 0.22257226E+04</pdfrwt>
<totfact> 0.18750949E-01</totfact>
</mgrwt>
</event>
<event>
12    3  0.8686020E-008  0.2802451E+04  0.7818608E-02  0.8302508E-01
          2   -1    0    0  501    0  0.00000000000E+00  0.00000000000E+00  0.20969233982E+04  0.20969233982E+04  0.00000000000E+00 0. -1.
         -2   -1    0    0    0  501 -0.00000000000E+00 -0.00000000000E+00 -0.93634000376E+03  0.93634000376E+03  0.00000000000E+00 0.  1.
         23    2    1    2    0    0  0.43285850096E+03 -0.91539940608E+03  0.13261667784E+04  0.16711622165E+04  0.93500134716E+02 0.  0.
        254    2    1    2    0    0 -0.43285850096E+03  0.91539940608E+03 -0.16558338404E+03  0.13621011854E+04  0.89586786284E+03 0.  0.
         23    2    4    4    0    0 -0.45989685016E+03  0.47431175292E+03  0.28431986006E+03  0.72510176208E+03  0.91967553050E+02 0.  0.
         23    2    4    4    0    0  0.27038349192E+02  0.44108765316E+03 -0.44990324410E+03  0.63699942331E+03  0.89810612677E+02 0.  0.
          1    1    3    3  502    0  0.30800954709E+03 -0.73282150216E+03  0.10640481398E+04  0.13281926363E+04  0.00000000000E+00 0. -1.
         -1    1    3    3    0  502  0.12484895387E+03 -0.18257790391E+03  0.26211863861E+03  0.34296958026E+03  0.00000000000E+00 0.  1.
         13    1    5    5    0    0 -0.73278288608E+02  0.48953350825E+02  0.66525614218E+02  0.11041646383E+03  0.00000000000E+00 0. -1.
        -13    1    5    5    0    0 -0.38661856155E+03  0.42535840209E+03  0.21779424584E+03  0.61468529825E+03  0.00000000000E+00 0.  1.
          3    1    6    6  503    0 -0.27715958937E+02  0.26150792903E+03 -0.25231906967E+03  0.36444407561E+03  0.00000000000E+00 0. -1.
         -3    1    6    6    0  503  0.54754308128E+02  0.17957972413E+03 -0.19758417443E+03  0.27255534770E+03  0.00000000000E+00 0.  1.
<mgrwt>
<rscale>  0 0.28024513E+04</rscale>
<asrwt>0</asrwt>
<pdfrwt beam="1">  1        2 0.32260360E+00 0.28024513E+04</pdfrwt>
<pdfrwt beam="2">  1       -2 0.14405231E+00 0.28024513E+04</pdfrwt>
<totfact> 0.17109269E+00</totfact>
</mgrwt>
</event>
<event>
12    3  0.8686020E-008  0.1624939E+04  0.7818608E-02  0.8805372E-01
          1   -1    0    0  501    0  0.00000000000E+00  0.00000000000E+00  0.11103864035E+04  0.11103864035E+04  0.00000000000E+00 0. -1.
         -1   -1    0    0    0  501 -0.00000000000E+00 -0.00000000000E+00 -0.59448384093E+03  0.59448384093E+03  0.00000000000E+00 0.  1.
         23    2    1    2    0    0 -0.38670139577E+03  0.20008686629E+03  0.54737274089E+03  0.70591088749E+03  0.95501518595E+02 0.  0.
        254    2    1    2    0    0  0.38670139577E+03 -0.20008686629E+03 -0.31470178268E+02  0.99895935698E+03  0.89853030068E+03 0.  0.
         23    2    4    4    0    0  0.39872859763E+03  0.11370644980E+03 -0.34438404254E+03  0.54663460207E+03  0.91078911577E+02 0.  0.
         23    2    4    4    0    0 -0.12027201855E+02 -0.31379331609E+03  0.31291386427E+03  0.45232475491E+03  0.89842632698E+02 0.  0.
          4    1    3    3  502    0 -0.19226935427E+03  0.12714282235E+03  0.22274324875E+03  0.32054228540E+03  0.00000000000E+00 0.  1.
         -4    1    3    3    0  502 -0.19443204150E+03  0.72944043942E+02  0.32462949214E+03  0.38536860209E+03  0.00000000000E+00 0. -1.
         13    1    5    5    0    0  0.21763694058E+03  0.88855142706E+02 -0.24087174012E+03  0.33657134382E+03  0.00000000000E+00 0. -1.
        -13    1    5    5    0    0  0.18109165704E+03  0.24851307092E+02 -0.10351230242E+03  0.21006325825E+03  0.00000000000E+00 0.  1.
          1    1    6    6  503    0  0.37155563068E+02 -0.88443173093E+02  0.88813304462E+02  0.13073076831E+03  0.00000000000E+00 0. -1.
         -1    1    6    6    0  503 -0.49182764923E+02 -0.22535014300E+03  0.22410055981E+03  0.32159398660E+03  0.00000000000E+00 0.  1.
<mgrwt>
<rscale>  0 0.16249391E+04</rscale>
<asrwt>0</asrwt>
<pdfrwt beam="1">  1        1 0.17082868E+00 0.16249391E+04</pdfrwt>
<pdfrwt beam="2">  1       -1 0.91459053E-01 0.16249391E+04</pdfrwt>
<totfact> 0.13901628E+01</totfact>
</mgrwt>
</event>
<event>
12    3  0.8686020E-008  0.3094913E+04  0.7818608E-02  0.8217135E-01
          2   -1    0    0  501    0  0.00000000000E+00  0.00000000000E+00  0.35560090576E+04  0.35560090576E+04  0.00000000000E+00 0.  1.
         -2   -1    0    0    0  501 -0.00000000000E+00 -0.00000000000E+00 -0.67340151087E+03  0.67340151087E+03  0.00000000000E+00 0. -1.
         23    2    1    2    0    0  0.11781363421E+04  0.70497448325E+03  0.82365869733E+03  0.16037935845E+04  0.93519780956E+02 0.  0.
        254    2    1    2    0    0 -0.11781363421E+04 -0.70497448325E+03  0.20589488494E+04  0.26256169839E+04  0.87726844210E+03 0.  0.
         23    2    4    4    0    0 -0.11763658390E+04 -0.32946594863E+03  0.17197723353E+04  0.21114791174E+04  0.91338817967E+02 0.  0.
         23    2    4    4    0    0 -0.17705031173E+01 -0.37550853462E+03  0.33917651411E+03  0.51413786656E+03  0.91034300394E+02 0.  0.
          1    1    3    3  502    0  0.96485948260E+03  0.53392826076E+03  0.66037241456E+03  0.12853501215E+04  0.00000000000E+00 0. -1.
         -1    1    3    3    0  502  0.21327685948E+03  0.17104622249E+03  0.16328628277E+03  0.31844346305E+03  0.00000000000E+00 0.  1.
         13    1    5    5    0    0 -0.11189538911E+04 -0.30173237082E+03  0.15977740839E+04  0.19738242721E+04  0.00000000000E+00 0.  1.
        -13    1    5    5    0    0 -0.57411947898E+02 -0.27733577809E+02  0.12199825131E+03  0.13765484525E+03  0.00000000000E+00 0. -1.
          1    1    6    6  503    0 -0.57578906517E+00 -0.58137694703E+02  0.14102327386E+02  0.59826404840E+02  0.00000000000E+00 0. -1.
         -1    1    6    6    0  503 -0.11947140521E+01 -0.31737083992E+03  0.32507418672E+03  0.45431146171E+03  0.00000000000E+00 0.  1.
<mgrwt>
<rscale>  0 0.30949132E+04</rscale>
<asrwt>0</asrwt>
<pdfrwt beam="1">  1        2 0.54707831E+00 0.30949132E+04</pdfrwt>
<pdfrwt beam="2">  1       -2 0.10360023E+00 0.30949132E+04</pdfrwt>
<totfact> 0.47808656E-01</totfact>
</mgrwt>
</event>
<event>
12    3  0.8686020E-008  0.1887144E+04  0.7818608E-02  0.8661282E-01
          1   -1    0    0  501    0  0.00000000000E+00  0.00000000000E+00  0.18112516243E+04  0.18112516243E+04  0.00000000000E+00 0. -1.
         -1   -1    0    0    0  501 -0.00000000000E+00 -0.00000000000E+00 -0.49155424402E+03  0.49155424402E+03  0.00000000000E+00 0.  1.
         23    2    1    2    0    0 -0.20543286598E+01 -0.67937572811E+03  0.82186414164E+03  0.10702938708E+04  0.92264306522E+02 0.  0.
        254    2    1    2    0    0  0.20543286598E+01  0.67937572811E+03  0.49783323868E+03  0.12325119976E+04  0.89982903402E+03 0.  0.
         23    2    4    4    0    0 -0.20610934937E+03  0.25364520318E+03  0.64486468732E+03  0.72902895930E+03  0.93892521341E+02 0.  0.
         23    2    4    4    0    0  0.20816367803E+03  0.42573052494E+03 -0.14703144863E+03  0.50348303830E+03  0.85430242013E+02 0.  0.
          1    1    3    3  502    0  0.32712648132E+02 -0.40854235400E+03  0.53917161354E+03  0.67726139799E+03  0.00000000000E+00 0. -1.
         -1    1    3    3    0  502 -0.34766976791E+02 -0.27083337411E+03  0.28269252810E+03  0.39303247277E+03  0.00000000000E+00 0.  1.
         13    1    5    5    0    0 -0.16566119894E+03  0.24123428439E+03  0.51366802564E+03  0.59117886749E+03  0.00000000000E+00 0.  1.
        -13    1    5    5    0    0 -0.40448150428E+02  0.12410918783E+02  0.13119666168E+03  0.13785009181E+03  0.00000000000E+00 0. -1.
          1    1    6    6  503    0 -0.80404428646E+01  0.12462032391E+02 -0.15383743324E+01  0.14910317514E+02  0.00000000000E+00 0. -1.
         -1    1    6    6    0  503  0.21620412090E+03  0.41326849254E+03 -0.14549307430E+03  0.48857272078E+03  0.00000000000E+00 0.  1.
<mgrwt>
<rscale>  0 0.18871443E+04</rscale>
<asrwt>0</asrwt>
<pdfrwt beam="1">  1        1 0.27865409E+00 0.18871443E+04</pdfrwt>
<pdfrwt beam="2">  1       -1 0.75623731E-01 0.18871443E+04</pdfrwt>
<totfact> 0.65873627E+00</totfact>
</mgrwt>
</event>
<event>
12    3  0.8686020E-008  0.1219893E+04  0.7818608E-02  0.9095620E-01
         -1   -1    0    0    0  501 -0.00000000000E+00  0.00000000000E+00  0.66881530162E+03  0.66881530162E+03  0.00000000000E+00 0.  1.
          1   -1    0    0  501    0  0.00000000000E+00 -0.00000000000E+00 -0.55625973324E+03  0.55625973324E+03  0.00000000000E+00 0. -1.
         23    2    1    2    0    0 -0.81005710699E+02  0.11101142085E+03  0.25075604593E+03  0.29832473729E+03  0.85050535454E+02 0.  0.
        254    2    1    2    0    0  0.81005710699E+02 -0.11101142085E+03 -0.13820047755E+03  0.92675029758E+03  0.90602498936E+03 0.  0.
         23    2    4    4    0    0  0.16513895525E+03  0.33415972874E+03 -0.24078344155E+03  0.45302057498E+03  0.91199653343E+02 0.  0.
         23    2    4    4    0    0 -0.84133244554E+02 -0.44517114959E+03  0.10258296401E+03  0.47372972260E+03  0.92956066504E+02 0.  0.
          3    1    3    3  502    0 -0.55494842458E+01  0.61291223898E+02  0.54259781260E+02  0.82045930824E+02  0.00000000000E+00 0. -1.
         -3    1    3    3    0  502 -0.75456226453E+02  0.49720196954E+02  0.19649626467E+03  0.21627880646E+03  0.00000000000E+00 0.  1.
         13    1    5    5    0    0  0.37603133803E+02  0.89528933937E+02 -0.18770293072E+02  0.98902727898E+02  0.00000000000E+00 0.  1.
        -13    1    5    5    0    0  0.12753582145E+03  0.24463079480E+03 -0.22201314848E+03  0.35411784708E+03  0.00000000000E+00 0. -1.
          4    1    6    6  503    0 -0.53492071986E+02 -0.34877864779E+03  0.11658859968E+03  0.37161922514E+03  0.00000000000E+00 0. -1.
         -4    1    6    6    0  503 -0.30641172567E+02 -0.96392501802E+02 -0.14005635675E+02  0.10211049746E+03  0.00000000000E+00 0.  1.
<mgrwt>
<rscale>  0 0.12198935E+04</rscale>
<asrwt>0</asrwt>
<pdfrwt beam="1">  1        1 0.85578421E-01 0.12198935E+04</pdfrwt>
<pdfrwt beam="2">  1       -1 0.10289466E+00 0.12198935E+04</pdfrwt>
<totfact> 0.33686901E+01</totfact>
</mgrwt>
</event>
<event>
12    3  0.8686020E-008  0.1964889E+04  0.7818608E-02  0.8623215E-01
         -2   -1    0    0    0  501 -0.00000000000E+00  0.00000000000E+00  0.48574709021E+03  0.48574709021E+03  0.00000000000E+00 0.  1.
          2   -1    0    0  501    0  0.00000000000E+00 -0.00000000000E+00 -0.19870359643E+04  0.19870359643E+04  0.00000000000E+00 0. -1.
         23    2    1    2    0    0  0.59696612724E+03 -0.45145765596E+03 -0.34673939117E+03  0.82958230996E+03  0.88295138048E+02 0.  0.
        254    2    1    2    0    0 -0.59696612724E+03  0.45145765596E+03 -0.11545494829E+04  0.16432007445E+04  0.89829928540E+03 0.  0.
         23    2    4    4    0    0 -0.16585944360E+03  0.63173913641E+03 -0.85618059815E+03  0.10813921349E+04  0.98792920919E+02 0.  0.
         23    2    4    4    0    0 -0.43110668365E+03 -0.18028148045E+03 -0.29836888477E+03  0.56180860966E+03  0.90832470074E+02 0.  0.
          3    1    3    3  502    0  0.53833039318E+03 -0.41681009252E+03 -0.34038798045E+03  0.76117950753E+03  0.00000000000E+00 0. -1.
         -3    1    3    3    0  502  0.58635734066E+02 -0.34647563443E+02 -0.63514107153E+01  0.68402802429E+02  0.00000000000E+00 0.  1.
         13    1    5    5    0    0 -0.79156339159E+02  0.47398027415E+03 -0.61917913752E+03  0.78377664589E+03  0.00000000000E+00 0. -1.
        -13    1    5    5    0    0 -0.86703104439E+02  0.15775886226E+03 -0.23700146063E+03  0.29761548898E+03  0.00000000000E+00 0.  1.
          2    1    6    6  503    0 -0.38532968411E+03 -0.16460320338E+03 -0.29664206163E+03  0.51339039019E+03  0.00000000000E+00 0. -1.
         -2    1    6    6    0  503 -0.45776999539E+02 -0.15678277065E+02 -0.17268231403E+01  0.48418219471E+02  0.00000000000E+00 0.  1.
<mgrwt>
<rscale>  0 0.19648887E+04</rscale>
<asrwt>0</asrwt>
<pdfrwt beam="1">  1        2 0.30569784E+00 0.19648887E+04</pdfrwt>
<pdfrwt beam="2">  1       -2 0.74730322E-01 0.19648887E+04</pdfrwt>
<totfact> 0.10186694E+01</totfact>
</mgrwt>
</event>
<event>
12    3  0.8686020E-008  0.3837601E+04  0.7818608E-02  0.8038134E-01
          2   -1    0    0  501    0  0.00000000000E+00  0.00000000000E+00  0.22058028101E+04  0.22058028101E+04  0.00000000000E+00 0. -1.
         -2   -1    0    0    0  501 -0.00000000000E+00 -0.00000000000E+00 -0.16691409622E+04  0.16691409622E+04  0.00000000000E+00 0.  1.
         23    2    1    2    0    0 -0.15868319170E+04  0.39171768527E+03 -0.53696682392E+03  0.17227586124E+04  0.89919902469E+02 0.  0.
        254    2    1    2    0    0  0.15868319170E+04 -0.39171768527E+03  0.10736286718E+04  0.21521851599E+04  0.89874588163E+03 0.  0.
         23    2    4    4    0    0  0.13422369511E+04 -0.14731104516E+03  0.43617754558E+03  0.14220567998E+04  0.93242231649E+02 0.  0.
         23    2    4    4    0    0  0.24459496597E+03 -0.24440664012E+03  0.63745112620E+03  0.73012836010E+03  0.84747748097E+02 0.  0.
          1    1    3    3  502    0 -0.15132360597E+04  0.35762938055E+03 -0.52256370485E+03  0.16403825688E+04  0.00000000000E+00 0. -1.
         -1    1    3    3    0  502 -0.73595857326E+02  0.34088304722E+02 -0.14403119068E+02  0.82376043686E+02  0.00000000000E+00 0.  1.
         13    1    5    5    0    0  0.87325615199E+03 -0.13152079958E+03  0.25668609866E+03  0.91965307641E+03  0.00000000000E+00 0. -1.
        -13    1    5    5    0    0  0.46898079909E+03 -0.15790245573E+02  0.17949144692E+03  0.50240372340E+03  0.00000000000E+00 0.  1.
          3    1    6    6  503    0  0.58430656689E+02 -0.40913818212E+02  0.20655824134E+03  0.21852777679E+03  0.00000000000E+00 0. -1.
         -3    1    6    6    0  503  0.18616430928E+03 -0.20349282190E+03  0.43089288486E+03  0.51160058331E+03  0.00000000000E+00 0.  1.
<mgrwt>
<rscale>  0 0.38376012E+04</rscale>
<asrwt>0</asrwt>
<pdfrwt beam="1">  1        2 0.33935428E+00 0.38376012E+04</pdfrwt>
<pdfrwt beam="2">  1       -2 0.25679092E+00 0.38376012E+04</pdfrwt>
<totfact> 0.23917028E-01</totfact>
</mgrwt>
</event>
<event>
12    3  0.8686020E-008  0.2130978E+04  0.7818608E-02  0.8547719E-01
         -1   -1    0    0    0  501 -0.00000000000E+00  0.00000000000E+00  0.59715198057E+03  0.59715198057E+03  0.00000000000E+00 0.  1.
          1   -1    0    0  501    0  0.00000000000E+00 -0.00000000000E+00 -0.19011346396E+04  0.19011346396E+04  0.00000000000E+00 0. -1.
         23    2    1    2    0    0  0.76163617061E+03  0.42430855285E+03 -0.49963975494E+03  0.10091362824E+04  0.92675494681E+02 0.  0.
        254    2    1    2    0    0 -0.76163617061E+03 -0.42430855285E+03 -0.80434290409E+03  0.14891503378E+04  0.90026319304E+03 0.  0.
         23    2    4    4    0    0 -0.83020692801E+03 -0.62740801110E+02 -0.38017931336E+03  0.91933100477E+03  0.86332117942E+02 0.  0.
         23    2    4    4    0    0  0.68570757397E+02 -0.36156775174E+03 -0.42416359073E+03  0.56981933301E+03  0.96675398632E+02 0.  0.
          2    1    3    3  502    0  0.21118840142E+03  0.15517214776E+03 -0.18116916982E+03  0.31859253668E+03  0.00000000000E+00 0. -1.
         -2    1    3    3    0  502  0.55044776919E+03  0.26913640509E+03 -0.31847058512E+03  0.69054374571E+03  0.00000000000E+00 0.  1.
         13    1    5    5    0    0 -0.60643732841E+03 -0.52976796418E+02 -0.31838711504E+03  0.68698117097E+03  0.00000000000E+00 0.  1.
        -13    1    5    5    0    0 -0.22376959960E+03 -0.97640046923E+01 -0.61792198317E+02  0.23234983380E+03  0.00000000000E+00 0. -1.
          3    1    6    6  503    0 -0.97247399003E+01 -0.80991235087E+02 -0.50163123135E+02  0.95762673572E+02  0.00000000000E+00 0. -1.
         -3    1    6    6    0  503  0.78295497297E+02 -0.28057651665E+03 -0.37400046760E+03  0.47405665944E+03  0.00000000000E+00 0.  1.
<mgrwt>
<rscale>  0 0.21309775E+04</rscale>
<asrwt>0</asrwt>
<pdfrwt beam="1">  1        1 0.29248226E+00 0.21309775E+04</pdfrwt>
<pdfrwt beam="2">  1       -1 0.91869535E-01 0.21309775E+04</pdfrwt>
<totfact> 0.36810617E+00</totfact>
</mgrwt>
</event>
<event>
12    3  0.8686020E-008  0.1420090E+04  0.7818608E-02  0.8939403E-01
         -1   -1    0    0    0  501 -0.00000000000E+00  0.00000000000E+00  0.37996614618E+03  0.37996614618E+03  0.00000000000E+00 0.  1.
          1   -1    0    0  501    0  0.00000000000E+00 -0.00000000000E+00 -0.13268658059E+04  0.13268658059E+04  0.00000000000E+00 0. -1.
         23    2    1    2    0    0  0.29943911715E+03  0.28838924912E+03 -0.34061687138E+03  0.54594453025E+03  0.95934525344E+02 0.  0.
        254    2    1    2    0    0 -0.29943911715E+03 -0.28838924912E+03 -0.60628278837E+03  0.11608874219E+04  0.89847016804E+03 0.  0.
         23    2    4    4    0    0 -0.42850357122E+03 -0.47956892469E+03 -0.19018246543E+03  0.67650885087E+03  0.88843632656E+02 0.  0.
         23    2    4    4    0    0  0.12906445407E+03  0.19117967557E+03 -0.41610032294E+03  0.48437857099E+03  0.90971531956E+02 0.  0.
          1    1    3    3  502    0  0.20131857050E+03  0.21109155263E+03 -0.28951956661E+03  0.41098709210E+03  0.00000000000E+00 0. -1.
         -1    1    3    3    0  502  0.98120546655E+02  0.77297696488E+02 -0.51097304767E+02  0.13495743815E+03  0.00000000000E+00 0.  1.
         13    1    5    5    0    0 -0.36603058308E+03 -0.39183934312E+03 -0.12487381130E+03  0.55055420016E+03  0.00000000000E+00 0. -1.
        -13    1    5    5    0    0 -0.62472988145E+02 -0.87729581573E+02 -0.65308654130E+02  0.12595465071E+03  0.00000000000E+00 0.  1.
          3    1    6    6  503    0  0.91345414524E+02  0.18837657488E+03 -0.36537799838E+03  0.42110663783E+03  0.00000000000E+00 0. -1.
         -3    1    6    6    0  503  0.37719039542E+02  0.28031006878E+01 -0.50722324556E+02  0.63271933160E+02  0.00000000000E+00 0.  1.
<mgrwt>
<rscale>  0 0.14200903E+04</rscale>
<asrwt>0</asrwt>
<pdfrwt beam="1">  1        1 0.20413320E+00 0.14200903E+04</pdfrwt>
<pdfrwt beam="2">  1       -1 0.58456330E-01 0.14200903E+04</pdfrwt>
<totfact> 0.24984454E+01</totfact>
</mgrwt>
</event>
<event>
12    3  0.8686020E-008  0.2603539E+04  0.7818608E-02  0.8367000E-01
          2   -1    0    0  501    0  0.00000000000E+00  0.00000000000E+00  0.62492824949E+03  0.62492824949E+03  0.00000000000E+00 0. -1.
         -2   -1    0    0    0  501 -0.00000000000E+00 -0.00000000000E+00 -0.27116776815E+04  0.27116776815E+04  0.00000000000E+00 0.  1.
         23    2    1    2    0    0  0.77767257635E+03  0.79713114477E+03 -0.12515966218E+04  0.16778439142E+04  0.92051067209E+02 0.  0.
        254    2    1    2    0    0 -0.77767257635E+03 -0.79713114477E+03 -0.83515281021E+03  0.16587620167E+04  0.90211890222E+03 0.  0.
         23    2    4    4    0    0 -0.68805512831E+03 -0.96382153866E+03 -0.82922908032E+03  0.14486108630E+04  0.92090969473E+02 0.  0.
         23    2    4    4    0    0 -0.89617448041E+02  0.16669039389E+03 -0.59237298967E+01  0.21015115376E+03  0.91167112726E+02 0.  0.
          1    1    3    3  502    0  0.42600632100E+03  0.37356883835E+03 -0.65474728405E+03  0.86586896727E+03  0.00000000000E+00 0. -1.
         -1    1    3    3    0  502  0.35166625535E+03  0.42356230642E+03 -0.59684933771E+03  0.81197494696E+03  0.00000000000E+00 0.  1.
         13    1    5    5    0    0 -0.17142373344E+02 -0.29034567713E+02 -0.44630368198E+02  0.55935112868E+02  0.00000000000E+00 0.  1.
        -13    1    5    5    0    0 -0.67091275496E+03 -0.93478697095E+03 -0.78459871212E+03  0.13926757501E+04  0.00000000000E+00 0. -1.
          4    1    6    6  503    0  0.59699184707E+01  0.82359476802E+02 -0.84672916966E+00  0.82579902494E+02  0.00000000000E+00 0. -1.
         -4    1    6    6    0  503 -0.95587366512E+02  0.84330917090E+02 -0.50770007270E+01  0.12757125127E+03  0.00000000000E+00 0.  1.
<mgrwt>
<rscale>  0 0.26035391E+04</rscale>
<asrwt>0</asrwt>
<pdfrwt beam="1">  1        2 0.96142809E-01 0.26035391E+04</pdfrwt>
<pdfrwt beam="2">  1       -2 0.41718118E+00 0.26035391E+04</pdfrwt>
<totfact> 0.23879168E-01</totfact>
</mgrwt>
</event>
<event>
12    3  0.8686020E-008  0.1425791E+04  0.7818608E-02  0.8935359E-01
          2   -1    0    0  501    0  0.00000000000E+00  0.00000000000E+00  0.15634477792E+04  0.15634477792E+04  0.00000000000E+00 0.  1.
         -2   -1    0    0    0  501 -0.00000000000E+00 -0.00000000000E+00 -0.32506348430E+03  0.32506348430E+03  0.00000000000E+00 0. -1.
         23    2    1    2    0    0  0.22817184631E+03  0.61260532238E+01  0.85320633410E+03  0.88782607532E+03  0.90411124819E+02 0.  0.
        254    2    1    2    0    0 -0.22817184631E+03 -0.61260532238E+01  0.38517796084E+03  0.10006851882E+04  0.89493511744E+03 0.  0.
         23    2    4    4    0    0 -0.27597333685E+03  0.14853688682E+03 -0.20287003611E+03  0.38415720529E+03  0.90531858604E+02 0.  0.
         23    2    4    4    0    0  0.47801490539E+02 -0.15466294004E+03  0.58804799695E+03  0.61652798293E+03  0.90003886030E+02 0.  0.
          1    1    3    3  502    0  0.68931056845E+02  0.20681703124E+02  0.14608013520E+03  0.16284541547E+03  0.00000000000E+00 0. -1.
         -1    1    3    3    0  502  0.15924078947E+03 -0.14555649900E+02  0.70712619891E+03  0.72498065985E+03  0.00000000000E+00 0.  1.
         13    1    5    5    0    0  0.76358348892E+00  0.21824074315E+02 -0.12614824712E+02  0.25219180835E+02  0.00000000000E+00 0. -1.
        -13    1    5    5    0    0 -0.27673692034E+03  0.12671281251E+03 -0.19025521140E+03  0.35893802445E+03  0.00000000000E+00 0.  1.
          4    1    6    6  503    0  0.56240843007E+02 -0.55648237294E+02  0.34486994055E+03  0.35382910371E+03  0.00000000000E+00 0.  1.
         -4    1    6    6    0  503 -0.84393524677E+01 -0.99014702751E+02  0.24317805640E+03  0.26269887922E+03  0.00000000000E+00 0. -1.
<mgrwt>
<rscale>  0 0.14257907E+04</rscale>
<asrwt>0</asrwt>
<pdfrwt beam="1">  1        2 0.24053042E+00 0.14257907E+04</pdfrwt>
<pdfrwt beam="2">  1       -2 0.50009768E-01 0.14257907E+04</pdfrwt>
<totfact> 0.42954179E+01</totfact>
</mgrwt>
</event>
<event>
12    3  0.8686020E-008  0.2672144E+04  0.7818608E-02  0.8344100E-01
         -2   -1    0    0    0  501 -0.00000000000E+00  0.00000000000E+00  0.58892561672E+03  0.58892561672E+03  0.00000000000E+00 0. -1.
          2   -1    0    0  501    0  0.00000000000E+00 -0.00000000000E+00 -0.30310933289E+04  0.30310933289E+04  0.00000000000E+00 0.  1.
         23    2    1    2    0    0 -0.29849200729E+03  0.11266816887E+04 -0.81360606048E+03  0.14242372603E+04  0.89374750436E+02 0.  0.
        254    2    1    2    0    0  0.29849200729E+03 -0.11266816887E+04 -0.16285616517E+04  0.21957816853E+04  0.90040826853E+03 0.  0.
         23    2    4    4    0    0  0.53632233646E+03 -0.67953038920E+03 -0.63698847593E+03  0.10786289326E+04  0.91010205062E+02 0.  0.
         23    2    4    4    0    0 -0.23783032916E+03 -0.44715129949E+03 -0.99157317581E+03  0.11171527527E+04  0.91133746477E+02 0.  0.
          4    1    3    3  502    0 -0.22373540634E+03  0.88063946908E+03 -0.58911736263E+03  0.10828862699E+04  0.00000000000E+00 0. -1.
         -4    1    3    3    0  502 -0.74756600956E+02  0.24604221961E+03 -0.22448869784E+03  0.34135099045E+03  0.00000000000E+00 0.  1.
         13    1    5    5    0    0  0.42901946856E+02 -0.27779948439E+02 -0.55496160345E+02  0.75446182093E+02  0.00000000000E+00 0.  1.
        -13    1    5    5    0    0  0.49342038960E+03 -0.65175044076E+03 -0.58149231559E+03  0.10031827505E+04  0.00000000000E+00 0. -1.
          2    1    6    6  503    0 -0.16232981199E+03 -0.38102366754E+03 -0.80550750751E+03  0.90574408512E+03  0.00000000000E+00 0. -1.
         -2    1    6    6    0  503 -0.75500517170E+02 -0.66127631954E+02 -0.18606566830E+03  0.21140866756E+03  0.00000000000E+00 0.  1.
<mgrwt>
<rscale>  0 0.26721441E+04</rscale>
<asrwt>0</asrwt>
<pdfrwt beam="1">  1        2 0.46632205E+00 0.26721441E+04</pdfrwt>
<pdfrwt beam="2">  1       -2 0.90603941E-01 0.26721441E+04</pdfrwt>
<totfact> 0.15226427E+00</totfact>
</mgrwt>
</event>
<event>
12    3  0.8686020E-008  0.1665580E+04  0.7818608E-02  0.8781243E-01
         -2   -1    0    0    0  501 -0.00000000000E+00  0.00000000000E+00  0.44237843076E+03  0.44237843076E+03  0.00000000000E+00 0.  1.
          2   -1    0    0  501    0  0.00000000000E+00 -0.00000000000E+00 -0.15677502702E+04  0.15677502702E+04  0.00000000000E+00 0. -1.
         23    2    1    2    0    0  0.12996408209E+03  0.55708674304E+03 -0.55449125811E+03  0.80157318040E+03  0.88446064380E+02 0.  0.
        254    2    1    2    0    0 -0.12996408209E+03 -0.55708674304E+03 -0.57088058129E+03  0.12085555205E+04  0.89859084472E+03 0.  0.
         23    2    4    4    0    0  0.20663707190E+03  0.75684258024E+02 -0.40196929258E+03  0.46731364677E+03  0.91519101222E+02 0.  0.
         23    2    4    4    0    0 -0.33660115399E+03 -0.63277100106E+03 -0.16891128872E+03  0.74124187376E+03  0.84905920337E+02 0.  0.
          4    1    3    3  502    0  0.33864782138E+02  0.28056428045E+03 -0.22843468660E+03  0.36338071630E+03  0.00000000000E+00 0. -1.
         -4    1    3    3    0  502  0.96099299947E+02  0.27652246259E+03 -0.32605657152E+03  0.43819246410E+03  0.00000000000E+00 0.  1.
         13    1    5    5    0    0  0.17182748500E+03  0.60438531838E+02 -0.38455552028E+03  0.42551198445E+03  0.00000000000E+00 0.  1.
        -13    1    5    5    0    0  0.34809586905E+02  0.15245726186E+02 -0.17413772295E+02  0.41801662323E+02  0.00000000000E+00 0. -1.
          3    1    6    6  503    0 -0.18023268908E+03 -0.26610381978E+03 -0.10091681404E+03  0.33686684086E+03  0.00000000000E+00 0. -1.
         -3    1    6    6    0  503 -0.15636846491E+03 -0.36666718128E+03 -0.67994474675E+02  0.40437503290E+03  0.00000000000E+00 0.  1.
<mgrwt>
<rscale>  0 0.16655797E+04</rscale>
<asrwt>0</asrwt>
<pdfrwt beam="1">  1        2 0.24119235E+00 0.16655797E+04</pdfrwt>
<pdfrwt beam="2">  1       -2 0.68058220E-01 0.16655797E+04</pdfrwt>
<totfact> 0.21922078E+01</totfact>
</mgrwt>
</event>
<event>
12    3  0.8686020E-008  0.1136452E+04  0.7818608E-02  0.9170374E-01
          3   -1    0    0  501    0  0.00000000000E+00  0.00000000000E+00  0.78839219042E+03  0.78839219042E+03  0.00000000000E+00 0. -1.
         -3   -1    0    0    0  501 -0.00000000000E+00 -0.00000000000E+00 -0.40954334848E+03  0.40954334848E+03  0.00000000000E+00 0.  1.
         23    2    1    2    0    0  0.18807813089E+02  0.18184018338E+03  0.14678043337E+03  0.25005438308E+03  0.86966158641E+02 0.  0.
        254    2    1    2    0    0 -0.18807813089E+02 -0.18184018338E+03  0.23206840857E+03  0.94788115582E+03  0.90066828143E+03 0.  0.
         23    2    4    4    0    0 -0.34681066197E+03 -0.74733197494E+01  0.39416538267E+03  0.53238799995E+03  0.87961058587E+02 0.  0.
         23    2    4    4    0    0  0.32800284888E+03 -0.17436686364E+03 -0.16209697410E+03  0.41549315587E+03  0.91484761324E+02 0.  0.
          1    1    3    3  502    0 -0.15041421012E+02  0.82060785107E+02  0.11083941197E+03  0.13872848317E+03  0.00000000000E+00 0. -1.
         -1    1    3    3    0  502  0.33849234101E+02  0.99779398278E+02  0.35941021407E+02  0.11132589991E+03  0.00000000000E+00 0.  1.
         13    1    5    5    0    0 -0.32060723033E+03  0.41864101467E+01  0.32056325396E+03  0.45339532635E+03  0.00000000000E+00 0. -1.
        -13    1    5    5    0    0 -0.26203431641E+02 -0.11659729896E+02  0.73602128707E+02  0.78992673592E+02  0.00000000000E+00 0.  1.
          2    1    6    6  503    0  0.27840981959E+03 -0.17210322763E+03 -0.16340433793E+03  0.36583128114E+03  0.00000000000E+00 0. -1.
         -2    1    6    6    0  503  0.49593029288E+02 -0.22636360090E+01  0.13073638242E+01  0.49661874734E+02  0.00000000000E+00 0.  1.
<mgrwt>
<rscale>  0 0.11364520E+04</rscale>
<asrwt>0</asrwt>
<pdfrwt beam="1">  1        3 0.12129111E+00 0.11364520E+04</pdfrwt>
<pdfrwt beam="2">  1       -3 0.63006669E-01 0.11364520E+04</pdfrwt>
<totfact> 0.35078201E+00</totfact>
</mgrwt>
</event>
<event>
12    3  0.8686020E-008  0.2227884E+04  0.7818608E-02  0.8506911E-01
         -1   -1    0    0    0  501 -0.00000000000E+00  0.00000000000E+00  0.23253334604E+04  0.23253334604E+04  0.00000000000E+00 0.  1.
          1   -1    0    0  501    0  0.00000000000E+00 -0.00000000000E+00 -0.53362979324E+03  0.53362979324E+03  0.00000000000E+00 0. -1.
         23    2    1    2    0    0  0.80930209233E+03 -0.42507031715E+03  0.53541819663E+03  0.10632568732E+04  0.90486915397E+02 0.  0.
        254    2    1    2    0    0 -0.80930209233E+03  0.42507031715E+03  0.12562854705E+04  0.17957063805E+04  0.90036302140E+03 0.  0.
         23    2    4    4    0    0 -0.55727516799E+02  0.50458912288E+03  0.57484090700E+03  0.77255482595E+03  0.93183430233E+02 0.  0.
         23    2    4    4    0    0 -0.75357457553E+03 -0.79518805729E+02  0.68144456354E+03  0.10231515546E+04  0.90964438410E+02 0.  0.
          2    1    3    3  502    0  0.33691304804E+03 -0.12837321271E+03  0.22189560057E+03  0.42335297475E+03  0.00000000000E+00 0. -1.
         -2    1    3    3    0  502  0.47238904429E+03 -0.29669710444E+03  0.31352259607E+03  0.63990389841E+03  0.00000000000E+00 0.  1.
         13    1    5    5    0    0  0.12751175531E+02  0.84673404868E+01  0.17711553227E+02  0.23409131767E+02  0.00000000000E+00 0. -1.
        -13    1    5    5    0    0 -0.68478692329E+02  0.49612178239E+03  0.55712935377E+03  0.74914569418E+03  0.00000000000E+00 0.  1.
          1    1    6    6  503    0 -0.19735120783E+03 -0.27577291233E+01  0.22692766074E+03  0.30075117208E+03  0.00000000000E+00 0. -1.
         -1    1    6    6    0  503 -0.55622336771E+03 -0.76761076605E+02  0.45451690280E+03  0.72240038247E+03  0.00000000000E+00 0.  1.
<mgrwt>
<rscale>  0 0.22278844E+04</rscale>
<asrwt>0</asrwt>
<pdfrwt beam="1">  1        1 0.82096892E-01 0.22278844E+04</pdfrwt>
<pdfrwt beam="2">  1       -1 0.35774360E+00 0.22278844E+04</pdfrwt>
<totfact> 0.50854702E-01</totfact>
</mgrwt>
</event>
<event>
12    3  0.8686020E-008  0.1827515E+04  0.7818608E-02  0.8691803E-01
         -1   -1    0    0    0  501 -0.00000000000E+00  0.00000000000E+00  0.11868933872E+04  0.11868933872E+04  0.00000000000E+00 0.  1.
          1   -1    0    0  501    0  0.00000000000E+00 -0.00000000000E+00 -0.70347723311E+03  0.70347723311E+03  0.00000000000E+00 0. -1.
         23    2    1    2    0    0  0.38070646478E+03 -0.46844164608E+03  0.52562435645E+03  0.80489533724E+03  0.84856064743E+02 0.  0.
        254    2    1    2    0    0 -0.38070646478E+03  0.46844164608E+03 -0.42208202358E+02  0.10854752831E+04  0.90116595014E+03 0.  0.
         23    2    4    4    0    0 -0.16018834951E+03 -0.22589715332E+03 -0.17333529099E+03  0.33957071258E+03  0.92592194810E+02 0.  0.
         23    2    4    4    0    0 -0.22051811527E+03  0.69433879940E+03  0.13112708863E+03  0.74590457049E+03  0.91895089045E+02 0.  0.
          3    1    3    3  502    0  0.49185940966E+02 -0.44345627211E+02  0.28267831048E+02  0.72005983874E+02  0.00000000000E+00 0. -1.
         -3    1    3    3    0  502  0.33152052381E+03 -0.42409601887E+03  0.49735652540E+03  0.73288935337E+03  0.00000000000E+00 0.  1.
         13    1    5    5    0    0 -0.68868496366E+02 -0.16733117103E+03 -0.86242138864E+02  0.20045023598E+03  0.00000000000E+00 0. -1.
        -13    1    5    5    0    0 -0.91319853146E+02 -0.58565982290E+02 -0.87093152129E+02  0.13912047659E+03  0.00000000000E+00 0.  1.
          1    1    6    6  503    0 -0.18329326022E+03  0.52539520332E+03  0.63108799959E+02  0.56001719576E+03  0.00000000000E+00 0. -1.
         -1    1    6    6    0  503 -0.37224855045E+02  0.16894359607E+03  0.68018288676E+02  0.18588737473E+03  0.00000000000E+00 0.  1.
<mgrwt>
<rscale>  0 0.18275147E+04</rscale>
<asrwt>0</asrwt>
<pdfrwt beam="1">  1        1 0.10822727E+00 0.18275147E+04</pdfrwt>
<pdfrwt beam="2">  1       -1 0.18259898E+00 0.18275147E+04</pdfrwt>
<totfact> 0.50743877E+00</totfact>
</mgrwt>
</event>
<event>
12    3  0.8686020E-008  0.2198739E+04  0.7818608E-02  0.8518953E-01
          2   -1    0    0  501    0  0.00000000000E+00  0.00000000000E+00  0.41390558146E+04  0.41390558146E+04  0.00000000000E+00 0.  1.
         -2   -1    0    0    0  501 -0.00000000000E+00 -0.00000000000E+00 -0.29200224269E+03  0.29200224269E+03  0.00000000000E+00 0. -1.
         23    2    1    2    0    0 -0.16172455709E+03 -0.89768494272E+03  0.15846303495E+04  0.18306894946E+04  0.91529189385E+02 0.  0.
        254    2    1    2    0    0  0.16172455709E+03  0.89768494272E+03  0.22624232225E+04  0.26003685627E+04  0.90075786729E+03 0.  0.
         23    2    4    4    0    0  0.52582650152E+02 -0.65341961471E+02 -0.20231776010E+02  0.11876100996E+03  0.81610941063E+02 0.  0.
         23    2    4    4    0    0  0.10914190694E+03  0.96302690420E+03  0.22826549985E+04  0.24816075527E+04  0.92354911042E+02 0.  0.
          4    1    3    3  502    0 -0.11164981217E+03 -0.61444713047E+03  0.11670003842E+04  0.13235939156E+04  0.00000000000E+00 0.  1.
         -4    1    3    3    0  502 -0.50074744921E+02 -0.28323781225E+03  0.41762996523E+03  0.50709557898E+03  0.00000000000E+00 0. -1.
         13    1    5    5    0    0  0.56263207653E+02 -0.27037876769E+02 -0.41340781130E+02  0.74870925599E+02  0.00000000000E+00 0.  1.
        -13    1    5    5    0    0 -0.36805575013E+01 -0.38304084703E+02  0.21109005120E+02  0.43890084365E+02  0.00000000000E+00 0. -1.
          3    1    6    6  503    0  0.80681661013E+02  0.74865561345E+03  0.16701093381E+04  0.18320098142E+04  0.00000000000E+00 0. -1.
         -3    1    6    6    0  503  0.28460245923E+02  0.21437129074E+03  0.61254566039E+03  0.64959773857E+03  0.00000000000E+00 0.  1.
<mgrwt>
<rscale>  0 0.21987393E+04</rscale>
<asrwt>0</asrwt>
<pdfrwt beam="1">  1        2 0.63677778E+00 0.21987393E+04</pdfrwt>
<pdfrwt beam="2">  1       -2 0.44923425E-01 0.21987393E+04</pdfrwt>
<totfact> 0.11363016E+00</totfact>
</mgrwt>
</event>
<event>
12    3  0.8686020E-008  0.1917189E+04  0.7818608E-02  0.8646347E-01
         -2   -1    0    0    0  501 -0.00000000000E+00  0.00000000000E+00  0.34195465004E+03  0.34195465004E+03  0.00000000000E+00 0.  1.
          2   -1    0    0  501    0  0.00000000000E+00 -0.00000000000E+00 -0.26872082304E+04  0.26872082304E+04  0.00000000000E+00 0. -1.
         23    2    1    2    0    0 -0.58382809147E+03 -0.46168767817E+03 -0.94926465708E+03  0.12096792878E+04  0.90608154543E+02 0.  0.
        254    2    1    2    0    0  0.58382809147E+03  0.46168767817E+03 -0.13959889233E+04  0.18194835926E+04  0.89873506513E+03 0.  0.
         23    2    4    4    0    0  0.79726142815E+03  0.47668727387E+03 -0.11055653055E+04  0.14469006352E+04  0.91598371176E+02 0.  0.
         23    2    4    4    0    0 -0.21343333668E+03 -0.14999595703E+02 -0.29042361778E+03  0.37258295739E+03  0.93238432473E+02 0.  0.
          1    1    3    3  502    0 -0.47439823374E+03 -0.33064417306E+03 -0.75623097355E+03  0.95197927431E+03  0.00000000000E+00 0. -1.
         -1    1    3    3    0  502 -0.10942985773E+03 -0.13104350511E+03 -0.19303368352E+03  0.25770001352E+03  0.00000000000E+00 0.  1.
         13    1    5    5    0    0  0.29403208864E+03  0.14586936184E+03 -0.44596483696E+03  0.55373041787E+03  0.00000000000E+00 0. -1.
        -13    1    5    5    0    0  0.50322933952E+03  0.33081791203E+03 -0.65960046852E+03  0.89317021734E+03  0.00000000000E+00 0.  1.
          4    1    6    6  503    0 -0.28730527773E+02  0.21489535996E+02 -0.14837636160E+02  0.38825234452E+02  0.00000000000E+00 0. -1.
         -4    1    6    6    0  503 -0.18470280891E+03 -0.36489131699E+02 -0.27558598162E+03  0.33375772293E+03  0.00000000000E+00 0.  1.
<mgrwt>
<rscale>  0 0.19171889E+04</rscale>
<asrwt>0</asrwt>
<pdfrwt beam="1">  1        2 0.41341664E+00 0.19171889E+04</pdfrwt>
<pdfrwt beam="2">  1       -2 0.52608408E-01 0.19171889E+04</pdfrwt>
<totfact> 0.86289957E+00</totfact>
</mgrwt>
</event>
<event>
12    3  0.8686020E-008  0.1813293E+04  0.7818608E-02  0.8699262E-01
          2   -1    0    0  501    0  0.00000000000E+00  0.00000000000E+00  0.36361451866E+04  0.36361451866E+04  0.00000000000E+00 0.  1.
         -2   -1    0    0    0  501 -0.00000000000E+00 -0.00000000000E+00 -0.22606583692E+03  0.22606583692E+03  0.00000000000E+00 0. -1.
         23    2    1    2    0    0  0.50275239337E+02 -0.56015552832E+03  0.47583604222E+03  0.74232268756E+03  0.91220709286E+02 0.  0.
        254    2    1    2    0    0 -0.50275239337E+02  0.56015552832E+03  0.29342433074E+04  0.31198883359E+04  0.89867548417E+03 0.  0.
         23    2    4    4    0    0 -0.41209591771E+03  0.51493233532E+03  0.21344807138E+04  0.22359263313E+04  0.91543901868E+02 0.  0.
         23    2    4    4    0    0  0.36182067838E+03  0.45223192992E+02  0.79976259368E+03  0.88396200469E+03  0.93857759443E+02 0.  0.
          3    1    3    3  502    0  0.61537997821E+02 -0.20747538730E+03  0.16607919119E+03  0.27279160409E+03  0.00000000000E+00 0. -1.
         -3    1    3    3    0  502 -0.11262758484E+02 -0.35268014101E+03  0.30975685103E+03  0.46953108348E+03  0.00000000000E+00 0.  1.
         13    1    5    5    0    0 -0.31506285193E+03  0.36939778640E+03  0.16869967544E+04  0.17554706989E+04  0.00000000000E+00 0.  1.
        -13    1    5    5    0    0 -0.97033065783E+02  0.14553454892E+03  0.44748395937E+03  0.48045563238E+03  0.00000000000E+00 0. -1.
          3    1    6    6  503    0  0.40297241015E+02  0.37224721763E+02  0.12111441067E+03  0.13295957286E+03  0.00000000000E+00 0. -1.
         -3    1    6    6    0  503  0.32152343736E+03  0.79984712296E+01  0.67864818301E+03  0.75100243183E+03  0.00000000000E+00 0.  1.
<mgrwt>
<rscale>  0 0.18132934E+04</rscale>
<asrwt>0</asrwt>
<pdfrwt beam="1">  1        2 0.55940691E+00 0.18132934E+04</pdfrwt>
<pdfrwt beam="2">  1       -2 0.34779362E-01 0.18132934E+04</pdfrwt>
<totfact> 0.47995098E+00</totfact>
</mgrwt>
</event>
<event>
12    3  0.8686020E-008  0.1081070E+04  0.7818608E-02  0.9223842E-01
         -1   -1    0    0    0  501 -0.00000000000E+00  0.00000000000E+00  0.42512719049E+03  0.42512719049E+03  0.00000000000E+00 0.  1.
          1   -1    0    0  501    0  0.00000000000E+00 -0.00000000000E+00 -0.68727160112E+03  0.68727160112E+03  0.00000000000E+00 0. -1.
         23    2    1    2    0    0  0.11749079750E+03  0.79684930000E+02 -0.22271948479E+02  0.17256811329E+03  0.95550711507E+02 0.  0.
        254    2    1    2    0    0 -0.11749079750E+03 -0.79684930000E+02 -0.23987246215E+03  0.93983067831E+03  0.89754617165E+03 0.  0.
         23    2    4    4    0    0 -0.12466240405E+03 -0.28607429534E+03  0.24235196279E+03  0.40580487025E+03  0.92541349750E+02 0.  0.
         23    2    4    4    0    0  0.71716065489E+01  0.20638936534E+03 -0.48222442494E+03  0.53402580806E+03  0.99975825056E+02 0.  0.
          2    1    3    3  502    0  0.97968720860E+02  0.10113057604E+03 -0.26459793116E+02  0.14326682913E+03  0.00000000000E+00 0. -1.
         -2    1    3    3    0  502  0.19522076638E+02 -0.21445646045E+02  0.41878446370E+01  0.29301284157E+02  0.00000000000E+00 0.  1.
         13    1    5    5    0    0 -0.75481782144E+02 -0.23320244755E+03  0.14566691446E+03  0.28513107678E+03  0.00000000000E+00 0.  1.
        -13    1    5    5    0    0 -0.49180621903E+02 -0.52871847794E+02  0.96685048332E+02  0.12067379347E+03  0.00000000000E+00 0. -1.
          3    1    6    6  503    0 -0.25143023539E+02  0.12271970825E+03 -0.18391642593E+03  0.22252539215E+03  0.00000000000E+00 0. -1.
         -3    1    6    6    0  503  0.32314630088E+02  0.83669657092E+02 -0.29830799901E+03  0.31150041591E+03  0.00000000000E+00 0.  1.
<mgrwt>
<rscale>  0 0.10810696E+04</rscale>
<asrwt>0</asrwt>
<pdfrwt beam="1">  1        1 0.10573409E+00 0.10810696E+04</pdfrwt>
<pdfrwt beam="2">  1       -1 0.65404184E-01 0.10810696E+04</pdfrwt>
<totfact> 0.66253582E+01</totfact>
</mgrwt>
</event>
<event>
12    3  0.8686020E-008  0.1956827E+04  0.7818608E-02  0.8627076E-01
          2   -1    0    0  501    0  0.00000000000E+00  0.00000000000E+00  0.71591050085E+03  0.71591050085E+03  0.00000000000E+00 0. -1.
         -2   -1    0    0    0  501 -0.00000000000E+00 -0.00000000000E+00 -0.13371686673E+04  0.13371686673E+04  0.00000000000E+00 0.  1.
         23    2    1    2    0    0 -0.73646777359E+03 -0.15783795227E+03 -0.39513681050E+03  0.85956848156E+03  0.12420658101E+03 0.  0.
        254    2    1    2    0    0  0.73646777359E+03  0.15783795227E+03 -0.22612135591E+03  0.11935106866E+04  0.89779690944E+03 0.  0.
         23    2    4    4    0    0  0.21239835622E+03  0.31467121698E+03  0.24928220417E+03  0.46310264428E+03  0.90506382653E+02 0.  0.
         23    2    4    4    0    0  0.52406941737E+03 -0.15683326471E+03 -0.47540356008E+03  0.73040804227E+03  0.90785109685E+02 0.  0.
          2    1    3    3  502    0 -0.43475260945E+03 -0.42527117250E+02 -0.18602837566E+03  0.47478936770E+03  0.00000000000E+00 0. -1.
         -2    1    3    3    0  502 -0.30171516413E+03 -0.11531083502E+03 -0.20910843484E+03  0.38477911386E+03  0.00000000000E+00 0.  1.
         13    1    5    5    0    0 -0.84695767256E+01  0.19059907786E+02  0.87340312314E+01  0.22611879981E+02  0.00000000000E+00 0.  1.
        -13    1    5    5    0    0  0.22086793295E+03  0.29561130920E+03  0.24054817294E+03  0.44049076430E+03  0.00000000000E+00 0. -1.
          3    1    6    6  503    0  0.49943098572E+03 -0.13835745518E+03 -0.46900052065E+03  0.69895320535E+03  0.00000000000E+00 0. -1.
         -3    1    6    6    0  503  0.24638431647E+02 -0.18475809530E+02 -0.64030394311E+01  0.31454836922E+02  0.00000000000E+00 0.  1.
<mgrwt>
<rscale>  0 0.19568271E+04</rscale>
<asrwt>0</asrwt>
<pdfrwt beam="1">  1        2 0.11014008E+00 0.19568271E+04</pdfrwt>
<pdfrwt beam="2">  1       -2 0.20571826E+00 0.19568271E+04</pdfrwt>
<totfact> 0.45275617E+00</totfact>
</mgrwt>
</event>
<event>
12    3  0.8686020E-008  0.1990214E+04  0.7818608E-02  0.8611210E-01
          3   -1    0    0  501    0  0.00000000000E+00  0.00000000000E+00  0.71498070684E+03  0.71498070684E+03  0.00000000000E+00 0. -1.
         -3   -1    0    0    0  501 -0.00000000000E+00 -0.00000000000E+00 -0.13849854097E+04  0.13849854097E+04  0.00000000000E+00 0.  1.
         23    2    1    2    0    0 -0.28414248944E+03 -0.73306956422E+03 -0.33236959326E+03  0.85852033256E+03  0.91976489427E+02 0.  0.
        254    2    1    2    0    0  0.28414248944E+03  0.73306956422E+03 -0.33763510957E+03  0.12414457839E+04  0.89947886411E+03 0.  0.
         23    2    4    4    0    0 -0.11486298172E+03  0.71549256322E+03 -0.39035289646E+03  0.82837808690E+03  0.93336801373E+02 0.  0.
         23    2    4    4    0    0  0.39900547116E+03  0.17577001002E+02  0.52717786898E+02  0.41306769705E+03  0.91276723834E+02 0.  0.
          3    1    3    3  502    0 -0.57695038455E+02 -0.14277299163E+03 -0.26784174823E+02  0.15630174862E+03  0.00000000000E+00 0. -1.
         -3    1    3    3    0  502 -0.22644745098E+03 -0.59029657259E+03 -0.30558541844E+03  0.70221858394E+03  0.00000000000E+00 0.  1.
         13    1    5    5    0    0 -0.27413756877E+02  0.52257612037E+02 -0.13414611127E+02  0.60517137024E+02  0.00000000000E+00 0.  1.
        -13    1    5    5    0    0 -0.87449224843E+02  0.66323495118E+03 -0.37693828534E+03  0.76786094987E+03  0.00000000000E+00 0. -1.
          2    1    6    6  503    0  0.31698355043E+03  0.43709544215E+02  0.18775058851E+02  0.32053330301E+03  0.00000000000E+00 0. -1.
         -2    1    6    6    0  503  0.82021920722E+02 -0.26132543214E+02  0.33942728047E+02  0.92534394044E+02  0.00000000000E+00 0.  1.
<mgrwt>
<rscale>  0 0.19902139E+04</rscale>
<asrwt>0</asrwt>
<pdfrwt beam="1">  1        3 0.10999703E+00 0.19902139E+04</pdfrwt>
<pdfrwt beam="2">  1       -3 0.21307467E+00 0.19902139E+04</pdfrwt>
<totfact> 0.20590765E-01</totfact>
</mgrwt>
</event>
<event>
12    3  0.8686020E-008  0.2210259E+04  0.7818608E-02  0.8514170E-01
         -1   -1    0    0    0  501 -0.00000000000E+00  0.00000000000E+00  0.67447877754E+03  0.67447877754E+03  0.00000000000E+00 0.  1.
          1   -1    0    0  501    0  0.00000000000E+00 -0.00000000000E+00 -0.18107477431E+04  0.18107477431E+04  0.00000000000E+00 0. -1.
         23    2    1    2    0    0  0.33593457364E+03 -0.79681175372E+03 -0.82701401441E+03  0.11999019840E+04  0.89730611041E+02 0.  0.
        254    2    1    2    0    0 -0.33593457364E+03  0.79681175372E+03 -0.30925495115E+03  0.12853245366E+04  0.89925498667E+03 0.  0.
         23    2    4    4    0    0 -0.35767925987E+03  0.86763301738E+01 -0.32345944522E+03  0.49130692656E+03  0.93524070366E+02 0.  0.
         23    2    4    4    0    0  0.21744686234E+02  0.78813542355E+03  0.14204494066E+02  0.79401761009E+03  0.92908127978E+02 0.  0.
          1    1    3    3  502    0  0.13443100553E+03 -0.23322538005E+03 -0.22292700513E+03  0.34951712800E+03  0.00000000000E+00 0. -1.
         -1    1    3    3    0  502  0.20150356810E+03 -0.56358637367E+03 -0.60408700927E+03  0.85038485600E+03  0.00000000000E+00 0.  1.
         13    1    5    5    0    0 -0.27648497454E+03 -0.17895010654E+02 -0.28545061827E+03  0.39780174462E+03  0.00000000000E+00 0. -1.
        -13    1    5    5    0    0 -0.81194285330E+02  0.26571340828E+02 -0.38008826954E+02  0.93505181942E+02  0.00000000000E+00 0.  1.
          2    1    6    6  503    0 -0.16992040060E+02  0.48702385267E+03  0.42158435100E+02  0.48914036447E+03  0.00000000000E+00 0. -1.
         -2    1    6    6    0  503  0.38736726294E+02  0.30111157087E+03 -0.27953941033E+02  0.30487724562E+03  0.00000000000E+00 0.  1.
<mgrwt>
<rscale>  0 0.22102587E+04</rscale>
<asrwt>0</asrwt>
<pdfrwt beam="1">  1        1 0.27857657E+00 0.22102587E+04</pdfrwt>
<pdfrwt beam="2">  1       -1 0.10376597E+00 0.22102587E+04</pdfrwt>
<totfact> 0.31929986E+00</totfact>
</mgrwt>
</event>
<event>
12    3  0.8686020E-008  0.1235425E+04  0.7818608E-02  0.9082402E-01
         -1   -1    0    0    0  501 -0.00000000000E+00  0.00000000000E+00  0.37567929300E+03  0.37567929300E+03  0.00000000000E+00 0.  1.
          1   -1    0    0  501    0  0.00000000000E+00 -0.00000000000E+00 -0.10156768166E+04  0.10156768166E+04  0.00000000000E+00 0. -1.
         23    2    1    2    0    0  0.16417613180E+03 -0.14342072148E+03 -0.34416195680E+03  0.41704364287E+03  0.89188799427E+02 0.  0.
        254    2    1    2    0    0 -0.16417613180E+03  0.14342072148E+03 -0.29583556679E+03  0.97431246672E+03  0.90235402954E+03 0.  0.
         23    2    4    4    0    0 -0.30301720594E+03  0.69115827877E+02  0.24336869894E+03  0.40517491975E+03  0.91334370401E+02 0.  0.
         23    2    4    4    0    0  0.13884107413E+03  0.74304893608E+02 -0.53920426573E+03  0.56913754697E+03  0.91532759731E+02 0.  0.
          4    1    3    3  502    0  0.11861494748E+03 -0.14298964582E+03 -0.30416617878E+03  0.35641634206E+03  0.00000000000E+00 0. -1.
         -4    1    3    3    0  502  0.45561184325E+02 -0.43107566084E+00 -0.39995778029E+02  0.60627300809E+02  0.00000000000E+00 0.  1.
         13    1    5    5    0    0 -0.23540755843E+03  0.90737037644E+02  0.17885758733E+03  0.30925711813E+03  0.00000000000E+00 0. -1.
        -13    1    5    5    0    0 -0.67609647506E+02 -0.21621209767E+02  0.64511111609E+02  0.95917801626E+02  0.00000000000E+00 0.  1.
          2    1    6    6  503    0  0.51513913193E+02  0.32265829269E+02 -0.83738480254E+02  0.10347415168E+03  0.00000000000E+00 0.  1.
         -2    1    6    6    0  503  0.87327160939E+02  0.42039064339E+02 -0.45546578548E+03  0.46566339529E+03  0.00000000000E+00 0. -1.
<mgrwt>
<rscale>  0 0.12354250E+04</rscale>
<asrwt>0</asrwt>
<pdfrwt beam="1">  1        1 0.15625797E+00 0.12354250E+04</pdfrwt>
<pdfrwt beam="2">  1       -1 0.57796816E-01 0.12354250E+04</pdfrwt>
<totfact> 0.44036211E+01</totfact>
</mgrwt>
</event>
<event>
12    3  0.8686020E-008  0.5344758E+04  0.7818608E-02  0.7777419E-01
          2   -1    0    0  501    0  0.00000000000E+00  0.00000000000E+00  0.29873867669E+04  0.29873867669E+04  0.00000000000E+00 0. -1.
         -2   -1    0    0    0  501 -0.00000000000E+00 -0.00000000000E+00 -0.23905875318E+04  0.23905875318E+04  0.00000000000E+00 0.  1.
         23    2    1    2    0    0  0.16139424208E+04  0.89674694557E+02  0.23346055734E+04  0.28411792482E+04  0.95208449572E+02 0.  0.
        254    2    1    2    0    0 -0.16139424208E+04 -0.89674694557E+02 -0.17378063383E+04  0.25367950505E+04  0.89582731069E+03 0.  0.
         23    2    4    4    0    0 -0.92485265082E+03 -0.32990253119E+03 -0.14365185751E+04  0.17422145554E+04  0.86820703101E+02 0.  0.
         23    2    4    4    0    0 -0.68908976996E+03  0.24022783663E+03 -0.30128776320E+03  0.79458049518E+03  0.89608718951E+02 0.  0.
          2    1    3    3  502    0  0.89400441255E+03  0.96792022280E+02  0.13052876792E+04  0.15850515798E+04  0.00000000000E+00 0. -1.
         -2    1    3    3    0  502  0.71993800823E+03 -0.71173277231E+01  0.10293178942E+04  0.12561276684E+04  0.00000000000E+00 0.  1.
         13    1    5    5    0    0 -0.52586243165E+03 -0.20164836350E+03 -0.75069384352E+03  0.93847461672E+03  0.00000000000E+00 0. -1.
        -13    1    5    5    0    0 -0.39899021917E+03 -0.12825416769E+03 -0.68582473158E+03  0.80373993864E+03  0.00000000000E+00 0.  1.
          3    1    6    6  503    0 -0.30657228840E+02  0.16244336182E+02 -0.36593768531E+02  0.50426659947E+02  0.00000000000E+00 0. -1.
         -3    1    6    6    0  503 -0.65843254112E+03  0.22398350045E+03 -0.26469399466E+03  0.74415383523E+03  0.00000000000E+00 0.  1.
<mgrwt>
<rscale>  0 0.53447580E+04</rscale>
<asrwt>0</asrwt>
<pdfrwt beam="1">  1        2 0.45959796E+00 0.53447580E+04</pdfrwt>
<pdfrwt beam="2">  1       -2 0.36778270E+00 0.53447580E+04</pdfrwt>
<totfact> 0.15065695E-02</totfact>
</mgrwt>
</event>
<event>
12    3  0.8818204E-008  0.1465637E+04  0.7818608E-02  0.8907631E-01
          2   -1    0    0  501    0  0.00000000000E+00  0.00000000000E+00  0.25144194060E+04  0.25144194060E+04  0.00000000000E+00 0. -1.
         -2   -1    0    0    0  501 -0.00000000000E+00 -0.00000000000E+00 -0.21357722682E+03  0.21357722682E+03  0.00000000000E+00 0.  1.
         23    2    1    2    0    0  0.44721679275E+03 -0.31327131105E+01  0.84511952235E+03  0.95910721778E+03  0.75146354063E+02 0.  0.
        254    2    1    2    0    0 -0.44721679275E+03  0.31327131105E+01  0.14557226569E+04  0.17688894151E+04  0.89990479242E+03 0.  0.
         23    2    4    4    0    0 -0.17265446201E+03  0.40168663266E+03  0.38191462425E+03  0.58764631183E+03  0.91146549519E+02 0.  0.
         23    2    4    4    0    0 -0.27456233074E+03 -0.39855391955E+03  0.10738080326E+04  0.11812431032E+04  0.89676517419E+02 0.  0.
          1    1    3    3  502    0  0.19465416382E+03  0.16372457594E+02  0.43842712171E+03  0.47997566804E+03  0.00000000000E+00 0. -1.
         -1    1    3    3    0  502  0.25256262893E+03 -0.19505170705E+02  0.40669240064E+03  0.47913154974E+03  0.00000000000E+00 0.  1.
         13    1    5    5    0    0 -0.81035821651E+02  0.87132041815E+02  0.10279528552E+03  0.15724397549E+03  0.00000000000E+00 0. -1.
        -13    1    5    5    0    0 -0.91618640360E+02  0.31455459084E+03  0.27911933873E+03  0.43040233635E+03  0.00000000000E+00 0.  1.
          4    1    6    6  503    0 -0.15535732841E+02 -0.80667789507E+02  0.18104359392E+03  0.19881004542E+03  0.00000000000E+00 0. -1.
         -4    1    6    6    0  503 -0.25902659790E+03 -0.31788613004E+03  0.89276443870E+03  0.98243305782E+03  0.00000000000E+00 0.  1.
<mgrwt>
<rscale>  0 0.14656367E+04</rscale>
<asrwt>0</asrwt>
<pdfrwt beam="1">  1        2 0.38683373E+00 0.14656367E+04</pdfrwt>
<pdfrwt beam="2">  1       -2 0.32858037E-01 0.14656367E+04</pdfrwt>
<totfact> 0.28671051E+01</totfact>
</mgrwt>
</event>
<event>
12    3  0.8686020E-008  0.1771173E+04  0.7818608E-02  0.8721782E-01
         -1   -1    0    0    0  501 -0.00000000000E+00  0.00000000000E+00  0.65188345904E+03  0.65188345904E+03  0.00000000000E+00 0.  1.
          1   -1    0    0  501    0  0.00000000000E+00 -0.00000000000E+00 -0.12030725637E+04  0.12030725637E+04  0.00000000000E+00 0. -1.
         23    2    1    2    0    0  0.15949491603E+02  0.64134561128E+03 -0.76089415302E+02  0.65250429164E+03  0.91616985812E+02 0.  0.
        254    2    1    2    0    0 -0.15949491603E+02 -0.64134561128E+03 -0.47509968937E+03  0.12024517311E+04  0.89921736607E+03 0.  0.
         23    2    4    4    0    0 -0.34945717975E+03 -0.62257774028E+03 -0.46550800039E+03  0.85610502956E+03  0.80590074040E+02 0.  0.
         23    2    4    4    0    0  0.33350768815E+03 -0.18767871005E+02 -0.95916889807E+01  0.34634670156E+03  0.91018823042E+02 0.  0.
          2    1    3    3  502    0 -0.37563403761E+02  0.30764012142E+03 -0.43614862903E+02  0.31297876905E+03  0.00000000000E+00 0. -1.
         -2    1    3    3    0  502  0.53512895365E+02  0.33370548986E+03 -0.32474552399E+02  0.33952552259E+03  0.00000000000E+00 0.  1.
         13    1    5    5    0    0  0.28508446491E+01 -0.20685614883E+02 -0.16884813925E+02  0.26853657472E+02  0.00000000000E+00 0. -1.
        -13    1    5    5    0    0 -0.35230802440E+03 -0.60189212539E+03 -0.44862318647E+03  0.82925137209E+03  0.00000000000E+00 0.  1.
          2    1    6    6  503    0  0.85309759744E+02 -0.35823104480E+02  0.23257380945E+02  0.95404170195E+02  0.00000000000E+00 0. -1.
         -2    1    6    6    0  503  0.24819792841E+03  0.17055233475E+02 -0.32849069925E+02  0.25094253137E+03  0.00000000000E+00 0.  1.
<mgrwt>
<rscale>  0 0.17711726E+04</rscale>
<asrwt>0</asrwt>
<pdfrwt beam="1">  1        1 0.18508809E+00 0.17711726E+04</pdfrwt>
<pdfrwt beam="2">  1       -1 0.10028976E+00 0.17711726E+04</pdfrwt>
<totfact> 0.95218307E+00</totfact>
</mgrwt>
</event>
<event>
12    3  0.8686020E-008  0.2234078E+04  0.7818608E-02  0.8504376E-01
         -1   -1    0    0    0  501 -0.00000000000E+00  0.00000000000E+00  0.11994076484E+04  0.11994076484E+04  0.00000000000E+00 0.  1.
          1   -1    0    0  501    0  0.00000000000E+00 -0.00000000000E+00 -0.10403272937E+04  0.10403272937E+04  0.00000000000E+00 0. -1.
         23    2    1    2    0    0  0.88811095856E+03  0.26220231685E+03  0.17982358544E+03  0.94753883620E+03  0.89454986166E+02 0.  0.
        254    2    1    2    0    0 -0.88811095856E+03 -0.26220231685E+03 -0.20743230729E+02  0.12921961059E+04  0.90102683914E+03 0.  0.
         23    2    4    4    0    0  0.57939474237E+02 -0.31883190603E+03 -0.30015034851E+02  0.33990474539E+03  0.98099779005E+02 0.  0.
         23    2    4    4    0    0 -0.94605043280E+03  0.56629589189E+02  0.92718041223E+01  0.95229136052E+03  0.92490741207E+02 0.  0.
          3    1    3    3  502    0  0.25224813650E+03  0.77561036411E+02  0.10542255529E+02  0.26411356628E+03  0.00000000000E+00 0. -1.
         -3    1    3    3    0  502  0.63586282205E+03  0.18464128043E+03  0.16928132991E+03  0.68342526992E+03  0.00000000000E+00 0.  1.
         13    1    5    5    0    0  0.18430483336E+02 -0.17421038580E+02  0.19393713686E+02  0.31926343852E+02  0.00000000000E+00 0. -1.
        -13    1    5    5    0    0  0.39508990901E+02 -0.30141086746E+03 -0.49408748537E+02  0.30797840154E+03  0.00000000000E+00 0.  1.
          1    1    6    6  503    0 -0.33561835282E+03  0.40727144467E+02 -0.35914010147E+02  0.33998263951E+03  0.00000000000E+00 0. -1.
         -1    1    6    6    0  503 -0.61043207998E+03  0.15902444723E+02  0.45185814270E+02  0.61230872101E+03  0.00000000000E+00 0.  1.
<mgrwt>
<rscale>  0 0.22340783E+04</rscale>
<asrwt>0</asrwt>
<pdfrwt beam="1">  1        1 0.16005035E+00 0.22340783E+04</pdfrwt>
<pdfrwt beam="2">  1       -1 0.18452425E+00 0.22340783E+04</pdfrwt>
<totfact> 0.24721512E+00</totfact>
</mgrwt>
</event>
<event>
12    3  0.8686020E-008  0.1750851E+04  0.7818608E-02  0.8732882E-01
          2   -1    0    0  501    0  0.00000000000E+00  0.00000000000E+00  0.22462367665E+04  0.22462367665E+04  0.00000000000E+00 0. -1.
         -2   -1    0    0    0  501 -0.00000000000E+00 -0.00000000000E+00 -0.34117927011E+03  0.34117927011E+03  0.00000000000E+00 0.  1.
         23    2    1    2    0    0  0.53769774193E+02  0.57375276359E+03  0.29050624886E+03  0.65122122961E+03  0.87245555341E+02 0.  0.
        254    2    1    2    0    0 -0.53769774193E+02 -0.57375276359E+03  0.16145512475E+04  0.19361948070E+04  0.89999509854E+03 0.  0.
         23    2    4    4    0    0 -0.22954746843E+03 -0.67091270204E+03  0.71699431701E+03  0.10124162499E+04  0.89943973206E+02 0.  0.
         23    2    4    4    0    0  0.17577769424E+03  0.97159938452E+02  0.89755693050E+03  0.92377855713E+03  0.86142484797E+02 0.  0.
          1    1    3    3  502    0  0.76682264241E+02  0.38728323218E+03  0.18967739657E+03  0.43800226751E+03  0.00000000000E+00 0.  1.
         -1    1    3    3    0  502 -0.22912490048E+02  0.18646953141E+03  0.10082885229E+03  0.21321896210E+03  0.00000000000E+00 0. -1.
         13    1    5    5    0    0 -0.18729191299E+03 -0.59428995162E+03  0.66172082190E+03  0.90891872761E+03  0.00000000000E+00 0.  1.
        -13    1    5    5    0    0 -0.42255555446E+02 -0.76622750426E+02  0.55273495108E+02  0.10349752224E+03  0.00000000000E+00 0. -1.
          3    1    6    6  503    0  0.13781285063E+03  0.29525358011E+02  0.57095593162E+03  0.58809421389E+03  0.00000000000E+00 0. -1.
         -3    1    6    6    0  503  0.37964843607E+02  0.67634580441E+02  0.32660099889E+03  0.33568434324E+03  0.00000000000E+00 0.  1.
<mgrwt>
<rscale>  0 0.17508506E+04</rscale>
<asrwt>0</asrwt>
<pdfrwt beam="1">  1        2 0.34557488E+00 0.17508506E+04</pdfrwt>
<pdfrwt beam="2">  1       -2 0.52489120E-01 0.17508506E+04</pdfrwt>
<totfact> 0.15793608E+01</totfact>
</mgrwt>
</event>
<event>
12    3  0.8686020E-008  0.2613141E+04  0.7818608E-02  0.8363751E-01
         -1   -1    0    0    0  501 -0.00000000000E+00  0.00000000000E+00  0.97977269755E+03  0.97977269755E+03  0.00000000000E+00 0.  1.
          1   -1    0    0  501    0  0.00000000000E+00 -0.00000000000E+00 -0.17423692639E+04  0.17423692639E+04  0.00000000000E+00 0. -1.
         23    2    1    2    0    0 -0.70949003397E+03  0.75643859665E+03 -0.85392879491E+03  0.13470126377E+04  0.98352430775E+02 0.  0.
        254    2    1    2    0    0  0.70949003397E+03 -0.75643859665E+03  0.91332228504E+02  0.13751293238E+04  0.89836719792E+03 0.  0.
         23    2    4    4    0    0  0.22583289322E+03 -0.52162223452E+03 -0.34980993144E+03  0.67370567113E+03  0.91771956364E+02 0.  0.
         23    2    4    4    0    0  0.48365714075E+03 -0.23481636213E+03  0.44114215994E+03  0.70142365263E+03  0.91245720256E+02 0.  0.
          3    1    3    3  502    0 -0.83011231473E+02  0.62193161851E+02 -0.56873119023E+02  0.11829372595E+03  0.00000000000E+00 0. -1.
         -3    1    3    3    0  502 -0.62647880250E+03  0.69424543480E+03 -0.79705567588E+03  0.12287189118E+04  0.00000000000E+00 0.  1.
         13    1    5    5    0    0  0.57033033428E+02 -0.22231961167E+03 -0.10887151955E+03  0.25403106976E+03  0.00000000000E+00 0.  1.
        -13    1    5    5    0    0  0.16879985979E+03 -0.29930262285E+03 -0.24093841189E+03  0.41967460136E+03  0.00000000000E+00 0. -1.
          3    1    6    6  503    0  0.44449206817E+03 -0.22223089841E+03  0.37120381115E+03  0.62028383849E+03  0.00000000000E+00 0. -1.
         -3    1    6    6    0  503  0.39165072579E+02 -0.12585463721E+02  0.69938348793E+02  0.81139814142E+02  0.00000000000E+00 0.  1.
<mgrwt>
<rscale>  0 0.26131405E+04</rscale>
<asrwt>0</asrwt>
<pdfrwt beam="1">  1        1 0.26805680E+00 0.26131405E+04</pdfrwt>
<pdfrwt beam="2">  1       -1 0.15073426E+00 0.26131405E+04</pdfrwt>
<totfact> 0.13507324E+00</totfact>
</mgrwt>
</event>
<event>
12    3  0.8686020E-008  0.1147888E+04  0.7818608E-02  0.9159734E-01
         -1   -1    0    0    0  501 -0.00000000000E+00  0.00000000000E+00  0.86240078538E+03  0.86240078538E+03  0.00000000000E+00 0.  1.
          1   -1    0    0  501    0  0.00000000000E+00 -0.00000000000E+00 -0.38197055608E+03  0.38197055608E+03  0.00000000000E+00 0. -1.
         23    2    1    2    0    0  0.35702923996E+02 -0.15865717118E+03  0.23063630452E+03  0.29660539174E+03  0.91295436343E+02 0.  0.
        254    2    1    2    0    0 -0.35702923996E+02  0.15865717118E+03  0.24979392477E+03  0.94776594972E+03  0.89967577151E+03 0.  0.
         23    2    4    4    0    0 -0.26711167876E+03  0.42969375848E+03  0.26361645980E+02  0.51469645377E+03  0.90731075921E+02 0.  0.
         23    2    4    4    0    0  0.23140875476E+03 -0.27103658730E+03  0.22343227879E+03  0.43306949595E+03  0.10303573014E+03 0.  0.
          2    1    3    3  502    0 -0.46955382377E+01 -0.13067132279E+03  0.12884042457E+03  0.18356714761E+03  0.00000000000E+00 0. -1.
         -2    1    3    3    0  502  0.40398462233E+02 -0.27985848393E+02  0.10179587995E+03  0.11303824413E+03  0.00000000000E+00 0.  1.
         13    1    5    5    0    0 -0.10534855880E+03  0.97773979953E+02  0.22197561449E+02  0.14543315210E+03  0.00000000000E+00 0.  1.
        -13    1    5    5    0    0 -0.16176311996E+03  0.33191977852E+03  0.41640845304E+01  0.36926330166E+03  0.00000000000E+00 0. -1.
          2    1    6    6  503    0  0.20109678916E+03 -0.27005239902E+03  0.22076790970E+03  0.40262474685E+03  0.00000000000E+00 0. -1.
         -2    1    6    6    0  503  0.30311965603E+02 -0.98418828099E+00  0.26643690933E+01  0.30444749103E+02  0.00000000000E+00 0.  1.
<mgrwt>
<rscale>  0 0.11478880E+04</rscale>
<asrwt>0</asrwt>
<pdfrwt beam="1">  1        1 0.58764701E-01 0.11478880E+04</pdfrwt>
<pdfrwt beam="2">  1       -1 0.13267704E+00 0.11478880E+04</pdfrwt>
<totfact> 0.30523600E+01</totfact>
</mgrwt>
</event>
<event>
12    3  0.8686020E-008  0.1719131E+04  0.7818608E-02  0.8750528E-01
          1   -1    0    0  501    0  0.00000000000E+00  0.00000000000E+00  0.13588754183E+04  0.13588754183E+04  0.00000000000E+00 0. -1.
         -1   -1    0    0    0  501 -0.00000000000E+00 -0.00000000000E+00 -0.54372406591E+03  0.54372406591E+03  0.00000000000E+00 0.  1.
         23    2    1    2    0    0  0.33038588449E+03  0.37925295637E+03 -0.10351523668E+03  0.52195738095E+03  0.93469062908E+02 0.  0.
        254    2    1    2    0    0 -0.33038588449E+03 -0.37925295637E+03  0.91866658909E+03  0.13806421033E+04  0.89957583220E+03 0.  0.
         23    2    4    4    0    0 -0.45614875507E+03  0.21193943272E+02  0.13109329756E+03  0.48355964549E+03  0.90131060672E+02 0.  0.
         23    2    4    4    0    0  0.12576287059E+03 -0.40044689964E+03  0.78757329153E+03  0.89708245779E+03  0.91165933915E+02 0.  0.
          1    1    3    3  502    0  0.11292229266E+03  0.97719098656E+02  0.68477109736E+01  0.14949032600E+03  0.00000000000E+00 0. -1.
         -1    1    3    3    0  502  0.21746359182E+03  0.28153385771E+03 -0.11036294765E+03  0.37246705495E+03  0.00000000000E+00 0.  1.
         13    1    5    5    0    0 -0.45972536521E+02  0.28722840685E+02  0.25707318638E+02  0.59994515773E+02  0.00000000000E+00 0. -1.
        -13    1    5    5    0    0 -0.41017621855E+03 -0.75288974132E+01  0.10538597892E+03  0.42356512972E+03  0.00000000000E+00 0.  1.
          3    1    6    6  503    0  0.25435589746E+02 -0.70068567041E+02  0.77596927726E+02  0.10760044844E+03  0.00000000000E+00 0. -1.
         -3    1    6    6    0  503  0.10032728084E+03 -0.33037833260E+03  0.70997636380E+03  0.78948200935E+03  0.00000000000E+00 0.  1.
<mgrwt>
<rscale>  0 0.17191315E+04</rscale>
<asrwt>0</asrwt>
<pdfrwt beam="1">  1        1 0.20905776E+00 0.17191315E+04</pdfrwt>
<pdfrwt beam="2">  1       -1 0.83649857E-01 0.17191315E+04</pdfrwt>
<totfact> 0.11061260E+01</totfact>
</mgrwt>
</event>
<event>
12    3  0.8686020E-008  0.1518357E+04  0.7818608E-02  0.8872337E-01
         -3   -1    0    0    0  501 -0.00000000000E+00  0.00000000000E+00  0.11301315582E+04  0.11301315582E+04  0.00000000000E+00 0.  1.
          3   -1    0    0  501    0  0.00000000000E+00 -0.00000000000E+00 -0.50998634421E+03  0.50998634421E+03  0.00000000000E+00 0. -1.
         23    2    1    2    0    0  0.82292421783E+02 -0.28556936743E+03  0.61960652591E+03  0.69332810292E+03  0.92031000471E+02 0.  0.
        254    2    1    2    0    0 -0.82292421783E+02  0.28556936743E+03  0.53868809227E+00  0.94678979950E+03  0.89893755509E+03 0.  0.
         23    2    4    4    0    0 -0.64042504061E+02  0.38861801264E+03 -0.37225095713E+03  0.54921620222E+03  0.89119356022E+02 0.  0.
         23    2    4    4    0    0 -0.18249917722E+02 -0.10304864521E+03  0.37278964522E+03  0.39757359728E+03  0.90225067986E+02 0.  0.
          2    1    3    3  502    0  0.49885514096E+02 -0.65958878409E+02  0.11128989415E+03  0.13865272698E+03  0.00000000000E+00 0. -1.
         -2    1    3    3    0  502  0.32406907687E+02 -0.21961048902E+03  0.50831663176E+03  0.55467537594E+03  0.00000000000E+00 0.  1.
         13    1    5    5    0    0  0.26483789724E+01  0.10576522162E+02 -0.40200640513E+02  0.41652949834E+02  0.00000000000E+00 0.  1.
        -13    1    5    5    0    0 -0.66690883034E+02  0.37804149048E+03 -0.33205031662E+03  0.50756325238E+03  0.00000000000E+00 0. -1.
          4    1    6    6  503    0 -0.40735043185E+02 -0.10752093388E+03  0.30103139721E+03  0.32224214043E+03  0.00000000000E+00 0. -1.
         -4    1    6    6    0  503  0.22485125464E+02  0.44722886636E+01  0.71758248015E+02  0.75331456850E+02  0.00000000000E+00 0.  1.
<mgrwt>
<rscale>  0 0.15183566E+04</rscale>
<asrwt>0</asrwt>
<pdfrwt beam="1">  1        3 0.78459438E-01 0.15183566E+04</pdfrwt>
<pdfrwt beam="2">  1       -3 0.17386639E+00 0.15183566E+04</pdfrwt>
<totfact> 0.83521983E-01</totfact>
</mgrwt>
</event>
<event>
12    3  0.8686020E-008  0.2644828E+04  0.7818608E-02  0.8353132E-01
         -2   -1    0    0    0  501 -0.00000000000E+00  0.00000000000E+00  0.12440492687E+04  0.12440492687E+04  0.00000000000E+00 0.  1.
          2   -1    0    0  501    0  0.00000000000E+00 -0.00000000000E+00 -0.14057149859E+04  0.14057149859E+04  0.00000000000E+00 0. -1.
         23    2    1    2    0    0  0.76375856073E+03  0.86731633749E+03 -0.23846033256E+03  0.11833648594E+04  0.89018491653E+02 0.  0.
        254    2    1    2    0    0 -0.76375856073E+03 -0.86731633749E+03  0.76794615332E+02  0.14663993952E+04  0.89936922619E+03 0.  0.
         23    2    4    4    0    0 -0.17630152062E+03 -0.32491074589E+03  0.44135576409E+03  0.58297904513E+03  0.91762942383E+02 0.  0.
         23    2    4    4    0    0 -0.58745704010E+03 -0.54240559160E+03 -0.36456114876E+03  0.88342035010E+03  0.90648132950E+02 0.  0.
          2    1    3    3  502    0  0.39144247090E+03  0.46730698496E+03 -0.83017397073E+02  0.61521940350E+03  0.00000000000E+00 0. -1.
         -2    1    3    3    0  502  0.37231608982E+03  0.40000935253E+03 -0.15544293549E+03  0.56814545589E+03  0.00000000000E+00 0.  1.
         13    1    5    5    0    0 -0.58343184938E+02 -0.37777024651E+02  0.97427605670E+02  0.11967944338E+03  0.00000000000E+00 0.  1.
        -13    1    5    5    0    0 -0.11795833568E+03 -0.28713372124E+03  0.34392815842E+03  0.46329960175E+03  0.00000000000E+00 0. -1.
          3    1    6    6  503    0 -0.48713025267E+03 -0.40147904190E+03 -0.29811754319E+03  0.69810842547E+03  0.00000000000E+00 0. -1.
         -3    1    6    6    0  503 -0.10032678743E+03 -0.14092654970E+03 -0.66443605573E+02  0.18531192462E+03  0.00000000000E+00 0.  1.
<mgrwt>
<rscale>  0 0.26448279E+04</rscale>
<asrwt>0</asrwt>
<pdfrwt beam="1">  1        2 0.21626384E+00 0.26448279E+04</pdfrwt>
<pdfrwt beam="2">  1       -2 0.19139220E+00 0.26448279E+04</pdfrwt>
<totfact> 0.19203379E+00</totfact>
</mgrwt>
</event>
<event>
12    3  0.8686020E-008  0.2622721E+04  0.7818608E-02  0.8360524E-01
         -2   -1    0    0    0  501 -0.00000000000E+00  0.00000000000E+00  0.13533685852E+04  0.13533685852E+04  0.00000000000E+00 0. -1.
          2   -1    0    0  501    0  0.00000000000E+00 -0.00000000000E+00 -0.12706565423E+04  0.12706565423E+04  0.00000000000E+00 0.  1.
         23    2    1    2    0    0 -0.10681711263E+04  0.42640077608E+03 -0.64958335768E+02  0.11558531892E+04  0.94709200599E+02 0.  0.
        254    2    1    2    0    0  0.10681711263E+04 -0.42640077608E+03  0.14767037870E+03  0.14681719382E+04  0.90050825785E+03 0.  0.
         23    2    4    4    0    0  0.11463396788E+04 -0.23410045486E+03 -0.37779098179E+02  0.11741795104E+04  0.91501804237E+02 0.  0.
         23    2    4    4    0    0 -0.78168552477E+02 -0.19230032123E+03  0.18544947688E+03  0.29399242783E+03  0.94606041072E+02 0.  0.
          2    1    3    3  502    0 -0.93742536097E+02  0.49121327615E+02  0.19171593870E+02  0.10755518543E+03  0.00000000000E+00 0. -1.
         -2    1    3    3    0  502 -0.97442859025E+03  0.37727944847E+03 -0.84129929638E+02  0.10482980038E+04  0.00000000000E+00 0.  1.
         13    1    5    5    0    0  0.97639776476E+03 -0.17472677465E+03 -0.54397772940E+02  0.99339879128E+03  0.00000000000E+00 0. -1.
        -13    1    5    5    0    0  0.16994191406E+03 -0.59373680205E+02  0.16618674761E+02  0.18078071912E+03  0.00000000000E+00 0.  1.
          4    1    6    6  503    0 -0.10774173305E+02 -0.31779888037E+02  0.88668098517E+02  0.94805462863E+02  0.00000000000E+00 0. -1.
         -4    1    6    6    0  503 -0.67394379172E+02 -0.16052043319E+03  0.96781378359E+02  0.19918696497E+03  0.00000000000E+00 0.  1.
<mgrwt>
<rscale>  0 0.26227212E+04</rscale>
<asrwt>0</asrwt>
<pdfrwt beam="1">  1        2 0.19548562E+00 0.26227212E+04</pdfrwt>
<pdfrwt beam="2">  1       -2 0.20821055E+00 0.26227212E+04</pdfrwt>
<totfact> 0.17856483E+00</totfact>
</mgrwt>
</event>
<event>
12    3  0.8686020E-008  0.2202461E+04  0.7818608E-02  0.8517404E-01
          1   -1    0    0  501    0  0.00000000000E+00  0.00000000000E+00  0.16403314202E+04  0.16403314202E+04  0.00000000000E+00 0. -1.
         -1   -1    0    0    0  501 -0.00000000000E+00 -0.00000000000E+00 -0.73930725088E+03  0.73930725088E+03  0.00000000000E+00 0.  1.
         23    2    1    2    0    0 -0.34801191781E+03  0.80173132438E+03  0.66669686239E+03  0.11034711196E+04  0.96324420557E+02 0.  0.
        254    2    1    2    0    0  0.34801191781E+03 -0.80173132438E+03  0.23432730691E+03  0.12761675515E+04  0.89989383888E+03 0.  0.
         23    2    4    4    0    0 -0.80922052041E+02 -0.63178218335E+03  0.42253976475E+03  0.76973536025E+03  0.90860147058E+02 0.  0.
         23    2    4    4    0    0  0.42893396985E+03 -0.16994914104E+03 -0.18821245785E+03  0.50643219123E+03  0.90457581203E+02 0.  0.
          4    1    3    3  502    0 -0.84476514537E+01  0.62041769472E+02  0.72188496722E+02  0.95560049358E+02  0.00000000000E+00 0. -1.
         -4    1    3    3    0  502 -0.33956426636E+03  0.73968955491E+03  0.59450836567E+03  0.10079110702E+04  0.00000000000E+00 0.  1.
         13    1    5    5    0    0 -0.13403709485E+02 -0.27462574470E+03  0.22965009371E+03  0.35824310827E+03  0.00000000000E+00 0. -1.
        -13    1    5    5    0    0 -0.67518342557E+02 -0.35715643864E+03  0.19288967104E+03  0.41149225198E+03  0.00000000000E+00 0.  1.
          3    1    6    6  503    0  0.37843412849E+03 -0.11607873887E+03 -0.16685272925E+03  0.42956547403E+03  0.00000000000E+00 0. -1.
         -3    1    6    6    0  503  0.50499841358E+02 -0.53870402168E+02 -0.21359728598E+02  0.76866717198E+02  0.00000000000E+00 0.  1.
<mgrwt>
<rscale>  0 0.22024613E+04</rscale>
<asrwt>0</asrwt>
<pdfrwt beam="1">  1        1 0.25235868E+00 0.22024613E+04</pdfrwt>
<pdfrwt beam="2">  1       -1 0.11373958E+00 0.22024613E+04</pdfrwt>
<totfact> 0.33632955E+00</totfact>
</mgrwt>
</event>
<event>
12    3  0.8686020E-008  0.2405158E+04  0.7818608E-02  0.8437575E-01
          1   -1    0    0  501    0  0.00000000000E+00  0.00000000000E+00  0.28247308634E+04  0.28247308634E+04  0.00000000000E+00 0. -1.
         -1   -1    0    0    0  501 -0.00000000000E+00 -0.00000000000E+00 -0.51197682101E+03  0.51197682101E+03  0.00000000000E+00 0.  1.
         23    2    1    2    0    0  0.51927137493E+03  0.89126616362E+03  0.10472747374E+04  0.14728731327E+04  0.92589168763E+02 0.  0.
        254    2    1    2    0    0 -0.51927137493E+03 -0.89126616362E+03  0.12654793049E+04  0.18638345517E+04  0.89913471157E+03 0.  0.
         23    2    4    4    0    0 -0.44536633092E+03 -0.88060415003E+03  0.13802386227E+04  0.16991516448E+04  0.90789970919E+02 0.  0.
         23    2    4    4    0    0 -0.73905044007E+02 -0.10662013590E+02 -0.11475931772E+03  0.16468290686E+03  0.91515707643E+02 0.  0.
          1    1    3    3  502    0  0.21434494751E+03  0.32308008048E+03  0.44913614175E+03  0.59333613471E+03  0.00000000000E+00 0. -1.
         -1    1    3    3    0  502  0.30492642742E+03  0.56818608314E+03  0.59813859566E+03  0.87953699799E+03  0.00000000000E+00 0.  1.
         13    1    5    5    0    0 -0.20337129503E+02 -0.10047723151E+03  0.14934070262E+03  0.18114060381E+03  0.00000000000E+00 0. -1.
        -13    1    5    5    0    0 -0.42502920142E+03 -0.78012691852E+03  0.12308979200E+04  0.15180110410E+04  0.00000000000E+00 0.  1.
          3    1    6    6  503    0 -0.49412462189E+02 -0.35405791714E+02 -0.20422785110E+02  0.64126840387E+02  0.00000000000E+00 0. -1.
         -3    1    6    6    0  503 -0.24492581818E+02  0.24743778124E+02 -0.94336532609E+02  0.10055606647E+03  0.00000000000E+00 0.  1.
<mgrwt>
<rscale>  0 0.24051584E+04</rscale>
<asrwt>0</asrwt>
<pdfrwt beam="1">  1        1 0.43457397E+00 0.24051584E+04</pdfrwt>
<pdfrwt beam="2">  1       -1 0.78765666E-01 0.24051584E+04</pdfrwt>
<totfact> 0.11556394E+00</totfact>
</mgrwt>
</event>
<event>
12    3  0.8686020E-008  0.3985701E+04  0.7818608E-02  0.8007437E-01
         -2   -1    0    0    0  501 -0.00000000000E+00  0.00000000000E+00  0.25943129785E+04  0.25943129785E+04  0.00000000000E+00 0.  1.
          2   -1    0    0  501    0  0.00000000000E+00 -0.00000000000E+00 -0.15308300555E+04  0.15308300555E+04  0.00000000000E+00 0. -1.
         23    2    1    2    0    0  0.17365083782E+04 -0.73832982256E+03  0.63595732622E+03  0.19933475465E+04  0.91653946662E+02 0.  0.
        254    2    1    2    0    0 -0.17365083782E+04  0.73832982256E+03  0.42752559681E+03  0.21317954875E+04  0.89508747613E+03 0.  0.
         23    2    4    4    0    0 -0.12411423238E+04  0.65861300040E+03  0.67875469891E+03  0.15630649560E+04  0.90877736600E+02 0.  0.
         23    2    4    4    0    0 -0.49536605442E+03  0.79716822158E+02 -0.25122910211E+03  0.56873053151E+03  0.92714918526E+02 0.  0.
          2    1    3    3  502    0  0.22121984673E+03 -0.12620539916E+03  0.75114902290E+02  0.26553393740E+03  0.00000000000E+00 0. -1.
         -2    1    3    3    0  502  0.15152885315E+04 -0.61212442340E+03  0.56084242393E+03  0.17278136091E+04  0.00000000000E+00 0.  1.
         13    1    5    5    0    0 -0.10253193918E+04  0.51608067020E+03  0.58129621180E+03  0.12866718304E+04  0.00000000000E+00 0.  1.
        -13    1    5    5    0    0 -0.21582293204E+03  0.14253233020E+03  0.97458487109E+02  0.27639312556E+03  0.00000000000E+00 0. -1.
          4    1    6    6  503    0 -0.19793619935E+03  0.74837433870E+02 -0.12335339797E+03  0.24493966871E+03  0.00000000000E+00 0.  1.
         -4    1    6    6    0  503 -0.29742985507E+03  0.48793882880E+01 -0.12787570414E+03  0.32379086279E+03  0.00000000000E+00 0. -1.
<mgrwt>
<rscale>  0 0.39857006E+04</rscale>
<asrwt>0</asrwt>
<pdfrwt beam="1">  1        2 0.23551232E+00 0.39857006E+04</pdfrwt>
<pdfrwt beam="2">  1       -2 0.39912507E+00 0.39857006E+04</pdfrwt>
<totfact> 0.72403418E-02</totfact>
</mgrwt>
</event>
<event>
12    3  0.8686020E-008  0.1495752E+04  0.7818608E-02  0.8887283E-01
          2   -1    0    0  501    0  0.00000000000E+00  0.00000000000E+00  0.93843644345E+03  0.93843644345E+03  0.00000000000E+00 0. -1.
         -2   -1    0    0    0  501 -0.00000000000E+00 -0.00000000000E+00 -0.59601112722E+03  0.59601112722E+03  0.00000000000E+00 0.  1.
         23    2    1    2    0    0 -0.25997407667E+03 -0.24495047722E+03  0.42606026186E+03  0.56299803198E+03  0.88612529895E+02 0.  0.
        254    2    1    2    0    0  0.25997407667E+03  0.24495047722E+03 -0.83634945627E+02  0.97144953869E+03  0.89951772926E+03 0.  0.
         23    2    4    4    0    0 -0.23084069477E+03 -0.17141467712E+03 -0.10999707795E+03  0.32115976205E+03  0.91508566333E+02 0.  0.
         23    2    4    4    0    0  0.49081477143E+03  0.41636515434E+03  0.26362132320E+02  0.65028977663E+03  0.89009830703E+02 0.  0.
          3    1    3    3  502    0 -0.99410905742E+02 -0.39183761303E+02  0.13155340975E+03  0.16948213755E+03  0.00000000000E+00 0. -1.
         -3    1    3    3    0  502 -0.16056317093E+03 -0.20576671592E+03  0.29450685211E+03  0.39351589444E+03  0.00000000000E+00 0.  1.
         13    1    5    5    0    0 -0.17085656380E+03 -0.95164109216E+02 -0.10950510704E+03  0.22414178893E+03  0.00000000000E+00 0. -1.
        -13    1    5    5    0    0 -0.59984130964E+02 -0.76250567907E+02 -0.49197090760E+00  0.97017973123E+02  0.00000000000E+00 0.  1.
          3    1    6    6  503    0  0.31670868254E+03  0.26481991862E+03  0.59495844083E+02  0.41710158757E+03  0.00000000000E+00 0. -1.
         -3    1    6    6    0  503  0.17410608889E+03  0.15154523573E+03 -0.33133711763E+02  0.23318818906E+03  0.00000000000E+00 0.  1.
<mgrwt>
<rscale>  0 0.14957521E+04</rscale>
<asrwt>0</asrwt>
<pdfrwt beam="1">  1        2 0.14437484E+00 0.14957521E+04</pdfrwt>
<pdfrwt beam="2">  1       -2 0.91694020E-01 0.14957521E+04</pdfrwt>
<totfact> 0.27038442E+01</totfact>
</mgrwt>
</event>
<event>
12    3  0.8686020E-008  0.1986791E+04  0.7818608E-02  0.8612821E-01
          1   -1    0    0  501    0  0.00000000000E+00  0.00000000000E+00  0.70596800114E+03  0.70596800114E+03  0.00000000000E+00 0. -1.
         -1   -1    0    0    0  501 -0.00000000000E+00 -0.00000000000E+00 -0.13978464773E+04  0.13978464773E+04  0.00000000000E+00 0.  1.
         23    2    1    2    0    0 -0.15546449615E+03  0.63780339122E+03  0.18518464587E+03  0.68838350303E+03  0.92823050800E+02 0.  0.
        254    2    1    2    0    0  0.15546449615E+03 -0.63780339122E+03 -0.87706312200E+03  0.14154309754E+04  0.89623811047E+03 0.  0.
         23    2    4    4    0    0 -0.27384482078E+02  0.14156513230E+03 -0.49607843836E+03  0.52421424479E+03  0.88972809856E+02 0.  0.
         23    2    4    4    0    0  0.18284897823E+03 -0.77936852351E+03 -0.38098468364E+03  0.89121673058E+03  0.90933422982E+02 0.  0.
          1    1    3    3  502    0 -0.90732583949E+02  0.46657528025E+03  0.16959443643E+03  0.50466540083E+03  0.00000000000E+00 0. -1.
         -1    1    3    3    0  502 -0.64731912202E+02  0.17122811097E+03  0.15590209443E+02  0.18371810220E+03  0.00000000000E+00 0.  1.
         13    1    5    5    0    0 -0.66269656071E+01  0.60573646196E+02 -0.84204666387E+02  0.10393993038E+03  0.00000000000E+00 0.  1.
        -13    1    5    5    0    0 -0.20757516471E+02  0.80991486101E+02 -0.41187377197E+03  0.42027431441E+03  0.00000000000E+00 0. -1.
          2    1    6    6  503    0  0.98943450647E+02 -0.32995013828E+03 -0.11990615814E+03  0.36473879275E+03  0.00000000000E+00 0. -1.
         -2    1    6    6    0  503  0.83905527583E+02 -0.44941838524E+03 -0.26107852550E+03  0.52647793783E+03  0.00000000000E+00 0.  1.
<mgrwt>
<rscale>  0 0.19867913E+04</rscale>
<asrwt>0</asrwt>
<pdfrwt beam="1">  1        1 0.10861046E+00 0.19867913E+04</pdfrwt>
<pdfrwt beam="2">  1       -1 0.21505330E+00 0.19867913E+04</pdfrwt>
<totfact> 0.29670921E+00</totfact>
</mgrwt>
</event>
<event>
12    3  0.8686020E-008  0.2993675E+04  0.7818608E-02  0.8245539E-01
          2   -1    0    0  501    0  0.00000000000E+00  0.00000000000E+00  0.28337326984E+04  0.28337326984E+04  0.00000000000E+00 0. -1.
         -2   -1    0    0    0  501 -0.00000000000E+00 -0.00000000000E+00 -0.79066109974E+03  0.79066109974E+03  0.00000000000E+00 0.  1.
         23    2    1    2    0    0  0.27870867679E+03 -0.96538703725E+03 -0.18001845612E+03  0.10249579739E+04  0.92095306546E+02 0.  0.
        254    2    1    2    0    0 -0.27870867679E+03  0.96538703725E+03  0.22230900547E+04  0.25994358242E+04  0.89737759863E+03 0.  0.
         23    2    4    4    0    0 -0.10785466310E+03  0.24490604533E+03  0.31401805758E+02  0.28423335652E+03  0.90503746683E+02 0.  0.
         23    2    4    4    0    0 -0.17085401369E+03  0.72048099192E+03  0.21916882490E+04  0.23152024677E+04  0.91548522561E+02 0.  0.
          1    1    3    3  502    0  0.94949777754E+02 -0.32205929693E+03 -0.16294549589E+02  0.33615943149E+03  0.00000000000E+00 0. -1.
         -1    1    3    3    0  502  0.18375889904E+03 -0.64332774032E+03 -0.16372390653E+03  0.68879854240E+03  0.00000000000E+00 0.  1.
         13    1    5    5    0    0 -0.82449153569E+02  0.79433777713E+02  0.21812583658E+02  0.11654774460E+03  0.00000000000E+00 0. -1.
        -13    1    5    5    0    0 -0.25405509533E+02  0.16547226762E+03  0.95892220995E+01  0.16768561192E+03  0.00000000000E+00 0.  1.
          2    1    6    6  503    0 -0.10370671951E+03  0.37542779282E+03  0.10164657991E+04  0.10885328805E+04  0.00000000000E+00 0. -1.
         -2    1    6    6    0  503 -0.67147294185E+02  0.34505319910E+03  0.11752224499E+04  0.12266695872E+04  0.00000000000E+00 0.  1.
<mgrwt>
<rscale>  0 0.29936748E+04</rscale>
<asrwt>0</asrwt>
<pdfrwt beam="1">  1        2 0.43595887E+00 0.29936748E+04</pdfrwt>
<pdfrwt beam="2">  1       -2 0.12164017E+00 0.29936748E+04</pdfrwt>
<totfact> 0.96936263E-01</totfact>
</mgrwt>
</event>
<event>
12    3  0.8686020E-008  0.1153515E+04  0.7818608E-02  0.9154547E-01
          2   -1    0    0  501    0  0.00000000000E+00  0.00000000000E+00  0.76801274462E+03  0.76801274462E+03  0.00000000000E+00 0.  1.
         -2   -1    0    0    0  501 -0.00000000000E+00 -0.00000000000E+00 -0.43312948239E+03  0.43312948239E+03  0.00000000000E+00 0. -1.
         23    2    1    2    0    0  0.55267545332E+02 -0.43264228319E+02  0.28744541533E+03  0.30957752726E+03  0.91033420053E+02 0.  0.
        254    2    1    2    0    0 -0.55267545332E+02  0.43264228319E+02  0.47437846896E+02  0.89156469976E+03  0.88753082737E+03 0.  0.
         23    2    4    4    0    0  0.35146905868E+03  0.16702370146E+03 -0.13312369723E+03  0.42078713696E+03  0.88952120868E+02 0.  0.
         23    2    4    4    0    0 -0.40673660402E+03 -0.12375947314E+03  0.18056154413E+03  0.47077756280E+03  0.90983351117E+02 0.  0.
          3    1    3    3  502    0  0.47685393481E+02 -0.50607065690E+02  0.99795810638E+02  0.12163131040E+03  0.00000000000E+00 0. -1.
         -3    1    3    3    0  502  0.75821518510E+01  0.73428373706E+01  0.18764960470E+03  0.18794621685E+03  0.00000000000E+00 0.  1.
         13    1    5    5    0    0  0.15779614486E+03  0.26775939687E+02 -0.53977659195E+02  0.16890873858E+03  0.00000000000E+00 0.  1.
        -13    1    5    5    0    0  0.19367291383E+03  0.14024776178E+03 -0.79146038035E+02  0.25187839838E+03  0.00000000000E+00 0. -1.
          1    1    6    6  503    0 -0.30282417354E+03 -0.12552105641E+03  0.11262661131E+03  0.34661616993E+03  0.00000000000E+00 0. -1.
         -1    1    6    6    0  503 -0.10391243048E+03  0.17615832620E+01  0.67934932818E+02  0.12416139287E+03  0.00000000000E+00 0.  1.
<mgrwt>
<rscale>  0 0.11535146E+04</rscale>
<asrwt>0</asrwt>
<pdfrwt beam="1">  1        2 0.11815581E+00 0.11535146E+04</pdfrwt>
<pdfrwt beam="2">  1       -2 0.66635305E-01 0.11535146E+04</pdfrwt>
<totfact> 0.74482690E+01</totfact>
</mgrwt>
</event>
<event>
12    3  0.8686020E-008  0.1327424E+04  0.7818608E-02  0.9008096E-01
          2   -1    0    0  501    0  0.00000000000E+00  0.00000000000E+00  0.20419378019E+04  0.20419378019E+04  0.00000000000E+00 0. -1.
         -2   -1    0    0    0  501 -0.00000000000E+00 -0.00000000000E+00 -0.21573301748E+03  0.21573301748E+03  0.00000000000E+00 0.  1.
         23    2    1    2    0    0  0.73209709969E+02  0.32122460625E+03  0.67725186688E+03  0.75873378163E+03  0.91988862955E+02 0.  0.
        254    2    1    2    0    0 -0.73209709969E+02 -0.32122460625E+03  0.11489529175E+04  0.14989370377E+04  0.90453000344E+03 0.  0.
         23    2    4    4    0    0 -0.33515997837E+03  0.17713839560E+03  0.51893115267E+03  0.64927149582E+03  0.92486278896E+02 0.  0.
         23    2    4    4    0    0  0.26195026840E+03 -0.49836300184E+03  0.63002176486E+03  0.84966554192E+03  0.89557156104E+02 0.  0.
          1    1    3    3  502    0 -0.21320691971E+02  0.76406168200E+02  0.17099294782E+03  0.18849685050E+03  0.00000000000E+00 0. -1.
         -1    1    3    3    0  502  0.94530401940E+02  0.24481843805E+03  0.50625891906E+03  0.57023693113E+03  0.00000000000E+00 0.  1.
         13    1    5    5    0    0 -0.17883296566E+03  0.43773126553E+02  0.22712775238E+03  0.29237703760E+03  0.00000000000E+00 0. -1.
        -13    1    5    5    0    0 -0.15632701270E+03  0.13336526904E+03  0.29180340029E+03  0.35689445822E+03  0.00000000000E+00 0.  1.
          3    1    6    6  503    0  0.16202785142E+03 -0.21252876338E+03  0.28993481647E+03  0.39431421189E+03  0.00000000000E+00 0. -1.
         -3    1    6    6    0  503  0.99922416982E+02 -0.28583423846E+03  0.34008694839E+03  0.45535133003E+03  0.00000000000E+00 0.  1.
<mgrwt>
<rscale>  0 0.13274237E+04</rscale>
<asrwt>0</asrwt>
<pdfrwt beam="1">  1        2 0.31414426E+00 0.13274237E+04</pdfrwt>
<pdfrwt beam="2">  1       -2 0.33189696E-01 0.13274237E+04</pdfrwt>
<totfact> 0.52562716E+01</totfact>
</mgrwt>
</event>
<event>
12    3  0.8686020E-008  0.1363531E+04  0.7818608E-02  0.8980648E-01
          2   -1    0    0  501    0  0.00000000000E+00  0.00000000000E+00  0.57569373027E+03  0.57569373027E+03  0.00000000000E+00 0. -1.
         -2   -1    0    0    0  501 -0.00000000000E+00 -0.00000000000E+00 -0.80738058715E+03  0.80738058715E+03  0.00000000000E+00 0.  1.
         23    2    1    2    0    0 -0.18210371905E+03  0.18264182248E+01  0.26924155325E+03  0.33744444869E+03  0.90623626405E+02 0.  0.
        254    2    1    2    0    0  0.18210371905E+03 -0.18264182248E+01 -0.50092841012E+03  0.10456298687E+04  0.89958181953E+03 0.  0.
         23    2    4    4    0    0  0.51191200809E+03 -0.15528959424E+03 -0.30625158159E+03  0.62293191729E+03  0.89918742435E+02 0.  0.
         23    2    4    4    0    0 -0.32980828904E+03  0.15346317601E+03 -0.19467682853E+03  0.42269795145E+03  0.91924081076E+02 0.  0.
          3    1    3    3  502    0 -0.71424266139E+02 -0.41711970820E+02  0.89014954026E+02  0.12151121900E+03  0.00000000000E+00 0. -1.
         -3    1    3    3    0  502 -0.11067945291E+03  0.43538389045E+02  0.18022659922E+03  0.21593322969E+03  0.00000000000E+00 0.  1.
         13    1    5    5    0    0  0.44646948254E+02 -0.11352971114E+02 -0.11815378264E+00  0.46067927040E+02  0.00000000000E+00 0.  1.
        -13    1    5    5    0    0  0.46726505984E+03 -0.14393662312E+03 -0.30613342781E+03  0.57686399024E+03  0.00000000000E+00 0. -1.
          4    1    6    6  503    0 -0.21949999871E+03  0.55218099208E+02 -0.10154506432E+03  0.24807395671E+03  0.00000000000E+00 0. -1.
         -4    1    6    6    0  503 -0.11030829034E+03  0.98245076803E+02 -0.93131764210E+02  0.17462399474E+03  0.00000000000E+00 0.  1.
<mgrwt>
<rscale>  0 0.13635306E+04</rscale>
<asrwt>0</asrwt>
<pdfrwt beam="1">  1        2 0.88568267E-01 0.13635306E+04</pdfrwt>
<pdfrwt beam="2">  1       -2 0.12421240E+00 0.13635306E+04</pdfrwt>
<totfact> 0.24774847E+01</totfact>
</mgrwt>
</event>
<event>
12    3  0.8686020E-008  0.2616363E+04  0.7818608E-02  0.8362664E-01
         -2   -1    0    0    0  501 -0.00000000000E+00  0.00000000000E+00  0.16705767453E+04  0.16705767453E+04  0.00000000000E+00 0.  1.
          2   -1    0    0  501    0  0.00000000000E+00 -0.00000000000E+00 -0.10243996776E+04  0.10243996776E+04  0.00000000000E+00 0. -1.
         23    2    1    2    0    0 -0.46014336845E+03  0.10524401594E+04  0.36958374094E+03  0.12099512656E+04  0.89597515879E+02 0.  0.
        254    2    1    2    0    0  0.46014336845E+03 -0.10524401594E+04  0.27659332678E+03  0.14850251573E+04  0.89968530085E+03 0.  0.
         23    2    4    4    0    0  0.27378177221E+03 -0.16015719510E+03  0.44388140984E+03  0.55349877372E+03  0.93399146528E+02 0.  0.
         23    2    4    4    0    0  0.18636159624E+03 -0.89228296432E+03 -0.16728808306E+03  0.93152638354E+03  0.94109338087E+02 0.  0.
          4    1    3    3  502    0 -0.44968377447E+02  0.17711615632E+03  0.44575384972E+02  0.18809373393E+03  0.00000000000E+00 0. -1.
         -4    1    3    3    0  502 -0.41517499101E+03  0.87532400310E+03  0.32500835597E+03  0.10218575317E+04  0.00000000000E+00 0.  1.
         13    1    5    5    0    0  0.11960924282E+03 -0.10378080698E+03  0.15713184863E+03  0.22308573401E+03  0.00000000000E+00 0.  1.
        -13    1    5    5    0    0  0.15417252939E+03 -0.56376388120E+02  0.28674956121E+03  0.33041303971E+03  0.00000000000E+00 0. -1.
          1    1    6    6  503    0  0.88229452687E+02 -0.48956359111E+03 -0.45631546097E+02  0.49953897152E+03  0.00000000000E+00 0. -1.
         -1    1    6    6    0  503  0.98132143555E+02 -0.40271937321E+03 -0.12165653696E+03  0.43198741202E+03  0.00000000000E+00 0.  1.
<mgrwt>
<rscale>  0 0.26163626E+04</rscale>
<asrwt>0</asrwt>
<pdfrwt beam="1">  1        2 0.15759995E+00 0.26163626E+04</pdfrwt>
<pdfrwt beam="2">  1       -2 0.25701181E+00 0.26163626E+04</pdfrwt>
<totfact> 0.12490365E+00</totfact>
</mgrwt>
</event>
<event>
12    3  0.8686020E-008  0.1494570E+04  0.7818608E-02  0.8888072E-01
          1   -1    0    0  501    0  0.00000000000E+00  0.00000000000E+00  0.14678126948E+04  0.14678126948E+04  0.00000000000E+00 0. -1.
         -1   -1    0    0    0  501 -0.00000000000E+00 -0.00000000000E+00 -0.38045360634E+03  0.38045360634E+03  0.00000000000E+00 0.  1.
         23    2    1    2    0    0 -0.21142918777E+03  0.22361961907E+03 -0.88698708470E+02  0.33545850234E+03  0.99784319607E+02 0.  0.
        254    2    1    2    0    0  0.21142918777E+03 -0.22361961907E+03  0.11760577969E+04  0.15128077988E+04  0.90042626511E+03 0.  0.
         23    2    4    4    0    0 -0.17642395879E+03 -0.43677694017E+03  0.75622188737E+03  0.89571517748E+03  0.92383047840E+02 0.  0.
         23    2    4    4    0    0  0.38785314656E+03  0.21315732110E+03  0.41983590954E+03  0.61709262130E+03  0.93139709524E+02 0.  0.
          1    1    3    3  502    0 -0.10112124266E+03  0.76459561930E+02 -0.82864284364E+02  0.15145316092E+03  0.00000000000E+00 0.  1.
         -1    1    3    3    0  502 -0.11030794510E+03  0.14716005714E+03 -0.58344241060E+01  0.18400534143E+03  0.00000000000E+00 0. -1.
         13    1    5    5    0    0 -0.45143534697E+02 -0.13342250627E+03  0.30909135721E+03  0.33967185783E+03  0.00000000000E+00 0. -1.
        -13    1    5    5    0    0 -0.13128042409E+03 -0.30335443390E+03  0.44713053016E+03  0.55604331965E+03  0.00000000000E+00 0.  1.
          3    1    6    6  503    0  0.54037007339E+02  0.56197393179E+02  0.11298601026E+03  0.13727339027E+03  0.00000000000E+00 0. -1.
         -3    1    6    6    0  503  0.33381613922E+03  0.15695992792E+03  0.30684989928E+03  0.47981923102E+03  0.00000000000E+00 0.  1.
<mgrwt>
<rscale>  0 0.14945697E+04</rscale>
<asrwt>0</asrwt>
<pdfrwt beam="1">  1        1 0.22581733E+00 0.14945697E+04</pdfrwt>
<pdfrwt beam="2">  1       -1 0.58531325E-01 0.14945697E+04</pdfrwt>
<totfact> 0.19715474E+01</totfact>
</mgrwt>
</event>
<event>
12    3  0.8686020E-008  0.1918813E+04  0.7818608E-02  0.8645548E-01
         -2   -1    0    0    0  501 -0.00000000000E+00  0.00000000000E+00  0.53510324541E+03  0.53510324541E+03  0.00000000000E+00 0. -1.
          2   -1    0    0  501    0  0.00000000000E+00 -0.00000000000E+00 -0.17201553640E+04  0.17201553640E+04  0.00000000000E+00 0.  1.
         23    2    1    2    0    0  0.70323031331E+03  0.16849643510E+03 -0.67552918120E+03  0.99379336888E+03  0.91442130294E+02 0.  0.
        254    2    1    2    0    0 -0.70323031331E+03 -0.16849643510E+03 -0.50952293737E+03  0.12614652405E+04  0.89930918325E+03 0.  0.
         23    2    4    4    0    0  0.16693822700E+03  0.12315627383E+03 -0.14930929331E+03  0.27135677418E+03  0.91133936640E+02 0.  0.
         23    2    4    4    0    0 -0.87016854030E+03 -0.29165270893E+03 -0.36021364406E+03  0.99010846632E+03  0.91138984810E+02 0.  0.
          4    1    3    3  502    0  0.33119583547E+03  0.40833365181E+02 -0.27483805365E+03  0.43231238807E+03  0.00000000000E+00 0. -1.
         -4    1    3    3    0  502  0.37203447784E+03  0.12766306992E+03 -0.40069112755E+03  0.56148098082E+03  0.00000000000E+00 0.  1.
         13    1    5    5    0    0  0.15187887904E+03  0.13814377648E+03 -0.13663594567E+03  0.24661767683E+03  0.00000000000E+00 0. -1.
        -13    1    5    5    0    0  0.15059347957E+02 -0.14987502657E+02 -0.12673347644E+02  0.24739097342E+02  0.00000000000E+00 0.  1.
          3    1    6    6  503    0 -0.42233398199E+03 -0.17462092635E+03 -0.14346487625E+03  0.47899961480E+03  0.00000000000E+00 0. -1.
         -3    1    6    6    0  503 -0.44783455831E+03 -0.11703178258E+03 -0.21674876781E+03  0.51110885152E+03  0.00000000000E+00 0.  1.
<mgrwt>
<rscale>  0 0.19188129E+04</rscale>
<asrwt>0</asrwt>
<pdfrwt beam="1">  1        2 0.26463929E+00 0.19188129E+04</pdfrwt>
<pdfrwt beam="2">  1       -2 0.82323577E-01 0.19188129E+04</pdfrwt>
<totfact> 0.11579670E+01</totfact>
</mgrwt>
</event>
<event>
12    3  0.8686020E-008  0.1566656E+04  0.7818608E-02  0.8841299E-01
         -2   -1    0    0    0  501 -0.00000000000E+00  0.00000000000E+00  0.38463605762E+03  0.38463605762E+03  0.00000000000E+00 0. -1.
          2   -1    0    0  501    0  0.00000000000E+00 -0.00000000000E+00 -0.15952804292E+04  0.15952804292E+04  0.00000000000E+00 0.  1.
         23    2    1    2    0    0  0.41930511850E+02  0.51149772727E+03 -0.42048383229E+03  0.66988646394E+03  0.92483125623E+02 0.  0.
        254    2    1    2    0    0 -0.41930511850E+02 -0.51149772727E+03 -0.79016053929E+03  0.13100300229E+04  0.91018508568E+03 0.  0.
         23    2    4    4    0    0  0.66000570918E+02 -0.73795688347E+03 -0.71248846862E+03  0.10319914040E+04  0.91815046128E+02 0.  0.
         23    2    4    4    0    0 -0.10793108277E+03  0.22645915620E+03 -0.77672070673E+02  0.27803861894E+03  0.91321711585E+02 0.  0.
          4    1    3    3  502    0 -0.16797106545E+02  0.98345606673E+02 -0.48843975250E+02  0.11108436010E+03  0.00000000000E+00 0. -1.
         -4    1    3    3    0  502  0.58727618395E+02  0.41315212060E+03 -0.37163985704E+03  0.55880210384E+03  0.00000000000E+00 0.  1.
         13    1    5    5    0    0 -0.14988370033E+02 -0.27022758818E+02 -0.25683273060E+02  0.40180981141E+02  0.00000000000E+00 0.  1.
        -13    1    5    5    0    0  0.80988940951E+02 -0.71093412465E+03 -0.68680519556E+03  0.99181042281E+03  0.00000000000E+00 0. -1.
          4    1    6    6  503    0 -0.24711366431E+02  0.14605301441E+03 -0.22453073307E+02  0.14982081014E+03  0.00000000000E+00 0.  1.
         -4    1    6    6    0  503 -0.83219716337E+02  0.80406141786E+02 -0.55218997365E+02  0.12821780880E+03  0.00000000000E+00 0. -1.
<mgrwt>
<rscale>  0 0.15666555E+04</rscale>
<asrwt>0</asrwt>
<pdfrwt beam="1">  1        2 0.24542776E+00 0.15666555E+04</pdfrwt>
<pdfrwt beam="2">  1       -2 0.59174778E-01 0.15666555E+04</pdfrwt>
<totfact> 0.28762528E+01</totfact>
</mgrwt>
</event>
<event>
12    3  0.8686020E-008  0.2027874E+04  0.7818608E-02  0.8593699E-01
         -2   -1    0    0    0  501 -0.00000000000E+00  0.00000000000E+00  0.53803612127E+03  0.53803612127E+03  0.00000000000E+00 0.  1.
          2   -1    0    0  501    0  0.00000000000E+00 -0.00000000000E+00 -0.19107783661E+04  0.19107783661E+04  0.00000000000E+00 0. -1.
         23    2    1    2    0    0  0.39966211114E+03  0.45444953437E+03  0.98794733410E+02  0.61998556126E+03  0.91474119053E+02 0.  0.
        254    2    1    2    0    0 -0.39966211114E+03 -0.45444953437E+03 -0.14715369782E+04  0.18288289261E+04  0.90163184298E+03 0.  0.
         23    2    4    4    0    0 -0.74066522399E+02 -0.53821837048E+03 -0.13531881970E+04  0.14607272358E+04  0.86260632388E+02 0.  0.
         23    2    4    4    0    0 -0.32559558874E+03  0.83768836115E+02 -0.11834878122E+03  0.36810169034E+03  0.91993016594E+02 0.  0.
          3    1    3    3  502    0  0.20415465618E+03  0.27181309852E+03  0.17622325788E+02  0.34039980983E+03  0.00000000000E+00 0. -1.
         -3    1    3    3    0  502  0.19550745496E+03  0.18263643585E+03  0.81172407622E+02  0.27958575143E+03  0.00000000000E+00 0.  1.
         13    1    5    5    0    0 -0.85884375429E+00 -0.13310830362E+03 -0.42461015775E+03  0.44498577974E+03  0.00000000000E+00 0. -1.
        -13    1    5    5    0    0 -0.73207678645E+02 -0.40511006686E+03 -0.92857803926E+03  0.10157414560E+04  0.00000000000E+00 0.  1.
          1    1    6    6  503    0 -0.17450697218E+03  0.17980953166E+01 -0.80023086742E+02  0.19198856971E+03  0.00000000000E+00 0. -1.
         -1    1    6    6    0  503 -0.15108861656E+03  0.81970740798E+02 -0.38325694475E+02  0.17611312063E+03  0.00000000000E+00 0.  1.
<mgrwt>
<rscale>  0 0.20278735E+04</rscale>
<asrwt>0</asrwt>
<pdfrwt beam="1">  1        2 0.29396590E+00 0.20278735E+04</pdfrwt>
<pdfrwt beam="2">  1       -2 0.82774790E-01 0.20278735E+04</pdfrwt>
<totfact> 0.88843248E+00</totfact>
</mgrwt>
</event>
<event>
12    3  0.8686020E-008  0.2025351E+04  0.7818608E-02  0.8594859E-01
          2   -1    0    0  501    0  0.00000000000E+00  0.00000000000E+00  0.78281592409E+03  0.78281592409E+03  0.00000000000E+00 0. -1.
         -2   -1    0    0    0  501 -0.00000000000E+00 -0.00000000000E+00 -0.13100294775E+04  0.13100294775E+04  0.00000000000E+00 0.  1.
         23    2    1    2    0    0 -0.49237797496E+03  0.25943951920E+03 -0.81948812826E+03  0.99493610552E+03  0.92693728860E+02 0.  0.
        254    2    1    2    0    0  0.49237797496E+03 -0.25943951920E+03  0.29227457487E+03  0.10979092960E+04  0.90013080210E+03 0.  0.
         23    2    4    4    0    0  0.14065268998E+02 -0.33638992479E+03  0.45981896397E+03  0.57689382349E+03  0.89537649461E+02 0.  0.
         23    2    4    4    0    0  0.47831270596E+03  0.76950405584E+02 -0.16754438910E+03  0.52101547255E+03  0.93175054188E+02 0.  0.
          3    1    3    3  502    0 -0.22244892353E+03  0.98281319410E+02 -0.43415906587E+03  0.49763122470E+03  0.00000000000E+00 0. -1.
         -3    1    3    3    0  502 -0.26992905142E+03  0.16115819979E+03 -0.38532906239E+03  0.49730488082E+03  0.00000000000E+00 0.  1.
         13    1    5    5    0    0 -0.25068049355E+02 -0.26435743686E+03  0.33346636921E+03  0.42627817316E+03  0.00000000000E+00 0.  1.
        -13    1    5    5    0    0  0.39133318353E+02 -0.72032487926E+02  0.12635259476E+03  0.15061565033E+03  0.00000000000E+00 0. -1.
          3    1    6    6  503    0  0.15402891151E+02 -0.14870718355E+02 -0.76467402371E+01  0.22734554239E+02  0.00000000000E+00 0. -1.
         -3    1    6    6    0  503  0.46290981481E+03  0.91821123939E+02 -0.15989764886E+03  0.49828091832E+03  0.00000000000E+00 0.  1.
<mgrwt>
<rscale>  0 0.20253513E+04</rscale>
<asrwt>0</asrwt>
<pdfrwt beam="1">  1        2 0.12043322E+00 0.20253513E+04</pdfrwt>
<pdfrwt beam="2">  1       -2 0.20154300E+00 0.20253513E+04</pdfrwt>
<totfact> 0.42688406E+00</totfact>
</mgrwt>
</event>
<event>
12    3  0.8686020E-008  0.1661902E+04  0.7818608E-02  0.8783396E-01
          2   -1    0    0  501    0  0.00000000000E+00  0.00000000000E+00  0.12802602458E+04  0.12802602458E+04  0.00000000000E+00 0.  1.
         -2   -1    0    0    0  501 -0.00000000000E+00 -0.00000000000E+00 -0.53932739914E+03  0.53932739914E+03  0.00000000000E+00 0. -1.
         23    2    1    2    0    0 -0.44222673972E+03  0.72202313809E+02 -0.14618426617E+03  0.47816805919E+03  0.80605146941E+02 0.  0.
        254    2    1    2    0    0  0.44222673972E+03 -0.72202313809E+02  0.88711711287E+03  0.13414195858E+04  0.90091734901E+03 0.  0.
         23    2    4    4    0    0 -0.11318692279E+02  0.64792250057E+02  0.85176953075E+03  0.85859244454E+03  0.85694246327E+02 0.  0.
         23    2    4    4    0    0  0.45354543199E+03 -0.13699456387E+03  0.35347582119E+02  0.48282714124E+03  0.86032710897E+02 0.  0.
          4    1    3    3  502    0 -0.43608243825E+03  0.78734043507E+02 -0.13382768463E+03  0.46290041233E+03  0.00000000000E+00 0.  1.
         -4    1    3    3    0  502 -0.61443014626E+01 -0.65317296985E+01 -0.12356581539E+02  0.15267646860E+02  0.00000000000E+00 0. -1.
         13    1    5    5    0    0 -0.40574164087E+02  0.23456702237E+02  0.59711759179E+03  0.59895400332E+03  0.00000000000E+00 0.  1.
        -13    1    5    5    0    0  0.29255471808E+02  0.41335547821E+02  0.25465193896E+03  0.25963844122E+03  0.00000000000E+00 0. -1.
          1    1    6    6  503    0  0.23467208685E+03 -0.11471093706E+03  0.10434157678E+02  0.26141625633E+03  0.00000000000E+00 0. -1.
         -1    1    6    6    0  503  0.21887334514E+03 -0.22283626804E+02  0.24913424441E+02  0.22141088491E+03  0.00000000000E+00 0.  1.
<mgrwt>
<rscale>  0 0.16619018E+04</rscale>
<asrwt>0</asrwt>
<pdfrwt beam="1">  1        2 0.19696311E+00 0.16619018E+04</pdfrwt>
<pdfrwt beam="2">  1       -2 0.82973446E-01 0.16619018E+04</pdfrwt>
<totfact> 0.20625484E+01</totfact>
</mgrwt>
</event>
<event>
12    3  0.8686020E-008  0.1959402E+04  0.7818608E-02  0.8625840E-01
         -1   -1    0    0    0  501 -0.00000000000E+00  0.00000000000E+00  0.66672504872E+03  0.66672504872E+03  0.00000000000E+00 0.  1.
          1   -1    0    0  501    0  0.00000000000E+00 -0.00000000000E+00 -0.14395947239E+04  0.14395947239E+04  0.00000000000E+00 0. -1.
         23    2    1    2    0    0 -0.53342817772E+03  0.18432507811E+03 -0.87894618278E+03  0.10485514267E+04  0.91609753612E+02 0.  0.
        254    2    1    2    0    0  0.53342817772E+03 -0.18432507811E+03  0.10607650761E+03  0.10577683459E+04  0.88831317281E+03 0.  0.
         23    2    4    4    0    0  0.63885199340E+03 -0.81456197705E+01  0.34324595664E+03  0.73133744429E+03  0.94013031388E+02 0.  0.
         23    2    4    4    0    0 -0.10542381568E+03 -0.17617945834E+03 -0.23716944903E+03  0.32643090165E+03  0.90301736112E+02 0.  0.
          4    1    3    3  502    0 -0.25292136431E+03  0.56510914648E+02 -0.46634794098E+03  0.53351954234E+03  0.00000000000E+00 0. -1.
         -4    1    3    3    0  502 -0.28050681340E+03  0.12781416346E+03 -0.41259824180E+03  0.51503188434E+03  0.00000000000E+00 0.  1.
         13    1    5    5    0    0  0.59019384370E+03 -0.24633609575E+02  0.33563342148E+03  0.67940075175E+03  0.00000000000E+00 0. -1.
        -13    1    5    5    0    0  0.48658149701E+02  0.16487989804E+02  0.76125351595E+01  0.51936692537E+02  0.00000000000E+00 0.  1.
          2    1    6    6  503    0 -0.89012919281E+02 -0.17708455455E+03 -0.23830719096E+03  0.30995573316E+03  0.00000000000E+00 0. -1.
         -2    1    6    6    0  503 -0.16410896401E+02  0.90509620942E+00  0.11377419324E+01  0.16475168483E+02  0.00000000000E+00 0.  1.
<mgrwt>
<rscale>  0 0.19594018E+04</rscale>
<asrwt>0</asrwt>
<pdfrwt beam="1">  1        1 0.22147611E+00 0.19594018E+04</pdfrwt>
<pdfrwt beam="2">  1       -1 0.10257309E+00 0.19594018E+04</pdfrwt>
<totfact> 0.60307064E+00</totfact>
</mgrwt>
</event>
<event>
12    3  0.8686020E-008  0.1735505E+04  0.7818608E-02  0.8741370E-01
         -2   -1    0    0    0  501 -0.00000000000E+00  0.00000000000E+00  0.63055908534E+03  0.63055908534E+03  0.00000000000E+00 0.  1.
          2   -1    0    0  501    0  0.00000000000E+00 -0.00000000000E+00 -0.11941698244E+04  0.11941698244E+04  0.00000000000E+00 0. -1.
         23    2    1    2    0    0 -0.26368465048E+03  0.30644183961E+03  0.30124656943E+03  0.51243371298E+03  0.91665798688E+02 0.  0.
        254    2    1    2    0    0  0.26368465048E+03 -0.30644183961E+03 -0.86485730851E+03  0.13122951968E+04  0.90039120579E+03 0.  0.
         23    2    4    4    0    0 -0.28036078812E+03  0.84582335298E+02 -0.32665345139E+03  0.44803991550E+03  0.90999701163E+02 0.  0.
         23    2    4    4    0    0  0.54404543860E+03 -0.39102417490E+03 -0.53820385712E+03  0.86425528129E+03  0.91588507987E+02 0.  0.
          2    1    3    3  502    0 -0.68153732025E+02  0.97648549707E+02  0.41670933700E+02  0.12616115553E+03  0.00000000000E+00 0. -1.
         -2    1    3    3    0  502 -0.19553091845E+03  0.20879328990E+03  0.25957563573E+03  0.38627255745E+03  0.00000000000E+00 0.  1.
         13    1    5    5    0    0 -0.62109250589E+02  0.50440337972E+02 -0.12800039823E+03  0.15094995413E+03  0.00000000000E+00 0. -1.
        -13    1    5    5    0    0 -0.21825153753E+03  0.34141997325E+02 -0.19865305316E+03  0.29708996137E+03  0.00000000000E+00 0.  1.
          2    1    6    6  503    0  0.82793098277E+02 -0.10332650092E+03 -0.11373100303E+03  0.17454456155E+03  0.00000000000E+00 0. -1.
         -2    1    6    6    0  503  0.46125234032E+03 -0.28769767398E+03 -0.42447285409E+03  0.68971071974E+03  0.00000000000E+00 0.  1.
<mgrwt>
<rscale>  0 0.17355053E+04</rscale>
<asrwt>0</asrwt>
<pdfrwt beam="1">  1        2 0.18371843E+00 0.17355053E+04</pdfrwt>
<pdfrwt beam="2">  1       -2 0.97009092E-01 0.17355053E+04</pdfrwt>
<totfact> 0.16080316E+01</totfact>
</mgrwt>
</event>
<event>
12    3  0.8686020E-008  0.1735723E+04  0.7818608E-02  0.8741248E-01
         -2   -1    0    0    0  501 -0.00000000000E+00  0.00000000000E+00  0.50816826387E+03  0.50816826387E+03  0.00000000000E+00 0. -1.
          2   -1    0    0  501    0  0.00000000000E+00 -0.00000000000E+00 -0.14821538597E+04  0.14821538597E+04  0.00000000000E+00 0.  1.
         23    2    1    2    0    0  0.38968840167E+03 -0.44021643476E+03 -0.96200132942E+02  0.60326893647E+03  0.95033595702E+02 0.  0.
        254    2    1    2    0    0 -0.38968840167E+03  0.44021643476E+03 -0.87778546291E+03  0.13870531871E+04  0.89875562038E+03 0.  0.
         23    2    4    4    0    0  0.14598406075E+03 -0.13052648830E+03 -0.11179067233E+02  0.21577022981E+03  0.89907232108E+02 0.  0.
         23    2    4    4    0    0 -0.53567246242E+03  0.57074292306E+03 -0.86660639567E+03  0.11712829573E+04  0.90579522185E+02 0.  0.
          2    1    3    3  502    0  0.93794439469E+02 -0.17272488653E+03 -0.26038392552E+02  0.19826568333E+03  0.00000000000E+00 0. -1.
         -2    1    3    3    0  502  0.29589396220E+03 -0.26749154823E+03 -0.70161740390E+02  0.40500325314E+03  0.00000000000E+00 0.  1.
         13    1    5    5    0    0  0.11788372514E+03 -0.11847981597E+03 -0.42027387663E+02  0.17233786803E+03  0.00000000000E+00 0. -1.
        -13    1    5    5    0    0  0.28100335611E+02 -0.12046672331E+02  0.30848320430E+02  0.43432361772E+02  0.00000000000E+00 0.  1.
          2    1    6    6  503    0 -0.76586380079E+02  0.58988293654E+02 -0.71953404539E+02  0.12050885788E+03  0.00000000000E+00 0. -1.
         -2    1    6    6    0  503 -0.45908608234E+03  0.51175462941E+03 -0.79465299113E+03  0.10507740994E+04  0.00000000000E+00 0.  1.
<mgrwt>
<rscale>  0 0.17357230E+04</rscale>
<asrwt>0</asrwt>
<pdfrwt beam="1">  1        2 0.22802367E+00 0.17357230E+04</pdfrwt>
<pdfrwt beam="2">  1       -2 0.78179732E-01 0.17357230E+04</pdfrwt>
<totfact> 0.17945088E+01</totfact>
</mgrwt>
</event>
<event>
12    3  0.8686020E-008  0.2463014E+04  0.7818608E-02  0.8416282E-01
          1   -1    0    0  501    0  0.00000000000E+00  0.00000000000E+00  0.14877660756E+04  0.14877660756E+04  0.00000000000E+00 0. -1.
         -1   -1    0    0    0  501 -0.00000000000E+00 -0.00000000000E+00 -0.10193872775E+04  0.10193872775E+04  0.00000000000E+00 0.  1.
         23    2    1    2    0    0  0.16257428107E+01 -0.60742824845E+03  0.10936230491E+04  0.12544670769E+04  0.93298195508E+02 0.  0.
        254    2    1    2    0    0 -0.16257428107E+01  0.60742824845E+03 -0.62524425105E+03  0.12526862762E+04  0.89962259475E+03 0.  0.
         23    2    4    4    0    0 -0.16823455885E+03 -0.14562122535E+03 -0.36095775881E+03  0.43315774729E+03  0.88468764698E+02 0.  0.
         23    2    4    4    0    0  0.16660881604E+03  0.75304947380E+03 -0.26428649224E+03  0.81952852889E+03  0.83292569346E+02 0.  0.
          3    1    3    3  502    0 -0.31134802355E+02 -0.39364273270E+03  0.76788622638E+03  0.86346582654E+03  0.00000000000E+00 0. -1.
         -3    1    3    3    0  502  0.32760545165E+02 -0.21378551574E+03  0.32573682276E+03  0.39100125034E+03  0.00000000000E+00 0.  1.
         13    1    5    5    0    0 -0.64375597121E+02 -0.18042787188E+02 -0.16030732931E+03  0.17368995223E+03  0.00000000000E+00 0. -1.
        -13    1    5    5    0    0 -0.10385896173E+03 -0.12757843816E+03 -0.20065042949E+03  0.25946779506E+03  0.00000000000E+00 0.  1.
          2    1    6    6  503    0  0.15203061930E+03  0.53146120994E+03 -0.17057726827E+03  0.57849886026E+03  0.00000000000E+00 0.  1.
         -2    1    6    6    0  503  0.14578196744E+02  0.22158826386E+03 -0.93709223970E+02  0.24102966863E+03  0.00000000000E+00 0. -1.
<mgrwt>
<rscale>  0 0.24630143E+04</rscale>
<asrwt>0</asrwt>
<pdfrwt beam="1">  1        1 0.22888709E+00 0.24630143E+04</pdfrwt>
<pdfrwt beam="2">  1       -1 0.15682881E+00 0.24630143E+04</pdfrwt>
<totfact> 0.18370376E+00</totfact>
</mgrwt>
</event>
<event>
12    3  0.8686020E-008  0.3460248E+04  0.7818608E-02  0.8123276E-01
         -2   -1    0    0    0  501 -0.00000000000E+00  0.00000000000E+00  0.11318000143E+04  0.11318000143E+04  0.00000000000E+00 0. -1.
          2   -1    0    0  501    0  0.00000000000E+00 -0.00000000000E+00 -0.26447510014E+04  0.26447510014E+04  0.00000000000E+00 0.  1.
         23    2    1    2    0    0 -0.12357278284E+04 -0.12185043531E+03 -0.18265123935E+04  0.22106586698E+04  0.94833729155E+02 0.  0.
        254    2    1    2    0    0  0.12357278284E+04  0.12185043531E+03  0.31356140642E+03  0.15658923460E+04  0.90101458883E+03 0.  0.
         23    2    4    4    0    0  0.93528578020E+03 -0.11429659173E+03  0.56010236907E+03  0.11000149455E+04  0.92168405524E+02 0.  0.
         23    2    4    4    0    0  0.30044204817E+03  0.23614702703E+03 -0.24654096265E+03  0.46587740050E+03  0.10113586577E+03 0.  0.
          1    1    3    3  502    0 -0.75238195832E+03 -0.37234150200E+02 -0.11556953705E+04  0.13795277389E+04  0.00000000000E+00 0. -1.
         -1    1    3    3    0  502 -0.48334587004E+03 -0.84616285106E+02 -0.67081702304E+03  0.83113093084E+03  0.00000000000E+00 0.  1.
         13    1    5    5    0    0  0.19696032677E+03  0.13449242062E+02  0.11346118577E+03  0.22770088518E+03  0.00000000000E+00 0.  1.
        -13    1    5    5    0    0  0.73832545343E+03 -0.12774583379E+03  0.44664118330E+03  0.87231406033E+03  0.00000000000E+00 0. -1.
          1    1    6    6  503    0  0.29516598872E+03  0.20439165294E+03 -0.24291763792E+03  0.43348343394E+03  0.00000000000E+00 0. -1.
         -1    1    6    6    0  503  0.52760594490E+01  0.31755374091E+02 -0.36233247256E+01  0.32393966553E+02  0.00000000000E+00 0.  1.
<mgrwt>
<rscale>  0 0.34602481E+04</rscale>
<asrwt>0</asrwt>
<pdfrwt beam="1">  1        2 0.40688477E+00 0.34602481E+04</pdfrwt>
<pdfrwt beam="2">  1       -2 0.17412308E+00 0.34602481E+04</pdfrwt>
<totfact> 0.47038685E-01</totfact>
</mgrwt>
</event>
<event>
12    3  0.8686020E-008  0.3647590E+04  0.7818608E-02  0.8079677E-01
          1   -1    0    0  501    0  0.00000000000E+00  0.00000000000E+00  0.16208329740E+04  0.16208329740E+04  0.00000000000E+00 0. -1.
         -1   -1    0    0    0  501 -0.00000000000E+00 -0.00000000000E+00 -0.20521718321E+04  0.20521718321E+04  0.00000000000E+00 0.  1.
         23    2    1    2    0    0  0.32380131275E+02 -0.16770099059E+04  0.13837822487E+03  0.16854802504E+04  0.91018921607E+02 0.  0.
        254    2    1    2    0    0 -0.32380131275E+02  0.16770099059E+04 -0.56971708291E+03  0.19875245557E+04  0.90125779211E+03 0.  0.
         23    2    4    4    0    0  0.14562677677E+03  0.18796604900E+03 -0.40243925143E+03  0.47556331070E+03  0.87548373493E+02 0.  0.
         23    2    4    4    0    0 -0.17800690805E+03  0.14890438569E+04 -0.16727783148E+03  0.15119612450E+04  0.95429904240E+02 0.  0.
          2    1    3    3  502    0  0.50374780205E+02 -0.63019281050E+03  0.74216472613E+02  0.63654432815E+03  0.00000000000E+00 0. -1.
         -2    1    3    3    0  502 -0.17994648930E+02 -0.10468170954E+04  0.64161752256E+02  0.10489359223E+04  0.00000000000E+00 0.  1.
         13    1    5    5    0    0  0.55473752490E+02  0.14194881028E+02 -0.10195187250E+03  0.11693167307E+03  0.00000000000E+00 0.  1.
        -13    1    5    5    0    0  0.90153024283E+02  0.17377116798E+03 -0.30048737894E+03  0.35863163763E+03  0.00000000000E+00 0. -1.
          1    1    6    6  503    0 -0.94250063537E+02  0.97512981016E+03 -0.69241733587E+02  0.98211793529E+03  0.00000000000E+00 0. -1.
         -1    1    6    6    0  503 -0.83756844510E+02  0.51391404670E+03 -0.98036097895E+02  0.52984330976E+03  0.00000000000E+00 0.  1.
<mgrwt>
<rscale>  0 0.36475898E+04</rscale>
<asrwt>0</asrwt>
<pdfrwt beam="1">  1        1 0.24935892E+00 0.36475898E+04</pdfrwt>
<pdfrwt beam="2">  1       -1 0.31571874E+00 0.36475898E+04</pdfrwt>
<totfact> 0.11353993E-01</totfact>
</mgrwt>
</event>
<event>
12    3  0.8686020E-008  0.3053674E+04  0.7818608E-02  0.8228568E-01
          2   -1    0    0  501    0  0.00000000000E+00  0.00000000000E+00  0.19477084213E+04  0.19477084213E+04  0.00000000000E+00 0. -1.
         -2   -1    0    0    0  501 -0.00000000000E+00 -0.00000000000E+00 -0.11969100173E+04  0.11969100173E+04  0.00000000000E+00 0.  1.
         23    2    1    2    0    0  0.79263035123E+03  0.89035379579E+03 -0.39786218298E+03  0.12601674666E+04  0.93461071513E+02 0.  0.
        254    2    1    2    0    0 -0.79263035123E+03 -0.89035379579E+03  0.11486605870E+04  0.18844509720E+04  0.90041188694E+03 0.  0.
         23    2    4    4    0    0  0.18036265632E+03 -0.18543644419E+03  0.32297956235E+03  0.42369204122E+03  0.91004315645E+02 0.  0.
         23    2    4    4    0    0 -0.97299300755E+03 -0.70491735160E+03  0.82568102469E+03  0.14607589307E+04  0.91889247944E+02 0.  0.
          3    1    3    3  502    0  0.67668888405E+03  0.73770856803E+03 -0.30059930368E+03  0.10452185028E+04  0.00000000000E+00 0. -1.
         -3    1    3    3    0  502  0.11594146718E+03  0.15264522776E+03 -0.97262879301E+02  0.21494896385E+03  0.00000000000E+00 0.  1.
         13    1    5    5    0    0  0.47311803551E+02 -0.10506952714E+03  0.10448404515E+03  0.15554718891E+03  0.00000000000E+00 0. -1.
        -13    1    5    5    0    0  0.13305085277E+03 -0.80366917049E+02  0.21849551721E+03  0.26814485231E+03  0.00000000000E+00 0.  1.
          4    1    6    6  503    0 -0.37433779980E+03 -0.23108968888E+03  0.33856744028E+03  0.55512083755E+03  0.00000000000E+00 0. -1.
         -4    1    6    6    0  503 -0.59865520775E+03 -0.47382766272E+03  0.48711358441E+03  0.90563809320E+03  0.00000000000E+00 0.  1.
<mgrwt>
<rscale>  0 0.30536743E+04</rscale>
<asrwt>0</asrwt>
<pdfrwt beam="1">  1        2 0.29964745E+00 0.30536743E+04</pdfrwt>
<pdfrwt beam="2">  1       -2 0.18414000E+00 0.30536743E+04</pdfrwt>
<totfact> 0.10341032E+00</totfact>
</mgrwt>
</event>
<event>
12    3  0.8686020E-008  0.3053791E+04  0.7818608E-02  0.8228535E-01
          2   -1    0    0  501    0  0.00000000000E+00  0.00000000000E+00  0.18771386347E+04  0.18771386347E+04  0.00000000000E+00 0. -1.
         -2   -1    0    0    0  501 -0.00000000000E+00 -0.00000000000E+00 -0.12420019975E+04  0.12420019975E+04  0.00000000000E+00 0.  1.
         23    2    1    2    0    0 -0.11007205974E+04 -0.84184203536E+03  0.15248526831E+03  0.13969597668E+04  0.89224362887E+02 0.  0.
        254    2    1    2    0    0  0.11007205974E+04  0.84184203536E+03  0.48265136892E+03  0.17221808654E+04  0.90148252508E+03 0.  0.
         23    2    4    4    0    0  0.86115086138E+02  0.55268290060E+03  0.32003820348E+03  0.65076956596E+03  0.90566989625E+02 0.  0.
         23    2    4    4    0    0  0.10146055113E+04  0.28915913476E+03  0.16261316543E+03  0.10714112994E+04  0.91879171710E+02 0.  0.
          2    1    3    3  502    0 -0.35349479394E+03 -0.24055178703E+03  0.81032361132E+02  0.43518958528E+03  0.00000000000E+00 0. -1.
         -2    1    3    3    0  502 -0.74722580348E+03 -0.60129024833E+03  0.71452907183E+02  0.96177018152E+03  0.00000000000E+00 0.  1.
         13    1    5    5    0    0  0.79438174045E+02  0.33588193774E+03  0.15570711547E+03  0.37864469546E+03  0.00000000000E+00 0. -1.
        -13    1    5    5    0    0  0.66769120929E+01  0.21680096286E+03  0.16433108802E+03  0.27212487049E+03  0.00000000000E+00 0.  1.
          2    1    6    6  503    0  0.80580103814E+03  0.19074567202E+03  0.13308627478E+03  0.83869611958E+03  0.00000000000E+00 0. -1.
         -2    1    6    6    0  503  0.20880447314E+03  0.98413462740E+02  0.29526890653E+02  0.23271517983E+03  0.00000000000E+00 0.  1.
<mgrwt>
<rscale>  0 0.30537910E+04</rscale>
<asrwt>0</asrwt>
<pdfrwt beam="1">  1        2 0.28879056E+00 0.30537910E+04</pdfrwt>
<pdfrwt beam="2">  1       -2 0.19107723E+00 0.30537910E+04</pdfrwt>
<totfact> 0.10159028E+00</totfact>
</mgrwt>
</event>
<event>
12    3  0.8686020E-008  0.2864329E+04  0.7818608E-02  0.8283570E-01
         -1   -1    0    0    0  501 -0.00000000000E+00  0.00000000000E+00  0.14700279556E+04  0.14700279556E+04  0.00000000000E+00 0.  1.
          1   -1    0    0  501    0  0.00000000000E+00 -0.00000000000E+00 -0.13952764903E+04  0.13952764903E+04  0.00000000000E+00 0. -1.
         23    2    1    2    0    0 -0.91155050741E+03  0.91223854246E+03  0.43299157438E+02  0.12935190819E+04  0.90627326507E+02 0.  0.
        254    2    1    2    0    0  0.91155050741E+03 -0.91223854246E+03  0.31452307810E+02  0.15717853640E+04  0.89800695810E+03 0.  0.
         23    2    4    4    0    0 -0.46335432192E+02  0.73570239093E+02  0.14345984320E+03  0.18956788873E+03  0.88293292324E+02 0.  0.
         23    2    4    4    0    0  0.95788593960E+03 -0.98580878155E+03 -0.11200753539E+03  0.13822174752E+04  0.92817206294E+02 0.  0.
          1    1    3    3  502    0 -0.65008861839E+03  0.59342151243E+03  0.17193147082E+02  0.88037486759E+03  0.00000000000E+00 0. -1.
         -1    1    3    3    0  502 -0.26146188902E+03  0.31881703003E+03  0.26106010357E+02  0.41314421431E+03  0.00000000000E+00 0.  1.
         13    1    5    5    0    0 -0.70331713523E+02  0.64511547874E+02  0.94562229126E+02  0.13435142319E+03  0.00000000000E+00 0. -1.
        -13    1    5    5    0    0  0.23996281331E+02  0.90586912185E+01  0.48897614076E+02  0.55216465539E+02  0.00000000000E+00 0.  1.
          3    1    6    6  503    0  0.79976061919E+03 -0.78195568628E+03 -0.11316400313E+03  0.11242232140E+04  0.00000000000E+00 0. -1.
         -3    1    6    6    0  503  0.15812532042E+03 -0.20385309527E+03  0.11564677408E+01  0.25799426123E+03  0.00000000000E+00 0.  1.
<mgrwt>
<rscale>  0 0.28643292E+04</rscale>
<asrwt>0</asrwt>
<pdfrwt beam="1">  1        1 0.21465792E+00 0.28643292E+04</pdfrwt>
<pdfrwt beam="2">  1       -1 0.22615815E+00 0.28643292E+04</pdfrwt>
<totfact> 0.66728122E-01</totfact>
</mgrwt>
</event>
<event>
12    3  0.8686020E-008  0.2405835E+04  0.7818608E-02  0.8437322E-01
         -2   -1    0    0    0  501 -0.00000000000E+00  0.00000000000E+00  0.51718628784E+03  0.51718628784E+03  0.00000000000E+00 0.  1.
          2   -1    0    0  501    0  0.00000000000E+00 -0.00000000000E+00 -0.27978518682E+04  0.27978518682E+04  0.00000000000E+00 0. -1.
         23    2    1    2    0    0  0.10030724624E+04  0.18300460988E+03 -0.76019797117E+03  0.12749764687E+04  0.89548804798E+02 0.  0.
        254    2    1    2    0    0 -0.10030724624E+04 -0.18300460988E+03 -0.15204676092E+04  0.20400616873E+04  0.90021379978E+03 0.  0.
         23    2    4    4    0    0 -0.53088901915E+03  0.32721129336E+03 -0.92935384822E+03  0.11231724674E+04  0.94379209094E+02 0.  0.
         23    2    4    4    0    0 -0.47218344324E+03 -0.51021590324E+03 -0.59111376097E+03  0.91688921992E+03  0.89402970864E+02 0.  0.
          2    1    3    3  502    0  0.46515751548E+03  0.66263581725E+02 -0.29955780098E+03  0.55722280337E+03  0.00000000000E+00 0. -1.
         -2    1    3    3    0  502  0.53791494691E+03  0.11674102816E+03 -0.46064017018E+03  0.71775366537E+03  0.00000000000E+00 0.  1.
         13    1    5    5    0    0 -0.20919778979E+03  0.18313652448E+03 -0.39534031211E+03  0.48331838805E+03  0.00000000000E+00 0. -1.
        -13    1    5    5    0    0 -0.32169122936E+03  0.14407476889E+03 -0.53401353611E+03  0.63985407932E+03  0.00000000000E+00 0.  1.
          3    1    6    6  503    0 -0.34850420935E+03 -0.32887186916E+03 -0.43860308919E+03  0.64960338677E+03  0.00000000000E+00 0. -1.
         -3    1    6    6    0  503 -0.12367923389E+03 -0.18134403408E+03 -0.15251067178E+03  0.26728583315E+03  0.00000000000E+00 0.  1.
<mgrwt>
<rscale>  0 0.24058351E+04</rscale>
<asrwt>0</asrwt>
<pdfrwt beam="1">  1        2 0.43043874E+00 0.24058351E+04</pdfrwt>
<pdfrwt beam="2">  1       -2 0.79567122E-01 0.24058351E+04</pdfrwt>
<totfact> 0.29173343E+00</totfact>
</mgrwt>
</event>
<event>
12    3  0.8686020E-008  0.1585444E+04  0.7818608E-02  0.8829541E-01
         -2   -1    0    0    0  501 -0.00000000000E+00  0.00000000000E+00  0.48469361537E+03  0.48469361537E+03  0.00000000000E+00 0.  1.
          2   -1    0    0  501    0  0.00000000000E+00 -0.00000000000E+00 -0.12965051837E+04  0.12965051837E+04  0.00000000000E+00 0. -1.
         23    2    1    2    0    0  0.84445880078E+02  0.51632646193E+03 -0.15984619434E+03  0.55431687081E+03  0.89399471283E+02 0.  0.
        254    2    1    2    0    0 -0.84445880078E+02 -0.51632646193E+03 -0.65196537397E+03  0.12268819282E+04  0.89802911704E+03 0.  0.
         23    2    4    4    0    0 -0.22621619739E+03 -0.56057244774E+03 -0.67816988791E+02  0.61692034674E+03  0.10284130069E+03 0.  0.
         23    2    4    4    0    0  0.14177031731E+03  0.44245985810E+02 -0.58414838518E+03  0.60996158150E+03  0.93633673802E+02 0.  0.
          1    1    3    3  502    0  0.27435544447E+02  0.30923923883E+03 -0.13340910082E+03  0.33790472638E+03  0.00000000000E+00 0. -1.
         -1    1    3    3    0  502  0.57010335631E+02  0.20708722311E+03 -0.26437093522E+02  0.21641214443E+03  0.00000000000E+00 0.  1.
         13    1    5    5    0    0 -0.14141674599E+03 -0.28799847312E+03  0.10143945243E+02  0.32100578841E+03  0.00000000000E+00 0. -1.
        -13    1    5    5    0    0 -0.84799451400E+02 -0.27257397462E+03 -0.77960934035E+02  0.29591455833E+03  0.00000000000E+00 0.  1.
          4    1    6    6  503    0  0.52941922246E+02 -0.29057898241E+02 -0.19860476701E+03  0.20758386754E+03  0.00000000000E+00 0. -1.
         -4    1    6    6    0  503  0.88828395067E+02  0.73303884051E+02 -0.38554361817E+03  0.40237771397E+03  0.00000000000E+00 0.  1.
<mgrwt>
<rscale>  0 0.15854435E+04</rscale>
<asrwt>0</asrwt>
<pdfrwt beam="1">  1        2 0.19946233E+00 0.15854435E+04</pdfrwt>
<pdfrwt beam="2">  1       -2 0.74568250E-01 0.15854435E+04</pdfrwt>
<totfact> 0.25790407E+01</totfact>
</mgrwt>
</event>
<event>
12    3  0.8686020E-008  0.2236812E+04  0.7818608E-02  0.8503260E-01
          2   -1    0    0  501    0  0.00000000000E+00  0.00000000000E+00  0.17589905874E+04  0.17589905874E+04  0.00000000000E+00 0. -1.
         -2   -1    0    0    0  501 -0.00000000000E+00 -0.00000000000E+00 -0.71110809037E+03  0.71110809037E+03  0.00000000000E+00 0.  1.
         23    2    1    2    0    0  0.76313660023E+03  0.12049699684E+02  0.10382016059E+04  0.12914496782E+04  0.86354102778E+02 0.  0.
        254    2    1    2    0    0 -0.76313660023E+03 -0.12049699684E+02  0.96808911074E+01  0.11786489995E+04  0.89810749830E+03 0.  0.
         23    2    4    4    0    0  0.97774464915E+02  0.87678453914E+02  0.23021532178E+03  0.27957717941E+03  0.88977230738E+02 0.  0.
         23    2    4    4    0    0 -0.86091106515E+03 -0.99728153598E+02 -0.22053443068E+03  0.89907182010E+03  0.92634420567E+02 0.  0.
          4    1    3    3  502    0  0.82243477484E+02  0.14779905719E+02  0.15680322378E+03  0.17767860364E+03  0.00000000000E+00 0. -1.
         -4    1    3    3    0  502  0.68089312275E+03 -0.27302060356E+01  0.88139838209E+03  0.11137710746E+04  0.00000000000E+00 0.  1.
         13    1    5    5    0    0  0.89643010981E+02  0.94669475409E+02  0.23427574715E+03  0.26811062025E+03  0.00000000000E+00 0. -1.
        -13    1    5    5    0    0  0.81314539342E+01 -0.69910214954E+01 -0.40604253627E+01  0.11466559151E+02  0.00000000000E+00 0.  1.
          3    1    6    6  503    0 -0.77325343608E+03 -0.67504770487E+02 -0.17744939555E+03  0.79621985559E+03  0.00000000000E+00 0. -1.
         -3    1    6    6    0  503 -0.87657629066E+02 -0.32223383110E+02 -0.43085035128E+02  0.10285196452E+03  0.00000000000E+00 0.  1.
<mgrwt>
<rscale>  0 0.22368124E+04</rscale>
<asrwt>0</asrwt>
<pdfrwt beam="1">  1        2 0.27061393E+00 0.22368124E+04</pdfrwt>
<pdfrwt beam="2">  1       -2 0.10940125E+00 0.22368124E+04</pdfrwt>
<totfact> 0.55173207E+00</totfact>
</mgrwt>
</event>
<event>
12    3  0.8686020E-008  0.1538352E+04  0.7818608E-02  0.8859343E-01
          2   -1    0    0  501    0  0.00000000000E+00  0.00000000000E+00  0.10431054415E+04  0.10431054415E+04  0.00000000000E+00 0.  1.
         -2   -1    0    0    0  501 -0.00000000000E+00 -0.00000000000E+00 -0.56718276951E+03  0.56718276951E+03  0.00000000000E+00 0. -1.
         23    2    1    2    0    0 -0.41262960911E+03  0.14060311644E+03  0.41516799383E+03  0.60910752130E+03  0.92817448434E+02 0.  0.
        254    2    1    2    0    0  0.41262960911E+03 -0.14060311644E+03  0.60754678144E+02  0.10011806897E+04  0.89924368878E+03 0.  0.
         23    2    4    4    0    0 -0.10245811163E+03 -0.18953789750E+03  0.33498151620E+03  0.40867550908E+03  0.91546579918E+02 0.  0.
         23    2    4    4    0    0  0.51508772074E+03  0.48934781064E+02 -0.27422683806E+03  0.59250518060E+03  0.90288744983E+02 0.  0.
          1    1    3    3  502    0 -0.12040552958E+01 -0.63702248878E+01  0.97814177717E-01  0.64837552306E+01  0.00000000000E+00 0. -1.
         -1    1    3    3    0  502 -0.41142555382E+03  0.14697334133E+03  0.41507017965E+03  0.60262376607E+03  0.00000000000E+00 0.  1.
         13    1    5    5    0    0 -0.11119549190E+03 -0.18919373693E+03  0.29456806050E+03  0.36732689771E+03  0.00000000000E+00 0. -1.
        -13    1    5    5    0    0  0.87373802729E+01 -0.34416057496E+00  0.40413455703E+02  0.41348611372E+02  0.00000000000E+00 0.  1.
          3    1    6    6  503    0  0.46570105917E+03  0.54511519169E+02 -0.27346210610E+03  0.54279877091E+03  0.00000000000E+00 0. -1.
         -3    1    6    6    0  503  0.49386661572E+02 -0.55767381054E+01 -0.76473196307E+00  0.49706409688E+02  0.00000000000E+00 0.  1.
<mgrwt>
<rscale>  0 0.15383516E+04</rscale>
<asrwt>0</asrwt>
<pdfrwt beam="1">  1        2 0.16047776E+00 0.15383516E+04</pdfrwt>
<pdfrwt beam="2">  1       -2 0.87258888E-01 0.15383516E+04</pdfrwt>
<totfact> 0.25854896E+01</totfact>
</mgrwt>
</event>
<event>
12    3  0.8686020E-008  0.1507297E+04  0.7818608E-02  0.8879615E-01
          1   -1    0    0  501    0  0.00000000000E+00  0.00000000000E+00  0.94099250909E+03  0.94099250909E+03  0.00000000000E+00 0. -1.
         -1   -1    0    0    0  501 -0.00000000000E+00 -0.00000000000E+00 -0.60360313068E+03  0.60360313068E+03  0.00000000000E+00 0.  1.
         23    2    1    2    0    0 -0.38707597989E+03 -0.24464179405E+03 -0.32930002025E+02  0.46776118944E+03  0.89658929896E+02 0.  0.
        254    2    1    2    0    0  0.38707597989E+03  0.24464179405E+03  0.37031938044E+03  0.10768344503E+04  0.90153123534E+03 0.  0.
         23    2    4    4    0    0  0.47345152711E+03 -0.39506695172E+02  0.53722827827E+03  0.72291062585E+03  0.90930866607E+02 0.  0.
         23    2    4    4    0    0 -0.86375547218E+02  0.28414848922E+03 -0.16690889784E+03  0.35392382448E+03  0.95929110685E+02 0.  0.
          3    1    3    3  502    0 -0.36354728494E+03 -0.21010672783E+03 -0.98224846555E+01  0.42000946022E+03  0.00000000000E+00 0. -1.
         -3    1    3    3    0  502 -0.23528694950E+02 -0.34535066222E+02 -0.23107517369E+02  0.47751729225E+02  0.00000000000E+00 0.  1.
         13    1    5    5    0    0  0.42544446888E+03 -0.62969615606E+02  0.47103919791E+03  0.63784488283E+03  0.00000000000E+00 0. -1.
        -13    1    5    5    0    0  0.48007058228E+02  0.23462920434E+02  0.66189080365E+02  0.85065743014E+02  0.00000000000E+00 0.  1.
          3    1    6    6  503    0 -0.99383432817E+02  0.18139694720E+03 -0.93585255439E+02  0.22702449033E+03  0.00000000000E+00 0. -1.
         -3    1    6    6    0  503  0.13007885600E+02  0.10275154202E+03 -0.73323642396E+02  0.12689933415E+03  0.00000000000E+00 0.  1.
<mgrwt>
<rscale>  0 0.15072970E+04</rscale>
<asrwt>0</asrwt>
<pdfrwt beam="1">  1        1 0.14476808E+00 0.15072970E+04</pdfrwt>
<pdfrwt beam="2">  1       -1 0.92862020E-01 0.15072970E+04</pdfrwt>
<totfact> 0.18364343E+01</totfact>
</mgrwt>
</event>
<event>
12    3  0.8686020E-008  0.2506667E+04  0.7818608E-02  0.8400614E-01
          2   -1    0    0  501    0  0.00000000000E+00  0.00000000000E+00  0.30410656297E+04  0.30410656297E+04  0.00000000000E+00 0. -1.
         -2   -1    0    0    0  501 -0.00000000000E+00 -0.00000000000E+00 -0.51654425983E+03  0.51654425983E+03  0.00000000000E+00 0.  1.
         23    2    1    2    0    0  0.43085601554E+03 -0.59005891024E+03  0.22492918448E+04  0.23666921861E+04  0.90064848685E+02 0.  0.
        254    2    1    2    0    0 -0.43085601554E+03  0.59005891024E+03  0.27522952504E+03  0.11909177034E+04  0.89929264488E+03 0.  0.
         23    2    4    4    0    0 -0.22092997185E+03  0.30926003747E+03 -0.31250969122E+03  0.49995615479E+03  0.88555216503E+02 0.  0.
         23    2    4    4    0    0 -0.20992604370E+03  0.28079887277E+03  0.58773921625E+03  0.69096154861E+03  0.95255050049E+02 0.  0.
          4    1    3    3  502    0  0.22111578592E+03 -0.32016868818E+03  0.10557024825E+04  0.11251257313E+04  0.00000000000E+00 0.  1.
         -4    1    3    3    0  502  0.20974022963E+03 -0.26989022206E+03  0.11935893623E+04  0.12415664548E+04  0.00000000000E+00 0. -1.
         13    1    5    5    0    0 -0.14447918685E+03  0.22181543155E+03 -0.16394330203E+03  0.31137393498E+03  0.00000000000E+00 0. -1.
        -13    1    5    5    0    0 -0.76450785002E+02  0.87444605929E+02 -0.14856638919E+03  0.18858221981E+03  0.00000000000E+00 0.  1.
          4    1    6    6  503    0 -0.12539722314E+03  0.92054631817E+02  0.27708795861E+03  0.31776761260E+03  0.00000000000E+00 0. -1.
         -4    1    6    6    0  503 -0.84528820554E+02  0.18874424095E+03  0.31065125765E+03  0.37319393601E+03  0.00000000000E+00 0.  1.
<mgrwt>
<rscale>  0 0.25066671E+04</rscale>
<asrwt>0</asrwt>
<pdfrwt beam="1">  1        2 0.46785624E+00 0.25066671E+04</pdfrwt>
<pdfrwt beam="2">  1       -2 0.79468350E-01 0.25066671E+04</pdfrwt>
<totfact> 0.20523299E+00</totfact>
</mgrwt>
</event>
<event>
12    3  0.8686020E-008  0.2327442E+04  0.7818608E-02  0.8467179E-01
         -1   -1    0    0    0  501 -0.00000000000E+00  0.00000000000E+00  0.77357180281E+03  0.77357180281E+03  0.00000000000E+00 0. -1.
          1   -1    0    0  501    0  0.00000000000E+00 -0.00000000000E+00 -0.17506405706E+04  0.17506405706E+04  0.00000000000E+00 0.  1.
         23    2    1    2    0    0  0.80180128506E+03  0.19178882900E+03 -0.10109881905E+04  0.13077465661E+04  0.91846089205E+02 0.  0.
        254    2    1    2    0    0 -0.80180128506E+03 -0.19178882900E+03  0.33919422696E+02  0.12164658073E+04  0.89385137331E+03 0.  0.
         23    2    4    4    0    0 -0.81914300444E+03 -0.17083135180E+03  0.33178287701E+03  0.90467675165E+03  0.90451838166E+02 0.  0.
         23    2    4    4    0    0  0.17341719382E+02 -0.20957477206E+02 -0.29786345432E+03  0.31178905569E+03  0.88033100322E+02 0.  0.
          4    1    3    3  502    0  0.38893820605E+02 -0.70946887697E+01 -0.32667712842E+02  0.51285898182E+02  0.00000000000E+00 0. -1.
         -4    1    3    3    0  502  0.76290746445E+03  0.19888351777E+03 -0.97832047769E+03  0.12564606679E+04  0.00000000000E+00 0.  1.
         13    1    5    5    0    0 -0.27661544773E+03 -0.22680167101E+02  0.82776678603E+02  0.28962471308E+03  0.00000000000E+00 0. -1.
        -13    1    5    5    0    0 -0.54252755670E+03 -0.14815118470E+03  0.24900619841E+03  0.61505203858E+03  0.00000000000E+00 0.  1.
          3    1    6    6  503    0 -0.21050882280E+02 -0.42991359911E+02 -0.15306820139E+03  0.16037852396E+03  0.00000000000E+00 0. -1.
         -3    1    6    6    0  503  0.38392601663E+02  0.22033882705E+02 -0.14479525293E+03  0.15141053173E+03  0.00000000000E+00 0.  1.
<mgrwt>
<rscale>  0 0.23274417E+04</rscale>
<asrwt>0</asrwt>
<pdfrwt beam="1">  1        1 0.26932932E+00 0.23274417E+04</pdfrwt>
<pdfrwt beam="2">  1       -1 0.11901105E+00 0.23274417E+04</pdfrwt>
<totfact> 0.25073900E+00</totfact>
</mgrwt>
</event>
<event>
12    3  0.8686020E-008  0.1763087E+04  0.7818608E-02  0.8726179E-01
         -2   -1    0    0    0  501 -0.00000000000E+00  0.00000000000E+00  0.18372480814E+04  0.18372480814E+04  0.00000000000E+00 0.  1.
          2   -1    0    0  501    0  0.00000000000E+00 -0.00000000000E+00 -0.42297996153E+03  0.42297996153E+03  0.00000000000E+00 0. -1.
         23    2    1    2    0    0  0.64125799197E+03 -0.94086221601E+02  0.53411627304E+03  0.84502813328E+03  0.93425497355E+02 0.  0.
        254    2    1    2    0    0 -0.64125799197E+03  0.94086221601E+02  0.88015184683E+03  0.14151999097E+04  0.89892128767E+03 0.  0.
         23    2    4    4    0    0  0.18117029684E+02  0.20901646475E+03 -0.79316909673E+02  0.24183563703E+03  0.90427837972E+02 0.  0.
         23    2    4    4    0    0 -0.65937502165E+03 -0.11493024315E+03  0.95946875651E+03  0.11733642726E+04  0.90658929899E+02 0.  0.
          4    1    3    3  502    0  0.59492032473E+03 -0.68575563962E+02  0.46612562812E+03  0.75888464336E+03  0.00000000000E+00 0. -1.
         -4    1    3    3    0  502  0.46337667242E+02 -0.25510657639E+02  0.67990644922E+02  0.86143489920E+02  0.00000000000E+00 0.  1.
         13    1    5    5    0    0 -0.13823528688E+02  0.15550596963E+03 -0.87523618683E+02  0.17897927356E+03  0.00000000000E+00 0. -1.
        -13    1    5    5    0    0  0.31940558372E+02  0.53510495112E+02  0.82067090099E+01  0.62856363473E+02  0.00000000000E+00 0.  1.
          2    1    6    6  503    0 -0.12129496990E+03  0.13860481114E+02  0.17978558737E+03  0.21731875226E+03  0.00000000000E+00 0.  1.
         -2    1    6    6    0  503 -0.53808005175E+03 -0.12879072426E+03  0.77968316914E+03  0.95604552035E+03  0.00000000000E+00 0. -1.
<mgrwt>
<rscale>  0 0.17630872E+04</rscale>
<asrwt>0</asrwt>
<pdfrwt beam="1">  1        2 0.65073841E-01 0.17630872E+04</pdfrwt>
<pdfrwt beam="2">  1       -2 0.28265355E+00 0.17630872E+04</pdfrwt>
<totfact> 0.28706229E+00</totfact>
</mgrwt>
</event>
<event>
12    3  0.8686020E-008  0.3076251E+04  0.7818608E-02  0.8222286E-01
          2   -1    0    0  501    0  0.00000000000E+00  0.00000000000E+00  0.13865715825E+04  0.13865715825E+04  0.00000000000E+00 0. -1.
         -2   -1    0    0    0  501 -0.00000000000E+00 -0.00000000000E+00 -0.17062445024E+04  0.17062445024E+04  0.00000000000E+00 0.  1.
         23    2    1    2    0    0  0.55230940414E+03 -0.53068935361E+03 -0.13301473903E+04  0.15375077437E+04  0.89225075256E+02 0.  0.
        254    2    1    2    0    0 -0.55230940414E+03  0.53068935361E+03  0.10104744704E+04  0.15553083412E+04  0.90069335119E+03 0.  0.
         23    2    4    4    0    0 -0.32347679510E+03 -0.21199165877E+03  0.38749739546E+03  0.55509862935E+03  0.91665459477E+02 0.  0.
         23    2    4    4    0    0 -0.22883260904E+03  0.74268101237E+03  0.62297707497E+03  0.10002097119E+04  0.91540060321E+02 0.  0.
          4    1    3    3  502    0  0.13771689616E+03 -0.14921202116E+03 -0.28139260813E+03  0.34700428046E+03  0.00000000000E+00 0. -1.
         -4    1    3    3    0  502  0.41459250798E+03 -0.38147733245E+03 -0.10487547822E+04  0.11905034633E+04  0.00000000000E+00 0.  1.
         13    1    5    5    0    0 -0.92781157102E+02 -0.49710000224E+02  0.53945119584E+02  0.11827723011E+03  0.00000000000E+00 0. -1.
        -13    1    5    5    0    0 -0.23069563800E+03 -0.16228165854E+03  0.33355227588E+03  0.43682139924E+03  0.00000000000E+00 0.  1.
          3    1    6    6  503    0  0.35830254476E+01  0.80074541333E+02  0.70222140762E+02  0.10656415577E+03  0.00000000000E+00 0. -1.
         -3    1    6    6    0  503 -0.23241563448E+03  0.66260647104E+03  0.55275493421E+03  0.89364555609E+03  0.00000000000E+00 0.  1.
<mgrwt>
<rscale>  0 0.30762511E+04</rscale>
<asrwt>0</asrwt>
<pdfrwt beam="1">  1        2 0.21331871E+00 0.30762511E+04</pdfrwt>
<pdfrwt beam="2">  1       -2 0.26249915E+00 0.30762511E+04</pdfrwt>
<totfact> 0.67490536E-01</totfact>
</mgrwt>
</event>
<event>
12    3  0.8686020E-008  0.2037563E+04  0.7818608E-02  0.8589257E-01
         -2   -1    0    0    0  501 -0.00000000000E+00  0.00000000000E+00  0.56596401248E+03  0.56596401248E+03  0.00000000000E+00 0.  1.
          2   -1    0    0  501    0  0.00000000000E+00 -0.00000000000E+00 -0.18338905580E+04  0.18338905580E+04  0.00000000000E+00 0. -1.
         23    2    1    2    0    0 -0.79259520733E+03 -0.19776547299E+03 -0.51168644420E+03  0.96872423109E+03  0.96360125270E+02 0.  0.
        254    2    1    2    0    0  0.79259520733E+03  0.19776547299E+03 -0.75624010134E+03  0.14311303394E+04  0.89939791669E+03 0.  0.
         23    2    4    4    0    0  0.17586223706E+03 -0.30978304759E+03 -0.69972221104E+02  0.37397522809E+03  0.89823696761E+02 0.  0.
         23    2    4    4    0    0  0.61673297026E+03  0.50754852058E+03 -0.68626788024E+03  0.10571551113E+04  0.92996067671E+02 0.  0.
          3    1    3    3  502    0 -0.56535554807E+03 -0.10261011542E+03 -0.38550143150E+03  0.69192997131E+03  0.00000000000E+00 0. -1.
         -3    1    3    3    0  502 -0.22723965926E+03 -0.95155357572E+02 -0.12618501271E+03  0.27679425978E+03  0.00000000000E+00 0.  1.
         13    1    5    5    0    0  0.29197662107E+02 -0.67958958765E+02 -0.52322399244E+02  0.90601087254E+02  0.00000000000E+00 0. -1.
        -13    1    5    5    0    0  0.14666457496E+03 -0.24182408883E+03 -0.17649821860E+02  0.28337414084E+03  0.00000000000E+00 0.  1.
          4    1    6    6  503    0  0.20314157749E+03  0.16890625457E+03 -0.17099799133E+03  0.31470007368E+03  0.00000000000E+00 0. -1.
         -4    1    6    6    0  503  0.41359139278E+03  0.33864226601E+03 -0.51526988891E+03  0.74245503764E+03  0.00000000000E+00 0.  1.
<mgrwt>
<rscale>  0 0.20375633E+04</rscale>
<asrwt>0</asrwt>
<pdfrwt beam="1">  1        2 0.28213701E+00 0.20375633E+04</pdfrwt>
<pdfrwt beam="2">  1       -2 0.87071387E-01 0.20375633E+04</pdfrwt>
<totfact> 0.87274672E+00</totfact>
</mgrwt>
</event>
<event>
12    3  0.8686020E-008  0.1917696E+04  0.7818608E-02  0.8646098E-01
         -2   -1    0    0    0  501 -0.00000000000E+00  0.00000000000E+00  0.33140778507E+03  0.33140778507E+03  0.00000000000E+00 0.  1.
          2   -1    0    0  501    0  0.00000000000E+00 -0.00000000000E+00 -0.27741940121E+04  0.27741940121E+04  0.00000000000E+00 0. -1.
         23    2    1    2    0    0 -0.54481430027E+03  0.43613977003E+03 -0.53294279607E+03  0.88295145016E+03  0.92383541153E+02 0.  0.
        254    2    1    2    0    0  0.54481430027E+03 -0.43613977003E+03 -0.19098434310E+04  0.22226503470E+04  0.89757011620E+03 0.  0.
         23    2    4    4    0    0  0.30509476974E+03 -0.70318738670E+02 -0.75624756866E+02  0.33476426840E+03  0.91216599456E+02 0.  0.
         23    2    4    4    0    0  0.23971953053E+03 -0.36582103136E+03 -0.18342186741E+04  0.18878860786E+04  0.92006636105E+02 0.  0.
          1    1    3    3  502    0 -0.23454573967E+03  0.24233676249E+03 -0.23341455554E+03  0.41014773581E+03  0.00000000000E+00 0. -1.
         -1    1    3    3    0  502 -0.31026856060E+03  0.19380300754E+03 -0.29952824053E+03  0.47280371435E+03  0.00000000000E+00 0.  1.
         13    1    5    5    0    0  0.25535551976E+03 -0.68817227019E+02 -0.28101030022E+02  0.26595473317E+03  0.00000000000E+00 0. -1.
        -13    1    5    5    0    0  0.49739249981E+02 -0.15015116504E+01 -0.47523726844E+02  0.68809535234E+02  0.00000000000E+00 0.  1.
          2    1    6    6  503    0  0.12760481910E+03 -0.12451288532E+03 -0.83713549690E+03  0.85591021062E+03  0.00000000000E+00 0. -1.
         -2    1    6    6    0  503  0.11211471143E+03 -0.24130814604E+03 -0.99708317722E+03  0.10319758680E+04  0.00000000000E+00 0.  1.
<mgrwt>
<rscale>  0 0.19176960E+04</rscale>
<asrwt>0</asrwt>
<pdfrwt beam="1">  1        2 0.42679906E+00 0.19176960E+04</pdfrwt>
<pdfrwt beam="2">  1       -2 0.50985815E-01 0.19176960E+04</pdfrwt>
<totfact> 0.81655308E+00</totfact>
</mgrwt>
</event>
<event>
12    3  0.8686020E-008  0.1731188E+04  0.7818608E-02  0.8743774E-01
         -1   -1    0    0    0  501 -0.00000000000E+00  0.00000000000E+00  0.96838365336E+03  0.96838365336E+03  0.00000000000E+00 0.  1.
          1   -1    0    0  501    0  0.00000000000E+00 -0.00000000000E+00 -0.77371537467E+03  0.77371537467E+03  0.00000000000E+00 0. -1.
         23    2    1    2    0    0 -0.54955525987E+03 -0.27998581092E+03 -0.73534585756E+02  0.62789202450E+03  0.91858702172E+02 0.  0.
        254    2    1    2    0    0  0.54955525987E+03  0.27998581092E+03  0.26820286444E+03  0.11142070035E+04  0.88832507128E+03 0.  0.
         23    2    4    4    0    0 -0.68419738913E+01 -0.42382250373E+02  0.43232401891E+03  0.44397685564E+03  0.91478539900E+02 0.  0.
         23    2    4    4    0    0  0.55639723376E+03  0.32236806129E+03 -0.16412115447E+03  0.67023014790E+03  0.93667759298E+02 0.  0.
          1    1    3    3  502    0 -0.31349486005E+03 -0.20988225105E+03 -0.40401696857E+02  0.37942309325E+03  0.00000000000E+00 0. -1.
         -1    1    3    3    0  502 -0.23606039982E+03 -0.70103559865E+02 -0.33132888899E+02  0.24846893125E+03  0.00000000000E+00 0.  1.
         13    1    5    5    0    0 -0.19974042120E+02 -0.63908054747E+02  0.21473874228E+03  0.22493538907E+03  0.00000000000E+00 0.  1.
        -13    1    5    5    0    0  0.13132068229E+02  0.21525804374E+02  0.21758527663E+03  0.21904146657E+03  0.00000000000E+00 0. -1.
          1    1    6    6  503    0  0.69532032601E+02  0.10247904412E+02 -0.52293866680E+01  0.70477440273E+02  0.00000000000E+00 0. -1.
         -1    1    6    6    0  503  0.48686520116E+03  0.31212015688E+03 -0.15889176780E+03  0.59975270763E+03  0.00000000000E+00 0.  1.
<mgrwt>
<rscale>  0 0.17311884E+04</rscale>
<asrwt>0</asrwt>
<pdfrwt beam="1">  1        1 0.11903314E+00 0.17311884E+04</pdfrwt>
<pdfrwt beam="2">  1       -1 0.14898210E+00 0.17311884E+04</pdfrwt>
<totfact> 0.78665905E+00</totfact>
</mgrwt>
</event>
<event>
12    3  0.8686020E-008  0.1848106E+04  0.7818608E-02  0.8681128E-01
         -2   -1    0    0    0  501 -0.00000000000E+00  0.00000000000E+00  0.53666027569E+03  0.53666027569E+03  0.00000000000E+00 0.  1.
          2   -1    0    0  501    0  0.00000000000E+00 -0.00000000000E+00 -0.15910880616E+04  0.15910880616E+04  0.00000000000E+00 0. -1.
         23    2    1    2    0    0 -0.62576641440E+03  0.31621098149E+03 -0.37253629775E+03  0.79914465994E+03  0.90971996599E+02 0.  0.
        254    2    1    2    0    0  0.62576641440E+03 -0.31621098149E+03 -0.68189148818E+03  0.13286036774E+04  0.89924342626E+03 0.  0.
         23    2    4    4    0    0 -0.13511344341E+03 -0.87411436668E+02  0.10015210992E+03  0.20959560815E+03  0.89462125972E+02 0.  0.
         23    2    4    4    0    0  0.76087985781E+03 -0.22879954482E+03 -0.78204359811E+03  0.11190080692E+04  0.96433811047E+02 0.  0.
          1    1    3    3  502    0 -0.32288707422E+03  0.17479155261E+03 -0.14486601256E+03  0.39470788079E+03  0.00000000000E+00 0.  1.
         -1    1    3    3    0  502 -0.30287934018E+03  0.14141942888E+03 -0.22767028519E+03  0.40443677915E+03  0.00000000000E+00 0. -1.
         13    1    5    5    0    0 -0.47979179274E+02  0.11342486282E+02  0.10870583123E+02  0.50485871452E+02  0.00000000000E+00 0. -1.
        -13    1    5    5    0    0 -0.87134264138E+02 -0.98753922950E+02  0.89281526801E+02  0.15910973670E+03  0.00000000000E+00 0.  1.
          4    1    6    6  503    0  0.59920541564E+03 -0.14915915041E+03 -0.56584020586E+03  0.83753848918E+03  0.00000000000E+00 0. -1.
         -4    1    6    6    0  503  0.16167444218E+03 -0.79640394412E+02 -0.21620339225E+03  0.28146958005E+03  0.00000000000E+00 0.  1.
<mgrwt>
<rscale>  0 0.18481058E+04</rscale>
<asrwt>0</asrwt>
<pdfrwt beam="1">  1        2 0.24478278E+00 0.18481058E+04</pdfrwt>
<pdfrwt beam="2">  1       -2 0.82563120E-01 0.18481058E+04</pdfrwt>
<totfact> 0.13656095E+01</totfact>
</mgrwt>
</event>
<event>
12    3  0.8686020E-008  0.2146612E+04  0.7818608E-02  0.8540984E-01
         -1   -1    0    0    0  501 -0.00000000000E+00  0.00000000000E+00  0.10325595950E+04  0.10325595950E+04  0.00000000000E+00 0.  1.
          1   -1    0    0  501    0  0.00000000000E+00 -0.00000000000E+00 -0.11156603531E+04  0.11156603531E+04  0.00000000000E+00 0. -1.
         23    2    1    2    0    0 -0.62985791988E+03 -0.54354760669E+03  0.25863194826E+03  0.87599732449E+03  0.91191161195E+02 0.  0.
        254    2    1    2    0    0  0.62985791988E+03  0.54354760669E+03 -0.34173270642E+03  0.12722226236E+04  0.89978006277E+03 0.  0.
         23    2    4    4    0    0  0.18285433415E+03 -0.25281547282E+02 -0.48750604005E+03  0.52900083574E+03  0.90027112460E+02 0.  0.
         23    2    4    4    0    0  0.44700358572E+03  0.56882915397E+03  0.14577333363E+03  0.74322178784E+03  0.88033795054E+02 0.  0.
          3    1    3    3  502    0 -0.22014086019E+03 -0.24289113661E+03  0.81166812746E+02  0.33770720167E+03  0.00000000000E+00 0. -1.
         -3    1    3    3    0  502 -0.40971705969E+03 -0.30065647008E+03  0.17746513551E+03  0.53829012281E+03  0.00000000000E+00 0.  1.
         13    1    5    5    0    0  0.10870656754E+01 -0.76008839384E+01  0.74374241652E+00  0.77141623790E+01  0.00000000000E+00 0. -1.
        -13    1    5    5    0    0  0.18176726848E+03 -0.17680663343E+02 -0.48824978247E+03  0.52128667336E+03  0.00000000000E+00 0.  1.
          2    1    6    6  503    0  0.74726300879E+02  0.13005873728E+03  0.15675647566E+01  0.15000584137E+03  0.00000000000E+00 0. -1.
         -2    1    6    6    0  503  0.37227728484E+03  0.43877041669E+03  0.14420576888E+03  0.59321594647E+03  0.00000000000E+00 0.  1.
<mgrwt>
<rscale>  0 0.21466120E+04</rscale>
<asrwt>0</asrwt>
<pdfrwt beam="1">  1        1 0.17164006E+00 0.21466120E+04</pdfrwt>
<pdfrwt beam="2">  1       -1 0.15885532E+00 0.21466120E+04</pdfrwt>
<totfact> 0.33701109E+00</totfact>
</mgrwt>
</event>
<event>
12    3  0.8686020E-008  0.1229149E+04  0.7818608E-02  0.9087718E-01
         -2   -1    0    0    0  501 -0.00000000000E+00  0.00000000000E+00  0.24403608316E+03  0.24403608316E+03  0.00000000000E+00 0.  1.
          2   -1    0    0  501    0  0.00000000000E+00 -0.00000000000E+00 -0.15477305800E+04  0.15477305800E+04  0.00000000000E+00 0. -1.
         23    2    1    2    0    0 -0.19194522824E+03 -0.13232082163E+03 -0.51627139451E+03  0.57403866404E+03  0.92911057115E+02 0.  0.
        254    2    1    2    0    0  0.19194522824E+03  0.13232082163E+03 -0.78742310237E+03  0.12177279992E+04  0.89915213804E+03 0.  0.
         23    2    4    4    0    0  0.47732834951E+03  0.30248487908E+03 -0.58181835803E+03  0.81623119763E+03  0.91549499862E+02 0.  0.
         23    2    4    4    0    0 -0.28538312127E+03 -0.17016405745E+03 -0.20560474434E+03  0.40149680155E+03  0.92341964495E+02 0.  0.
          1    1    3    3  502    0 -0.79496899048E+02 -0.29260148818E+02 -0.28231991935E+03  0.29475489839E+03  0.00000000000E+00 0. -1.
         -1    1    3    3    0  502 -0.11244832919E+03 -0.10306067281E+03 -0.23395147517E+03  0.27928376564E+03  0.00000000000E+00 0.  1.
         13    1    5    5    0    0  0.21144668491E+03  0.17650153041E+03 -0.32183487352E+03  0.42360379674E+03  0.00000000000E+00 0.  1.
        -13    1    5    5    0    0  0.26588166460E+03  0.12598334866E+03 -0.25998348451E+03  0.39262740089E+03  0.00000000000E+00 0. -1.
          3    1    6    6  503    0 -0.19950454336E+03 -0.67793563436E+02 -0.11493774662E+03  0.24001815694E+03  0.00000000000E+00 0. -1.
         -3    1    6    6    0  503 -0.85878577906E+02 -0.10237049401E+03 -0.90666997723E+02  0.16147864460E+03  0.00000000000E+00 0.  1.
<mgrwt>
<rscale>  0 0.12291495E+04</rscale>
<asrwt>0</asrwt>
<pdfrwt beam="1">  1        2 0.23811239E+00 0.12291495E+04</pdfrwt>
<pdfrwt beam="2">  1       -2 0.37544013E-01 0.12291495E+04</pdfrwt>
<totfact> 0.78596918E+01</totfact>
</mgrwt>
</event>
<event>
12    3  0.8686020E-008  0.2753581E+04  0.7818608E-02  0.8317826E-01
          2   -1    0    0  501    0  0.00000000000E+00  0.00000000000E+00  0.25506971271E+04  0.25506971271E+04  0.00000000000E+00 0. -1.
         -2   -1    0    0    0  501 -0.00000000000E+00 -0.00000000000E+00 -0.74315047076E+03  0.74315047076E+03  0.00000000000E+00 0.  1.
         23    2    1    2    0    0 -0.11527794241E+04  0.80740732995E+02  0.13041327365E+04  0.17447601700E+04  0.89478433189E+02 0.  0.
        254    2    1    2    0    0  0.11527794241E+04 -0.80740732995E+02  0.50341391987E+03  0.15490874278E+04  0.90045922599E+03 0.  0.
         23    2    4    4    0    0  0.41029058521E+03 -0.35320496491E+03  0.51582527981E+03  0.75322565058E+03  0.90449156138E+02 0.  0.
         23    2    4    4    0    0  0.74248883890E+03  0.27246423192E+03 -0.12411359941E+02  0.79586177724E+03  0.87837879318E+02 0.  0.
          3    1    3    3  502    0 -0.93359785588E+03  0.10049373134E+03  0.10576947466E+04  0.14143627977E+04  0.00000000000E+00 0. -1.
         -3    1    3    3    0  502 -0.21918156823E+03 -0.19752998341E+02  0.24643798987E+03  0.33039737233E+03  0.00000000000E+00 0.  1.
         13    1    5    5    0    0  0.10034590245E+03 -0.44158867383E+02  0.12693252277E+03  0.16772349580E+03  0.00000000000E+00 0. -1.
        -13    1    5    5    0    0  0.30994468276E+03 -0.30904609753E+03  0.38889275704E+03  0.58550215478E+03  0.00000000000E+00 0.  1.
          4    1    6    6  503    0  0.39199837537E+03  0.11542770224E+03  0.28466925527E+02  0.40962988976E+03  0.00000000000E+00 0.  1.
         -4    1    6    6    0  503  0.35049046353E+03  0.15703652968E+03 -0.40878285468E+02  0.38623188748E+03  0.00000000000E+00 0. -1.
<mgrwt>
<rscale>  0 0.27535808E+04</rscale>
<asrwt>0</asrwt>
<pdfrwt beam="1">  1        2 0.39241494E+00 0.27535808E+04</pdfrwt>
<pdfrwt beam="2">  1       -2 0.11433084E+00 0.27535808E+04</pdfrwt>
<totfact> 0.16987535E+00</totfact>
</mgrwt>
</event>
<event>
12    3  0.8686020E-008  0.2162248E+04  0.7818608E-02  0.8534308E-01
          3   -1    0    0  501    0  0.00000000000E+00  0.00000000000E+00  0.23446103043E+04  0.23446103043E+04  0.00000000000E+00 0. -1.
         -3   -1    0    0    0  501 -0.00000000000E+00 -0.00000000000E+00 -0.49851729061E+03  0.49851729061E+03  0.00000000000E+00 0.  1.
         23    2    1    2    0    0  0.70917102656E+03 -0.53386278742E+03  0.66028905743E+03  0.11100552796E+04  0.91148580032E+02 0.  0.
        254    2    1    2    0    0 -0.70917102656E+03  0.53386278742E+03  0.11858039563E+04  0.17330723154E+04  0.89970862328E+03 0.  0.
         23    2    4    4    0    0 -0.15704891342E+03 -0.23717289390E+02  0.85874574667E+03  0.87791209437E+03  0.89769243000E+02 0.  0.
         23    2    4    4    0    0 -0.55212211314E+03  0.55758007681E+03  0.32705820961E+03  0.85516022099E+03  0.92723034973E+02 0.  0.
          4    1    3    3  502    0  0.40033958743E+03 -0.35618868428E+03  0.40729068973E+03  0.67307345068E+03  0.00000000000E+00 0.  1.
         -4    1    3    3    0  502  0.30883143913E+03 -0.17767410314E+03  0.25299836771E+03  0.43698182890E+03  0.00000000000E+00 0. -1.
         13    1    5    5    0    0  0.41381680926E+01 -0.19835388732E+02  0.70975771195E+02  0.73811429860E+02  0.00000000000E+00 0. -1.
        -13    1    5    5    0    0 -0.16118708152E+03 -0.38819006582E+01  0.78776997547E+03  0.80410066451E+03  0.00000000000E+00 0.  1.
          2    1    6    6  503    0 -0.36518391231E+03  0.39985213615E+03  0.18464920421E+03  0.57213315689E+03  0.00000000000E+00 0. -1.
         -2    1    6    6    0  503 -0.18693820083E+03  0.15772794065E+03  0.14240900540E+03  0.28302706410E+03  0.00000000000E+00 0.  1.
<mgrwt>
<rscale>  0 0.21622477E+04</rscale>
<asrwt>0</asrwt>
<pdfrwt beam="1">  1        3 0.36070927E+00 0.21622477E+04</pdfrwt>
<pdfrwt beam="2">  1       -3 0.76694969E-01 0.21622477E+04</pdfrwt>
<totfact> 0.69130089E-02</totfact>
</mgrwt>
</event>
<event>
12    3  0.8686020E-008  0.2682626E+04  0.7818608E-02  0.8340664E-01
         -2   -1    0    0    0  501 -0.00000000000E+00  0.00000000000E+00  0.13853962663E+04  0.13853962663E+04  0.00000000000E+00 0. -1.
          2   -1    0    0  501    0  0.00000000000E+00 -0.00000000000E+00 -0.12986319808E+04  0.12986319808E+04  0.00000000000E+00 0.  1.
         23    2    1    2    0    0 -0.11138710405E+04  0.36576170499E+03 -0.15854501592E+03  0.11865796317E+04  0.91347581488E+02 0.  0.
        254    2    1    2    0    0  0.11138710405E+04 -0.36576170499E+03  0.24530930143E+03  0.14974486153E+04  0.89871318134E+03 0.  0.
         23    2    4    4    0    0  0.90554472292E+03 -0.63202715341E+03  0.29185132662E+03  0.11458355055E+04  0.91061742171E+02 0.  0.
         23    2    4    4    0    0  0.20832631761E+03  0.26626544842E+03 -0.46542025193E+02  0.35161310983E+03  0.84666848655E+02 0.  0.
          3    1    3    3  502    0 -0.67740094504E+03  0.17746724316E+03 -0.10811097845E+03  0.70855814609E+03  0.00000000000E+00 0. -1.
         -3    1    3    3    0  502 -0.43647009549E+03  0.18829446183E+03 -0.50434037465E+02  0.47802148566E+03  0.00000000000E+00 0.  1.
         13    1    5    5    0    0  0.37197075794E+03 -0.22529044070E+03  0.15052052868E+03  0.46018958810E+03  0.00000000000E+00 0. -1.
        -13    1    5    5    0    0  0.53357396498E+03 -0.40673671270E+03  0.14133079794E+03  0.68564591737E+03  0.00000000000E+00 0.  1.
          4    1    6    6  503    0  0.10026508347E+03  0.11672071769E+03 -0.63231518220E+02  0.16635816120E+03  0.00000000000E+00 0. -1.
         -4    1    6    6    0  503  0.10806123414E+03  0.14954473073E+03  0.16689493027E+02  0.18525494863E+03  0.00000000000E+00 0.  1.
<mgrwt>
<rscale>  0 0.26826255E+04</rscale>
<asrwt>0</asrwt>
<pdfrwt beam="1">  1        2 0.19978953E+00 0.26826255E+04</pdfrwt>
<pdfrwt beam="2">  1       -2 0.21313789E+00 0.26826255E+04</pdfrwt>
<totfact> 0.15905543E+00</totfact>
</mgrwt>
</event>
<event>
12    3  0.8686020E-008  0.3169097E+04  0.7818608E-02  0.8197027E-01
         -1   -1    0    0    0  501 -0.00000000000E+00  0.00000000000E+00  0.22933425210E+04  0.22933425210E+04  0.00000000000E+00 0.  1.
          1   -1    0    0  501    0  0.00000000000E+00 -0.00000000000E+00 -0.10948186948E+04  0.10948186948E+04  0.00000000000E+00 0. -1.
         23    2    1    2    0    0  0.40305257941E+03 -0.13974115584E+04  0.48766777623E+03  0.15366421781E+04  0.90768266179E+02 0.  0.
        254    2    1    2    0    0 -0.40305257941E+03  0.13974115584E+04  0.71085604994E+03  0.18515190377E+04  0.89866343968E+03 0.  0.
         23    2    4    4    0    0  0.16318289327E+03  0.93777403706E+03  0.26590246529E+03  0.99244940960E+03  0.90569908491E+02 0.  0.
         23    2    4    4    0    0 -0.56623547268E+03  0.45963752134E+03  0.44495358465E+03  0.85906962808E+03  0.90153601455E+02 0.  0.
          3    1    3    3  502    0  0.28071901932E+03 -0.81974800079E+03  0.27604546244E+03  0.90939048266E+03  0.00000000000E+00 0. -1.
         -3    1    3    3    0  502  0.12233356009E+03 -0.57766355761E+03  0.21162231379E+03  0.62725169542E+03  0.00000000000E+00 0.  1.
         13    1    5    5    0    0  0.43388412589E+02  0.51263244647E+03  0.14184196249E+03  0.53366068043E+03  0.00000000000E+00 0. -1.
        -13    1    5    5    0    0  0.11979448068E+03  0.42514159059E+03  0.12406050280E+03  0.45878872916E+03  0.00000000000E+00 0.  1.
          1    1    6    6  503    0 -0.84879275418E+02  0.41428555413E+02  0.33615632357E+02  0.10025381458E+03  0.00000000000E+00 0. -1.
         -1    1    6    6    0  503 -0.48135619726E+03  0.41820896593E+03  0.41133795229E+03  0.75881581350E+03  0.00000000000E+00 0.  1.
<mgrwt>
<rscale>  0 0.31690972E+04</rscale>
<asrwt>0</asrwt>
<pdfrwt beam="1">  1        1 0.16843365E+00 0.31690972E+04</pdfrwt>
<pdfrwt beam="2">  1       -1 0.35282193E+00 0.31690972E+04</pdfrwt>
<totfact> 0.15964509E-01</totfact>
</mgrwt>
</event>
<event>
12    3  0.8686020E-008  0.1386691E+04  0.7818608E-02  0.8963509E-01
          2   -1    0    0  501    0  0.00000000000E+00  0.00000000000E+00  0.13817496285E+04  0.13817496285E+04  0.00000000000E+00 0. -1.
         -2   -1    0    0    0  501 -0.00000000000E+00 -0.00000000000E+00 -0.34791255138E+03  0.34791255138E+03  0.00000000000E+00 0.  1.
         23    2    1    2    0    0  0.37650604271E+03  0.70239061859E+02  0.19228808683E+03  0.43801410700E+03  0.90505931183E+02 0.  0.
        254    2    1    2    0    0 -0.37650604271E+03 -0.70239061859E+02  0.84154899026E+03  0.12916480729E+04  0.90192001591E+03 0.  0.
         23    2    4    4    0    0  0.23180367713E+03 -0.23003528149E+03  0.23011001724E+03  0.40972849185E+03  0.90981545029E+02 0.  0.
         23    2    4    4    0    0 -0.60830971985E+03  0.15979621963E+03  0.61143897302E+03  0.88191958101E+03  0.91372767064E+02 0.  0.
          4    1    3    3  502    0  0.25636069035E+03  0.33506331239E+02  0.17256291290E+03  0.31083988917E+03  0.00000000000E+00 0. -1.
         -4    1    3    3    0  502  0.12014535236E+03  0.36732730620E+02  0.19725173933E+02  0.12717421783E+03  0.00000000000E+00 0.  1.
         13    1    5    5    0    0  0.96999490745E+02 -0.89867287919E+02  0.40931865878E+02  0.13842127108E+03  0.00000000000E+00 0. -1.
        -13    1    5    5    0    0  0.13480418639E+03 -0.14016799357E+03  0.18917815136E+03  0.27130722077E+03  0.00000000000E+00 0.  1.
          4    1    6    6  503    0 -0.17062866441E+03  0.37240396967E+02  0.22844367683E+03  0.28755434577E+03  0.00000000000E+00 0. -1.
         -4    1    6    6    0  503 -0.43768105544E+03  0.12255582266E+03  0.38299529619E+03  0.59436523524E+03  0.00000000000E+00 0.  1.
<mgrwt>
<rscale>  0 0.13866911E+04</rscale>
<asrwt>0</asrwt>
<pdfrwt beam="1">  1        2 0.21257686E+00 0.13866911E+04</pdfrwt>
<pdfrwt beam="2">  1       -2 0.53525009E-01 0.13866911E+04</pdfrwt>
<totfact> 0.47497698E+01</totfact>
</mgrwt>
</event>
<event>
12    3  0.8686020E-008  0.2097548E+04  0.7818608E-02  0.8562324E-01
         -2   -1    0    0    0  501 -0.00000000000E+00  0.00000000000E+00  0.82516057437E+03  0.82516057437E+03  0.00000000000E+00 0.  1.
          2   -1    0    0  501    0  0.00000000000E+00 -0.00000000000E+00 -0.13329854425E+04  0.13329854425E+04  0.00000000000E+00 0. -1.
         23    2    1    2    0    0 -0.20327088289E+03 -0.80734406282E+03 -0.15827683834E+02  0.83738733637E+03  0.88563807175E+02 0.  0.
        254    2    1    2    0    0  0.20327088289E+03  0.80734406282E+03 -0.49199718427E+03  0.13207586805E+04  0.89956588149E+03 0.  0.
         23    2    4    4    0    0  0.51919353590E+03  0.69890897343E+03 -0.30972782483E+03  0.92846947857E+03  0.89936456990E+02 0.  0.
         23    2    4    4    0    0 -0.31592265301E+03  0.10843508939E+03 -0.18226935944E+03  0.39228920191E+03  0.95411777317E+02 0.  0.
          2    1    3    3  502    0 -0.21323530007E+02 -0.22899308490E+03 -0.22249065045E+02  0.23105745337E+03  0.00000000000E+00 0. -1.
         -2    1    3    3    0  502 -0.18194735288E+03 -0.57835097792E+03  0.64213812111E+01  0.60632988300E+03  0.00000000000E+00 0.  1.
         13    1    5    5    0    0  0.45590453574E+03  0.64891210266E+03 -0.29685872186E+03  0.84679452256E+03  0.00000000000E+00 0.  1.
        -13    1    5    5    0    0  0.63289000159E+02  0.49996870761E+02 -0.12869102972E+02  0.81674956004E+02  0.00000000000E+00 0. -1.
          1    1    6    6  503    0  0.25142133154E+01  0.15385656483E+02 -0.71100266831E+01  0.17134531608E+02  0.00000000000E+00 0. -1.
         -1    1    6    6    0  503 -0.31843686633E+03  0.93049432907E+02 -0.17515933276E+03  0.37515467030E+03  0.00000000000E+00 0.  1.
<mgrwt>
<rscale>  0 0.20975481E+04</rscale>
<asrwt>0</asrwt>
<pdfrwt beam="1">  1        2 0.20507468E+00 0.20975481E+04</pdfrwt>
<pdfrwt beam="2">  1       -2 0.12694778E+00 0.20975481E+04</pdfrwt>
<totfact> 0.67246671E+00</totfact>
</mgrwt>
</event>
<event>
12    3  0.8686020E-008  0.1501580E+04  0.7818608E-02  0.8883403E-01
          1   -1    0    0  501    0  0.00000000000E+00  0.00000000000E+00  0.23966805479E+04  0.23966805479E+04  0.00000000000E+00 0. -1.
         -1   -1    0    0    0  501 -0.00000000000E+00 -0.00000000000E+00 -0.23519418661E+03  0.23519418661E+03  0.00000000000E+00 0.  1.
         23    2    1    2    0    0  0.25312472478E+03 -0.38578989175E+03  0.50655916671E+03  0.69194944027E+03  0.96363227636E+02 0.  0.
        254    2    1    2    0    0 -0.25312472478E+03  0.38578989175E+03  0.16549271946E+04  0.19399252943E+04  0.90089963982E+03 0.  0.
         23    2    4    4    0    0  0.25355780389E+03  0.24275507462E+03  0.25968217213E+03  0.44585213364E+03  0.90153804025E+02 0.  0.
         23    2    4    4    0    0 -0.50668252867E+03  0.14303481713E+03  0.13952450225E+04  0.14940731606E+04  0.91431902559E+02 0.  0.
          1    1    3    3  502    0  0.16367578210E+03 -0.18134883254E+03  0.30908084151E+03  0.39396462696E+03  0.00000000000E+00 0. -1.
         -1    1    3    3    0  502  0.89448942673E+02 -0.20444105921E+03  0.19747832520E+03  0.29798481331E+03  0.00000000000E+00 0.  1.
         13    1    5    5    0    0  0.23909365098E+03  0.21078480191E+03  0.25908557410E+03  0.41075703446E+03  0.00000000000E+00 0. -1.
        -13    1    5    5    0    0  0.14464152913E+02  0.31970272717E+02  0.59659802765E+00  0.35095099178E+02  0.00000000000E+00 0.  1.
          1    1    6    6  503    0 -0.50881379062E+03  0.14712272429E+03  0.13802969106E+04  0.14784302929E+04  0.00000000000E+00 0. -1.
         -1    1    6    6    0  503  0.21312619529E+01 -0.40879071603E+01  0.14948111858E+02  0.15642867722E+02  0.00000000000E+00 0.  1.
<mgrwt>
<rscale>  0 0.15015796E+04</rscale>
<asrwt>0</asrwt>
<pdfrwt beam="1">  1        1 0.36872007E+00 0.15015796E+04</pdfrwt>
<pdfrwt beam="2">  1       -1 0.36183723E-01 0.15015796E+04</pdfrwt>
<totfact> 0.11314196E+01</totfact>
</mgrwt>
</event>
<event>
12    3  0.8686020E-008  0.1405954E+04  0.7818608E-02  0.8949520E-01
         -2   -1    0    0    0  501 -0.00000000000E+00  0.00000000000E+00  0.23021174964E+03  0.23021174964E+03  0.00000000000E+00 0.  1.
          2   -1    0    0  501    0  0.00000000000E+00 -0.00000000000E+00 -0.21466182944E+04  0.21466182944E+04  0.00000000000E+00 0. -1.
         23    2    1    2    0    0 -0.21432234584E+03 -0.31915055931E+03 -0.33975259282E+03  0.52105774835E+03  0.90984643479E+02 0.  0.
        254    2    1    2    0    0  0.21432234584E+03  0.31915055931E+03 -0.15766539519E+04  0.18557722957E+04  0.90014553371E+03 0.  0.
         23    2    4    4    0    0  0.18354353906E+03  0.62506072878E+03 -0.10119255339E+04  0.12061450228E+04  0.80021150456E+02 0.  0.
         23    2    4    4    0    0  0.30778806780E+02 -0.30591016947E+03 -0.56472841803E+03  0.64962727287E+03  0.92569113559E+02 0.  0.
          1    1    3    3  502    0 -0.12863829614E+03 -0.17486361552E+03 -0.24877170903E+03  0.33017034767E+03  0.00000000000E+00 0. -1.
         -1    1    3    3    0  502 -0.85684049703E+02 -0.14428694379E+03 -0.90980883788E+02  0.19088740068E+03  0.00000000000E+00 0.  1.
         13    1    5    5    0    0  0.12553874873E+03  0.47892356487E+03 -0.82193782316E+03  0.95953610852E+03  0.00000000000E+00 0. -1.
        -13    1    5    5    0    0  0.58004790337E+02  0.14613716391E+03 -0.18998771072E+03  0.24660891429E+03  0.00000000000E+00 0.  1.
          4    1    6    6  503    0  0.45479103204E+02 -0.13160365102E+03 -0.31832594375E+03  0.34744679629E+03  0.00000000000E+00 0.  1.
         -4    1    6    6    0  503 -0.14700296425E+02 -0.17430651845E+03 -0.24640247428E+03  0.30218047657E+03  0.00000000000E+00 0. -1.
<mgrwt>
<rscale>  0 0.14059541E+04</rscale>
<asrwt>0</asrwt>
<pdfrwt beam="1">  1        2 0.33024896E+00 0.14059541E+04</pdfrwt>
<pdfrwt beam="2">  1       -2 0.35417193E-01 0.14059541E+04</pdfrwt>
<totfact> 0.40361790E+01</totfact>
</mgrwt>
</event>
<event>
12    3  0.8686020E-008  0.1593874E+04  0.7818608E-02  0.8824320E-01
         -1   -1    0    0    0  501 -0.00000000000E+00  0.00000000000E+00  0.70463436491E+03  0.70463436491E+03  0.00000000000E+00 0.  1.
          1   -1    0    0  501    0  0.00000000000E+00 -0.00000000000E+00 -0.90133059777E+03  0.90133059777E+03  0.00000000000E+00 0. -1.
         23    2    1    2    0    0  0.33763326359E+03  0.38893797852E+03  0.90144886137E+02  0.53083480634E+03  0.91599777881E+02 0.  0.
        254    2    1    2    0    0 -0.33763326359E+03 -0.38893797852E+03 -0.28684111899E+03  0.10751301563E+04  0.89908734487E+03 0.  0.
         23    2    4    4    0    0 -0.49788633869E+03 -0.17422631672E+03  0.14928069858E+03  0.55524373722E+03  0.88120741353E+02 0.  0.
         23    2    4    4    0    0  0.16025307510E+03 -0.21471166180E+03 -0.43612181757E+03  0.51988641912E+03  0.91090631991E+02 0.  0.
          1    1    3    3  502    0  0.20712591993E+03  0.16928473334E+03  0.40384675052E+02  0.27053537592E+03  0.00000000000E+00 0. -1.
         -1    1    3    3    0  502  0.13050734367E+03  0.21965324518E+03  0.49760211085E+02  0.26029943042E+03  0.00000000000E+00 0.  1.
         13    1    5    5    0    0 -0.24185692508E+03 -0.11586853577E+03  0.41422216249E+02  0.27135970554E+03  0.00000000000E+00 0. -1.
        -13    1    5    5    0    0 -0.25602941361E+03 -0.58357780950E+02  0.10785848233E+03  0.28388403168E+03  0.00000000000E+00 0.  1.
          3    1    6    6  503    0  0.83761275789E+02 -0.69645270184E+02 -0.10977997190E+03  0.15465463851E+03  0.00000000000E+00 0. -1.
         -3    1    6    6    0  503  0.76491799309E+02 -0.14506639162E+03 -0.32634184567E+03  0.36523178062E+03  0.00000000000E+00 0.  1.
<mgrwt>
<rscale>  0 0.15938739E+04</rscale>
<asrwt>0</asrwt>
<pdfrwt beam="1">  1        1 0.13866624E+00 0.15938739E+04</pdfrwt>
<pdfrwt beam="2">  1       -1 0.10840529E+00 0.15938739E+04</pdfrwt>
<totfact> 0.13769129E+01</totfact>
</mgrwt>
</event>
<event>
12    3  0.8686020E-008  0.2224063E+04  0.7818608E-02  0.8508479E-01
         -3   -1    0    0    0  501 -0.00000000000E+00  0.00000000000E+00  0.52173620231E+03  0.52173620231E+03  0.00000000000E+00 0.  1.
          3   -1    0    0  501    0  0.00000000000E+00 -0.00000000000E+00 -0.23701895692E+04  0.23701895692E+04  0.00000000000E+00 0. -1.
         23    2    1    2    0    0  0.55981742900E+03 -0.67756546888E+03 -0.11639418364E+04  0.14613995122E+04  0.91855415111E+02 0.  0.
        254    2    1    2    0    0 -0.55981742900E+03  0.67756546888E+03 -0.68451153046E+03  0.14305262593E+04  0.89741786516E+03 0.  0.
         23    2    4    4    0    0 -0.68694734116E+03  0.17133057634E+03 -0.29099464248E+03  0.77084992665E+03  0.90999513983E+02 0.  0.
         23    2    4    4    0    0  0.12712991216E+03  0.50623489254E+03 -0.39351688798E+03  0.65967633263E+03  0.88778047458E+02 0.  0.
          1    1    3    3  502    0  0.28565344431E+03 -0.27667561692E+03 -0.50356478700E+03  0.64165783869E+03  0.00000000000E+00 0. -1.
         -1    1    3    3    0  502  0.27416398469E+03 -0.40088985196E+03 -0.66037704939E+03  0.81974167350E+03  0.00000000000E+00 0.  1.
         13    1    5    5    0    0 -0.43995608279E+03  0.86360999758E+02 -0.14282069225E+03  0.47055002625E+03  0.00000000000E+00 0. -1.
        -13    1    5    5    0    0 -0.24699125837E+03  0.84969576579E+02 -0.14817395023E+03  0.30029990040E+03  0.00000000000E+00 0.  1.
          1    1    6    6  503    0  0.81832978279E+02  0.36060710950E+03 -0.32572263210E+03  0.49277718780E+03  0.00000000000E+00 0. -1.
         -1    1    6    6    0  503  0.45296933880E+02  0.14562778305E+03 -0.67794255878E+02  0.16689914483E+03  0.00000000000E+00 0.  1.
<mgrwt>
<rscale>  0 0.22240627E+04</rscale>
<asrwt>0</asrwt>
<pdfrwt beam="1">  1        3 0.36464455E+00 0.22240627E+04</pdfrwt>
<pdfrwt beam="2">  1       -3 0.80267108E-01 0.22240627E+04</pdfrwt>
<totfact> 0.59163714E-02</totfact>
</mgrwt>
</event>
<event>
12    3  0.8686020E-008  0.1719867E+04  0.7818608E-02  0.8750114E-01
          2   -1    0    0  501    0  0.00000000000E+00  0.00000000000E+00  0.35515290669E+04  0.35515290669E+04  0.00000000000E+00 0.  1.
         -2   -1    0    0    0  501 -0.00000000000E+00 -0.00000000000E+00 -0.20821617865E+03  0.20821617865E+03  0.00000000000E+00 0. -1.
         23    2    1    2    0    0  0.22468887517E+03 -0.51059285074E+03  0.18280270643E+04  0.19133326034E+04  0.89266755479E+02 0.  0.
        254    2    1    2    0    0 -0.22468887517E+03  0.51059285074E+03  0.15152858240E+04  0.18464126422E+04  0.89552128224E+03 0.  0.
         23    2    4    4    0    0 -0.27446131319E+03  0.72707600414E+03  0.93676815659E+03  0.12204597777E+04  0.89548654336E+02 0.  0.
         23    2    4    4    0    0  0.49772438020E+02 -0.21648315339E+03  0.57851766740E+03  0.62595286450E+03  0.88272565353E+02 0.  0.
          4    1    3    3  502    0  0.15842136659E+02 -0.10464174338E+03  0.27757587288E+03  0.29706772453E+03  0.00000000000E+00 0. -1.
         -4    1    3    3    0  502  0.20884673852E+03 -0.40595110736E+03  0.15504511914E+04  0.16162648789E+04  0.00000000000E+00 0.  1.
         13    1    5    5    0    0 -0.16812417467E+03  0.38476034806E+03  0.44387790892E+03  0.61101052493E+03  0.00000000000E+00 0.  1.
        -13    1    5    5    0    0 -0.10633713852E+03  0.34231565608E+03  0.49289024767E+03  0.60944925275E+03  0.00000000000E+00 0. -1.
          4    1    6    6  503    0  0.36324430259E+02 -0.19638194889E+03  0.41384715159E+03  0.45951583102E+03  0.00000000000E+00 0. -1.
         -4    1    6    6    0  503  0.13448007761E+02 -0.20101204503E+02  0.16467051581E+03  0.16643703348E+03  0.00000000000E+00 0.  1.
<mgrwt>
<rscale>  0 0.17198672E+04</rscale>
<asrwt>0</asrwt>
<pdfrwt beam="1">  1        2 0.54638904E+00 0.17198672E+04</pdfrwt>
<pdfrwt beam="2">  1       -2 0.32033261E-01 0.17198672E+04</pdfrwt>
<totfact> 0.65066932E+00</totfact>
</mgrwt>
</event>
<event>
12    3  0.8686020E-008  0.1351481E+04  0.7818608E-02  0.8989708E-01
          1   -1    0    0  501    0  0.00000000000E+00  0.00000000000E+00  0.16047063427E+04  0.16047063427E+04  0.00000000000E+00 0.  1.
         -1   -1    0    0    0  501 -0.00000000000E+00 -0.00000000000E+00 -0.28455361658E+03  0.28455361658E+03  0.00000000000E+00 0. -1.
         23    2    1    2    0    0 -0.96321547271E+02 -0.34098088701E+03  0.50508264837E+03  0.62382464688E+03  0.92211184766E+02 0.  0.
        254    2    1    2    0    0  0.96321547271E+02  0.34098088701E+03  0.81507007779E+03  0.12654353124E+04  0.90080047318E+03 0.  0.
         23    2    4    4    0    0  0.30188416678E+03 -0.13222804512E+03  0.60205997497E+02  0.34660765016E+03  0.88847031134E+02 0.  0.
         23    2    4    4    0    0 -0.20556261951E+03  0.47320893213E+03  0.75486408030E+03  0.91882766228E+03  0.90784410859E+02 0.  0.
          3    1    3    3  502    0 -0.98444183283E+02 -0.19397866325E+03  0.27256527130E+03  0.34872740950E+03  0.00000000000E+00 0. -1.
         -3    1    3    3    0  502  0.21226360119E+01 -0.14700222376E+03  0.23251737707E+03  0.27509723738E+03  0.00000000000E+00 0.  1.
         13    1    5    5    0    0  0.10007208100E+03 -0.78397374930E+01  0.42102496223E+02  0.10885082943E+03  0.00000000000E+00 0. -1.
        -13    1    5    5    0    0  0.20181208578E+03 -0.12438830763E+03  0.18103501274E+02  0.23775682073E+03  0.00000000000E+00 0.  1.
          3    1    6    6  503    0 -0.99460261549E+02  0.24780447211E+03  0.31166007774E+03  0.41040395232E+03  0.00000000000E+00 0. -1.
         -3    1    6    6    0  503 -0.10610235796E+03  0.22540446003E+03  0.44320400256E+03  0.50842370996E+03  0.00000000000E+00 0.  1.
<mgrwt>
<rscale>  0 0.13514807E+04</rscale>
<asrwt>0</asrwt>
<pdfrwt beam="1">  1        1 0.24687789E+00 0.13514807E+04</pdfrwt>
<pdfrwt beam="2">  1       -1 0.43777480E-01 0.13514807E+04</pdfrwt>
<totfact> 0.27948246E+01</totfact>
</mgrwt>
</event>
<event>
12    3  0.8686020E-008  0.1530086E+04  0.7818608E-02  0.8864689E-01
          1   -1    0    0  501    0  0.00000000000E+00  0.00000000000E+00  0.30191227628E+04  0.30191227628E+04  0.00000000000E+00 0. -1.
         -1   -1    0    0    0  501 -0.00000000000E+00 -0.00000000000E+00 -0.19386133111E+03  0.19386133111E+03  0.00000000000E+00 0.  1.
         23    2    1    2    0    0  0.78882610891E+02 -0.46108356035E+03  0.12656493175E+04  0.13524167358E+04  0.91336281337E+02 0.  0.
        254    2    1    2    0    0 -0.78882610891E+02  0.46108356035E+03  0.15596121142E+04  0.18605673582E+04  0.90027797467E+03 0.  0.
         23    2    4    4    0    0 -0.33225007971E+03  0.36328135064E+03  0.33276664798E+03  0.60069556431E+03  0.87966265070E+02 0.  0.
         23    2    4    4    0    0  0.25336746882E+03  0.97802209708E+02  0.12268454662E+04  0.12598717939E+04  0.91470173029E+02 0.  0.
          3    1    3    3  502    0  0.89164157696E+02 -0.33288220332E+03  0.84586081254E+03  0.91336811993E+03  0.00000000000E+00 0. -1.
         -3    1    3    3    0  502 -0.10281546805E+02 -0.12820135702E+03  0.41978850501E+03  0.43904861586E+03  0.00000000000E+00 0.  1.
         13    1    5    5    0    0 -0.24493977960E+03  0.31861593179E+03  0.27316890143E+03  0.48593503303E+03  0.00000000000E+00 0. -1.
        -13    1    5    5    0    0 -0.87310300107E+02  0.44665418849E+02  0.59597746547E+02  0.11476053128E+03  0.00000000000E+00 0.  1.
          3    1    6    6  503    0  0.54388771313E+02  0.35006940012E+01  0.12699260743E+03  0.13819376124E+03  0.00000000000E+00 0. -1.
         -3    1    6    6    0  503  0.19897869750E+03  0.94301515707E+02  0.10998528588E+04  0.11216780326E+04  0.00000000000E+00 0.  1.
<mgrwt>
<rscale>  0 0.15300865E+04</rscale>
<asrwt>0</asrwt>
<pdfrwt beam="1">  1        1 0.46448039E+00 0.15300865E+04</pdfrwt>
<pdfrwt beam="2">  1       -1 0.29824822E-01 0.15300865E+04</pdfrwt>
<totfact> 0.57927057E+00</totfact>
</mgrwt>
</event>
<event>
12    3  0.8686020E-008  0.2224770E+04  0.7818608E-02  0.8508188E-01
         -1   -1    0    0    0  501 -0.00000000000E+00  0.00000000000E+00  0.16986198558E+04  0.16986198558E+04  0.00000000000E+00 0.  1.
          1   -1    0    0  501    0  0.00000000000E+00 -0.00000000000E+00 -0.72847423313E+03  0.72847423313E+03  0.00000000000E+00 0. -1.
         23    2    1    2    0    0  0.67548222217E+03  0.41858284720E+03  0.93161650199E+03  0.12278474727E+04  0.90621614763E+02 0.  0.
        254    2    1    2    0    0 -0.67548222217E+03 -0.41858284720E+03  0.38529120638E+02  0.11992466162E+04  0.89734058239E+03 0.  0.
         23    2    4    4    0    0 -0.81138961841E+03 -0.26628158757E+03  0.24768617054E+03  0.89393109035E+03  0.92224500417E+02 0.  0.
         23    2    4    4    0    0  0.13590739624E+03 -0.15230125962E+03 -0.20915704990E+03  0.30531552581E+03  0.88342542089E+02 0.  0.
          1    1    3    3  502    0  0.20778675282E+03  0.15303369564E+03  0.24673996128E+03  0.35703677002E+03  0.00000000000E+00 0. -1.
         -1    1    3    3    0  502  0.46769546935E+03  0.26554915156E+03  0.68487654071E+03  0.87081070271E+03  0.00000000000E+00 0.  1.
         13    1    5    5    0    0 -0.10809901622E+02  0.54228556570E+01  0.10087712010E+02  0.15748754559E+02  0.00000000000E+00 0. -1.
        -13    1    5    5    0    0 -0.80057971679E+03 -0.27170444323E+03  0.23759845853E+03  0.87818233579E+03  0.00000000000E+00 0.  1.
          1    1    6    6  503    0  0.67195364223E+01 -0.28706084293E+02  0.87090010187E+00  0.29494913327E+02  0.00000000000E+00 0. -1.
         -1    1    6    6    0  503  0.12918785982E+03 -0.12359517533E+03 -0.21002795000E+03  0.27582061248E+03  0.00000000000E+00 0.  1.
<mgrwt>
<rscale>  0 0.22247704E+04</rscale>
<asrwt>0</asrwt>
<pdfrwt beam="1">  1        1 0.11207296E+00 0.22247704E+04</pdfrwt>
<pdfrwt beam="2">  1       -1 0.26132613E+00 0.22247704E+04</pdfrwt>
<totfact> 0.13714132E+00</totfact>
</mgrwt>
</event>
<event>
12    3  0.8686020E-008  0.1620019E+04  0.7818608E-02  0.8808343E-01
          2   -1    0    0  501    0  0.00000000000E+00  0.00000000000E+00  0.21236986230E+04  0.21236986230E+04  0.00000000000E+00 0. -1.
         -2   -1    0    0    0  501 -0.00000000000E+00 -0.00000000000E+00 -0.30894936054E+03  0.30894936054E+03  0.00000000000E+00 0.  1.
         23    2    1    2    0    0  0.24043614125E+03 -0.48449445031E+03  0.54661952461E+03  0.77441406578E+03  0.91541412399E+02 0.  0.
        254    2    1    2    0    0 -0.24043614125E+03  0.48449445031E+03  0.12681297379E+04  0.16582339178E+04  0.92143490469E+03 0.  0.
         23    2    4    4    0    0 -0.74556652703E+02  0.23419531550E+03  0.13156195059E+04  0.13414771162E+04  0.91104492540E+02 0.  0.
         23    2    4    4    0    0 -0.16587948855E+03  0.25029913482E+03 -0.47489768071E+02  0.31675680159E+03  0.88960281444E+02 0.  0.
          1    1    3    3  502    0  0.11667793930E+03 -0.27066194620E+03  0.35715075569E+03  0.46306402681E+03  0.00000000000E+00 0. -1.
         -1    1    3    3    0  502  0.12375820195E+03 -0.21383250412E+03  0.18946876892E+03  0.31135003897E+03  0.00000000000E+00 0.  1.
         13    1    5    5    0    0 -0.79342934628E+01  0.35623036592E+02  0.76252592503E+02  0.84536451382E+02  0.00000000000E+00 0.  1.
        -13    1    5    5    0    0 -0.66622359240E+02  0.19857227891E+03  0.12393669134E+04  0.12569406648E+04  0.00000000000E+00 0. -1.
          4    1    6    6  503    0 -0.92890138764E+02  0.70905700575E+02 -0.37876804951E+02  0.12284481514E+03  0.00000000000E+00 0.  1.
         -4    1    6    6    0  503 -0.72989349782E+02  0.17939343424E+03 -0.96129631204E+01  0.19391198645E+03  0.00000000000E+00 0. -1.
<mgrwt>
<rscale>  0 0.16200189E+04</rscale>
<asrwt>0</asrwt>
<pdfrwt beam="1">  1        2 0.32672286E+00 0.16200189E+04</pdfrwt>
<pdfrwt beam="2">  1       -2 0.47530672E-01 0.16200189E+04</pdfrwt>
<totfact> 0.22900715E+01</totfact>
</mgrwt>
</event>
<event>
12    3  0.8686020E-008  0.1831447E+04  0.7818608E-02  0.8689753E-01
         -2   -1    0    0    0  501 -0.00000000000E+00  0.00000000000E+00  0.40772247471E+03  0.40772247471E+03  0.00000000000E+00 0. -1.
          2   -1    0    0  501    0  0.00000000000E+00 -0.00000000000E+00 -0.20566672463E+04  0.20566672463E+04  0.00000000000E+00 0.  1.
         23    2    1    2    0    0  0.78041360698E+02 -0.56796615514E+03 -0.11489010736E+04  0.12872628770E+04  0.91629854583E+02 0.  0.
        254    2    1    2    0    0 -0.78041360698E+02  0.56796615514E+03 -0.50004369791E+03  0.11771268439E+04  0.89828052382E+03 0.  0.
         23    2    4    4    0    0  0.20000443097E+03  0.36803116667E+03  0.13608796810E+03  0.44949120458E+03  0.89853747208E+02 0.  0.
         23    2    4    4    0    0 -0.27804579167E+03  0.19993498847E+03 -0.63613166601E+03  0.72763563933E+03  0.86641013626E+02 0.  0.
          4    1    3    3  502    0  0.19980988009E+01 -0.42572228257E+02 -0.42990432909E+02  0.60535645196E+02  0.00000000000E+00 0. -1.
         -4    1    3    3    0  502  0.76043261897E+02 -0.52539392688E+03 -0.11059106407E+04  0.12267272318E+04  0.00000000000E+00 0.  1.
         13    1    5    5    0    0  0.54239317139E+02  0.54869906602E+02  0.54792945647E+02  0.94630212231E+02  0.00000000000E+00 0. -1.
        -13    1    5    5    0    0  0.14576511384E+03  0.31316126006E+03  0.81295022456E+02  0.35486099235E+03  0.00000000000E+00 0.  1.
          1    1    6    6  503    0 -0.24774094504E+02  0.34296499942E+02 -0.36134167987E+02  0.55638869173E+02  0.00000000000E+00 0. -1.
         -1    1    6    6    0  503 -0.25327169717E+03  0.16563848853E+03 -0.59999749802E+03  0.67199677016E+03  0.00000000000E+00 0.  1.
<mgrwt>
<rscale>  0 0.18314469E+04</rscale>
<asrwt>0</asrwt>
<pdfrwt beam="1">  1        2 0.31641035E+00 0.18314469E+04</pdfrwt>
<pdfrwt beam="2">  1       -2 0.62726535E-01 0.18314469E+04</pdfrwt>
<totfact> 0.13786091E+01</totfact>
</mgrwt>
</event>
<event>
12    3  0.8686020E-008  0.1903560E+04  0.7818608E-02  0.8653087E-01
          2   -1    0    0  501    0  0.00000000000E+00  0.00000000000E+00  0.59415462401E+03  0.59415462401E+03  0.00000000000E+00 0. -1.
         -2   -1    0    0    0  501 -0.00000000000E+00 -0.00000000000E+00 -0.15246616788E+04  0.15246616788E+04  0.00000000000E+00 0.  1.
         23    2    1    2    0    0 -0.13877194132E+03 -0.68435170572E+03 -0.10244636538E+03  0.71169551206E+03  0.91762384922E+02 0.  0.
        254    2    1    2    0    0  0.13877194132E+03  0.68435170572E+03 -0.82806068945E+03  0.14071207908E+04  0.89817008724E+03 0.  0.
         23    2    4    4    0    0 -0.21919127721E+03  0.60251496335E+03 -0.79710645464E+03  0.10271606164E+04  0.92796200013E+02 0.  0.
         23    2    4    4    0    0  0.35796321853E+03  0.81836742366E+02 -0.30954234810E+02  0.37996017440E+03  0.92610211416E+02 0.  0.
          1    1    3    3  502    0 -0.67286901440E+02 -0.16668297377E+03 -0.32398435901E+01  0.17978108198E+03  0.00000000000E+00 0. -1.
         -1    1    3    3    0  502 -0.71485039883E+02 -0.51766873195E+03 -0.99206521787E+02  0.53191443008E+03  0.00000000000E+00 0.  1.
         13    1    5    5    0    0 -0.33649618244E+02  0.34637284343E+02 -0.83829988163E+02  0.96744535712E+02  0.00000000000E+00 0. -1.
        -13    1    5    5    0    0 -0.18554165896E+03  0.56787767901E+03 -0.71327646647E+03  0.93041608066E+03  0.00000000000E+00 0.  1.
          1    1    6    6  503    0  0.10888106464E+03  0.27180147531E+02 -0.52789960915E+02  0.12401865437E+03  0.00000000000E+00 0. -1.
         -1    1    6    6    0  503  0.24908215388E+03  0.54656594835E+02  0.21835726105E+02  0.25594152003E+03  0.00000000000E+00 0.  1.
<mgrwt>
<rscale>  0 0.19035596E+04</rscale>
<asrwt>0</asrwt>
<pdfrwt beam="1">  1        2 0.91408403E-01 0.19035596E+04</pdfrwt>
<pdfrwt beam="2">  1       -2 0.23456334E+00 0.19035596E+04</pdfrwt>
<totfact> 0.37607245E+00</totfact>
</mgrwt>
</event>
<event>
12    3  0.8686020E-008  0.1313839E+04  0.7818608E-02  0.9018662E-01
          1   -1    0    0  501    0  0.00000000000E+00  0.00000000000E+00  0.38937090476E+04  0.38937090476E+04  0.00000000000E+00 0. -1.
         -1   -1    0    0    0  501 -0.00000000000E+00 -0.00000000000E+00 -0.11083096107E+03  0.11083096107E+03  0.00000000000E+00 0.  1.
         23    2    1    2    0    0  0.17559772313E+03  0.21670513213E+03  0.43625867727E+03  0.52692587561E+03  0.97640003269E+02 0.  0.
        254    2    1    2    0    0 -0.17559772313E+03 -0.21670513213E+03  0.33466194093E+04  0.34776141331E+04  0.90340628365E+03 0.  0.
         23    2    4    4    0    0 -0.45881819937E+03  0.11387032080E+03  0.13874026149E+04  0.14688249668E+04  0.95289963639E+02 0.  0.
         23    2    4    4    0    0  0.28322047624E+03 -0.33057545293E+03  0.19592167944E+04  0.20087891663E+04  0.84908768763E+02 0.  0.
          1    1    3    3  502    0  0.41508881029E+02  0.10202935576E+03  0.23330962415E+03  0.25800456849E+03  0.00000000000E+00 0. -1.
         -1    1    3    3    0  502  0.13408884211E+03  0.11467577636E+03  0.20294905312E+03  0.26892130712E+03  0.00000000000E+00 0.  1.
         13    1    5    5    0    0 -0.42511861339E+03  0.97380357032E+02  0.11791653331E+04  0.12572349232E+04  0.00000000000E+00 0. -1.
        -13    1    5    5    0    0 -0.33699585976E+02  0.16489963771E+02  0.20823728181E+03  0.21159004357E+03  0.00000000000E+00 0.  1.
          4    1    6    6  503    0  0.14558497731E+03 -0.14348056783E+03  0.74365008341E+03  0.77123090286E+03  0.00000000000E+00 0.  1.
         -4    1    6    6    0  503  0.13763549892E+03 -0.18709488510E+03  0.12155667110E+04  0.12375582634E+04  0.00000000000E+00 0. -1.
<mgrwt>
<rscale>  0 0.13138394E+04</rscale>
<asrwt>0</asrwt>
<pdfrwt beam="1">  1        1 0.59903206E+00 0.13138394E+04</pdfrwt>
<pdfrwt beam="2">  1       -1 0.17050920E-01 0.13138394E+04</pdfrwt>
<totfact> 0.31859823E+00</totfact>
</mgrwt>
</event>
<event>
12    3  0.8686020E-008  0.1132018E+04  0.7818608E-02  0.9174535E-01
          2   -1    0    0  501    0  0.00000000000E+00  0.00000000000E+00  0.20880155919E+04  0.20880155919E+04  0.00000000000E+00 0. -1.
         -2   -1    0    0    0  501 -0.00000000000E+00 -0.00000000000E+00 -0.15343084781E+03  0.15343084781E+03  0.00000000000E+00 0.  1.
         23    2    1    2    0    0 -0.17560475503E+03 -0.72581394771E+02  0.26577870618E+03  0.34010080950E+03  0.94473017873E+02 0.  0.
        254    2    1    2    0    0  0.17560475503E+03  0.72581394771E+02  0.16688060379E+04  0.19013456302E+04  0.89112093708E+03 0.  0.
         23    2    4    4    0    0 -0.15108243092E+03 -0.24810242852E+03  0.21105651596E+03  0.37068855625E+03  0.92111002821E+02 0.  0.
         23    2    4    4    0    0  0.32668718595E+03  0.32068382329E+03  0.14577495220E+04  0.15306570740E+04  0.91185400822E+02 0.  0.
          1    1    3    3  502    0 -0.13042271224E+03 -0.42332603258E+02  0.24712363018E+03  0.28261674005E+03  0.00000000000E+00 0. -1.
         -1    1    3    3    0  502 -0.45182042797E+02 -0.30248791513E+02  0.18655075998E+02  0.57484069443E+02  0.00000000000E+00 0.  1.
         13    1    5    5    0    0 -0.18385956886E+02  0.46890952063E+01  0.95961548680E+01  0.21263048058E+02  0.00000000000E+00 0. -1.
        -13    1    5    5    0    0 -0.13269647403E+03 -0.25279152372E+03  0.20146036109E+03  0.34942550820E+03  0.00000000000E+00 0.  1.
          2    1    6    6  503    0  0.19667271254E+03  0.24032011819E+03  0.10599654599E+04  0.11045183073E+04  0.00000000000E+00 0. -1.
         -2    1    6    6    0  503  0.13001447342E+03  0.80363705097E+02  0.39778406207E+03  0.42613876664E+03  0.00000000000E+00 0.  1.
<mgrwt>
<rscale>  0 0.11320177E+04</rscale>
<asrwt>0</asrwt>
<pdfrwt beam="1">  1        2 0.32123315E+00 0.11320177E+04</pdfrwt>
<pdfrwt beam="2">  1       -2 0.23604747E-01 0.11320177E+04</pdfrwt>
<totfact> 0.94367913E+01</totfact>
</mgrwt>
</event>
<event>
12    3  0.8686020E-008  0.1979384E+04  0.7818608E-02  0.8616321E-01
         -3   -1    0    0    0  501 -0.00000000000E+00  0.00000000000E+00  0.72380923241E+03  0.72380923241E+03  0.00000000000E+00 0.  1.
          3   -1    0    0  501    0  0.00000000000E+00 -0.00000000000E+00 -0.13532430464E+04  0.13532430464E+04  0.00000000000E+00 0. -1.
         23    2    1    2    0    0 -0.57490378548E+03  0.51247355061E+03 -0.10783714317E+03  0.78302566290E+03  0.91415735390E+02 0.  0.
        254    2    1    2    0    0  0.57490378548E+03 -0.51247355061E+03 -0.52159667080E+03  0.12940266159E+04  0.89961007830E+03 0.  0.
         23    2    4    4    0    0  0.23248952203E+03  0.18249972786E+03  0.65032078221E+02  0.31814473620E+03  0.98129371002E+02 0.  0.
         23    2    4    4    0    0  0.34241426346E+03 -0.69497327847E+03 -0.58662874902E+03  0.97588187968E+03  0.89312755569E+02 0.  0.
          1    1    3    3  502    0 -0.35524379399E+03  0.25595838131E+03 -0.61352124978E+02  0.44212772970E+03  0.00000000000E+00 0. -1.
         -1    1    3    3    0  502 -0.21965999149E+03  0.25651516930E+03 -0.46485018193E+02  0.34089793320E+03  0.00000000000E+00 0.  1.
         13    1    5    5    0    0  0.15863745653E+03  0.89357898671E+02  0.78972446109E+02  0.19846239924E+03  0.00000000000E+00 0.  1.
        -13    1    5    5    0    0  0.73852065501E+02  0.93141829187E+02 -0.13940367888E+02  0.11968233696E+03  0.00000000000E+00 0. -1.
          2    1    6    6  503    0  0.10885819577E+03 -0.22324083492E+03 -0.13724666616E+03  0.28376614409E+03  0.00000000000E+00 0. -1.
         -2    1    6    6    0  503  0.23355606769E+03 -0.47173244355E+03 -0.44938208286E+03  0.69211573559E+03  0.00000000000E+00 0.  1.
<mgrwt>
<rscale>  0 0.19793836E+04</rscale>
<asrwt>0</asrwt>
<pdfrwt beam="1">  1        3 0.20819124E+00 0.19793836E+04</pdfrwt>
<pdfrwt beam="2">  1       -3 0.11135527E+00 0.19793836E+04</pdfrwt>
<totfact> 0.21563724E-01</totfact>
</mgrwt>
</event>
<event>
12    3  0.8686020E-008  0.1181510E+04  0.7818608E-02  0.9129196E-01
         -1   -1    0    0    0  501 -0.00000000000E+00  0.00000000000E+00  0.28874358185E+03  0.28874358185E+03  0.00000000000E+00 0.  1.
          1   -1    0    0  501    0  0.00000000000E+00 -0.00000000000E+00 -0.12086556062E+04  0.12086556062E+04  0.00000000000E+00 0. -1.
         23    2    1    2    0    0 -0.94236132590E+02  0.19499064389E+03 -0.84917612603E+02  0.25026150319E+03  0.92293115444E+02 0.  0.
        254    2    1    2    0    0  0.94236132590E+02 -0.19499064389E+03 -0.83499441177E+03  0.12471376849E+04  0.90068581507E+03 0.  0.
         23    2    4    4    0    0  0.16973680874E+03 -0.47828218839E+03 -0.77990260730E+03  0.93493571015E+03  0.91061898067E+02 0.  0.
         23    2    4    4    0    0 -0.75500676151E+02  0.28329154450E+03 -0.55091804478E+02  0.31220197473E+03  0.92089710707E+02 0.  0.
          1    1    3    3  502    0  0.74195768937E+01  0.22294803336E+02 -0.37630427604E+02  0.44363920687E+02  0.00000000000E+00 0. -1.
         -1    1    3    3    0  502 -0.10165570948E+03  0.17269584055E+03 -0.47287184998E+02  0.20589758250E+03  0.00000000000E+00 0.  1.
         13    1    5    5    0    0  0.20671841653E+02 -0.83340811654E+01 -0.40670693071E+02  0.46377658642E+02  0.00000000000E+00 0. -1.
        -13    1    5    5    0    0  0.14906496709E+03 -0.46994810722E+03 -0.73923191423E+03  0.88855805151E+03  0.00000000000E+00 0.  1.
          3    1    6    6  503    0 -0.51559656572E+02  0.47023009208E+02 -0.14680676611E+02  0.71309773850E+02  0.00000000000E+00 0. -1.
         -3    1    6    6    0  503 -0.23941019579E+02  0.23626853529E+03 -0.40411127867E+02  0.24089220088E+03  0.00000000000E+00 0.  1.
<mgrwt>
<rscale>  0 0.11815101E+04</rscale>
<asrwt>0</asrwt>
<pdfrwt beam="1">  1        1 0.18594702E+00 0.11815101E+04</pdfrwt>
<pdfrwt beam="2">  1       -1 0.44422089E-01 0.11815101E+04</pdfrwt>
<totfact> 0.52337192E+01</totfact>
</mgrwt>
</event>
<event>
12    3  0.8686020E-008  0.1601829E+04  0.7818608E-02  0.8819425E-01
         -2   -1    0    0    0  501 -0.00000000000E+00  0.00000000000E+00  0.63769970600E+03  0.63769970600E+03  0.00000000000E+00 0.  1.
          2   -1    0    0  501    0  0.00000000000E+00 -0.00000000000E+00 -0.10059024211E+04  0.10059024211E+04  0.00000000000E+00 0. -1.
         23    2    1    2    0    0 -0.50330222155E+03  0.16989894418E+03 -0.19435618601E+01  0.53856856477E+03  0.88732993134E+02 0.  0.
        254    2    1    2    0    0  0.50330222155E+03 -0.16989894418E+03 -0.36625915327E+03  0.11050335624E+04  0.89709231918E+03 0.  0.
         23    2    4    4    0    0  0.78018625511E+02 -0.47813603880E+03 -0.77656953046E+02  0.49874281327E+03  0.89514322339E+02 0.  0.
         23    2    4    4    0    0  0.42528359604E+03  0.30823709462E+03 -0.28860220023E+03  0.60629074909E+03  0.91766000749E+02 0.  0.
          3    1    3    3  502    0 -0.13941257967E+03  0.90192787814E+02  0.39463790127E+00  0.16604445815E+03  0.00000000000E+00 0. -1.
         -3    1    3    3    0  502 -0.36388964188E+03  0.79706156369E+02 -0.23381997614E+01  0.37252410662E+03  0.00000000000E+00 0.  1.
         13    1    5    5    0    0 -0.15004641487E+01 -0.34741183208E+02 -0.29695692201E+02  0.45727839864E+02  0.00000000000E+00 0.  1.
        -13    1    5    5    0    0  0.79519089659E+02 -0.44339485560E+03 -0.47961260845E+02  0.45301497341E+03  0.00000000000E+00 0. -1.
          4    1    6    6  503    0  0.27672847657E+03  0.23321153292E+03 -0.23477760294E+03  0.43137778301E+03  0.00000000000E+00 0. -1.
         -4    1    6    6    0  503  0.14855511947E+03  0.75025561699E+02 -0.53824597283E+02  0.17491296608E+03  0.00000000000E+00 0.  1.
<mgrwt>
<rscale>  0 0.16018286E+04</rscale>
<asrwt>0</asrwt>
<pdfrwt beam="1">  1        2 0.15475422E+00 0.16018286E+04</pdfrwt>
<pdfrwt beam="2">  1       -2 0.98107647E-01 0.16018286E+04</pdfrwt>
<totfact> 0.20692599E+01</totfact>
</mgrwt>
</event>
<event>
12    3  0.8686020E-008  0.1651536E+04  0.7818608E-02  0.8789499E-01
          2   -1    0    0  501    0  0.00000000000E+00  0.00000000000E+00  0.78996172078E+03  0.78996172078E+03  0.00000000000E+00 0. -1.
         -2   -1    0    0    0  501 -0.00000000000E+00 -0.00000000000E+00 -0.86319682251E+03  0.86319682251E+03  0.00000000000E+00 0.  1.
         23    2    1    2    0    0 -0.32751287552E+03  0.27777128816E+03 -0.41068427686E+03  0.60103477949E+03  0.90330829399E+02 0.  0.
        254    2    1    2    0    0  0.32751287552E+03 -0.27777128816E+03  0.33744917512E+03  0.10521237638E+04  0.89926130597E+03 0.  0.
         23    2    4    4    0    0  0.52495917928E+03  0.65083277628E+02  0.35862367110E+03  0.64580619339E+03  0.92934003496E+02 0.  0.
         23    2    4    4    0    0 -0.19744630376E+03 -0.34285456579E+03 -0.21174495984E+02  0.40631757042E+03  0.90062825827E+02 0.  0.
          3    1    3    3  502    0 -0.31651614005E+03  0.23471090316E+03 -0.37608210298E+03  0.54471040302E+03  0.00000000000E+00 0. -1.
         -3    1    3    3    0  502 -0.10996735468E+02  0.43060385009E+02 -0.34602173875E+02  0.56324376472E+02  0.00000000000E+00 0.  1.
         13    1    5    5    0    0  0.30287784118E+02 -0.13788818587E+02  0.40447660436E+02  0.52378379314E+02  0.00000000000E+00 0. -1.
        -13    1    5    5    0    0  0.49467139516E+03  0.78872096214E+02  0.31817601066E+03  0.59342781407E+03  0.00000000000E+00 0.  1.
          4    1    6    6  503    0 -0.75274893571E+02 -0.15400161000E+03  0.33931978944E+02  0.17474033501E+03  0.00000000000E+00 0. -1.
         -4    1    6    6    0  503 -0.12217141019E+03 -0.18885295579E+03 -0.55106474928E+02  0.23157723541E+03  0.00000000000E+00 0.  1.
<mgrwt>
<rscale>  0 0.16515356E+04</rscale>
<asrwt>0</asrwt>
<pdfrwt beam="1">  1        2 0.12153257E+00 0.16515356E+04</pdfrwt>
<pdfrwt beam="2">  1       -2 0.13279951E+00 0.16515356E+04</pdfrwt>
<totfact> 0.13761953E+01</totfact>
</mgrwt>
</event>
<event>
12    3  0.8686020E-008  0.2459639E+04  0.7818608E-02  0.8417507E-01
         -2   -1    0    0    0  501 -0.00000000000E+00  0.00000000000E+00  0.45470060652E+03  0.45470060652E+03  0.00000000000E+00 0.  1.
          2   -1    0    0  501    0  0.00000000000E+00 -0.00000000000E+00 -0.33262673725E+04  0.33262673725E+04  0.00000000000E+00 0. -1.
         23    2    1    2    0    0  0.19236568808E+03 -0.10234060511E+04 -0.91879812643E+03  0.13920484853E+04  0.96148244995E+02 0.  0.
        254    2    1    2    0    0 -0.19236568808E+03  0.10234060511E+04 -0.19527686395E+04  0.23889194937E+04  0.89959239910E+03 0.  0.
         23    2    4    4    0    0 -0.67198649144E+02  0.11059675284E+04 -0.12899232214E+04  0.17032070782E+04  0.96605392402E+02 0.  0.
         23    2    4    4    0    0 -0.12516703894E+03 -0.82561477380E+02 -0.66284541812E+03  0.68571241545E+03  0.91401767999E+02 0.  0.
          1    1    3    3  502    0  0.16582461224E+03 -0.65261913094E+03 -0.61558113610E+03  0.91233199396E+03  0.00000000000E+00 0. -1.
         -1    1    3    3    0  502  0.26541075844E+02 -0.37078692011E+03 -0.30321699033E+03  0.47971649134E+03  0.00000000000E+00 0.  1.
         13    1    5    5    0    0 -0.59946390203E+02  0.29121999006E+03 -0.35527855710E+03  0.46327692091E+03  0.00000000000E+00 0.  1.
        -13    1    5    5    0    0 -0.72522589404E+01  0.81474753837E+03 -0.93464466429E+03  0.12399301573E+04  0.00000000000E+00 0. -1.
          4    1    6    6  503    0 -0.56174886652E+02  0.66337424216E+01 -0.14308003321E+03  0.15385551772E+03  0.00000000000E+00 0. -1.
         -4    1    6    6    0  503 -0.68992152287E+02 -0.89195219802E+02 -0.51976538491E+03  0.53185689773E+03  0.00000000000E+00 0.  1.
<mgrwt>
<rscale>  0 0.24596388E+04</rscale>
<asrwt>0</asrwt>
<pdfrwt beam="1">  1        2 0.51173344E+00 0.24596388E+04</pdfrwt>
<pdfrwt beam="2">  1       -2 0.69953940E-01 0.24596388E+04</pdfrwt>
<totfact> 0.17836332E+00</totfact>
</mgrwt>
</event>
<event>
12    3  0.8686020E-008  0.2613181E+04  0.7818608E-02  0.8363738E-01
         -2   -1    0    0    0  501 -0.00000000000E+00  0.00000000000E+00  0.21325170147E+04  0.21325170147E+04  0.00000000000E+00 0.  1.
          2   -1    0    0  501    0  0.00000000000E+00 -0.00000000000E+00 -0.80054633639E+03  0.80054633639E+03  0.00000000000E+00 0. -1.
         23    2    1    2    0    0 -0.71461879200E+03 -0.87157340860E+03  0.33400238877E+03  0.11790935911E+04  0.91563509776E+02 0.  0.
        254    2    1    2    0    0  0.71461879200E+03  0.87157340860E+03  0.99796828952E+03  0.17539697600E+04  0.90008276711E+03 0.  0.
         23    2    4    4    0    0  0.86736820002E+03  0.62687500943E+03  0.97654251915E+03  0.14516344468E+04  0.91144959620E+02 0.  0.
         23    2    4    4    0    0 -0.15274940801E+03  0.24469839917E+03  0.21425770371E+02  0.30233531317E+03  0.87965275815E+02 0.  0.
          2    1    3    3  502    0 -0.49242810563E+03 -0.65870796311E+03  0.26106632089E+03  0.86286571596E+03  0.00000000000E+00 0. -1.
         -2    1    3    3    0  502 -0.22219068637E+03 -0.21286544549E+03  0.72936067887E+02  0.31622787511E+03  0.00000000000E+00 0.  1.
         13    1    5    5    0    0  0.28561884024E+02  0.22431728364E+02  0.13653159227E+02  0.38799129027E+02  0.00000000000E+00 0. -1.
        -13    1    5    5    0    0  0.83880631599E+03  0.60444328107E+03  0.96288935992E+03  0.14128353178E+04  0.00000000000E+00 0.  1.
          3    1    6    6  503    0  0.10547703781E+02  0.92597347842E+01 -0.42394946552E+01  0.14661857258E+02  0.00000000000E+00 0. -1.
         -3    1    6    6    0  503 -0.16329711180E+03  0.23543866439E+03  0.25665265026E+02  0.28767345591E+03  0.00000000000E+00 0.  1.
<mgrwt>
<rscale>  0 0.26131810E+04</rscale>
<asrwt>0</asrwt>
<pdfrwt beam="1">  1        2 0.12316098E+00 0.26131810E+04</pdfrwt>
<pdfrwt beam="2">  1       -2 0.32807954E+00 0.26131810E+04</pdfrwt>
<totfact> 0.64896858E-01</totfact>
</mgrwt>
</event>
<event>
12    3  0.8686020E-008  0.2449379E+04  0.7818608E-02  0.8421245E-01
         -2   -1    0    0    0  501 -0.00000000000E+00  0.00000000000E+00  0.11331038085E+04  0.11331038085E+04  0.00000000000E+00 0. -1.
          2   -1    0    0  501    0  0.00000000000E+00 -0.00000000000E+00 -0.13236775546E+04  0.13236775546E+04  0.00000000000E+00 0.  1.
         23    2    1    2    0    0 -0.10383810004E+03  0.94606080545E+03  0.37842752152E+03  0.10282050244E+04  0.90469798753E+02 0.  0.
        254    2    1    2    0    0  0.10383810004E+03 -0.94606080545E+03 -0.56900126763E+03  0.14285763387E+04  0.90069668269E+03 0.  0.
         23    2    4    4    0    0 -0.43151240944E+02 -0.99586848473E+03 -0.68575899290E+03  0.12134839345E+04  0.93068761416E+02 0.  0.
         23    2    4    4    0    0  0.14698934098E+03  0.49807679287E+02  0.11675772527E+03  0.21509240421E+03  0.92442980592E+02 0.  0.
          4    1    3    3  502    0 -0.11726024239E+03  0.84396858378E+03  0.35182462980E+03  0.92185329906E+03  0.00000000000E+00 0. -1.
         -4    1    3    3    0  502  0.13422142351E+02  0.10209222167E+03  0.26602891727E+02  0.10635172532E+03  0.00000000000E+00 0.  1.
         13    1    5    5    0    0 -0.46002513519E+02 -0.26084459819E+03 -0.15541376698E+03  0.30709863989E+03  0.00000000000E+00 0.  1.
        -13    1    5    5    0    0  0.28512725750E+01 -0.73502388654E+03 -0.53034522592E+03  0.90638529456E+03  0.00000000000E+00 0. -1.
          1    1    6    6  503    0  0.56130868409E+02  0.31273587359E+02  0.10292702615E+03  0.12133706922E+03  0.00000000000E+00 0. -1.
         -1    1    6    6    0  503  0.90858472571E+02  0.18534091929E+02  0.13830699125E+02  0.93755334994E+02  0.00000000000E+00 0.  1.
<mgrwt>
<rscale>  0 0.24493788E+04</rscale>
<asrwt>0</asrwt>
<pdfrwt beam="1">  1        2 0.20364270E+00 0.24493788E+04</pdfrwt>
<pdfrwt beam="2">  1       -2 0.17432366E+00 0.24493788E+04</pdfrwt>
<totfact> 0.28493283E+00</totfact>
</mgrwt>
</event>
<event>
12    3  0.8686020E-008  0.3113675E+04  0.7818608E-02  0.8211995E-01
          2   -1    0    0  501    0  0.00000000000E+00  0.00000000000E+00  0.20853849300E+04  0.20853849300E+04  0.00000000000E+00 0. -1.
         -2   -1    0    0    0  501 -0.00000000000E+00 -0.00000000000E+00 -0.11622521579E+04  0.11622521579E+04  0.00000000000E+00 0.  1.
         23    2    1    2    0    0  0.72211234944E+03  0.51898319689E+03  0.15848305825E+04  0.18195383388E+04  0.90785391592E+02 0.  0.
        254    2    1    2    0    0 -0.72211234944E+03 -0.51898319689E+03 -0.66169781038E+03  0.14280987490E+04  0.90046223730E+03 0.  0.
         23    2    4    4    0    0 -0.87417607096E+03 -0.59843397642E+03 -0.49919248482E+03  0.11746339485E+04  0.90910664292E+02 0.  0.
         23    2    4    4    0    0  0.15206372152E+03  0.79450779534E+02 -0.16250532556E+03  0.25346480051E+03  0.91654909806E+02 0.  0.
          1    1    3    3  502    0  0.64700263670E+03  0.43209036960E+03  0.14086322352E+04  0.16092107610E+04  0.00000000000E+00 0. -1.
         -1    1    3    3    0  502  0.75109712735E+02  0.86892827292E+02  0.17619834730E+03  0.21032757778E+03  0.00000000000E+00 0.  1.
         13    1    5    5    0    0 -0.10479253659E+02  0.28738864852E+01 -0.58063535895E+01  0.12320216020E+02  0.00000000000E+00 0. -1.
        -13    1    5    5    0    0 -0.86369681730E+03 -0.60130786291E+03 -0.49338613123E+03  0.11623137325E+04  0.00000000000E+00 0.  1.
          1    1    6    6  503    0  0.65677194078E+01  0.44295528448E+02 -0.39939805434E+02  0.60003473540E+02  0.00000000000E+00 0. -1.
         -1    1    6    6    0  503  0.14549600212E+03  0.35155251086E+02 -0.12256552013E+03  0.19346132697E+03  0.00000000000E+00 0.  1.
<mgrwt>
<rscale>  0 0.31136751E+04</rscale>
<asrwt>0</asrwt>
<pdfrwt beam="1">  1        2 0.32082845E+00 0.31136751E+04</pdfrwt>
<pdfrwt beam="2">  1       -2 0.17880802E+00 0.31136751E+04</pdfrwt>
<totfact> 0.93845679E-01</totfact>
</mgrwt>
</event>
<event>
12    3  0.8686020E-008  0.2654373E+04  0.7818608E-02  0.8349963E-01
          1   -1    0    0  501    0  0.00000000000E+00  0.00000000000E+00  0.29907050714E+04  0.29907050714E+04  0.00000000000E+00 0. -1.
         -1   -1    0    0    0  501 -0.00000000000E+00 -0.00000000000E+00 -0.58896619327E+03  0.58896619327E+03  0.00000000000E+00 0.  1.
         23    2    1    2    0    0  0.88284261046E+03  0.52348842166E+03  0.29941489672E+03  0.10728985665E+04  0.89503358804E+02 0.  0.
        254    2    1    2    0    0 -0.88284261046E+03 -0.52348842166E+03  0.21023239814E+04  0.25067726981E+04  0.90038438173E+03 0.  0.
         23    2    4    4    0    0 -0.79424901741E+03 -0.68561436377E+01  0.15230405432E+04  0.17201213176E+04  0.91029349747E+02 0.  0.
         23    2    4    4    0    0 -0.88593593042E+02 -0.51663227803E+03  0.57928343818E+03  0.78665138055E+03  0.92159412715E+02 0.  0.
          2    1    3    3  502    0  0.66754539156E+03  0.37341727830E+03  0.25788498562E+03  0.80719389204E+03  0.00000000000E+00 0. -1.
         -2    1    3    3    0  502  0.21529721889E+03  0.15007114336E+03  0.41529911093E+02  0.26570467450E+03  0.00000000000E+00 0.  1.
         13    1    5    5    0    0 -0.65192702353E+03 -0.18845720498E+02  0.13138704971E+04  0.14668400351E+04  0.00000000000E+00 0.  1.
        -13    1    5    5    0    0 -0.14232199389E+03  0.11989576861E+02  0.20917004607E+03  0.25328128251E+03  0.00000000000E+00 0. -1.
          1    1    6    6  503    0 -0.62173822182E+02 -0.34494624709E+03  0.44850200304E+03  0.56921660576E+03  0.00000000000E+00 0. -1.
         -1    1    6    6    0  503 -0.26419770861E+02 -0.17168603094E+03  0.13078143514E+03  0.21743477479E+03  0.00000000000E+00 0.  1.
<mgrwt>
<rscale>  0 0.26543731E+04</rscale>
<asrwt>0</asrwt>
<pdfrwt beam="1">  1        1 0.46010846E+00 0.26543731E+04</pdfrwt>
<pdfrwt beam="2">  1       -1 0.90610185E-01 0.26543731E+04</pdfrwt>
<totfact> 0.63311867E-01</totfact>
</mgrwt>
</event>
<event>
12    3  0.8686020E-008  0.1576069E+04  0.7818608E-02  0.8835386E-01
         -2   -1    0    0    0  501 -0.00000000000E+00  0.00000000000E+00  0.18546713710E+03  0.18546713710E+03  0.00000000000E+00 0.  1.
          2   -1    0    0  501    0  0.00000000000E+00 -0.00000000000E+00 -0.33482946879E+04  0.33482946879E+04  0.00000000000E+00 0. -1.
         23    2    1    2    0    0 -0.96266153637E+02 -0.42294650921E+03 -0.40399807511E+03  0.59970044102E+03  0.90968413625E+02 0.  0.
        254    2    1    2    0    0  0.96266153637E+02  0.42294650921E+03 -0.27588294757E+04  0.29340613840E+04  0.89968061392E+03 0.  0.
         23    2    4    4    0    0  0.31270647910E+03  0.13201605221E+03 -0.34651354815E+03  0.49289000031E+03  0.87494761200E+02 0.  0.
         23    2    4    4    0    0 -0.21644032547E+03  0.29093045700E+03 -0.24123159276E+04  0.24411713837E+04  0.92534560636E+02 0.  0.
          1    1    3    3  502    0  0.25477798020E+01 -0.13992231551E+03 -0.16468308660E+03  0.21611400827E+03  0.00000000000E+00 0. -1.
         -1    1    3    3    0  502 -0.98813933439E+02 -0.28302419370E+03 -0.23931498850E+03  0.38358643274E+03  0.00000000000E+00 0.  1.
         13    1    5    5    0    0  0.31802884254E+03  0.12576264220E+03 -0.34131359682E+03  0.48317032011E+03  0.00000000000E+00 0.  1.
        -13    1    5    5    0    0 -0.53223634382E+01  0.62534100089E+01 -0.51999513341E+01  0.97196801997E+01  0.00000000000E+00 0. -1.
          1    1    6    6  503    0 -0.70454659091E+00  0.42559275352E+02 -0.38355110007E+03  0.38590573288E+03  0.00000000000E+00 0. -1.
         -1    1    6    6    0  503 -0.21573577888E+03  0.24837118165E+03 -0.20287648275E+04  0.20552656508E+04  0.00000000000E+00 0.  1.
<mgrwt>
<rscale>  0 0.15760693E+04</rscale>
<asrwt>0</asrwt>
<pdfrwt beam="1">  1        2 0.51512222E+00 0.15760693E+04</pdfrwt>
<pdfrwt beam="2">  1       -2 0.28533408E-01 0.15760693E+04</pdfrwt>
<totfact> 0.11294556E+01</totfact>
</mgrwt>
</event>
<event>
12    3  0.8686020E-008  0.4203438E+04  0.7818608E-02  0.7964719E-01
         -2   -1    0    0    0  501 -0.00000000000E+00  0.00000000000E+00  0.18338922919E+04  0.18338922919E+04  0.00000000000E+00 0.  1.
          2   -1    0    0  501    0  0.00000000000E+00 -0.00000000000E+00 -0.24086598955E+04  0.24086598955E+04  0.00000000000E+00 0. -1.
         23    2    1    2    0    0  0.17896209565E+04  0.66393661604E+02  0.63424308812E+03  0.19020026125E+04  0.90544779763E+02 0.  0.
        254    2    1    2    0    0 -0.17896209565E+04 -0.66393661604E+02 -0.12090106917E+04  0.23405495749E+04  0.89961890466E+03 0.  0.
         23    2    4    4    0    0 -0.49944964180E+03  0.34650074431E+03 -0.19148294982E+03  0.64379173875E+03  0.91045990096E+02 0.  0.
         23    2    4    4    0    0 -0.12901713147E+04 -0.41289440591E+03 -0.10175277418E+04  0.16967578361E+04  0.92739620951E+02 0.  0.
          2    1    3    3  502    0  0.93188505957E+03  0.58898990399E+02  0.29008660953E+03  0.97776740401E+03  0.00000000000E+00 0.  1.
         -2    1    3    3    0  502  0.85773589690E+03  0.74946712051E+01  0.34415647859E+03  0.92423520853E+03  0.00000000000E+00 0. -1.
         13    1    5    5    0    0 -0.11193124572E+03  0.62330319618E+02 -0.78126219859E+02  0.15005791796E+03  0.00000000000E+00 0.  1.
        -13    1    5    5    0    0 -0.38751839608E+03  0.28417042469E+03 -0.11335672996E+03  0.49373382080E+03  0.00000000000E+00 0. -1.
          2    1    6    6  503    0 -0.67230769096E+03 -0.17135970831E+03 -0.54542172523E+03  0.88252288317E+03  0.00000000000E+00 0. -1.
         -2    1    6    6    0  503 -0.61786362371E+03 -0.24153469760E+03 -0.47210601662E+03  0.81423495293E+03  0.00000000000E+00 0.  1.
<mgrwt>
<rscale>  0 0.42034380E+04</rscale>
<asrwt>0</asrwt>
<pdfrwt beam="1">  1        2 0.37056306E+00 0.42034380E+04</pdfrwt>
<pdfrwt beam="2">  1       -2 0.28213728E+00 0.42034380E+04</pdfrwt>
<totfact> 0.12465317E-01</totfact>
</mgrwt>
</event>
<event>
12    3  0.8686020E-008  0.1255757E+04  0.7818608E-02  0.9065405E-01
         -1   -1    0    0    0  501 -0.00000000000E+00  0.00000000000E+00  0.82972352557E+03  0.82972352557E+03  0.00000000000E+00 0.  1.
          1   -1    0    0  501    0  0.00000000000E+00 -0.00000000000E+00 -0.47513579503E+03  0.47513579503E+03  0.00000000000E+00 0. -1.
         23    2    1    2    0    0  0.16380917224E+03  0.10018965381E+03  0.31833795105E+03  0.38499686766E+03  0.10006060857E+03 0.  0.
        254    2    1    2    0    0 -0.16380917224E+03 -0.10018965381E+03  0.36249779495E+02  0.91986245295E+03  0.89886677222E+03 0.  0.
         23    2    4    4    0    0 -0.37169977426E+03 -0.17904293646E+03  0.33334924947E+03  0.53779890360E+03  0.88819160720E+02 0.  0.
         23    2    4    4    0    0  0.20789060201E+03  0.78853282652E+02 -0.29709946997E+03  0.38206354935E+03  0.90929192752E+02 0.  0.
          1    1    3    3  502    0  0.15317766722E+03  0.84251407870E+02  0.20222427912E+03  0.26731321802E+03  0.00000000000E+00 0. -1.
         -1    1    3    3    0  502  0.10631505020E+02  0.15938245938E+02  0.11611367193E+03  0.11768364964E+03  0.00000000000E+00 0.  1.
         13    1    5    5    0    0 -0.10148135682E+03 -0.75918905034E+02  0.14533388756E+03  0.19283175256E+03  0.00000000000E+00 0. -1.
        -13    1    5    5    0    0 -0.27021841744E+03 -0.10312403143E+03  0.18801536191E+03  0.34496715104E+03  0.00000000000E+00 0.  1.
          1    1    6    6  503    0  0.86663562472E+02 -0.22421032008E+00 -0.16370908890E+03  0.18523306702E+03  0.00000000000E+00 0. -1.
         -1    1    6    6    0  503  0.12122703954E+03  0.79077492972E+02 -0.13339038107E+03  0.19683048233E+03  0.00000000000E+00 0.  1.
<mgrwt>
<rscale>  0 0.12557569E+04</rscale>
<asrwt>0</asrwt>
<pdfrwt beam="1">  1        1 0.73097815E-01 0.12557569E+04</pdfrwt>
<pdfrwt beam="2">  1       -1 0.12764977E+00 0.12557569E+04</pdfrwt>
<totfact> 0.24895643E+01</totfact>
</mgrwt>
</event>
<event>
12    3  0.8686020E-008  0.2964950E+04  0.7818608E-02  0.8253811E-01
         -2   -1    0    0    0  501 -0.00000000000E+00  0.00000000000E+00  0.20309540213E+04  0.20309540213E+04  0.00000000000E+00 0.  1.
          2   -1    0    0  501    0  0.00000000000E+00 -0.00000000000E+00 -0.10821177915E+04  0.10821177915E+04  0.00000000000E+00 0. -1.
         23    2    1    2    0    0 -0.34779975146E+03 -0.11960077373E+04  0.95906714089E+03  0.15746113932E+04  0.90510131553E+02 0.  0.
        254    2    1    2    0    0  0.34779975146E+03  0.11960077373E+04 -0.10230911151E+02  0.15384604196E+04  0.90297099418E+03 0.  0.
         23    2    4    4    0    0  0.40134974749E+03  0.87159810885E+03 -0.37995724249E+03  0.10357965004E+04  0.87988640577E+02 0.  0.
         23    2    4    4    0    0 -0.53549996025E+02  0.32440962846E+03  0.36972633134E+03  0.50266391925E+03  0.88680587051E+02 0.  0.
          1    1    3    3  502    0 -0.14940494486E+03 -0.65102309880E+03  0.48321339459E+03  0.82440772524E+03  0.00000000000E+00 0. -1.
         -1    1    3    3    0  502 -0.19839480660E+03 -0.54498463852E+03  0.47585374630E+03  0.75020366793E+03  0.00000000000E+00 0.  1.
         13    1    5    5    0    0  0.13897431622E+03  0.21622256263E+03 -0.11786832228E+03  0.28277022219E+03  0.00000000000E+00 0.  1.
        -13    1    5    5    0    0  0.26237543127E+03  0.65537554622E+03 -0.26208892021E+03  0.75302627817E+03  0.00000000000E+00 0. -1.
          4    1    6    6  503    0 -0.10473607110E+02  0.14880010640E+03  0.23006501269E+03  0.27419168145E+03  0.00000000000E+00 0. -1.
         -4    1    6    6    0  503 -0.43076388914E+02  0.17560952206E+03  0.13966131864E+03  0.22847223780E+03  0.00000000000E+00 0.  1.
<mgrwt>
<rscale>  0 0.29649496E+04</rscale>
<asrwt>0</asrwt>
<pdfrwt beam="1">  1        2 0.16647966E+00 0.29649496E+04</pdfrwt>
<pdfrwt beam="2">  1       -2 0.31245446E+00 0.29649496E+04</pdfrwt>
<totfact> 0.51131917E-01</totfact>
</mgrwt>
</event>
<event>
12    3  0.8686020E-008  0.1541263E+04  0.7818608E-02  0.8857468E-01
         -2   -1    0    0    0  501 -0.00000000000E+00  0.00000000000E+00  0.67451133312E+03  0.67451133312E+03  0.00000000000E+00 0.  1.
          2   -1    0    0  501    0  0.00000000000E+00 -0.00000000000E+00 -0.88044897464E+03  0.88044897464E+03  0.00000000000E+00 0. -1.
         23    2    1    2    0    0 -0.24719135747E+03  0.42892793354E+03  0.13066275174E+02  0.50361128772E+03  0.91492416066E+02 0.  0.
        254    2    1    2    0    0  0.24719135747E+03 -0.42892793354E+03 -0.21900391669E+03  0.10513490200E+04  0.90127093985E+03 0.  0.
         23    2    4    4    0    0 -0.51756367199E+02 -0.63937026484E+03 -0.10315760942E+03  0.65628717600E+03  0.92727061277E+02 0.  0.
         23    2    4    4    0    0  0.29894772466E+03  0.21044233130E+03 -0.11584630727E+03  0.39506184404E+03  0.94856611896E+02 0.  0.
          1    1    3    3  502    0 -0.58753522803E+02  0.13464545720E+03 -0.34616063591E+02  0.15092927961E+03  0.00000000000E+00 0. -1.
         -1    1    3    3    0  502 -0.18843783466E+03  0.29428247634E+03  0.47682338765E+02  0.35268200811E+03  0.00000000000E+00 0.  1.
         13    1    5    5    0    0 -0.46124904711E+02 -0.42514478413E+03 -0.11111676725E+03  0.44183993739E+03  0.00000000000E+00 0. -1.
        -13    1    5    5    0    0 -0.56314624884E+01 -0.21422548071E+03  0.79591578237E+01  0.21444723861E+03  0.00000000000E+00 0.  1.
          2    1    6    6  503    0  0.74801509571E+02  0.12940688736E+02 -0.44211385639E+02  0.87848584958E+02  0.00000000000E+00 0.  1.
         -2    1    6    6    0  503  0.22414621509E+03  0.19750164256E+03 -0.71634921632E+02  0.30721325908E+03  0.00000000000E+00 0. -1.
<mgrwt>
<rscale>  0 0.15412629E+04</rscale>
<asrwt>0</asrwt>
<pdfrwt beam="1">  1        2 0.13545369E+00 0.15412629E+04</pdfrwt>
<pdfrwt beam="2">  1       -2 0.10377097E+00 0.15412629E+04</pdfrwt>
<totfact> 0.22025097E+01</totfact>
</mgrwt>
</event>
<event>
12    3  0.8686020E-008  0.1278426E+04  0.7818608E-02  0.9046850E-01
          1   -1    0    0  501    0  0.00000000000E+00  0.00000000000E+00  0.37972181239E+03  0.37972181239E+03  0.00000000000E+00 0. -1.
         -1   -1    0    0    0  501 -0.00000000000E+00 -0.00000000000E+00 -0.10760335968E+04  0.10760335968E+04  0.00000000000E+00 0.  1.
         23    2    1    2    0    0  0.13669213287E+03 -0.25725718914E+03 -0.44433084668E+02  0.30701376596E+03  0.86122894291E+02 0.  0.
        254    2    1    2    0    0 -0.13669213287E+03  0.25725718914E+03 -0.65187869972E+03  0.11487416432E+04  0.89988639457E+03 0.  0.
         23    2    4    4    0    0 -0.33486423953E+02  0.25308459775E+03 -0.85865152411E+03  0.90069130932E+03  0.93750950019E+02 0.  0.
         23    2    4    4    0    0 -0.10320570892E+03  0.41725913926E+01  0.20677282439E+03  0.24805033388E+03  0.90028541914E+02 0.  0.
          2    1    3    3  502    0  0.47201860980E+02 -0.94904256683E+02  0.25260252931E+02  0.10896290192E+03  0.00000000000E+00 0. -1.
         -2    1    3    3    0  502  0.89490271890E+02 -0.16235293246E+03 -0.69693337598E+02  0.19805086404E+03  0.00000000000E+00 0.  1.
         13    1    5    5    0    0 -0.47956640288E+01 -0.23284600831E+01 -0.10887146828E+01  0.54410862424E+01  0.00000000000E+00 0. -1.
        -13    1    5    5    0    0 -0.28690759924E+02  0.25541305783E+03 -0.85756280943E+03  0.89525022308E+03  0.00000000000E+00 0.  1.
          3    1    6    6  503    0 -0.85570686870E+02  0.41958081954E+02  0.14557993495E+03  0.17400097860E+03  0.00000000000E+00 0. -1.
         -3    1    6    6    0  503 -0.17635022047E+02 -0.37785490562E+02  0.61192889439E+02  0.74049355280E+02  0.00000000000E+00 0.  1.
<mgrwt>
<rscale>  0 0.12784263E+04</rscale>
<asrwt>0</asrwt>
<pdfrwt beam="1">  1        1 0.58418741E-01 0.12784263E+04</pdfrwt>
<pdfrwt beam="2">  1       -1 0.16554363E+00 0.12784263E+04</pdfrwt>
<totfact> 0.16798837E+01</totfact>
</mgrwt>
</event>
<event>
12    3  0.8686020E-008  0.1447465E+04  0.7818608E-02  0.8920160E-01
          2   -1    0    0  501    0  0.00000000000E+00  0.00000000000E+00  0.12063386602E+04  0.12063386602E+04  0.00000000000E+00 0. -1.
         -2   -1    0    0    0  501 -0.00000000000E+00 -0.00000000000E+00 -0.43419723856E+03  0.43419723856E+03  0.00000000000E+00 0.  1.
         23    2    1    2    0    0 -0.19299316385E+03 -0.30941424140E+03  0.50745801911E+03  0.63141555768E+03  0.90489951103E+02 0.  0.
        254    2    1    2    0    0  0.19299316385E+03  0.30941424140E+03  0.26468340255E+03  0.10091203411E+04  0.90293024379E+03 0.  0.
         23    2    4    4    0    0  0.43874265477E+03  0.48235895074E+03  0.14502062167E+03  0.67381418736E+03  0.88483353862E+02 0.  0.
         23    2    4    4    0    0 -0.24574949092E+03 -0.17294470934E+03  0.11966278088E+03  0.33530615374E+03  0.88364873266E+02 0.  0.
          4    1    3    3  502    0 -0.14874411028E+03 -0.27556478548E+03  0.46817102175E+03  0.56324494400E+03  0.00000000000E+00 0. -1.
         -4    1    3    3    0  502 -0.44249053569E+02 -0.33849455919E+02  0.39286997363E+02  0.68170613680E+02  0.00000000000E+00 0.  1.
         13    1    5    5    0    0  0.18036505925E+03  0.14476793662E+03  0.28582749710E+02  0.23303708643E+03  0.00000000000E+00 0. -1.
        -13    1    5    5    0    0  0.25837759552E+03  0.33759101411E+03  0.11643787196E+03  0.44077710093E+03  0.00000000000E+00 0.  1.
          3    1    6    6  503    0 -0.25903983358E+02 -0.61376862725E+02  0.28427796078E+02  0.72431175758E+02  0.00000000000E+00 0. -1.
         -3    1    6    6    0  503 -0.21984550757E+03 -0.11156784661E+03  0.91234984806E+02  0.26287497798E+03  0.00000000000E+00 0.  1.
<mgrwt>
<rscale>  0 0.14474653E+04</rscale>
<asrwt>0</asrwt>
<pdfrwt beam="1">  1        2 0.18559056E+00 0.14474653E+04</pdfrwt>
<pdfrwt beam="2">  1       -2 0.66799576E-01 0.14474653E+04</pdfrwt>
<totfact> 0.37485892E+01</totfact>
</mgrwt>
</event>
<event>
12    3  0.8686020E-008  0.2928463E+04  0.7818608E-02  0.8264459E-01
         -1   -1    0    0    0  501 -0.00000000000E+00  0.00000000000E+00  0.84323231545E+03  0.84323231545E+03  0.00000000000E+00 0.  1.
          1   -1    0    0  501    0  0.00000000000E+00 -0.00000000000E+00 -0.25425662902E+04  0.25425662902E+04  0.00000000000E+00 0. -1.
         23    2    1    2    0    0  0.66986198776E+03 -0.19313217546E+03 -0.20701680476E+04  0.21863316393E+04  0.91843191244E+02 0.  0.
        254    2    1    2    0    0 -0.66986198776E+03  0.19313217546E+03  0.37083407284E+03  0.11994669664E+04  0.90287760744E+03 0.  0.
         23    2    4    4    0    0  0.17255594595E+03  0.38747199576E+02  0.26495124260E+03  0.33185681900E+03  0.93020897685E+02 0.  0.
         23    2    4    4    0    0 -0.84241793371E+03  0.15438497588E+03  0.10588283024E+03  0.86761014738E+03  0.89629784530E+02 0.  0.
          2    1    3    3  502    0  0.43920202100E+03 -0.15698338889E+03 -0.14759133760E+04  0.15478573878E+04  0.00000000000E+00 0. -1.
         -2    1    3    3    0  502  0.23065996676E+03 -0.36148786566E+02 -0.59425467165E+03  0.63847425149E+03  0.00000000000E+00 0.  1.
         13    1    5    5    0    0  0.14750900812E+02 -0.23651322888E+02  0.21999951731E+02  0.35510167914E+02  0.00000000000E+00 0.  1.
        -13    1    5    5    0    0  0.15780504514E+03  0.62398522464E+02  0.24295129086E+03  0.29634665109E+03  0.00000000000E+00 0. -1.
          1    1    6    6  503    0 -0.81685183971E+03  0.13806211367E+03  0.11391432742E+03  0.83623235363E+03  0.00000000000E+00 0. -1.
         -1    1    6    6    0  503 -0.25566094007E+02  0.16322862216E+02 -0.80314971817E+01  0.31377793751E+02  0.00000000000E+00 0.  1.
<mgrwt>
<rscale>  0 0.29284631E+04</rscale>
<asrwt>0</asrwt>
<pdfrwt beam="1">  1        1 0.39116405E+00 0.29284631E+04</pdfrwt>
<pdfrwt beam="2">  1       -1 0.12972805E+00 0.29284631E+04</pdfrwt>
<totfact> 0.55220683E-01</totfact>
</mgrwt>
</event>
<event>
12    3  0.8686020E-008  0.2232805E+04  0.7818608E-02  0.8504897E-01
          2   -1    0    0  501    0  0.00000000000E+00  0.00000000000E+00  0.96088898349E+03  0.96088898349E+03  0.00000000000E+00 0. -1.
         -2   -1    0    0    0  501 -0.00000000000E+00 -0.00000000000E+00 -0.12970850044E+04  0.12970850044E+04  0.00000000000E+00 0.  1.
         23    2    1    2    0    0 -0.32747520715E+03 -0.75763035732E+03  0.30199312736E+03  0.88399674146E+03  0.94903215498E+02 0.  0.
        254    2    1    2    0    0  0.32747520715E+03  0.75763035732E+03 -0.63818914824E+03  0.13739772464E+04  0.89402702142E+03 0.  0.
         23    2    4    4    0    0  0.41477283706E+03  0.39954281455E+03  0.53457872448E+02  0.58499718222E+03  0.87709703321E+02 0.  0.
         23    2    4    4    0    0 -0.87297629910E+02  0.35808754277E+03 -0.69164702069E+03  0.78898006417E+03  0.90919612583E+02 0.  0.
          3    1    3    3  502    0 -0.25415350341E+03 -0.52508153327E+03  0.25006546641E+03  0.63469469619E+03  0.00000000000E+00 0. -1.
         -3    1    3    3    0  502 -0.73321703734E+02 -0.23254882405E+03  0.51927660951E+02  0.24930204527E+03  0.00000000000E+00 0.  1.
         13    1    5    5    0    0  0.24524308476E+03  0.17543734707E+03  0.29502949909E+02  0.30297336091E+03  0.00000000000E+00 0. -1.
        -13    1    5    5    0    0  0.16952975230E+03  0.22410546749E+03  0.23954922538E+02  0.28202382131E+03  0.00000000000E+00 0.  1.
          4    1    6    6  503    0 -0.10739551112E+02  0.22227417815E+03 -0.37567057628E+03  0.43663432081E+03  0.00000000000E+00 0. -1.
         -4    1    6    6    0  503 -0.76558078799E+02  0.13581336462E+03 -0.31597644441E+03  0.35234574335E+03  0.00000000000E+00 0.  1.
<mgrwt>
<rscale>  0 0.22328051E+04</rscale>
<asrwt>0</asrwt>
<pdfrwt beam="1">  1        2 0.14782908E+00 0.22328051E+04</pdfrwt>
<pdfrwt beam="2">  1       -2 0.19955154E+00 0.22328051E+04</pdfrwt>
<totfact> 0.32590282E+00</totfact>
</mgrwt>
</event>
<event>
12    3  0.8686020E-008  0.2788762E+04  0.7818608E-02  0.8306766E-01
         -2   -1    0    0    0  501 -0.00000000000E+00  0.00000000000E+00  0.70046621288E+03  0.70046621288E+03  0.00000000000E+00 0.  1.
          2   -1    0    0  501    0  0.00000000000E+00 -0.00000000000E+00 -0.27757211022E+04  0.27757211022E+04  0.00000000000E+00 0. -1.
         23    2    1    2    0    0 -0.60733294198E+03 -0.10893174451E+04 -0.98255212329E+03  0.15903784915E+04  0.91811070662E+02 0.  0.
        254    2    1    2    0    0  0.60733294198E+03  0.10893174451E+04 -0.10927027660E+04  0.18858088235E+04  0.89822591008E+03 0.  0.
         23    2    4    4    0    0  0.13294479976E+03  0.97347674577E+03 -0.48045231917E+03  0.10972515612E+04  0.88290787292E+02 0.  0.
         23    2    4    4    0    0  0.47438814222E+03  0.11584069932E+03 -0.61225044684E+03  0.78855726239E+03  0.92242990611E+02 0.  0.
          1    1    3    3  502    0 -0.45059746810E+03 -0.84670705463E+03 -0.79717442083E+03  0.12471719897E+04  0.00000000000E+00 0. -1.
         -1    1    3    3    0  502 -0.15673547388E+03 -0.24261039045E+03 -0.18537770246E+03  0.34320650183E+03  0.00000000000E+00 0.  1.
         13    1    5    5    0    0  0.75602555533E+02  0.47296215992E+03 -0.28176783967E+03  0.55569961903E+03  0.00000000000E+00 0. -1.
        -13    1    5    5    0    0  0.57342244224E+02  0.50051458585E+03 -0.19868447949E+03  0.54155194212E+03  0.00000000000E+00 0.  1.
          2    1    6    6  503    0  0.25382165605E+02  0.17921692531E+02 -0.13762639879E+02  0.33983108311E+02  0.00000000000E+00 0. -1.
         -2    1    6    6    0  503  0.44900597661E+03  0.97919006786E+02 -0.59848780697E+03  0.75457415408E+03  0.00000000000E+00 0.  1.
<mgrwt>
<rscale>  0 0.27887623E+04</rscale>
<asrwt>0</asrwt>
<pdfrwt beam="1">  1        2 0.42703403E+00 0.27887623E+04</pdfrwt>
<pdfrwt beam="2">  1       -2 0.10776403E+00 0.27887623E+04</pdfrwt>
<totfact> 0.14379125E+00</totfact>
</mgrwt>
</event>
<event>
12    3  0.8686020E-008  0.2317940E+04  0.7818608E-02  0.8470881E-01
          1   -1    0    0  501    0  0.00000000000E+00  0.00000000000E+00  0.17875166971E+04  0.17875166971E+04  0.00000000000E+00 0. -1.
         -1   -1    0    0    0  501 -0.00000000000E+00 -0.00000000000E+00 -0.75143965842E+03  0.75143965842E+03  0.00000000000E+00 0.  1.
         23    2    1    2    0    0  0.95646289271E+03  0.20241260500E+03  0.54178564728E+03  0.11216707057E+04  0.93922077313E+02 0.  0.
        254    2    1    2    0    0 -0.95646289271E+03 -0.20241260500E+03  0.49429139136E+03  0.14172856498E+04  0.89921215837E+03 0.  0.
         23    2    4    4    0    0 -0.82986587628E+03  0.21838550220E+03  0.21543713261E+03  0.88901447587E+03  0.86971144751E+02 0.  0.
         23    2    4    4    0    0 -0.12659701643E+03 -0.42079810720E+03  0.27885425876E+03  0.52827117393E+03  0.90624963376E+02 0.  0.
          1    1    3    3  502    0  0.66954520224E+03  0.17480521557E+03  0.41395755516E+03  0.80635506987E+03  0.00000000000E+00 0. -1.
         -1    1    3    3    0  502  0.28691769046E+03  0.27607389428E+02  0.12782809212E+03  0.31531563581E+03  0.00000000000E+00 0.  1.
         13    1    5    5    0    0 -0.80069181292E+03  0.21339582320E+03  0.19036734726E+03  0.85022637194E+03  0.00000000000E+00 0.  1.
        -13    1    5    5    0    0 -0.29174063356E+02  0.49896789979E+01  0.25069785344E+02  0.38788103929E+02  0.00000000000E+00 0. -1.
          3    1    6    6  503    0 -0.20173462055E+02 -0.20012407104E+02 -0.24969860490E+00  0.28417025861E+02  0.00000000000E+00 0. -1.
         -3    1    6    6    0  503 -0.10642355437E+03 -0.40078570010E+03  0.27910395736E+03  0.49985414807E+03  0.00000000000E+00 0.  1.
<mgrwt>
<rscale>  0 0.23179395E+04</rscale>
<asrwt>0</asrwt>
<pdfrwt beam="1">  1        1 0.27500257E+00 0.23179395E+04</pdfrwt>
<pdfrwt beam="2">  1       -1 0.11560610E+00 0.23179395E+04</pdfrwt>
<totfact> 0.25409662E+00</totfact>
</mgrwt>
</event>
<event>
12    3  0.8686020E-008  0.1798171E+04  0.7818608E-02  0.8707273E-01
          1   -1    0    0  501    0  0.00000000000E+00  0.00000000000E+00  0.14124041855E+04  0.14124041855E+04  0.00000000000E+00 0. -1.
         -1   -1    0    0    0  501 -0.00000000000E+00 -0.00000000000E+00 -0.57232524975E+03  0.57232524975E+03  0.00000000000E+00 0.  1.
         23    2    1    2    0    0 -0.64331910146E+03 -0.14694500927E+03  0.18604455177E+03  0.69138141340E+03  0.89125650016E+02 0.  0.
        254    2    1    2    0    0  0.64331910146E+03  0.14694500927E+03  0.65403438396E+03  0.12933480218E+04  0.89974208979E+03 0.  0.
         23    2    4    4    0    0  0.25738144295E+03  0.40973535366E+03  0.65268069570E+03  0.81762126889E+03  0.91565176747E+02 0.  0.
         23    2    4    4    0    0  0.38593765851E+03 -0.26279034439E+03  0.13536882598E+01  0.47572675295E+03  0.91145321522E+02 0.  0.
          4    1    3    3  502    0 -0.42640567907E+03 -0.59112552664E+02  0.99197303379E+02  0.44176487187E+03  0.00000000000E+00 0. -1.
         -4    1    3    3    0  502 -0.21691342239E+03 -0.87832456610E+02  0.86847248394E+02  0.24961654152E+03  0.00000000000E+00 0.  1.
         13    1    5    5    0    0  0.12617374180E+01  0.37046348820E+02  0.77947290977E+02  0.86312247757E+02  0.00000000000E+00 0.  1.
        -13    1    5    5    0    0  0.25611970553E+03  0.37268900484E+03  0.57473340472E+03  0.73130902113E+03  0.00000000000E+00 0. -1.
          3    1    6    6  503    0  0.35208205691E+03 -0.26410167624E+03  0.11759771280E+02  0.44028372944E+03  0.00000000000E+00 0. -1.
         -3    1    6    6    0  503  0.33855601604E+02  0.13113318570E+01 -0.10406083020E+02  0.35443023503E+02  0.00000000000E+00 0.  1.
<mgrwt>
<rscale>  0 0.17981708E+04</rscale>
<asrwt>0</asrwt>
<pdfrwt beam="1">  1        1 0.21729295E+00 0.17981708E+04</pdfrwt>
<pdfrwt beam="2">  1       -1 0.88050039E-01 0.17981708E+04</pdfrwt>
<totfact> 0.90087830E+00</totfact>
</mgrwt>
</event>
<event>
12    3  0.8686020E-008  0.2251330E+04  0.7818608E-02  0.8497362E-01
          1   -1    0    0  501    0  0.00000000000E+00  0.00000000000E+00  0.98804296000E+03  0.98804296000E+03  0.00000000000E+00 0. -1.
         -1   -1    0    0    0  501 -0.00000000000E+00 -0.00000000000E+00 -0.12824562933E+04  0.12824562933E+04  0.00000000000E+00 0.  1.
         23    2    1    2    0    0  0.84395585520E+03  0.24770666782E+03 -0.48596488374E+03  0.10089489230E+04  0.90531663482E+02 0.  0.
        254    2    1    2    0    0 -0.84395585520E+03 -0.24770666782E+03  0.19155155046E+03  0.12615503303E+04  0.88385358552E+03 0.  0.
         23    2    4    4    0    0 -0.96002290353E+03 -0.20217753535E+02  0.21779746590E+03  0.98861740769E+03  0.88746322665E+02 0.  0.
         23    2    4    4    0    0  0.11606704833E+03 -0.22748891429E+03 -0.26245915435E+02  0.27293292263E+03  0.92632425988E+02 0.  0.
          3    1    3    3  502    0  0.15250611461E+03  0.22961318534E+02 -0.54876177785E+02  0.16369707398E+03  0.00000000000E+00 0. -1.
         -3    1    3    3    0  502  0.69144974059E+03  0.22474534929E+03 -0.43108870596E+03  0.84525184897E+03  0.00000000000E+00 0.  1.
         13    1    5    5    0    0 -0.70535014696E+03  0.24179058838E+02  0.15494274034E+03  0.72257228668E+03  0.00000000000E+00 0. -1.
        -13    1    5    5    0    0 -0.25467275657E+03 -0.44396812374E+02  0.62854725556E+02  0.26604512101E+03  0.00000000000E+00 0.  1.
          4    1    6    6  503    0  0.20356797935E+02 -0.12507499988E+03  0.12950473798E+02  0.12738080542E+03  0.00000000000E+00 0. -1.
         -4    1    6    6    0  503  0.95710250395E+02 -0.10241391441E+03 -0.39196389233E+02  0.14555211721E+03  0.00000000000E+00 0.  1.
<mgrwt>
<rscale>  0 0.22513302E+04</rscale>
<asrwt>0</asrwt>
<pdfrwt beam="1">  1        1 0.15200661E+00 0.22513302E+04</pdfrwt>
<pdfrwt beam="2">  1       -1 0.19730097E+00 0.22513302E+04</pdfrwt>
<totfact> 0.22049927E+00</totfact>
</mgrwt>
</event>
<event>
12    3  0.8686020E-008  0.3063479E+04  0.7818608E-02  0.8225833E-01
          2   -1    0    0  501    0  0.00000000000E+00  0.00000000000E+00  0.24687599023E+04  0.24687599023E+04  0.00000000000E+00 0. -1.
         -2   -1    0    0    0  501 -0.00000000000E+00 -0.00000000000E+00 -0.95036644283E+03  0.95036644283E+03  0.00000000000E+00 0.  1.
         23    2    1    2    0    0  0.68420736626E+03 -0.63978801655E+03 -0.46348069504E+03  0.10488130990E+04  0.87898440262E+02 0.  0.
        254    2    1    2    0    0 -0.68420736626E+03  0.63978801655E+03  0.19818741545E+04  0.23703132461E+04  0.90171575026E+03 0.  0.
         23    2    4    4    0    0  0.28669971509E+01  0.55161540625E+03  0.58863174313E+03  0.81179583311E+03  0.90759955724E+02 0.  0.
         23    2    4    4    0    0 -0.68707436341E+03  0.88172610299E+02  0.13932424114E+04  0.15585174130E+04  0.89479157929E+02 0.  0.
          2    1    3    3  502    0  0.34673140674E+03 -0.27503341965E+03 -0.24644464190E+03  0.50655800444E+03  0.00000000000E+00 0. -1.
         -2    1    3    3    0  502  0.33747595952E+03 -0.36475459690E+03 -0.21703605314E+03  0.54225509456E+03  0.00000000000E+00 0.  1.
         13    1    5    5    0    0 -0.35602911565E+02  0.31135827140E+03  0.29428592931E+03  0.42990202217E+03  0.00000000000E+00 0.  1.
        -13    1    5    5    0    0  0.38469908716E+02  0.24025713485E+03  0.29434581382E+03  0.38189381094E+03  0.00000000000E+00 0. -1.
          4    1    6    6  503    0 -0.63164416639E+03  0.10458249863E+03  0.12624008301E+04  0.14154743755E+04  0.00000000000E+00 0. -1.
         -4    1    6    6    0  503 -0.55430197018E+02 -0.16409888328E+02  0.13084158130E+03  0.14304303749E+03  0.00000000000E+00 0.  1.
<mgrwt>
<rscale>  0 0.30634794E+04</rscale>
<asrwt>0</asrwt>
<pdfrwt beam="1">  1        2 0.37980921E+00 0.30634794E+04</pdfrwt>
<pdfrwt beam="2">  1       -2 0.14621022E+00 0.30634794E+04</pdfrwt>
<totfact> 0.99059581E-01</totfact>
</mgrwt>
</event>
<event>
12    3  0.8686020E-008  0.1665400E+04  0.7818608E-02  0.8781348E-01
         -2   -1    0    0    0  501 -0.00000000000E+00  0.00000000000E+00  0.49704403401E+03  0.49704403401E+03  0.00000000000E+00 0.  1.
          2   -1    0    0  501    0  0.00000000000E+00 -0.00000000000E+00 -0.13950262297E+04  0.13950262297E+04  0.00000000000E+00 0. -1.
         23    2    1    2    0    0  0.72420332019E+02  0.50690021627E+01  0.34072983667E+03  0.35995275268E+03  0.90547022549E+02 0.  0.
        254    2    1    2    0    0 -0.72420332019E+02 -0.50690021627E+01 -0.12387120324E+04  0.15321175110E+04  0.89872474607E+03 0.  0.
         23    2    4    4    0    0  0.35253540891E+03  0.15310279108E+03 -0.81185953475E+03  0.90272526885E+03  0.89862826964E+02 0.  0.
         23    2    4    4    0    0 -0.42495574093E+03 -0.15817179324E+03 -0.42685249762E+03  0.62939224219E+03  0.91246051277E+02 0.  0.
          4    1    3    3  502    0  0.65212811584E+02  0.23911706934E+02  0.12273254637E+03  0.14102396414E+03  0.00000000000E+00 0. -1.
         -4    1    3    3    0  502  0.72075204357E+01 -0.18842704772E+02  0.21799729030E+03  0.21892878854E+03  0.00000000000E+00 0.  1.
         13    1    5    5    0    0  0.23044721025E+03  0.52164033315E+02 -0.49073345178E+03  0.54465247983E+03  0.00000000000E+00 0.  1.
        -13    1    5    5    0    0  0.12208819867E+03  0.10093875776E+03 -0.32112608297E+03  0.35807278902E+03  0.00000000000E+00 0. -1.
          3    1    6    6  503    0 -0.39844187728E+03 -0.17035178298E+03 -0.40128770808E+03  0.59059925854E+03  0.00000000000E+00 0. -1.
         -3    1    6    6    0  503 -0.26513863658E+02  0.12179989741E+02 -0.25564789538E+02  0.38792983647E+02  0.00000000000E+00 0.  1.
<mgrwt>
<rscale>  0 0.16654002E+04</rscale>
<asrwt>0</asrwt>
<pdfrwt beam="1">  1        2 0.21461942E+00 0.16654002E+04</pdfrwt>
<pdfrwt beam="2">  1       -2 0.76468314E-01 0.16654002E+04</pdfrwt>
<totfact> 0.21255479E+01</totfact>
</mgrwt>
</event>
<event>
12    3  0.8686020E-008  0.1821430E+04  0.7818608E-02  0.8694985E-01
          1   -1    0    0  501    0  0.00000000000E+00  0.00000000000E+00  0.57745470010E+03  0.57745470010E+03  0.00000000000E+00 0. -1.
         -1   -1    0    0    0  501 -0.00000000000E+00 -0.00000000000E+00 -0.14363066338E+04  0.14363066338E+04  0.00000000000E+00 0.  1.
         23    2    1    2    0    0  0.67213071098E+03  0.70295111782E+02 -0.41346728556E+03  0.79767473933E+03  0.92890786119E+02 0.  0.
        254    2    1    2    0    0 -0.67213071098E+03 -0.70295111782E+02 -0.44538464811E+03  0.12160865945E+04  0.90763319974E+03 0.  0.
         23    2    4    4    0    0 -0.51940684431E+03 -0.40811644999E+02 -0.71719067740E+03  0.88995152380E+03  0.78753963005E+02 0.  0.
         23    2    4    4    0    0 -0.15272386668E+03 -0.29483466783E+02  0.27180602929E+03  0.32613507074E+03  0.91058841103E+02 0.  0.
          3    1    3    3  502    0  0.19138159590E+03 -0.13568088567E+02 -0.87932029667E+02  0.21105224500E+03  0.00000000000E+00 0. -1.
         -3    1    3    3    0  502  0.48074911508E+03  0.83863200349E+02 -0.32553525589E+03  0.58662249433E+03  0.00000000000E+00 0.  1.
         13    1    5    5    0    0 -0.24100135899E+03 -0.57970913338E+02 -0.32810704325E+03  0.41121346484E+03  0.00000000000E+00 0. -1.
        -13    1    5    5    0    0 -0.27840548532E+03  0.17159268339E+02 -0.38908363415E+03  0.47873805897E+03  0.00000000000E+00 0.  1.
          1    1    6    6  503    0 -0.13215188501E+03  0.75603341403E+01  0.16706543953E+03  0.21314816548E+03  0.00000000000E+00 0. -1.
         -1    1    6    6    0  503 -0.20571981668E+02 -0.37043800923E+02  0.10474058976E+03  0.11298690526E+03  0.00000000000E+00 0.  1.
<mgrwt>
<rscale>  0 0.18214302E+04</rscale>
<asrwt>0</asrwt>
<pdfrwt beam="1">  1        1 0.88839185E-01 0.18214302E+04</pdfrwt>
<pdfrwt beam="2">  1       -1 0.22097025E+00 0.18214302E+04</pdfrwt>
<totfact> 0.36951079E+00</totfact>
</mgrwt>
</event>
<event>
12    3  0.8686020E-008  0.1807903E+04  0.7818608E-02  0.8702108E-01
          1   -1    0    0  501    0  0.00000000000E+00  0.00000000000E+00  0.56215349690E+03  0.56215349690E+03  0.00000000000E+00 0. -1.
         -1   -1    0    0    0  501 -0.00000000000E+00 -0.00000000000E+00 -0.14535674074E+04  0.14535674074E+04  0.00000000000E+00 0.  1.
         23    2    1    2    0    0 -0.11652992314E+03 -0.23226718902E+03 -0.10341656512E+04  0.10701735491E+04  0.90805071834E+02 0.  0.
        254    2    1    2    0    0  0.11652992314E+03  0.23226718902E+03  0.14275174070E+03  0.94554735516E+03  0.89786105345E+03 0.  0.
         23    2    4    4    0    0 -0.10246650179E+03 -0.23658573341E+03  0.29104878752E+03  0.39950838365E+03  0.91789752404E+02 0.  0.
         23    2    4    4    0    0  0.21899642493E+03  0.46885292243E+03 -0.14829704682E+03  0.54603897151E+03  0.91564443500E+02 0.  0.
          1    1    3    3  502    0 -0.70957409288E+02 -0.87462088949E+02 -0.29923947338E+03  0.31973244028E+03  0.00000000000E+00 0. -1.
         -1    1    3    3    0  502 -0.45572513850E+02 -0.14480510007E+03 -0.73492617780E+03  0.75044110884E+03  0.00000000000E+00 0.  1.
         13    1    5    5    0    0 -0.18522807952E+02 -0.35554082033E+02  0.10718242390E+03  0.11443451907E+03  0.00000000000E+00 0. -1.
        -13    1    5    5    0    0 -0.83943693837E+02 -0.20103165138E+03  0.18386636362E+03  0.28507386457E+03  0.00000000000E+00 0.  1.
          4    1    6    6  503    0  0.99082482751E+02  0.16319617450E+03 -0.95538623683E+02  0.21348994912E+03  0.00000000000E+00 0. -1.
         -4    1    6    6    0  503  0.11991394218E+03  0.30565674793E+03 -0.52758423136E+02  0.33254902240E+03  0.00000000000E+00 0.  1.
<mgrwt>
<rscale>  0 0.18079027E+04</rscale>
<asrwt>0</asrwt>
<pdfrwt beam="1">  1        1 0.86485155E-01 0.18079027E+04</pdfrwt>
<pdfrwt beam="2">  1       -1 0.22362575E+00 0.18079027E+04</pdfrwt>
<totfact> 0.36900949E+00</totfact>
</mgrwt>
</event>
<event>
12    3  0.8686020E-008  0.1221318E+04  0.7818608E-02  0.9094399E-01
         -1   -1    0    0    0  501 -0.00000000000E+00  0.00000000000E+00  0.56871200735E+03  0.56871200735E+03  0.00000000000E+00 0.  1.
          1   -1    0    0  501    0  0.00000000000E+00 -0.00000000000E+00 -0.65569975626E+03  0.65569975626E+03  0.00000000000E+00 0. -1.
         23    2    1    2    0    0 -0.12527770567E+03  0.13725241921E+03  0.16979017979E+03  0.26807992326E+03  0.92224779676E+02 0.  0.
        254    2    1    2    0    0  0.12527770567E+03 -0.13725241921E+03 -0.25677792870E+03  0.95633184035E+03  0.90227653970E+03 0.  0.
         23    2    4    4    0    0 -0.99051502275E+02 -0.27082104171E+03 -0.50275682940E+03  0.58610601466E+03  0.87181386608E+02 0.  0.
         23    2    4    4    0    0  0.22432920794E+03  0.13356862250E+03  0.24597890070E+03  0.37022582569E+03  0.91637175680E+02 0.  0.
          3    1    3    3  502    0 -0.79778803245E+02  0.12493184961E+03  0.84485015028E+02  0.17061753209E+03  0.00000000000E+00 0. -1.
         -3    1    3    3    0  502 -0.45498902423E+02  0.12320569605E+02  0.85305164764E+02  0.97462391170E+02  0.00000000000E+00 0.  1.
         13    1    5    5    0    0 -0.77945392223E+02 -0.10437298909E+03 -0.17807210258E+03  0.22063290493E+03  0.00000000000E+00 0. -1.
        -13    1    5    5    0    0 -0.21106110052E+02 -0.16644805262E+03 -0.32468472682E+03  0.36547310973E+03  0.00000000000E+00 0.  1.
          3    1    6    6  503    0  0.97705375131E+02  0.92754304700E+01  0.10383108050E+03  0.14287500557E+03  0.00000000000E+00 0. -1.
         -3    1    6    6    0  503  0.12662383281E+03  0.12429319203E+03  0.14214782021E+03  0.22735082012E+03  0.00000000000E+00 0.  1.
<mgrwt>
<rscale>  0 0.12213179E+04</rscale>
<asrwt>0</asrwt>
<pdfrwt beam="1">  1        1 0.10087689E+00 0.12213179E+04</pdfrwt>
<pdfrwt beam="2">  1       -1 0.87494155E-01 0.12213179E+04</pdfrwt>
<totfact> 0.38208528E+01</totfact>
</mgrwt>
</event>
<event>
12    3  0.8686020E-008  0.2746616E+04  0.7818608E-02  0.8320036E-01
         -2   -1    0    0    0  501 -0.00000000000E+00  0.00000000000E+00  0.40122722323E+04  0.40122722323E+04  0.00000000000E+00 0.  1.
          2   -1    0    0  501    0  0.00000000000E+00 -0.00000000000E+00 -0.47005143120E+03  0.47005143120E+03  0.00000000000E+00 0. -1.
         23    2    1    2    0    0 -0.89244968994E+03  0.76554892032E+03  0.21374480235E+04  0.24409044918E+04  0.82456574459E+02 0.  0.
        254    2    1    2    0    0  0.89244968994E+03 -0.76554892032E+03  0.14047727776E+04  0.20414191717E+04  0.90081856069E+03 0.  0.
         23    2    4    4    0    0 -0.93181107067E+02  0.72607622219E+02  0.30904122874E+03  0.34338008512E+03  0.91917442708E+02 0.  0.
         23    2    4    4    0    0  0.98563079701E+03 -0.83815654253E+03  0.10957315489E+04  0.16980390866E+04  0.93459373424E+02 0.  0.
          4    1    3    3  502    0 -0.66309463842E+03  0.61465289102E+03  0.16370273818E+04  0.18701206712E+04  0.00000000000E+00 0. -1.
         -4    1    3    3    0  502 -0.22935505152E+03  0.15089602930E+03  0.50042064163E+03  0.57078382062E+03  0.00000000000E+00 0.  1.
         13    1    5    5    0    0 -0.40136883779E+02  0.15625530403E+02  0.22393026525E+03  0.22803484456E+03  0.00000000000E+00 0.  1.
        -13    1    5    5    0    0 -0.53044223288E+02  0.56982091816E+02  0.85110963493E+02  0.11534524055E+03  0.00000000000E+00 0. -1.
          1    1    6    6  503    0  0.16668223003E+03 -0.14534602471E+03  0.14314630452E+03  0.26343746356E+03  0.00000000000E+00 0. -1.
         -1    1    6    6    0  503  0.81894856697E+03 -0.69281051782E+03  0.95258524435E+03  0.14346016230E+04  0.00000000000E+00 0.  1.
<mgrwt>
<rscale>  0 0.27466156E+04</rscale>
<asrwt>0</asrwt>
<pdfrwt beam="1">  1        2 0.72315608E-01 0.27466156E+04</pdfrwt>
<pdfrwt beam="2">  1       -2 0.61727263E+00 0.27466156E+04</pdfrwt>
<totfact> 0.24849231E-02</totfact>
</mgrwt>
</event>
<event>
12    3  0.8686020E-008  0.1653378E+04  0.7818608E-02  0.8788411E-01
          2   -1    0    0  501    0  0.00000000000E+00  0.00000000000E+00  0.28797983141E+03  0.28797983141E+03  0.00000000000E+00 0. -1.
         -2   -1    0    0    0  501 -0.00000000000E+00 -0.00000000000E+00 -0.23731343365E+04  0.23731343365E+04  0.00000000000E+00 0.  1.
         23    2    1    2    0    0 -0.19251521301E+03 -0.41843091122E+03 -0.12522034024E+04  0.13373395605E+04  0.91198708196E+02 0.  0.
        254    2    1    2    0    0  0.19251521301E+03  0.41843091122E+03 -0.83295110270E+03  0.13237746074E+04  0.92001366136E+03 0.  0.
         23    2    4    4    0    0 -0.15517260756E+03 -0.10913628231E+03  0.66456371760E+02  0.22083522476E+03  0.91446601315E+02 0.  0.
         23    2    4    4    0    0  0.34768782057E+03  0.52756719354E+03 -0.89940747446E+03  0.11029393827E+04  0.91255205167E+02 0.  0.
          3    1    3    3  502    0 -0.15558817167E+03 -0.25197781202E+03 -0.72119693844E+03  0.77963165721E+03  0.00000000000E+00 0. -1.
         -3    1    3    3    0  502 -0.36927041342E+02 -0.16645309920E+03 -0.53100646395E+03  0.55770790327E+03  0.00000000000E+00 0.  1.
         13    1    5    5    0    0 -0.48953307650E+02 -0.31989530475E+02 -0.22061226995E+02  0.62501632990E+02  0.00000000000E+00 0. -1.
        -13    1    5    5    0    0 -0.10621929991E+03 -0.77146751839E+02  0.88517598756E+02  0.15833359177E+03  0.00000000000E+00 0.  1.
          3    1    6    6  503    0  0.84689828887E+02  0.74734762132E+02 -0.19264576903E+03  0.22331601849E+03  0.00000000000E+00 0. -1.
         -3    1    6    6    0  503  0.26299799168E+03  0.45283243140E+03 -0.70676170543E+03  0.87962336418E+03  0.00000000000E+00 0.  1.
<mgrwt>
<rscale>  0 0.16533781E+04</rscale>
<asrwt>0</asrwt>
<pdfrwt beam="1">  1        2 0.44304589E-01 0.16533781E+04</pdfrwt>
<pdfrwt beam="2">  1       -2 0.36509760E+00 0.16533781E+04</pdfrwt>
<totfact> 0.13774684E+00</totfact>
</mgrwt>
</event>
<event>
12    3  0.8686020E-008  0.2048503E+04  0.7818608E-02  0.8584274E-01
          2   -1    0    0  501    0  0.00000000000E+00  0.00000000000E+00  0.76800794608E+03  0.76800794608E+03  0.00000000000E+00 0. -1.
         -2   -1    0    0    0  501 -0.00000000000E+00 -0.00000000000E+00 -0.13659899838E+04  0.13659899838E+04  0.00000000000E+00 0.  1.
         23    2    1    2    0    0 -0.49994535691E+03 -0.37579072937E+02 -0.92317227672E+03  0.10542999666E+04  0.89128112550E+02 0.  0.
        254    2    1    2    0    0  0.49994535691E+03  0.37579072937E+02  0.32519023900E+03  0.10796979633E+04  0.89924493535E+03 0.  0.
         23    2    4    4    0    0  0.63554580368E+03  0.18397333532E+03  0.47191549502E+03  0.81800851728E+03  0.93107696954E+02 0.  0.
         23    2    4    4    0    0 -0.13560044677E+03 -0.14639426238E+03 -0.14672525602E+03  0.26168944599E+03  0.84464810231E+02 0.  0.
          3    1    3    3  502    0 -0.24763013164E+03 -0.58906067937E+02 -0.50269371011E+03  0.56346390578E+03  0.00000000000E+00 0. -1.
         -3    1    3    3    0  502 -0.25231522527E+03  0.21326995000E+02 -0.42047856661E+03  0.49083606082E+03  0.00000000000E+00 0.  1.
         13    1    5    5    0    0  0.33354915434E+03  0.72461956525E+02  0.29218598462E+03  0.44930882822E+03  0.00000000000E+00 0. -1.
        -13    1    5    5    0    0  0.30199664934E+03  0.11151137879E+03  0.17972951040E+03  0.36869968907E+03  0.00000000000E+00 0.  1.
          1    1    6    6  503    0 -0.91620293370E+02 -0.74044031385E+02 -0.12991096067E+03  0.17536719888E+03  0.00000000000E+00 0. -1.
         -1    1    6    6    0  503 -0.43980153399E+02 -0.72350230994E+02 -0.16814295349E+02  0.86322247109E+02  0.00000000000E+00 0.  1.
<mgrwt>
<rscale>  0 0.20485030E+04</rscale>
<asrwt>0</asrwt>
<pdfrwt beam="1">  1        2 0.11815507E+00 0.20485030E+04</pdfrwt>
<pdfrwt beam="2">  1       -2 0.21015230E+00 0.20485030E+04</pdfrwt>
<totfact> 0.38419769E+00</totfact>
</mgrwt>
</event>
<event>
12    3  0.8686020E-008  0.1607113E+04  0.7818608E-02  0.8816190E-01
         -2   -1    0    0    0  501 -0.00000000000E+00  0.00000000000E+00  0.69916286768E+03  0.69916286768E+03  0.00000000000E+00 0.  1.
          2   -1    0    0  501    0  0.00000000000E+00 -0.00000000000E+00 -0.92353692639E+03  0.92353692639E+03  0.00000000000E+00 0. -1.
         23    2    1    2    0    0 -0.95784528790E+02  0.44957563261E+03  0.21995744027E+03  0.51772627562E+03  0.91467456232E+02 0.  0.
        254    2    1    2    0    0  0.95784528790E+02 -0.44957563261E+03 -0.44433149897E+03  0.11049735185E+04  0.90124528854E+03 0.  0.
         23    2    4    4    0    0 -0.21676459131E+03  0.20456166776E+02  0.15040290148E+03  0.28002628175E+03  0.91587897079E+02 0.  0.
         23    2    4    4    0    0  0.31254912010E+03 -0.47003179938E+03 -0.59473440045E+03  0.82494723671E+03  0.90620590183E+02 0.  0.
          1    1    3    3  502    0  0.33342777011E+01  0.14144413199E+03  0.96694120726E+02  0.17136893787E+03  0.00000000000E+00 0. -1.
         -1    1    3    3    0  502 -0.99118806491E+02  0.30813150061E+03  0.12326331954E+03  0.34635733775E+03  0.00000000000E+00 0.  1.
         13    1    5    5    0    0 -0.19800701884E+03 -0.51386061459E+01  0.14970956959E+03  0.24828640722E+03  0.00000000000E+00 0. -1.
        -13    1    5    5    0    0 -0.18757572471E+02  0.25594772922E+02  0.69333188597E+00  0.31739874528E+02  0.00000000000E+00 0.  1.
          3    1    6    6  503    0  0.19549319273E+03 -0.29257884839E+03 -0.43230964474E+03  0.55741510552E+03  0.00000000000E+00 0. -1.
         -3    1    6    6    0  503  0.11705592737E+03 -0.17745295099E+03 -0.16242475571E+03  0.26753213119E+03  0.00000000000E+00 0.  1.
<mgrwt>
<rscale>  0 0.16071126E+04</rscale>
<asrwt>0</asrwt>
<pdfrwt beam="1">  1        2 0.14208260E+00 0.16071126E+04</pdfrwt>
<pdfrwt beam="2">  1       -2 0.10756352E+00 0.16071126E+04</pdfrwt>
<totfact> 0.18795846E+01</totfact>
</mgrwt>
</event>
<event>
12    3  0.8686020E-008  0.2042798E+04  0.7818608E-02  0.8586868E-01
          2   -1    0    0  501    0  0.00000000000E+00  0.00000000000E+00  0.14232106881E+04  0.14232106881E+04  0.00000000000E+00 0. -1.
         -2   -1    0    0    0  501 -0.00000000000E+00 -0.00000000000E+00 -0.73303014237E+03  0.73303014237E+03  0.00000000000E+00 0.  1.
         23    2    1    2    0    0  0.49108713351E+02 -0.24183481826E+03  0.11037249224E+04  0.11347817835E+04  0.92872207245E+02 0.  0.
        254    2    1    2    0    0 -0.49108713351E+02  0.24183481826E+03 -0.41354437668E+03  0.10214590469E+04  0.90081290399E+03 0.  0.
         23    2    4    4    0    0 -0.32279823943E+03  0.45326850776E+03 -0.16951473785E+03  0.58881633154E+03  0.91205166695E+02 0.  0.
         23    2    4    4    0    0  0.27368952608E+03 -0.21143368951E+03 -0.24402963883E+03  0.43264271538E+03  0.89549387493E+02 0.  0.
          2    1    3    3  502    0  0.75420096777E+02 -0.15109024855E+03  0.73409611937E+03  0.75326858868E+03  0.00000000000E+00 0. -1.
         -2    1    3    3    0  502 -0.26311383426E+02 -0.90744569713E+02  0.36962880299E+03  0.38151319483E+03  0.00000000000E+00 0.  1.
         13    1    5    5    0    0 -0.49344458242E+02  0.12232798962E+03 -0.64637537975E+02  0.14689119756E+03  0.00000000000E+00 0. -1.
        -13    1    5    5    0    0 -0.27345378119E+03  0.33094051814E+03 -0.10487719988E+03  0.44192513399E+03  0.00000000000E+00 0.  1.
          4    1    6    6  503    0  0.11059058979E+03 -0.13361705818E+03 -0.91153034418E+02  0.19594048196E+03  0.00000000000E+00 0. -1.
         -4    1    6    6    0  503  0.16309893629E+03 -0.77816631325E+02 -0.15287660441E+03  0.23670223342E+03  0.00000000000E+00 0.  1.
<mgrwt>
<rscale>  0 0.20427984E+04</rscale>
<asrwt>0</asrwt>
<pdfrwt beam="1">  1        2 0.21895549E+00 0.20427984E+04</pdfrwt>
<pdfrwt beam="2">  1       -2 0.11277387E+00 0.20427984E+04</pdfrwt>
<totfact> 0.80375461E+00</totfact>
</mgrwt>
</event>
<event>
12    3  0.8686020E-008  0.1700910E+04  0.7818608E-02  0.8760845E-01
         -1   -1    0    0    0  501 -0.00000000000E+00  0.00000000000E+00  0.16719490034E+04  0.16719490034E+04  0.00000000000E+00 0.  1.
          1   -1    0    0  501    0  0.00000000000E+00 -0.00000000000E+00 -0.43259340812E+03  0.43259340812E+03  0.00000000000E+00 0. -1.
         23    2    1    2    0    0 -0.11175374019E+02 -0.40569879751E+03 -0.11258820899E+03  0.43070426140E+03  0.90075816380E+02 0.  0.
        254    2    1    2    0    0  0.11175374019E+02  0.40569879751E+03  0.13519438042E+04  0.16738381501E+04  0.89959196283E+03 0.  0.
         23    2    4    4    0    0  0.14024260729E+02  0.18444872651E+03  0.14116324386E+04  0.14267011207E+04  0.92476664063E+02 0.  0.
         23    2    4    4    0    0 -0.28488867104E+01  0.22125007100E+03 -0.59688634385E+02  0.24713702941E+03  0.92489286702E+02 0.  0.
          2    1    3    3  502    0  0.62093476782E+01 -0.22495336542E+03 -0.10663964609E+03  0.24902728110E+03  0.00000000000E+00 0. -1.
         -2    1    3    3    0  502 -0.17384721697E+02 -0.18074543209E+03 -0.59485628956E+01  0.18167698030E+03  0.00000000000E+00 0.  1.
         13    1    5    5    0    0  0.44260844240E+02  0.13775663341E+03  0.84023830228E+03  0.85260560461E+03  0.00000000000E+00 0.  1.
        -13    1    5    5    0    0 -0.30236583511E+02  0.46692093094E+02  0.57139413633E+03  0.57409551607E+03  0.00000000000E+00 0. -1.
          3    1    6    6  503    0 -0.15714218606E+02  0.20564141189E+03 -0.26042327227E+02  0.20787864190E+03  0.00000000000E+00 0. -1.
         -3    1    6    6    0  503  0.12865331896E+02  0.15608659109E+02 -0.33646307158E+02  0.39258387503E+02  0.00000000000E+00 0.  1.
<mgrwt>
<rscale>  0 0.17009105E+04</rscale>
<asrwt>0</asrwt>
<pdfrwt beam="1">  1        1 0.66552833E-01 0.17009105E+04</pdfrwt>
<pdfrwt beam="2">  1       -1 0.25722292E+00 0.17009105E+04</pdfrwt>
<totfact> 0.32158912E+00</totfact>
</mgrwt>
</event>
<event>
12    3  0.8686020E-008  0.2042133E+04  0.7818608E-02  0.8587172E-01
         -2   -1    0    0    0  501 -0.00000000000E+00  0.00000000000E+00  0.15094480142E+04  0.15094480142E+04  0.00000000000E+00 0.  1.
          2   -1    0    0  501    0  0.00000000000E+00 -0.00000000000E+00 -0.69070048710E+03  0.69070048710E+03  0.00000000000E+00 0. -1.
         23    2    1    2    0    0 -0.37222487713E+03 -0.72996395875E+03  0.34434328575E+03  0.89344271763E+03  0.90933222865E+02 0.  0.
        254    2    1    2    0    0  0.37222487713E+03  0.72996395875E+03  0.47440424131E+03  0.13067057836E+04  0.90056753248E+03 0.  0.
         23    2    4    4    0    0  0.52300710455E+03  0.18986975037E+03 -0.40886736412E+01  0.56345712779E+03  0.88770851592E+02 0.  0.
         23    2    4    4    0    0 -0.15078222743E+03  0.54009420838E+03  0.47849291496E+03  0.74324865583E+03  0.95005582470E+02 0.  0.
          1    1    3    3  502    0 -0.18298943593E+03 -0.26175469914E+03  0.13765206593E+03  0.34777686444E+03  0.00000000000E+00 0. -1.
         -1    1    3    3    0  502 -0.18923544119E+03 -0.46820925961E+03  0.20669121982E+03  0.54566585319E+03  0.00000000000E+00 0.  1.
         13    1    5    5    0    0  0.78649975337E+02  0.61205950210E+02 -0.14629883622E+02  0.10072745632E+03  0.00000000000E+00 0. -1.
        -13    1    5    5    0    0  0.44435712922E+03  0.12866380016E+03  0.10541209980E+02  0.46272967147E+03  0.00000000000E+00 0.  1.
          4    1    6    6  503    0 -0.11402708628E+03  0.50518261427E+03  0.44065444724E+03  0.67999117056E+03  0.00000000000E+00 0.  1.
         -4    1    6    6    0  503 -0.36755141148E+02  0.34911594113E+02  0.37838467715E+02  0.63257485275E+02  0.00000000000E+00 0. -1.
<mgrwt>
<rscale>  0 0.20421327E+04</rscale>
<asrwt>0</asrwt>
<pdfrwt beam="1">  1        2 0.10626161E+00 0.20421327E+04</pdfrwt>
<pdfrwt beam="2">  1       -2 0.23222277E+00 0.20421327E+04</pdfrwt>
<totfact> 0.31936450E+00</totfact>
</mgrwt>
</event>
<event>
12    3  0.8686020E-008  0.2344451E+04  0.7818608E-02  0.8460598E-01
          1   -1    0    0  501    0  0.00000000000E+00  0.00000000000E+00  0.30894716736E+04  0.30894716736E+04  0.00000000000E+00 0. -1.
         -1   -1    0    0    0  501 -0.00000000000E+00 -0.00000000000E+00 -0.44477260069E+03  0.44477260069E+03  0.00000000000E+00 0.  1.
         23    2    1    2    0    0 -0.60039206467E+03 -0.45399709448E+03  0.21080626560E+04  0.22403166134E+04  0.92230004496E+02 0.  0.
        254    2    1    2    0    0  0.60039206467E+03  0.45399709448E+03  0.53663641691E+03  0.12939276608E+04  0.90536520500E+03 0.  0.
         23    2    4    4    0    0  0.67104311144E+03  0.64691457833E+03  0.50173784224E+03  0.10625009118E+04  0.91487682923E+02 0.  0.
         23    2    4    4    0    0 -0.70651046770E+02 -0.19291748385E+03  0.34898574669E+02  0.23142674907E+03  0.10065636435E+03 0.  0.
          4    1    3    3  502    0 -0.42605427269E+03 -0.30268697886E+03  0.15740234048E+04  0.16585208258E+04  0.00000000000E+00 0. -1.
         -4    1    3    3    0  502 -0.17433779198E+03 -0.15131011561E+03  0.53403925112E+03  0.58179578766E+03  0.00000000000E+00 0.  1.
         13    1    5    5    0    0  0.64917990765E+03  0.63191470476E+03  0.46831370115E+03  0.10198374720E+04  0.00000000000E+00 0. -1.
        -13    1    5    5    0    0  0.21863203787E+02  0.14999873571E+02  0.33424141087E+02  0.42663439786E+02  0.00000000000E+00 0.  1.
          1    1    6    6  503    0 -0.93431454013E+02 -0.17175631411E+03  0.40910976889E+02  0.19975829411E+03  0.00000000000E+00 0. -1.
         -1    1    6    6    0  503  0.22780407243E+02 -0.21161169743E+02 -0.60124022195E+01  0.31668454959E+02  0.00000000000E+00 0.  1.
<mgrwt>
<rscale>  0 0.23444508E+04</rscale>
<asrwt>0</asrwt>
<pdfrwt beam="1">  1        1 0.47530332E+00 0.23444508E+04</pdfrwt>
<pdfrwt beam="2">  1       -1 0.68426556E-01 0.23444508E+04</pdfrwt>
<totfact> 0.10006867E+00</totfact>
</mgrwt>
</event>
<event>
12    3  0.8686020E-008  0.2356255E+04  0.7818608E-02  0.8456065E-01
         -2   -1    0    0    0  501 -0.00000000000E+00  0.00000000000E+00  0.13101433991E+04  0.13101433991E+04  0.00000000000E+00 0. -1.
          2   -1    0    0  501    0  0.00000000000E+00 -0.00000000000E+00 -0.10594140966E+04  0.10594140966E+04  0.00000000000E+00 0.  1.
         23    2    1    2    0    0  0.19171735204E+03 -0.84122632797E+03 -0.41193269184E+03  0.96038407933E+03  0.90729043118E+02 0.  0.
        254    2    1    2    0    0 -0.19171735204E+03  0.84122632797E+03  0.66266199431E+03  0.14091734164E+04  0.89567378036E+03 0.  0.
         23    2    4    4    0    0  0.16139255570E+03  0.24458006593E+03 -0.14613791907E+03  0.33998982068E+03  0.91486726328E+02 0.  0.
         23    2    4    4    0    0 -0.35310990775E+03  0.59664626205E+03  0.80879991338E+03  0.10691835957E+04  0.91229888151E+02 0.  0.
          3    1    3    3  502    0  0.57127799726E+02 -0.27545522960E+03 -0.88351292208E+02  0.29486457883E+03  0.00000000000E+00 0. -1.
         -3    1    3    3    0  502  0.13458955232E+03 -0.56577109837E+03 -0.32358139963E+03  0.66551950049E+03  0.00000000000E+00 0.  1.
         13    1    5    5    0    0  0.14681864080E+03  0.24383147163E+03 -0.15378875876E+03  0.32351272334E+03  0.00000000000E+00 0. -1.
        -13    1    5    5    0    0  0.14573914898E+02  0.74859429670E+00  0.76508396874E+01  0.16477097341E+02  0.00000000000E+00 0.  1.
          3    1    6    6  503    0 -0.30176276342E+03  0.53315485515E+03  0.75078572739E+03  0.96901706559E+03  0.00000000000E+00 0. -1.
         -3    1    6    6    0  503 -0.51347144323E+02  0.63491406895E+02  0.58014185990E+02  0.10016653012E+03  0.00000000000E+00 0.  1.
<mgrwt>
<rscale>  0 0.23562550E+04</rscale>
<asrwt>0</asrwt>
<pdfrwt beam="1">  1        2 0.16298678E+00 0.23562550E+04</pdfrwt>
<pdfrwt beam="2">  1       -2 0.20156052E+00 0.23562550E+04</pdfrwt>
<totfact> 0.27065902E+00</totfact>
</mgrwt>
</event>
<event>
12    3  0.8686020E-008  0.2859856E+04  0.7818608E-02  0.8284923E-01
          2   -1    0    0  501    0  0.00000000000E+00  0.00000000000E+00  0.12637997195E+04  0.12637997195E+04  0.00000000000E+00 0. -1.
         -2   -1    0    0    0  501 -0.00000000000E+00 -0.00000000000E+00 -0.16178939805E+04  0.16178939805E+04  0.00000000000E+00 0.  1.
         23    2    1    2    0    0 -0.66635847510E+03 -0.79251319544E+03 -0.92760584718E+03  0.13949607845E+04  0.11555172124E+03 0.  0.
        254    2    1    2    0    0  0.66635847510E+03  0.79251319544E+03  0.57351158620E+03  0.14867329154E+04  0.89963794945E+03 0.  0.
         23    2    4    4    0    0  0.64509541036E+03  0.58641333842E+03  0.72448512193E+01  0.87655064826E+03  0.90883767216E+02 0.  0.
         23    2    4    4    0    0  0.21263064738E+02  0.20609985702E+03  0.56626673498E+03  0.61018226719E+03  0.93461837502E+02 0.  0.
          2    1    3    3  502    0 -0.20049694593E+03 -0.29711139043E+03 -0.26765809321E+03  0.44734221634E+03  0.00000000000E+00 0. -1.
         -2    1    3    3    0  502 -0.46586152917E+03 -0.49540180501E+03 -0.65994775396E+03  0.94761856816E+03  0.00000000000E+00 0.  1.
         13    1    5    5    0    0  0.10684331123E+03  0.55393182423E+02  0.46606346044E+01  0.12043927652E+03  0.00000000000E+00 0.  1.
        -13    1    5    5    0    0  0.53825209913E+03  0.53102015600E+03  0.25842166150E+01  0.75611137174E+03  0.00000000000E+00 0. -1.
          2    1    6    6  503    0  0.43629788503E+02  0.13346441479E+03  0.44897491588E+03  0.47041979502E+03  0.00000000000E+00 0. -1.
         -2    1    6    6    0  503 -0.22366723765E+02  0.72635442229E+02  0.11729181910E+03  0.13976247217E+03  0.00000000000E+00 0.  1.
<mgrwt>
<rscale>  0 0.28598559E+04</rscale>
<asrwt>0</asrwt>
<pdfrwt beam="1">  1        2 0.19443073E+00 0.28598559E+04</pdfrwt>
<pdfrwt beam="2">  1       -2 0.24890677E+00 0.28598559E+04</pdfrwt>
<totfact> 0.98104012E-01</totfact>
</mgrwt>
</event>
<event>
12    3  0.8686020E-008  0.2104451E+04  0.7818608E-02  0.8559285E-01
          1   -1    0    0  501    0  0.00000000000E+00  0.00000000000E+00  0.72546874937E+03  0.72546874937E+03  0.00000000000E+00 0. -1.
         -1   -1    0    0    0  501 -0.00000000000E+00 -0.00000000000E+00 -0.15261566922E+04  0.15261566922E+04  0.00000000000E+00 0.  1.
         23    2    1    2    0    0  0.24303635647E+03 -0.49303093837E+03  0.37548307903E+03  0.67190205081E+03  0.91206614309E+02 0.  0.
        254    2    1    2    0    0 -0.24303635647E+03  0.49303093837E+03 -0.11761710218E+04  0.15797233907E+04  0.90000085661E+03 0.  0.
         23    2    4    4    0    0 -0.22165301969E+03  0.72996011561E+03 -0.10335806758E+04  0.12877777617E+04  0.90059529143E+02 0.  0.
         23    2    4    4    0    0 -0.21383336780E+02 -0.23692917724E+03 -0.14259034604E+03  0.29194562899E+03  0.91145824809E+02 0.  0.
          1    1    3    3  502    0  0.17600562671E+03 -0.43126607931E+03  0.30652180735E+03  0.55760562244E+03  0.00000000000E+00 0. -1.
         -1    1    3    3    0  502  0.67030729763E+02 -0.61764859059E+02  0.68961271671E+02  0.11429642837E+03  0.00000000000E+00 0.  1.
         13    1    5    5    0    0 -0.10054346733E+03  0.29413039356E+03 -0.49418638768E+03  0.58381663475E+03  0.00000000000E+00 0. -1.
        -13    1    5    5    0    0 -0.12110955236E+03  0.43582972204E+03 -0.53939428808E+03  0.70396112698E+03  0.00000000000E+00 0.  1.
          1    1    6    6  503    0 -0.40873699208E+02 -0.51997045455E+02 -0.56680518762E+02  0.87103577597E+02  0.00000000000E+00 0. -1.
         -1    1    6    6    0  503  0.19490362428E+02 -0.18493213178E+03 -0.85909827280E+02  0.20484205139E+03  0.00000000000E+00 0.  1.
<mgrwt>
<rscale>  0 0.21044515E+04</rscale>
<asrwt>0</asrwt>
<pdfrwt beam="1">  1        1 0.11161058E+00 0.21044515E+04</pdfrwt>
<pdfrwt beam="2">  1       -1 0.23479334E+00 0.21044515E+04</pdfrwt>
<totfact> 0.20801526E+00</totfact>
</mgrwt>
</event>
<event>
12    3  0.8686020E-008  0.1273612E+04  0.7818608E-02  0.9050757E-01
         -2   -1    0    0    0  501 -0.00000000000E+00  0.00000000000E+00  0.43847662831E+03  0.43847662831E+03  0.00000000000E+00 0.  1.
          2   -1    0    0  501    0  0.00000000000E+00 -0.00000000000E+00 -0.92484264875E+03  0.92484264875E+03  0.00000000000E+00 0. -1.
         23    2    1    2    0    0 -0.17729910330E+03  0.22167632003E+03 -0.13893168564E+01  0.30188212038E+03  0.10274006771E+03 0.  0.
        254    2    1    2    0    0  0.17729910330E+03 -0.22167632003E+03 -0.48497670358E+03  0.10614371567E+04  0.90048379868E+03 0.  0.
         23    2    4    4    0    0  0.36590059490E+03 -0.39855054746E+03 -0.55261394318E+02  0.55165508259E+03  0.92432268279E+02 0.  0.
         23    2    4    4    0    0 -0.18860149160E+03  0.17687422743E+03 -0.42971530927E+03  0.50978207409E+03  0.91474045948E+02 0.  0.
          4    1    3    3  502    0 -0.17683249021E+03  0.19187374118E+03 -0.27342550794E+02  0.26236020513E+03  0.00000000000E+00 0. -1.
         -4    1    3    3    0  502 -0.46661308398E+00  0.29802578844E+02  0.25953233938E+02  0.39521915254E+02  0.00000000000E+00 0.  1.
         13    1    5    5    0    0  0.23895289383E+03 -0.30586661903E+03 -0.10735676529E+02  0.38828871842E+03  0.00000000000E+00 0. -1.
        -13    1    5    5    0    0  0.12694770107E+03 -0.92683928431E+02 -0.44525717790E+02  0.16336636417E+03  0.00000000000E+00 0.  1.
          2    1    6    6  503    0 -0.16096905316E+03  0.94995481060E+02 -0.27367398872E+03  0.33141006261E+03  0.00000000000E+00 0.  1.
         -2    1    6    6    0  503 -0.27632438442E+02  0.81878746374E+02 -0.15604132055E+03  0.17837201148E+03  0.00000000000E+00 0. -1.
<mgrwt>
<rscale>  0 0.12736120E+04</rscale>
<asrwt>0</asrwt>
<pdfrwt beam="1">  1        2 0.14228348E+00 0.12736120E+04</pdfrwt>
<pdfrwt beam="2">  1       -2 0.67457943E-01 0.12736120E+04</pdfrwt>
<totfact> 0.55837995E+01</totfact>
</mgrwt>
</event>
<event>
12    3  0.8686020E-008  0.3251155E+04  0.7818608E-02  0.8175436E-01
         -1   -1    0    0    0  501 -0.00000000000E+00  0.00000000000E+00  0.67355048420E+03  0.67355048420E+03  0.00000000000E+00 0.  1.
          1   -1    0    0  501    0  0.00000000000E+00 -0.00000000000E+00 -0.39232428454E+04  0.39232428454E+04  0.00000000000E+00 0. -1.
         23    2    1    2    0    0 -0.93473534546E+03  0.97434595282E+03 -0.24132380131E+04  0.27668494245E+04  0.93047450969E+02 0.  0.
        254    2    1    2    0    0  0.93473534546E+03 -0.97434595282E+03 -0.83645434814E+03  0.18299439051E+04  0.90882265464E+03 0.  0.
         23    2    4    4    0    0  0.64316694261E+03 -0.84267574484E+03 -0.15966888052E+03  0.10758139053E+04  0.90084851130E+02 0.  0.
         23    2    4    4    0    0  0.29156840284E+03 -0.13167020799E+03 -0.67678546762E+03  0.75412999984E+03  0.91237658221E+02 0.  0.
          1    1    3    3  502    0 -0.35446940317E+03  0.43198399376E+03 -0.10275409281E+04  0.11696576797E+04  0.00000000000E+00 0. -1.
         -1    1    3    3    0  502 -0.58026594229E+03  0.54236195906E+03 -0.13856970849E+04  0.15971917448E+04  0.00000000000E+00 0.  1.
         13    1    5    5    0    0  0.99329705430E+02 -0.99651825653E+02 -0.46054061543E+02  0.14804679436E+03  0.00000000000E+00 0.  1.
        -13    1    5    5    0    0  0.54383723719E+03 -0.74302391918E+03 -0.11361481898E+03  0.92776711093E+03  0.00000000000E+00 0. -1.
          3    1    6    6  503    0  0.23972606012E+03 -0.14360254926E+03 -0.56467000487E+03  0.63003372168E+03  0.00000000000E+00 0. -1.
         -3    1    6    6    0  503  0.51842342725E+02  0.11932341267E+02 -0.11211546274E+03  0.12409627816E+03  0.00000000000E+00 0.  1.
<mgrwt>
<rscale>  0 0.32511549E+04</rscale>
<asrwt>0</asrwt>
<pdfrwt beam="1">  1        1 0.60357584E+00 0.32511549E+04</pdfrwt>
<pdfrwt beam="2">  1       -1 0.10362315E+00 0.32511549E+04</pdfrwt>
<totfact> 0.81722676E-02</totfact>
</mgrwt>
</event>
<event>
12    3  0.8686020E-008  0.2099654E+04  0.7818608E-02  0.8561396E-01
          2   -1    0    0  501    0  0.00000000000E+00  0.00000000000E+00  0.26768543613E+04  0.26768543613E+04  0.00000000000E+00 0.  1.
         -2   -1    0    0    0  501 -0.00000000000E+00 -0.00000000000E+00 -0.41172831195E+03  0.41172831195E+03  0.00000000000E+00 0. -1.
         23    2    1    2    0    0 -0.32418767220E+03  0.55243309772E+03  0.17497037116E+04  0.18652570804E+04  0.86260787521E+02 0.  0.
        254    2    1    2    0    0  0.32418767220E+03 -0.55243309772E+03  0.51542233783E+03  0.12233255929E+04  0.90586165919E+03 0.  0.
         23    2    4    4    0    0  0.43868170464E+02  0.68664151014E+02 -0.19822639931E+03  0.23234354364E+03  0.89725330171E+02 0.  0.
         23    2    4    4    0    0  0.28031950174E+03 -0.62109724873E+03  0.71364873714E+03  0.99098204924E+03  0.91706523488E+02 0.  0.
          1    1    3    3  502    0 -0.14715142086E+03  0.29940437205E+03  0.80613383948E+03  0.87243812722E+03  0.00000000000E+00 0. -1.
         -1    1    3    3    0  502 -0.17703625134E+03  0.25302872568E+03  0.94356987207E+03  0.99281895318E+03  0.00000000000E+00 0.  1.
         13    1    5    5    0    0  0.48581361417E+02  0.86937925659E+02 -0.14531147083E+03  0.17616405749E+03  0.00000000000E+00 0. -1.
        -13    1    5    5    0    0 -0.47131909530E+01 -0.18273774645E+02 -0.52914928480E+02  0.56179486156E+02  0.00000000000E+00 0.  1.
          1    1    6    6  503    0  0.12223426777E+02 -0.71239972896E+02  0.10950908721E+03  0.13121275122E+03  0.00000000000E+00 0. -1.
         -1    1    6    6    0  503  0.26809607496E+03 -0.54985727584E+03  0.60413964993E+03  0.85976929802E+03  0.00000000000E+00 0.  1.
<mgrwt>
<rscale>  0 0.20996540E+04</rscale>
<asrwt>0</asrwt>
<pdfrwt beam="1">  1        2 0.41182374E+00 0.20996540E+04</pdfrwt>
<pdfrwt beam="2">  1       -2 0.63342819E-01 0.20996540E+04</pdfrwt>
<totfact> 0.58333607E+00</totfact>
</mgrwt>
</event>
<event>
12    3  0.8686020E-008  0.2108764E+04  0.7818608E-02  0.8557393E-01
          2   -1    0    0  501    0  0.00000000000E+00  0.00000000000E+00  0.12238977987E+04  0.12238977987E+04  0.00000000000E+00 0.  1.
         -2   -1    0    0    0  501 -0.00000000000E+00 -0.00000000000E+00 -0.90834456227E+03  0.90834456227E+03  0.00000000000E+00 0. -1.
         23    2    1    2    0    0  0.67190045439E+03 -0.52545133305E+03  0.22881736400E+03  0.88900296700E+03  0.10207627171E+03 0.  0.
        254    2    1    2    0    0 -0.67190045439E+03  0.52545133305E+03  0.86735872401E+02  0.12432393939E+04  0.90031758567E+03 0.  0.
         23    2    4    4    0    0  0.12327110828E+03  0.33203242982E+03  0.19203490949E+03  0.41306038880E+03  0.91105311274E+02 0.  0.
         23    2    4    4    0    0 -0.79517156267E+03  0.19341890323E+03 -0.10529903709E+03  0.83017900514E+03  0.91654826155E+02 0.  0.
          4    1    3    3  502    0  0.31726069057E+03 -0.29488127174E+03  0.79208116229E+02  0.44032174132E+03  0.00000000000E+00 0. -1.
         -4    1    3    3    0  502  0.35463976382E+03 -0.23057006131E+03  0.14960924777E+03  0.44868122567E+03  0.00000000000E+00 0.  1.
         13    1    5    5    0    0 -0.77513158917E+01  0.28245868200E+02 -0.22803856844E+01  0.29378770010E+02  0.00000000000E+00 0.  1.
        -13    1    5    5    0    0  0.13102242417E+03  0.30378656162E+03  0.19431529518E+03  0.38368161879E+03  0.00000000000E+00 0. -1.
          3    1    6    6  503    0 -0.47902205567E+03  0.13986722247E+03 -0.25131215706E+02  0.49965642970E+03  0.00000000000E+00 0. -1.
         -3    1    6    6    0  503 -0.31614950701E+03  0.53551680762E+02 -0.80167821386E+02  0.33052257544E+03  0.00000000000E+00 0.  1.
<mgrwt>
<rscale>  0 0.21087635E+04</rscale>
<asrwt>0</asrwt>
<pdfrwt beam="1">  1        2 0.18829197E+00 0.21087635E+04</pdfrwt>
<pdfrwt beam="2">  1       -2 0.13974532E+00 0.21087635E+04</pdfrwt>
<totfact> 0.60918426E+00</totfact>
</mgrwt>
</event>
<event>
12    3  0.8686020E-008  0.1619049E+04  0.7818608E-02  0.8808930E-01
          2   -1    0    0  501    0  0.00000000000E+00  0.00000000000E+00  0.14719448426E+04  0.14719448426E+04  0.00000000000E+00 0. -1.
         -2   -1    0    0    0  501 -0.00000000000E+00 -0.00000000000E+00 -0.44521357817E+03  0.44521357817E+03  0.00000000000E+00 0.  1.
         23    2    1    2    0    0  0.45160207094E+03  0.45582295435E+02  0.73472875524E+03  0.86833898103E+03  0.90355221537E+02 0.  0.
        254    2    1    2    0    0 -0.45160207094E+03 -0.45582295435E+02  0.29200250918E+03  0.10488194397E+04  0.89929671169E+03 0.  0.
         23    2    4    4    0    0 -0.37253178048E+03 -0.32799791843E+03  0.47374296946E+03  0.69217094281E+03  0.91135344387E+02 0.  0.
         23    2    4    4    0    0 -0.79070290465E+02  0.28241562299E+03 -0.18174046027E+03  0.35664849693E+03  0.90320875300E+02 0.  0.
          4    1    3    3  502    0  0.81461961614E+02 -0.70358006386E+01  0.80024392204E+02  0.11440916497E+03  0.00000000000E+00 0.  1.
         -4    1    3    3    0  502  0.37014010933E+03  0.52618096073E+02  0.65470436304E+03  0.75392981606E+03  0.00000000000E+00 0. -1.
         13    1    5    5    0    0 -0.30748688336E+03 -0.30157867521E+03  0.43427848543E+03  0.61163361884E+03  0.00000000000E+00 0. -1.
        -13    1    5    5    0    0 -0.65044897112E+02 -0.26419243211E+02  0.39464484026E+02  0.80537323966E+02  0.00000000000E+00 0.  1.
          4    1    6    6  503    0 -0.12726823644E+02  0.19330712253E+03 -0.95359210583E+02  0.21592358533E+03  0.00000000000E+00 0. -1.
         -4    1    6    6    0  503 -0.66343466821E+02  0.89108500465E+02 -0.86381249692E+02  0.14072491159E+03  0.00000000000E+00 0.  1.
<mgrwt>
<rscale>  0 0.16190489E+04</rscale>
<asrwt>0</asrwt>
<pdfrwt beam="1">  1        2 0.22645305E+00 0.16190489E+04</pdfrwt>
<pdfrwt beam="2">  1       -2 0.68494397E-01 0.16190489E+04</pdfrwt>
<totfact> 0.24573352E+01</totfact>
</mgrwt>
</event>
<event>
12    3  0.8686020E-008  0.2014499E+04  0.7818608E-02  0.8599872E-01
          1   -1    0    0  501    0  0.00000000000E+00  0.00000000000E+00  0.11917502825E+04  0.11917502825E+04  0.00000000000E+00 0. -1.
         -1   -1    0    0    0  501 -0.00000000000E+00 -0.00000000000E+00 -0.85131220121E+03  0.85131220121E+03  0.00000000000E+00 0.  1.
         23    2    1    2    0    0 -0.17696694525E+03  0.75498507798E+03 -0.71508141841E+02  0.78368705791E+03  0.87933058076E+02 0.  0.
        254    2    1    2    0    0  0.17696694525E+03 -0.75498507798E+03  0.41194622314E+03  0.12593754258E+04  0.90277738380E+03 0.  0.
         23    2    4    4    0    0 -0.26297980308E+03  0.19188106946E+02  0.12623232909E+02  0.27984344658E+03  0.92878675195E+02 0.  0.
         23    2    4    4    0    0  0.43994674833E+03 -0.77417318493E+03  0.39932299023E+03  0.97953197924E+03  0.84420294910E+02 0.  0.
          1    1    3    3  502    0 -0.76206308772E+02  0.40690137685E+03 -0.77973734284E+02  0.42125530883E+03  0.00000000000E+00 0. -1.
         -1    1    3    3    0  502 -0.10076063647E+03  0.34808370114E+03  0.64655924435E+01  0.36243174909E+03  0.00000000000E+00 0.  1.
         13    1    5    5    0    0 -0.10214030033E+03 -0.37587573230E+02  0.36720639731E+00  0.10883750022E+03  0.00000000000E+00 0. -1.
        -13    1    5    5    0    0 -0.16083950275E+03  0.56775680176E+02  0.12256026511E+02  0.17100594636E+03  0.00000000000E+00 0.  1.
          4    1    6    6  503    0  0.32367937391E+03 -0.50567844959E+03  0.24205189886E+03  0.64735473523E+03  0.00000000000E+00 0. -1.
         -4    1    6    6    0  503  0.11626737441E+03 -0.26849473534E+03  0.15727109137E+03  0.33217724401E+03  0.00000000000E+00 0.  1.
<mgrwt>
<rscale>  0 0.20144990E+04</rscale>
<asrwt>0</asrwt>
<pdfrwt beam="1">  1        1 0.18334620E+00 0.20144990E+04</pdfrwt>
<pdfrwt beam="2">  1       -1 0.13097111E+00 0.20144990E+04</pdfrwt>
<totfact> 0.49966142E+00</totfact>
</mgrwt>
</event>
<event>
12    3  0.8686020E-008  0.2653907E+04  0.7818608E-02  0.8350118E-01
         -2   -1    0    0    0  501 -0.00000000000E+00  0.00000000000E+00  0.77970671552E+03  0.77970671552E+03  0.00000000000E+00 0. -1.
          2   -1    0    0  501    0  0.00000000000E+00 -0.00000000000E+00 -0.22582914029E+04  0.22582914029E+04  0.00000000000E+00 0.  1.
         23    2    1    2    0    0  0.51010032892E+02 -0.11443114907E+04 -0.36653422056E+03  0.12060998795E+04  0.90987765273E+02 0.  0.
        254    2    1    2    0    0 -0.51010032892E+02  0.11443114907E+04 -0.11120504668E+04  0.18318982389E+04  0.89841199114E+03 0.  0.
         23    2    4    4    0    0  0.15237108688E+03  0.63609159969E+03 -0.10922679820E+04  0.12764664958E+04  0.92129794761E+02 0.  0.
         23    2    4    4    0    0 -0.20338111977E+03  0.50821989098E+03 -0.19782484880E+02  0.55543174315E+03  0.91987700959E+02 0.  0.
          2    1    3    3  502    0  0.21369604210E+02 -0.16626251725E+03 -0.84750493577E+02  0.18783644691E+03  0.00000000000E+00 0. -1.
         -2    1    3    3    0  502  0.29640428682E+02 -0.97804897342E+03 -0.28178372698E+03  0.10182634326E+04  0.00000000000E+00 0.  1.
         13    1    5    5    0    0  0.14739768649E+03  0.56987875623E+03 -0.10246904050E+04  0.11817268301E+04  0.00000000000E+00 0. -1.
        -13    1    5    5    0    0  0.49734003882E+01  0.66212843460E+02 -0.67577576974E+02  0.94739665717E+02  0.00000000000E+00 0.  1.
          3    1    6    6  503    0 -0.12540331120E+03  0.31563606293E+03  0.32489065808E+02  0.34118565926E+03  0.00000000000E+00 0. -1.
         -3    1    6    6    0  503 -0.77977808572E+02  0.19258382804E+03 -0.52271550688E+02  0.21424608390E+03  0.00000000000E+00 0.  1.
<mgrwt>
<rscale>  0 0.26539065E+04</rscale>
<asrwt>0</asrwt>
<pdfrwt beam="1">  1        2 0.34742944E+00 0.26539065E+04</pdfrwt>
<pdfrwt beam="2">  1       -2 0.11995488E+00 0.26539065E+04</pdfrwt>
<totfact> 0.22403958E+00</totfact>
</mgrwt>
</event>
<event>
12    3  0.8686020E-008  0.1939671E+04  0.7818608E-02  0.8635358E-01
          1   -1    0    0  501    0  0.00000000000E+00  0.00000000000E+00  0.12959670205E+04  0.12959670205E+04  0.00000000000E+00 0. -1.
         -1   -1    0    0    0  501 -0.00000000000E+00 -0.00000000000E+00 -0.72577537642E+03  0.72577537642E+03  0.00000000000E+00 0.  1.
         23    2    1    2    0    0 -0.45416399135E+03  0.37993396833E+03 -0.27198410283E+03  0.65492446353E+03  0.65847926420E+02 0.  0.
        254    2    1    2    0    0  0.45416399135E+03 -0.37993396833E+03  0.84217574693E+03  0.13668179334E+04  0.89906424855E+03 0.  0.
         23    2    4    4    0    0  0.55392989647E+03 -0.32780121719E+03  0.16056570421E+03  0.67001707437E+03  0.94072133930E+02 0.  0.
         23    2    4    4    0    0 -0.99765905117E+02 -0.52132751138E+02  0.68161004272E+03  0.69680085903E+03  0.90929243058E+02 0.  0.
          2    1    3    3  502    0 -0.41679272305E+03  0.35644760555E+03 -0.23239572633E+03  0.59563314474E+03  0.00000000000E+00 0. -1.
         -2    1    3    3    0  502 -0.37371268300E+02  0.23486362774E+02 -0.39588376501E+02  0.59291318797E+02  0.00000000000E+00 0.  1.
         13    1    5    5    0    0  0.86695768905E+02 -0.36606567755E+02  0.56364663143E+02  0.10969581761E+03  0.00000000000E+00 0. -1.
        -13    1    5    5    0    0  0.46723412757E+03 -0.29119464943E+03  0.10420104106E+03  0.56032125676E+03  0.00000000000E+00 0.  1.
          3    1    6    6  503    0 -0.13781847864E+02  0.21980832948E+02  0.68045383143E+02  0.72823557416E+02  0.00000000000E+00 0. -1.
         -3    1    6    6    0  503 -0.85984057253E+02 -0.74113584086E+02  0.61356465958E+03  0.62397730161E+03  0.00000000000E+00 0.  1.
<mgrwt>
<rscale>  0 0.19396711E+04</rscale>
<asrwt>0</asrwt>
<pdfrwt beam="1">  1        1 0.19937954E+00 0.19396711E+04</pdfrwt>
<pdfrwt beam="2">  1       -1 0.11165775E+00 0.19396711E+04</pdfrwt>
<totfact> 0.62544313E+00</totfact>
</mgrwt>
</event>
<event>
12    3  0.8686020E-008  0.2630007E+04  0.7818608E-02  0.8358079E-01
         -1   -1    0    0    0  501 -0.00000000000E+00  0.00000000000E+00  0.43616337529E+03  0.43616337529E+03  0.00000000000E+00 0.  1.
          1   -1    0    0  501    0  0.00000000000E+00 -0.00000000000E+00 -0.39646481974E+04  0.39646481974E+04  0.00000000000E+00 0. -1.
         23    2    1    2    0    0  0.50511114340E+03  0.10431748929E+04 -0.16287402791E+04  0.20010122403E+04  0.88904243727E+02 0.  0.
        254    2    1    2    0    0 -0.50511114340E+03 -0.10431748929E+04 -0.18997445429E+04  0.23997993323E+04  0.89814051394E+03 0.  0.
         23    2    4    4    0    0 -0.39571140259E+03 -0.46825450242E+03 -0.28908519619E+03  0.68389422253E+03  0.91056376940E+02 0.  0.
         23    2    4    4    0    0 -0.10939974081E+03 -0.57492039048E+03 -0.16106593467E+04  0.17159051098E+04  0.87206971973E+02 0.  0.
          1    1    3    3  502    0 -0.33475541795E+01  0.40627187689E+01 -0.11076278263E+02  0.12263594210E+02  0.00000000000E+00 0. -1.
         -1    1    3    3    0  502  0.50845869758E+03  0.10391121741E+04 -0.16176640009E+04  0.19887486461E+04  0.00000000000E+00 0.  1.
         13    1    5    5    0    0  0.10395049337E+01  0.15579646643E+01 -0.71953585742E+01  0.74351199999E+01  0.00000000000E+00 0.  1.
        -13    1    5    5    0    0 -0.39675090752E+03 -0.46981246709E+03 -0.28188983761E+03  0.67645910253E+03  0.00000000000E+00 0. -1.
          2    1    6    6  503    0 -0.11129926390E+03 -0.45442791337E+03 -0.12018285178E+04  0.12896836980E+04  0.00000000000E+00 0. -1.
         -2    1    6    6    0  503  0.18995230910E+01 -0.12049247711E+03 -0.40883082889E+03  0.42622141180E+03  0.00000000000E+00 0.  1.
<mgrwt>
<rscale>  0 0.26300071E+04</rscale>
<asrwt>0</asrwt>
<pdfrwt beam="1">  1        1 0.60994590E+00 0.26300071E+04</pdfrwt>
<pdfrwt beam="2">  1       -1 0.67102055E-01 0.26300071E+04</pdfrwt>
<totfact> 0.20393674E-01</totfact>
</mgrwt>
</event>
<event>
12    3  0.8686020E-008  0.1969858E+04  0.7818608E-02  0.8620844E-01
          1   -1    0    0  501    0  0.00000000000E+00  0.00000000000E+00  0.16072757999E+04  0.16072757999E+04  0.00000000000E+00 0. -1.
         -1   -1    0    0    0  501 -0.00000000000E+00 -0.00000000000E+00 -0.60355880008E+03  0.60355880008E+03  0.00000000000E+00 0.  1.
         23    2    1    2    0    0  0.49011370488E+03  0.52396335971E+03  0.78798660513E+02  0.72766609901E+03  0.92410371288E+02 0.  0.
        254    2    1    2    0    0 -0.49011370488E+03 -0.52396335971E+03  0.92491833933E+03  0.14831685010E+04  0.91080504056E+03 0.  0.
         23    2    4    4    0    0 -0.59249643806E+03  0.12567831118E+02  0.40696878586E+03  0.72433180109E+03  0.88447645057E+02 0.  0.
         23    2    4    4    0    0  0.10238273318E+03 -0.53653119083E+03  0.51794955347E+03  0.75883669991E+03  0.95986740758E+02 0.  0.
          3    1    3    3  502    0  0.35704152315E+02  0.22748026256E+02  0.24591180984E+02  0.48959017282E+02  0.00000000000E+00 0. -1.
         -3    1    3    3    0  502  0.45440955256E+03  0.50121533345E+03  0.54207479529E+02  0.67870708173E+03  0.00000000000E+00 0.  1.
         13    1    5    5    0    0 -0.44041997393E+03  0.43834759507E+02  0.32208903335E+03  0.54738705226E+03  0.00000000000E+00 0.  1.
        -13    1    5    5    0    0 -0.15207646413E+03 -0.31266928390E+02  0.84879752512E+02  0.17694474883E+03  0.00000000000E+00 0. -1.
          3    1    6    6  503    0  0.50145736761E+02 -0.78822628265E+02  0.75788146467E+02  0.12029731829E+03  0.00000000000E+00 0. -1.
         -3    1    6    6    0  503  0.52236996422E+02 -0.45770856256E+03  0.44216140700E+03  0.63853938162E+03  0.00000000000E+00 0.  1.
<mgrwt>
<rscale>  0 0.19698583E+04</rscale>
<asrwt>0</asrwt>
<pdfrwt beam="1">  1        1 0.24727320E+00 0.19698583E+04</pdfrwt>
<pdfrwt beam="2">  1       -1 0.92855201E-01 0.19698583E+04</pdfrwt>
<totfact> 0.57814084E+00</totfact>
</mgrwt>
</event>
<event>
12    3  0.8686020E-008  0.1456414E+04  0.7818608E-02  0.8913966E-01
         -2   -1    0    0    0  501 -0.00000000000E+00  0.00000000000E+00  0.39214290421E+03  0.39214290421E+03  0.00000000000E+00 0.  1.
          2   -1    0    0  501    0  0.00000000000E+00 -0.00000000000E+00 -0.13522755031E+04  0.13522755031E+04  0.00000000000E+00 0. -1.
         23    2    1    2    0    0 -0.43931444229E+02  0.24160926962E+03  0.14364674320E+03  0.29866943883E+03  0.90906742886E+02 0.  0.
        254    2    1    2    0    0  0.43931444229E+02 -0.24160926962E+03 -0.11037793421E+04  0.14457489685E+04  0.90086415894E+03 0.  0.
         23    2    4    4    0    0  0.36809929793E+03  0.98729065901E+02 -0.76081887119E+03  0.85677253824E+03  0.99846411733E+02 0.  0.
         23    2    4    4    0    0 -0.32416785370E+03 -0.34033833552E+03 -0.34296047089E+03  0.58897643023E+03  0.91413187086E+02 0.  0.
          3    1    3    3  502    0 -0.60597770834E+02  0.88421190671E+02  0.49285389111E+02  0.11798070338E+03  0.00000000000E+00 0. -1.
         -3    1    3    3    0  502  0.16666326605E+02  0.15318807895E+03  0.94361354090E+02  0.18068873545E+03  0.00000000000E+00 0.  1.
         13    1    5    5    0    0  0.29786968846E+03  0.50854360364E+02 -0.65260412867E+03  0.71916942791E+03  0.00000000000E+00 0. -1.
        -13    1    5    5    0    0  0.70229609466E+02  0.47874705536E+02 -0.10821474252E+03  0.13760311033E+03  0.00000000000E+00 0.  1.
          2    1    6    6  503    0 -0.25854207835E+03 -0.21353152972E+03 -0.25511623816E+03  0.42133598877E+03  0.00000000000E+00 0. -1.
         -2    1    6    6    0  503 -0.65625775351E+02 -0.12680680580E+03 -0.87844232731E+02  0.16764044145E+03  0.00000000000E+00 0.  1.
<mgrwt>
<rscale>  0 0.14564137E+04</rscale>
<asrwt>0</asrwt>
<pdfrwt beam="1">  1        2 0.20804239E+00 0.14564137E+04</pdfrwt>
<pdfrwt beam="2">  1       -2 0.60329677E-01 0.14564137E+04</pdfrwt>
<totfact> 0.38249670E+01</totfact>
</mgrwt>
</event>
<event>
12    3  0.8686020E-008  0.2211641E+04  0.7818608E-02  0.8513599E-01
          2   -1    0    0  501    0  0.00000000000E+00  0.00000000000E+00  0.28290526527E+04  0.28290526527E+04  0.00000000000E+00 0. -1.
         -2   -1    0    0    0  501 -0.00000000000E+00 -0.00000000000E+00 -0.43224308094E+03  0.43224308094E+03  0.00000000000E+00 0.  1.
         23    2    1    2    0    0 -0.16515421547E+03  0.90210920817E+03  0.90320206234E+03  0.12906107079E+04  0.93941979197E+02 0.  0.
        254    2    1    2    0    0  0.16515421547E+03 -0.90210920817E+03  0.14936075094E+04  0.19706850258E+04  0.90092127308E+03 0.  0.
         23    2    4    4    0    0  0.21243351461E+03 -0.32839445012E+03  0.12944990986E+04  0.13554356475E+04  0.92233211634E+02 0.  0.
         23    2    4    4    0    0 -0.47279299140E+02 -0.57371475805E+03  0.19910841088E+03  0.61524937830E+03  0.86623798623E+02 0.  0.
          3    1    3    3  502    0 -0.10924601219E+03  0.35969052189E+03  0.39330281710E+03  0.54405796443E+03  0.00000000000E+00 0. -1.
         -3    1    3    3    0  502 -0.55908203275E+02  0.54241868629E+03  0.50989924524E+03  0.74655274343E+03  0.00000000000E+00 0.  1.
         13    1    5    5    0    0  0.15971672599E+03 -0.29915967207E+03  0.10399943747E+04  0.10938895015E+04  0.00000000000E+00 0.  1.
        -13    1    5    5    0    0  0.52716788616E+02 -0.29234778057E+02  0.25450472382E+03  0.26154614601E+03  0.00000000000E+00 0. -1.
          3    1    6    6  503    0 -0.37155037084E+02 -0.50843069090E+03  0.20380963287E+03  0.54901787829E+03  0.00000000000E+00 0. -1.
         -3    1    6    6    0  503 -0.10124262056E+02 -0.65284067149E+02 -0.47012219938E+01  0.66231500012E+02  0.00000000000E+00 0.  1.
<mgrwt>
<rscale>  0 0.22116405E+04</rscale>
<asrwt>0</asrwt>
<pdfrwt beam="1">  1        2 0.43523886E+00 0.22116405E+04</pdfrwt>
<pdfrwt beam="2">  1       -2 0.66498937E-01 0.22116405E+04</pdfrwt>
<totfact> 0.42169190E+00</totfact>
</mgrwt>
</event>
<event>
12    3  0.8686020E-008  0.2284444E+04  0.7818608E-02  0.8484080E-01
         -2   -1    0    0    0  501 -0.00000000000E+00  0.00000000000E+00  0.60037053163E+03  0.60037053163E+03  0.00000000000E+00 0.  1.
          2   -1    0    0  501    0  0.00000000000E+00 -0.00000000000E+00 -0.21731095920E+04  0.21731095920E+04  0.00000000000E+00 0. -1.
         23    2    1    2    0    0  0.94066164365E+03  0.14923232040E+03 -0.82932855272E+03  0.12660542448E+04  0.89402958759E+02 0.  0.
        254    2    1    2    0    0 -0.94066164365E+03 -0.14923232040E+03 -0.74341050766E+03  0.15074258789E+04  0.90142053678E+03 0.  0.
         23    2    4    4    0    0 -0.13483256128E+03  0.12751180909E+03  0.15850084395E+03  0.26343764342E+03  0.99185651193E+02 0.  0.
         23    2    4    4    0    0 -0.80582908237E+03 -0.27674412949E+03 -0.90191135161E+03  0.12439882355E+04  0.90082299023E+02 0.  0.
          2    1    3    3  502    0  0.51001678958E+03  0.47495271534E+02 -0.48449448726E+03  0.70505874553E+03  0.00000000000E+00 0. -1.
         -2    1    3    3    0  502  0.43064485408E+03  0.10173704887E+03 -0.34483406546E+03  0.56099549923E+03  0.00000000000E+00 0.  1.
         13    1    5    5    0    0 -0.59120305849E+02  0.11600767707E+03  0.75522102845E+02  0.15052102750E+03  0.00000000000E+00 0. -1.
        -13    1    5    5    0    0 -0.75712255432E+02  0.11504132020E+02  0.82978741102E+02  0.11291661592E+03  0.00000000000E+00 0.  1.
          4    1    6    6  503    0 -0.71609399588E+03 -0.21470769419E+03 -0.78084889003E+03  0.10810249738E+04  0.00000000000E+00 0. -1.
         -4    1    6    6    0  503 -0.89735086488E+02 -0.62036435307E+02 -0.12106246158E+03  0.16296326168E+03  0.00000000000E+00 0.  1.
<mgrwt>
<rscale>  0 0.22844439E+04</rscale>
<asrwt>0</asrwt>
<pdfrwt beam="1">  1        2 0.33432455E+00 0.22844439E+04</pdfrwt>
<pdfrwt beam="2">  1       -2 0.92364697E-01 0.22844439E+04</pdfrwt>
<totfact> 0.48296537E+00</totfact>
</mgrwt>
</event>
<event>
12    3  0.8686020E-008  0.1776048E+04  0.7818608E-02  0.8719142E-01
          2   -1    0    0  501    0  0.00000000000E+00  0.00000000000E+00  0.21016072217E+04  0.21016072217E+04  0.00000000000E+00 0.  1.
         -2   -1    0    0    0  501 -0.00000000000E+00 -0.00000000000E+00 -0.37523029723E+03  0.37523029723E+03  0.00000000000E+00 0. -1.
         23    2    1    2    0    0  0.44665717801E+03  0.45332536397E+03  0.87027066196E+03  0.10809512488E+04  0.77961894429E+02 0.  0.
        254    2    1    2    0    0 -0.44665717801E+03 -0.45332536397E+03  0.85610626256E+03  0.13958862702E+04  0.90031884694E+03 0.  0.
         23    2    4    4    0    0  0.21886647131E+03 -0.22549882708E+03  0.64751928814E+02  0.33307099048E+03  0.89393619082E+02 0.  0.
         23    2    4    4    0    0 -0.66552364932E+03 -0.22782653688E+03  0.79135433374E+03  0.10628152797E+04  0.92238703763E+02 0.  0.
          3    1    3    3  502    0  0.16188548562E+03  0.14225432113E+03  0.35251331758E+03  0.41316926484E+03  0.00000000000E+00 0.  1.
         -3    1    3    3    0  502  0.28477169239E+03  0.31107104284E+03  0.51775734438E+03  0.66778198399E+03  0.00000000000E+00 0. -1.
         13    1    5    5    0    0  0.15775649778E+03 -0.19049913311E+03  0.81978673317E+02  0.26057155483E+03  0.00000000000E+00 0. -1.
        -13    1    5    5    0    0  0.61109973530E+02 -0.34999693974E+02 -0.17226744503E+02  0.72499435648E+02  0.00000000000E+00 0.  1.
          4    1    6    6  503    0 -0.14288519727E+03 -0.18400784817E+02  0.12784363345E+03  0.19261039197E+03  0.00000000000E+00 0. -1.
         -4    1    6    6    0  503 -0.52263845206E+03 -0.20942575206E+03  0.66351070030E+03  0.87020488771E+03  0.00000000000E+00 0.  1.
<mgrwt>
<rscale>  0 0.17760481E+04</rscale>
<asrwt>0</asrwt>
<pdfrwt beam="1">  1        2 0.32332418E+00 0.17760481E+04</pdfrwt>
<pdfrwt beam="2">  1       -2 0.57727739E-01 0.17760481E+04</pdfrwt>
<totfact> 0.15585530E+01</totfact>
</mgrwt>
</event>
<event>
12    3  0.8686020E-008  0.1238628E+04  0.7818608E-02  0.9079702E-01
         -1   -1    0    0    0  501 -0.00000000000E+00  0.00000000000E+00  0.13885943363E+04  0.13885943363E+04  0.00000000000E+00 0.  1.
          1   -1    0    0  501    0  0.00000000000E+00 -0.00000000000E+00 -0.27621431488E+03  0.27621431488E+03  0.00000000000E+00 0. -1.
         23    2    1    2    0    0  0.60801926009E+02  0.27701642404E+03  0.27781064299E+03  0.40401553516E+03  0.74932141931E+02 0.  0.
        254    2    1    2    0    0 -0.60801926009E+02 -0.27701642404E+03  0.83456937838E+03  0.12607931160E+04  0.90147560177E+03 0.  0.
         23    2    4    4    0    0 -0.95497789730E+02 -0.37300102790E+03 -0.19000095923E+02  0.39615868328E+03  0.91274881731E+02 0.  0.
         23    2    4    4    0    0  0.34695863721E+02  0.95984603858E+02  0.85356947430E+03  0.86463443270E+03  0.92709263912E+02 0.  0.
          1    1    3    3  502    0  0.36986931774E+02  0.96608984182E+02  0.57796069580E+02  0.11849774093E+03  0.00000000000E+00 0. -1.
         -1    1    3    3    0  502  0.23814994235E+02  0.18040743986E+03  0.22001457341E+03  0.28551779423E+03  0.00000000000E+00 0.  1.
         13    1    5    5    0    0 -0.90395467565E+02 -0.29772321624E+03 -0.48970026781E+02  0.31497383633E+03  0.00000000000E+00 0.  1.
        -13    1    5    5    0    0 -0.51023221646E+01 -0.75277811656E+02  0.29969930859E+02  0.81184846953E+02  0.00000000000E+00 0. -1.
          3    1    6    6  503    0  0.39746409751E+02  0.60851922474E+01  0.14882568340E+03  0.15416189767E+03  0.00000000000E+00 0. -1.
         -3    1    6    6    0  503 -0.50505460298E+01  0.89899411610E+02  0.70474379091E+03  0.71047253504E+03  0.00000000000E+00 0.  1.
<mgrwt>
<rscale>  0 0.12386277E+04</rscale>
<asrwt>0</asrwt>
<pdfrwt beam="1">  1        1 0.42494511E-01 0.12386277E+04</pdfrwt>
<pdfrwt beam="2">  1       -1 0.21362989E+00 0.12386277E+04</pdfrwt>
<totfact> 0.11714457E+01</totfact>
</mgrwt>
</event>
<event>
12    3  0.8686020E-008  0.2192025E+04  0.7818608E-02  0.8521755E-01
         -2   -1    0    0    0  501 -0.00000000000E+00  0.00000000000E+00  0.17001437285E+04  0.17001437285E+04  0.00000000000E+00 0.  1.
          2   -1    0    0  501    0  0.00000000000E+00 -0.00000000000E+00 -0.70655396016E+03  0.70655396016E+03  0.00000000000E+00 0. -1.
         23    2    1    2    0    0 -0.86633644513E+03  0.14773608294E+02  0.11498887733E+03  0.87871399754E+03  0.90325809666E+02 0.  0.
        254    2    1    2    0    0  0.86633644513E+03 -0.14773608294E+02  0.87860089097E+03  0.15279836911E+04  0.90113125513E+03 0.  0.
         23    2    4    4    0    0  0.89029437482E+03 -0.30209811467E+03  0.72525319589E+03  0.11911384053E+04  0.94504803024E+02 0.  0.
         23    2    4    4    0    0 -0.23957929693E+02  0.28732450638E+03  0.15334769509E+03  0.33684528576E+03  0.82582544097E+02 0.  0.
          2    1    3    3  502    0 -0.57579908533E+03  0.51287379038E+02  0.86383028520E+02  0.58449722799E+03  0.00000000000E+00 0. -1.
         -2    1    3    3    0  502 -0.29053735980E+03 -0.36513770744E+02  0.28605848812E+02  0.29421676954E+03  0.00000000000E+00 0.  1.
         13    1    5    5    0    0  0.83550334950E+03 -0.29222054526E+03  0.65308218795E+03  0.10999886537E+04  0.00000000000E+00 0. -1.
        -13    1    5    5    0    0  0.54791025329E+02 -0.98775694159E+01  0.72171007932E+02  0.91149751619E+02  0.00000000000E+00 0.  1.
          3    1    6    6  503    0  0.14272237620E+02  0.19724619904E+03  0.12863830741E+03  0.23591857480E+03  0.00000000000E+00 0. -1.
         -3    1    6    6    0  503 -0.38230167312E+02  0.90078307338E+02  0.24709387675E+02  0.10092671096E+03  0.00000000000E+00 0.  1.
<mgrwt>
<rscale>  0 0.21920249E+04</rscale>
<asrwt>0</asrwt>
<pdfrwt beam="1">  1        2 0.10870061E+00 0.21920249E+04</pdfrwt>
<pdfrwt beam="2">  1       -2 0.26156057E+00 0.21920249E+04</pdfrwt>
<totfact> 0.20211813E+00</totfact>
</mgrwt>
</event>
<event>
12    3  0.8686020E-008  0.2157107E+04  0.7818608E-02  0.8536496E-01
          2   -1    0    0  501    0  0.00000000000E+00  0.00000000000E+00  0.29559641764E+04  0.29559641764E+04  0.00000000000E+00 0.  1.
         -2   -1    0    0    0  501 -0.00000000000E+00 -0.00000000000E+00 -0.39353582395E+03  0.39353582395E+03  0.00000000000E+00 0. -1.
         23    2    1    2    0    0 -0.83908339915E+03  0.81118919789E+02  0.14945525188E+04  0.17182814404E+04  0.90347367952E+02 0.  0.
        254    2    1    2    0    0  0.83908339915E+03 -0.81118919789E+02  0.10678758336E+04  0.16312185600E+04  0.89992997754E+03 0.  0.
         23    2    4    4    0    0  0.42340634153E+03  0.23764758779E+03  0.70049971273E+02  0.50065152617E+03  0.99978228381E+02 0.  0.
         23    2    4    4    0    0  0.41567705763E+03 -0.31876650758E+03  0.99782586232E+03  0.11305670338E+04  0.90143573047E+02 0.  0.
          1    1    3    3  502    0 -0.63071037604E+03  0.97568667818E+02  0.10976875077E+04  0.12697374090E+04  0.00000000000E+00 0. -1.
         -1    1    3    3    0  502 -0.20837302311E+03 -0.16449748029E+02  0.39686501115E+03  0.44854403133E+03  0.00000000000E+00 0.  1.
         13    1    5    5    0    0  0.37961747988E+03  0.22849415773E+03  0.36204922293E+02  0.44455574178E+03  0.00000000000E+00 0. -1.
        -13    1    5    5    0    0  0.43788861645E+02  0.91534300657E+01  0.33845048980E+02  0.56095784392E+02  0.00000000000E+00 0.  1.
          4    1    6    6  503    0  0.34566662553E+03 -0.24393885996E+03  0.86392044061E+03  0.96195119997E+03  0.00000000000E+00 0. -1.
         -4    1    6    6    0  503  0.70010432094E+02 -0.74827647620E+02  0.13390542171E+03  0.16861583382E+03  0.00000000000E+00 0.  1.
<mgrwt>
<rscale>  0 0.21571071E+04</rscale>
<asrwt>0</asrwt>
<pdfrwt beam="1">  1        2 0.45476371E+00 0.21571071E+04</pdfrwt>
<pdfrwt beam="2">  1       -2 0.60543975E-01 0.21571071E+04</pdfrwt>
<totfact> 0.43290449E+00</totfact>
</mgrwt>
</event>
<event>
12    3  0.8686020E-008  0.1959941E+04  0.7818608E-02  0.8625582E-01
         -2   -1    0    0    0  501 -0.00000000000E+00  0.00000000000E+00  0.64886541951E+03  0.64886541951E+03  0.00000000000E+00 0.  1.
          2   -1    0    0  501    0  0.00000000000E+00 -0.00000000000E+00 -0.14800330879E+04  0.14800330879E+04  0.00000000000E+00 0. -1.
         23    2    1    2    0    0  0.62501827023E+03  0.19941560207E+03 -0.76670303150E+03  0.10132149823E+04  0.91414667025E+02 0.  0.
        254    2    1    2    0    0 -0.62501827023E+03 -0.19941560207E+03 -0.64464636901E+02  0.11156835251E+04  0.90009978245E+03 0.  0.
         23    2    4    4    0    0 -0.66539044705E+03 -0.43707024101E+02  0.27671945815E+03  0.72765997145E+03  0.90887978008E+02 0.  0.
         23    2    4    4    0    0  0.40372176813E+02 -0.15570857796E+03 -0.34118409505E+03  0.38802355369E+03  0.90997898806E+02 0.  0.
          3    1    3    3  502    0  0.20211752662E+03  0.20710999786E+02 -0.22659784646E+03  0.30434688120E+03  0.00000000000E+00 0. -1.
         -3    1    3    3    0  502  0.42290074362E+03  0.17870460228E+03 -0.54010518504E+03  0.70886810109E+03  0.00000000000E+00 0.  1.
         13    1    5    5    0    0 -0.32169332296E+03 -0.45028469107E+02  0.17631044032E+03  0.36959373430E+03  0.00000000000E+00 0.  1.
        -13    1    5    5    0    0 -0.34369712408E+03  0.13214450055E+01  0.10040901783E+03  0.35806623714E+03  0.00000000000E+00 0. -1.
          1    1    6    6  503    0  0.13525781728E+02 -0.15574921490E+03 -0.30741148402E+03  0.34488053761E+03  0.00000000000E+00 0. -1.
         -1    1    6    6    0  503  0.26846395085E+02  0.40636937489E-01 -0.33772611035E+02  0.43143016081E+02  0.00000000000E+00 0.  1.
<mgrwt>
<rscale>  0 0.19599411E+04</rscale>
<asrwt>0</asrwt>
<pdfrwt beam="1">  1        2 0.22769739E+00 0.19599411E+04</pdfrwt>
<pdfrwt beam="2">  1       -2 0.99825451E-01 0.19599411E+04</pdfrwt>
<totfact> 0.10073377E+01</totfact>
</mgrwt>
</event>
<event>
12    3  0.8686020E-008  0.5079404E+04  0.7818608E-02  0.7816374E-01
         -1   -1    0    0    0  501 -0.00000000000E+00  0.00000000000E+00  0.24250894991E+04  0.24250894991E+04  0.00000000000E+00 0.  1.
          1   -1    0    0  501    0  0.00000000000E+00 -0.00000000000E+00 -0.26597310476E+04  0.26597310476E+04  0.00000000000E+00 0. -1.
         23    2    1    2    0    0 -0.24557923039E+04  0.13020345649E+03 -0.97866496424E+02  0.24627907569E+04  0.88835135905E+02 0.  0.
        254    2    1    2    0    0  0.24557923039E+04 -0.13020345649E+03 -0.13677505207E+03  0.26220297898E+04  0.89914627494E+03 0.  0.
         23    2    4    4    0    0  0.12684845313E+04 -0.17915482620E+03  0.35491103011E+03  0.13326872180E+04  0.94572319633E+02 0.  0.
         23    2    4    4    0    0  0.11873077726E+04  0.48951369707E+02 -0.49168608218E+03  0.12893425718E+04  0.92482867323E+02 0.  0.
          3    1    3    3  502    0 -0.16847304581E+04  0.90321507984E+02 -0.10837014509E+03  0.16906267416E+04  0.00000000000E+00 0. -1.
         -3    1    3    3    0  502 -0.77106184582E+03  0.39881948510E+02  0.10503648665E+02  0.77216401531E+03  0.00000000000E+00 0.  1.
         13    1    5    5    0    0  0.10562235429E+04 -0.11720476280E+03  0.27660530923E+03  0.10981145778E+04  0.00000000000E+00 0. -1.
        -13    1    5    5    0    0  0.21226098848E+03 -0.61950063400E+02  0.78305720879E+02  0.23457264015E+03  0.00000000000E+00 0.  1.
          3    1    6    6  503    0  0.76594832977E+03  0.34448822703E+01 -0.35331137107E+03  0.84351504790E+03  0.00000000000E+00 0. -1.
         -3    1    6    6    0  503  0.42135944278E+03  0.45506487437E+02 -0.13837471110E+03  0.44582752393E+03  0.00000000000E+00 0.  1.
<mgrwt>
<rscale>  0 0.50794038E+04</rscale>
<asrwt>0</asrwt>
<pdfrwt beam="1">  1        1 0.40918939E+00 0.50794038E+04</pdfrwt>
<pdfrwt beam="2">  1       -1 0.37309070E+00 0.50794038E+04</pdfrwt>
<totfact> 0.81893059E-03</totfact>
</mgrwt>
</event>
<event>
12    3  0.8686020E-008  0.1543002E+04  0.7818608E-02  0.8856350E-01
         -2   -1    0    0    0  501 -0.00000000000E+00  0.00000000000E+00  0.29274933616E+03  0.29274933616E+03  0.00000000000E+00 0. -1.
          2   -1    0    0  501    0  0.00000000000E+00 -0.00000000000E+00 -0.20331864605E+04  0.20331864605E+04  0.00000000000E+00 0.  1.
         23    2    1    2    0    0  0.46198949246E+03 -0.19854234721E+03 -0.66262256478E+03  0.83713181671E+03  0.94168255889E+02 0.  0.
        254    2    1    2    0    0 -0.46198949246E+03  0.19854234721E+03 -0.10778145596E+04  0.14888039800E+04  0.89554436583E+03 0.  0.
         23    2    4    4    0    0 -0.61000783403E+03  0.32675989584E+03 -0.46503693877E+03  0.83896924236E+03  0.93426163872E+02 0.  0.
         23    2    4    4    0    0  0.14801834157E+03 -0.12821754863E+03 -0.61277762081E+03  0.64983473762E+03  0.91867319713E+02 0.  0.
          4    1    3    3  502    0  0.23931475136E+03 -0.53134402410E+02 -0.33629802646E+03  0.41616244129E+03  0.00000000000E+00 0.  1.
         -4    1    3    3    0  502  0.22267474110E+03 -0.14540794480E+03 -0.32632453832E+03  0.42096937542E+03  0.00000000000E+00 0. -1.
         13    1    5    5    0    0 -0.49467849442E+03  0.29340877605E+03 -0.41327347873E+03  0.70823053516E+03  0.00000000000E+00 0.  1.
        -13    1    5    5    0    0 -0.11532933961E+03  0.33351119794E+02 -0.51763460039E+02  0.13073870720E+03  0.00000000000E+00 0. -1.
          2    1    6    6  503    0  0.11146955562E+03 -0.36776310080E+02 -0.35403863623E+03  0.37298969792E+03  0.00000000000E+00 0. -1.
         -2    1    6    6    0  503  0.36548785948E+02 -0.91441238547E+02 -0.25873898459E+03  0.27684503970E+03  0.00000000000E+00 0.  1.
<mgrwt>
<rscale>  0 0.15430023E+04</rscale>
<asrwt>0</asrwt>
<pdfrwt beam="1">  1        2 0.31279792E+00 0.15430023E+04</pdfrwt>
<pdfrwt beam="2">  1       -2 0.45038359E-01 0.15430023E+04</pdfrwt>
<totfact> 0.28840377E+01</totfact>
</mgrwt>
</event>
<event>
12    3  0.8686020E-008  0.3447665E+04  0.7818608E-02  0.8126306E-01
         -2   -1    0    0    0  501 -0.00000000000E+00  0.00000000000E+00  0.12022074719E+04  0.12022074719E+04  0.00000000000E+00 0. -1.
          2   -1    0    0  501    0  0.00000000000E+00 -0.00000000000E+00 -0.24717846158E+04  0.24717846158E+04  0.00000000000E+00 0.  1.
         23    2    1    2    0    0 -0.56462029694E+03 -0.13910412058E+04 -0.11942383288E+04  0.19204774494E+04  0.90756441132E+02 0.  0.
        254    2    1    2    0    0  0.56462029694E+03  0.13910412058E+04 -0.75338815027E+02  0.17535146384E+04  0.90296507907E+03 0.  0.
         23    2    4    4    0    0  0.52544727800E+03  0.10943423239E+04 -0.42023709699E+03  0.12877557389E+04  0.89641851689E+02 0.  0.
         23    2    4    4    0    0  0.39173018934E+02  0.29669888189E+03  0.34489828196E+03  0.46575889946E+03  0.91715732567E+02 0.  0.
          1    1    3    3  502    0 -0.49357747170E+03 -0.12535288789E+04 -0.10395588877E+04  0.17016568548E+04  0.00000000000E+00 0. -1.
         -1    1    3    3    0  502 -0.71042825234E+02 -0.13751232692E+03 -0.15467944114E+03  0.21882059452E+03  0.00000000000E+00 0.  1.
         13    1    5    5    0    0  0.50801879193E+03  0.10166471541E+04 -0.40609636161E+03  0.12068839148E+04  0.00000000000E+00 0.  1.
        -13    1    5    5    0    0  0.17428486073E+02  0.77695169838E+02 -0.14140735377E+02  0.80871824141E+02  0.00000000000E+00 0. -1.
          4    1    6    6  503    0  0.17768610122E+02  0.73833890435E+01  0.71612832734E+01  0.20530998942E+02  0.00000000000E+00 0. -1.
         -4    1    6    6    0  503  0.21404408811E+02  0.28931549284E+03  0.33773699869E+03  0.44522790052E+03  0.00000000000E+00 0.  1.
<mgrwt>
<rscale>  0 0.34476647E+04</rscale>
<asrwt>0</asrwt>
<pdfrwt beam="1">  1        2 0.38027456E+00 0.34476647E+04</pdfrwt>
<pdfrwt beam="2">  1       -2 0.18495500E+00 0.34476647E+04</pdfrwt>
<totfact> 0.50008133E-01</totfact>
</mgrwt>
</event>
<event>
12    3  0.8686020E-008  0.1954264E+04  0.7818608E-02  0.8628307E-01
          1   -1    0    0  501    0  0.00000000000E+00  0.00000000000E+00  0.11852465467E+04  0.11852465467E+04  0.00000000000E+00 0. -1.
         -1   -1    0    0    0  501 -0.00000000000E+00 -0.00000000000E+00 -0.80556016353E+03  0.80556016353E+03  0.00000000000E+00 0.  1.
         23    2    1    2    0    0  0.62199524698E+03 -0.30130754313E+03  0.48579829191E+03  0.84946322164E+03  0.89013828680E+02 0.  0.
        254    2    1    2    0    0 -0.62199524698E+03  0.30130754313E+03 -0.10611190870E+03  0.11413434886E+04  0.90207588320E+03 0.  0.
         23    2    4    4    0    0 -0.49913464548E+03 -0.18798705439E+03 -0.26822716781E+03  0.60397170045E+03  0.91441098258E+02 0.  0.
         23    2    4    4    0    0 -0.12286060150E+03  0.48929459751E+03  0.16211525911E+03  0.53737178818E+03  0.89348480348E+02 0.  0.
          3    1    3    3  502    0  0.36732288430E+03 -0.16073061076E+03  0.33112175550E+03  0.52000196878E+03  0.00000000000E+00 0. -1.
         -3    1    3    3    0  502  0.25467236267E+03 -0.14057693237E+03  0.15467653641E+03  0.32946125287E+03  0.00000000000E+00 0.  1.
         13    1    5    5    0    0 -0.16457432350E+03 -0.27374811219E+02 -0.11411306557E+03  0.20212837499E+03  0.00000000000E+00 0. -1.
        -13    1    5    5    0    0 -0.33456032198E+03 -0.16061224317E+03 -0.15411410225E+03  0.40184332546E+03  0.00000000000E+00 0.  1.
          4    1    6    6  503    0 -0.10604155670E+03  0.31177263799E+03  0.13944417943E+03  0.35761944679E+03  0.00000000000E+00 0. -1.
         -4    1    6    6    0  503 -0.16819044797E+02  0.17752195952E+03  0.22671079679E+02  0.17975234139E+03  0.00000000000E+00 0.  1.
<mgrwt>
<rscale>  0 0.19542645E+04</rscale>
<asrwt>0</asrwt>
<pdfrwt beam="1">  1        1 0.18234562E+00 0.19542645E+04</pdfrwt>
<pdfrwt beam="2">  1       -1 0.12393233E+00 0.19542645E+04</pdfrwt>
<totfact> 0.58334803E+00</totfact>
</mgrwt>
</event>
<event>
12    3  0.8686020E-008  0.1196166E+04  0.7818608E-02  0.9116219E-01
          2   -1    0    0  501    0  0.00000000000E+00  0.00000000000E+00  0.41844595135E+04  0.41844595135E+04  0.00000000000E+00 0.  1.
         -2   -1    0    0    0  501 -0.00000000000E+00 -0.00000000000E+00 -0.85483707253E+02  0.85483707253E+02  0.00000000000E+00 0. -1.
         23    2    1    2    0    0  0.20870732562E+03 -0.51859199431E+02  0.13440920420E+04  0.13639236385E+04  0.86349001604E+02 0.  0.
        254    2    1    2    0    0 -0.20870732562E+03  0.51859199431E+02  0.27548837643E+04  0.29060195823E+04  0.89962054965E+03 0.  0.
         23    2    4    4    0    0 -0.38406925179E+03  0.62130878335E+02  0.48895598966E+03  0.63147376953E+03  0.91168665475E+02 0.  0.
         23    2    4    4    0    0  0.17536192617E+03 -0.10271678904E+02  0.22659277746E+04  0.22745458127E+04  0.90954174295E+02 0.  0.
          1    1    3    3  502    0  0.15522271026E+02  0.17095628032E+02  0.78830982359E+02  0.82143320942E+02  0.00000000000E+00 0. -1.
         -1    1    3    3    0  502  0.19318505459E+03 -0.68954827464E+02  0.12652610596E+04  0.12817803176E+04  0.00000000000E+00 0.  1.
         13    1    5    5    0    0 -0.15142039682E+03  0.16435977967E+02  0.12467013155E+03  0.19682713138E+03  0.00000000000E+00 0. -1.
        -13    1    5    5    0    0 -0.23264885497E+03  0.45694900368E+02  0.36428585811E+03  0.43464663815E+03  0.00000000000E+00 0.  1.
          3    1    6    6  503    0  0.28288971674E+02  0.98121216748E+01  0.91456931746E+03  0.91505933146E+03  0.00000000000E+00 0. -1.
         -3    1    6    6    0  503  0.14707295449E+03 -0.20083800579E+02  0.13513584572E+04  0.13594864813E+04  0.00000000000E+00 0.  1.
<mgrwt>
<rscale>  0 0.11961657E+04</rscale>
<asrwt>0</asrwt>
<pdfrwt beam="1">  1        2 0.64376284E+00 0.11961657E+04</pdfrwt>
<pdfrwt beam="2">  1       -2 0.13151343E-01 0.11961657E+04</pdfrwt>
<totfact> 0.10865635E+01</totfact>
</mgrwt>
</event>
<event>
12    3  0.8686020E-008  0.2254799E+04  0.7818608E-02  0.8495960E-01
         -2   -1    0    0    0  501 -0.00000000000E+00  0.00000000000E+00  0.41294411760E+03  0.41294411760E+03  0.00000000000E+00 0. -1.
          2   -1    0    0  501    0  0.00000000000E+00 -0.00000000000E+00 -0.30779698550E+04  0.30779698550E+04  0.00000000000E+00 0.  1.
         23    2    1    2    0    0 -0.83689769196E+03  0.39509359267E+03 -0.13929467348E+04  0.16746888153E+04  0.88234508249E+02 0.  0.
        254    2    1    2    0    0  0.83689769196E+03 -0.39509359267E+03 -0.12720790026E+04  0.18162251573E+04  0.90774012761E+03 0.  0.
         23    2    4    4    0    0 -0.80240668628E+02 -0.59293700797E+02  0.71570885419E+02  0.15288819346E+03  0.91093908705E+02 0.  0.
         23    2    4    4    0    0  0.91713836059E+03 -0.33579989187E+03 -0.13436498881E+04  0.16633369638E+04  0.85967981035E+02 0.  0.
          4    1    3    3  502    0 -0.70231461708E+03  0.36014429334E+03 -0.12151204976E+04  0.14489539527E+04  0.00000000000E+00 0. -1.
         -4    1    3    3    0  502 -0.13458307488E+03  0.34949299330E+02 -0.17782623719E+03  0.22573486261E+03  0.00000000000E+00 0.  1.
         13    1    5    5    0    0 -0.14824312853E+02 -0.22215599008E+02 -0.20749338169E+02  0.33820528164E+02  0.00000000000E+00 0.  1.
        -13    1    5    5    0    0 -0.65416355775E+02 -0.37078101788E+02  0.92320223588E+02  0.11906766529E+03  0.00000000000E+00 0. -1.
          4    1    6    6  503    0  0.64146897053E+03 -0.26958880192E+03 -0.99024613421E+03  0.12102677260E+04  0.00000000000E+00 0. -1.
         -4    1    6    6    0  503  0.27566939005E+03 -0.66211089949E+02 -0.35340375384E+03  0.45306923784E+03  0.00000000000E+00 0.  1.
<mgrwt>
<rscale>  0 0.22547989E+04</rscale>
<asrwt>0</asrwt>
<pdfrwt beam="1">  1        2 0.47353383E+00 0.22547989E+04</pdfrwt>
<pdfrwt beam="2">  1       -2 0.63529864E-01 0.22547989E+04</pdfrwt>
<totfact> 0.32473519E+00</totfact>
</mgrwt>
</event>
<event>
12    3  0.8686020E-008  0.2135419E+04  0.7818608E-02  0.8545799E-01
          2   -1    0    0  501    0  0.00000000000E+00  0.00000000000E+00  0.29518393942E+04  0.29518393942E+04  0.00000000000E+00 0. -1.
         -2   -1    0    0    0  501 -0.00000000000E+00 -0.00000000000E+00 -0.38620117079E+03  0.38620117079E+03  0.00000000000E+00 0.  1.
         23    2    1    2    0    0 -0.64889373358E+03  0.35816861587E+03  0.31871472711E+03  0.81209403793E+03  0.92573291478E+02 0.  0.
        254    2    1    2    0    0  0.64889373358E+03 -0.35816861587E+03  0.22469234963E+04  0.25259465271E+04  0.88452971940E+03 0.  0.
         23    2    4    4    0    0  0.63880779597E+03 -0.33103468659E+03  0.81557934890E+03  0.10913854370E+04  0.91066645063E+02 0.  0.
         23    2    4    4    0    0  0.10085937615E+02 -0.27133929274E+02  0.14313441474E+04  0.14345610901E+04  0.91550404430E+02 0.  0.
          2    1    3    3  502    0 -0.35409336572E+03  0.16966696108E+03  0.21226059038E+03  0.44634465109E+03  0.00000000000E+00 0. -1.
         -2    1    3    3    0  502 -0.29480036787E+03  0.18850165478E+03  0.10645413673E+03  0.36574938685E+03  0.00000000000E+00 0.  1.
         13    1    5    5    0    0  0.69741977718E+02 -0.27785966441E+02  0.13063775565E+03  0.15067258075E+03  0.00000000000E+00 0. -1.
        -13    1    5    5    0    0  0.56906581825E+03 -0.30324872015E+03  0.68494159325E+03  0.94071285627E+03  0.00000000000E+00 0.  1.
          1    1    6    6  503    0 -0.37384489700E+02  0.49926401094E+01  0.67120868473E+03  0.67226752486E+03  0.00000000000E+00 0. -1.
         -1    1    6    6    0  503  0.47470427315E+02 -0.32126569383E+02  0.76013546270E+03  0.76229356522E+03  0.00000000000E+00 0.  1.
<mgrwt>
<rscale>  0 0.21354192E+04</rscale>
<asrwt>0</asrwt>
<pdfrwt beam="1">  1        2 0.45412912E+00 0.21354192E+04</pdfrwt>
<pdfrwt beam="2">  1       -2 0.59415567E-01 0.21354192E+04</pdfrwt>
<totfact> 0.45401262E+00</totfact>
</mgrwt>
</event>
<event>
12    3  0.8686020E-008  0.2440386E+04  0.7818608E-02  0.8424536E-01
         -2   -1    0    0    0  501 -0.00000000000E+00  0.00000000000E+00  0.44069233239E+03  0.44069233239E+03  0.00000000000E+00 0. -1.
          2   -1    0    0  501    0  0.00000000000E+00 -0.00000000000E+00 -0.33784822157E+04  0.33784822157E+04  0.00000000000E+00 0.  1.
         23    2    1    2    0    0  0.92737730250E+03 -0.48242064323E+03 -0.14470777057E+04  0.17875011745E+04  0.91477998296E+02 0.  0.
        254    2    1    2    0    0 -0.92737730250E+03  0.48242064323E+03 -0.14907121776E+04  0.20316733736E+04  0.90150738345E+03 0.  0.
         23    2    4    4    0    0 -0.10918456737E+04  0.43181383237E+03 -0.13428236666E+04  0.17858984287E+04  0.87565045203E+02 0.  0.
         23    2    4    4    0    0  0.16446837115E+03  0.50606810861E+02 -0.14788851102E+03  0.24577494494E+03  0.94463842028E+02 0.  0.
          3    1    3    3  502    0  0.62031500001E+03 -0.30761159067E+03 -0.88640000693E+03  0.11247757831E+04  0.00000000000E+00 0. -1.
         -3    1    3    3    0  502  0.30706230249E+03 -0.17480905257E+03 -0.56067769878E+03  0.66272539138E+03  0.00000000000E+00 0.  1.
         13    1    5    5    0    0 -0.72975028979E+03  0.25164843137E+03 -0.91629775894E+03  0.11981085099E+04  0.00000000000E+00 0.  1.
        -13    1    5    5    0    0 -0.36209538386E+03  0.18016540100E+03 -0.42652590764E+03  0.58778991878E+03  0.00000000000E+00 0. -1.
          1    1    6    6  503    0 -0.17856928415E+01  0.99402263197E+01 -0.44902706750E+02  0.46024448630E+02  0.00000000000E+00 0. -1.
         -1    1    6    6    0  503  0.16625406399E+03  0.40666584541E+02 -0.10298580427E+03  0.19975049631E+03  0.00000000000E+00 0.  1.
<mgrwt>
<rscale>  0 0.24403862E+04</rscale>
<asrwt>0</asrwt>
<pdfrwt beam="1">  1        2 0.51976650E+00 0.24403862E+04</pdfrwt>
<pdfrwt beam="2">  1       -2 0.67798820E-01 0.24403862E+04</pdfrwt>
<totfact> 0.17637144E+00</totfact>
</mgrwt>
</event>
<event>
12    3  0.8686020E-008  0.2123282E+04  0.7818608E-02  0.8551056E-01
         -1   -1    0    0    0  501 -0.00000000000E+00  0.00000000000E+00  0.95548036327E+03  0.95548036327E+03  0.00000000000E+00 0.  1.
          1   -1    0    0  501    0  0.00000000000E+00 -0.00000000000E+00 -0.11795968712E+04  0.11795968712E+04  0.00000000000E+00 0. -1.
         23    2    1    2    0    0 -0.77693417453E+03 -0.37391981715E+03 -0.19387965153E+03  0.88830235569E+03  0.89716300750E+02 0.  0.
        254    2    1    2    0    0  0.77693417453E+03  0.37391981715E+03 -0.30236856376E+02  0.12467748788E+04  0.90005032616E+03 0.  0.
         23    2    4    4    0    0  0.52787659885E+03  0.66493194123E+03 -0.19767883374E+02  0.85335310913E+03  0.83860417146E+02 0.  0.
         23    2    4    4    0    0  0.24905757568E+03 -0.29101212408E+03 -0.10468973002E+02  0.39342176964E+03  0.89181595986E+02 0.  0.
          1    1    3    3  502    0 -0.39117228495E+03 -0.16146296887E+03 -0.13374950133E+03  0.44381862955E+03  0.00000000000E+00 0. -1.
         -1    1    3    3    0  502 -0.38576188959E+03 -0.21245684828E+03 -0.60130150206E+02  0.44448372614E+03  0.00000000000E+00 0.  1.
         13    1    5    5    0    0  0.17616525089E+03  0.28312417070E+03  0.72779112308E+01  0.33353629435E+03  0.00000000000E+00 0. -1.
        -13    1    5    5    0    0  0.35171134797E+03  0.38180777053E+03 -0.27045794605E+02  0.51981681478E+03  0.00000000000E+00 0.  1.
          2    1    6    6  503    0  0.20632462341E+03 -0.26757417267E+03  0.15416336751E+02  0.33823579282E+03  0.00000000000E+00 0. -1.
         -2    1    6    6    0  503  0.42732952269E+02 -0.23437951406E+02 -0.25885309753E+02  0.55185976812E+02  0.00000000000E+00 0.  1.
<mgrwt>
<rscale>  0 0.21232820E+04</rscale>
<asrwt>0</asrwt>
<pdfrwt beam="1">  1        1 0.18147644E+00 0.21232820E+04</pdfrwt>
<pdfrwt beam="2">  1       -1 0.14699698E+00 0.21232820E+04</pdfrwt>
<totfact> 0.37401408E+00</totfact>
</mgrwt>
</event>
<event>
12    3  0.8686020E-008  0.1902850E+04  0.7818608E-02  0.8653439E-01
         -1   -1    0    0    0  501 -0.00000000000E+00  0.00000000000E+00  0.21096456713E+04  0.21096456713E+04  0.00000000000E+00 0.  1.
          1   -1    0    0  501    0  0.00000000000E+00 -0.00000000000E+00 -0.42908153026E+03  0.42908153026E+03  0.00000000000E+00 0. -1.
         23    2    1    2    0    0 -0.32412160783E+02 -0.57204590644E+03  0.12628391066E+04  0.13898917719E+04  0.93538553538E+02 0.  0.
        254    2    1    2    0    0  0.32412160783E+02  0.57204590644E+03  0.41772503437E+03  0.11488354297E+04  0.90390351968E+03 0.  0.
         23    2    4    4    0    0  0.55085010630E+01 -0.13426975441E+03 -0.16222277780E+03  0.23015803383E+03  0.92724216722E+02 0.  0.
         23    2    4    4    0    0  0.26903659720E+02  0.70631566085E+03  0.57994781217E+03  0.91867739585E+03  0.89571608949E+02 0.  0.
          1    1    3    3  502    0 -0.45813600117E+02 -0.26802468952E+03  0.51194805359E+03  0.57967829847E+03  0.00000000000E+00 0. -1.
         -1    1    3    3    0  502  0.13401439334E+02 -0.30402121693E+03  0.75089105305E+03  0.81021347339E+03  0.00000000000E+00 0.  1.
         13    1    5    5    0    0  0.70673156786E+01  0.12756896191E+02 -0.64341278410E+01  0.15939992234E+02  0.00000000000E+00 0.  1.
        -13    1    5    5    0    0 -0.15588146156E+01 -0.14702665060E+03 -0.15578864996E+03  0.21421804159E+03  0.00000000000E+00 0. -1.
          2    1    6    6  503    0  0.10221085807E+02  0.60710982189E+03  0.45781564416E+03  0.76044853243E+03  0.00000000000E+00 0. -1.
         -2    1    6    6    0  503  0.16682573913E+02  0.99205838956E+02  0.12213216802E+03  0.15822886342E+03  0.00000000000E+00 0.  1.
<mgrwt>
<rscale>  0 0.19028505E+04</rscale>
<asrwt>0</asrwt>
<pdfrwt beam="1">  1        1 0.66012544E-01 0.19028505E+04</pdfrwt>
<pdfrwt beam="2">  1       -1 0.32456087E+00 0.19028505E+04</pdfrwt>
<totfact> 0.11689123E+00</totfact>
</mgrwt>
</event>
<event>
12    3  0.8686020E-008  0.2133844E+04  0.7818608E-02  0.8546480E-01
          2   -1    0    0  501    0  0.00000000000E+00  0.00000000000E+00  0.10462590059E+04  0.10462590059E+04  0.00000000000E+00 0. -1.
         -2   -1    0    0    0  501 -0.00000000000E+00 -0.00000000000E+00 -0.10879927348E+04  0.10879927348E+04  0.00000000000E+00 0.  1.
         23    2    1    2    0    0 -0.99295678131E+02  0.29900178896E+03  0.79853416640E+03  0.86322990976E+03  0.90814980551E+02 0.  0.
        254    2    1    2    0    0  0.99295678131E+02 -0.29900178896E+03 -0.84026789536E+03  0.12710218310E+04  0.90010258155E+03 0.  0.
         23    2    4    4    0    0  0.41773915011E+03 -0.33109264164E+03 -0.75218912126E+03  0.92636993170E+03  0.90798906047E+02 0.  0.
         23    2    4    4    0    0 -0.31844347198E+03  0.32090852673E+02 -0.88078774095E+02  0.34465189926E+03  0.92687612686E+02 0.  0.
          1    1    3    3  502    0 -0.10963435549E+03  0.21123732575E+03  0.54366822599E+03  0.59347791841E+03  0.00000000000E+00 0. -1.
         -1    1    3    3    0  502  0.10338677359E+02  0.87764463217E+02  0.25486594041E+03  0.26975199135E+03  0.00000000000E+00 0.  1.
         13    1    5    5    0    0  0.22217739435E+03 -0.14803160449E+03 -0.44352211685E+03  0.51767559207E+03  0.00000000000E+00 0. -1.
        -13    1    5    5    0    0  0.19556175575E+03 -0.18306103715E+03 -0.30866700441E+03  0.40869433964E+03  0.00000000000E+00 0.  1.
          2    1    6    6  503    0 -0.10011955118E+03 -0.11488363070E+02  0.10204619180E+02  0.10129186180E+03  0.00000000000E+00 0. -1.
         -2    1    6    6    0  503 -0.21832392080E+03  0.43579215743E+02 -0.98283393276E+02  0.24336003746E+03  0.00000000000E+00 0.  1.
<mgrwt>
<rscale>  0 0.21338437E+04</rscale>
<asrwt>0</asrwt>
<pdfrwt beam="1">  1        2 0.16096292E+00 0.21338437E+04</pdfrwt>
<pdfrwt beam="2">  1       -2 0.16738350E+00 0.21338437E+04</pdfrwt>
<totfact> 0.48124810E+00</totfact>
</mgrwt>
</event>
<event>
12    3  0.8686020E-008  0.3321700E+04  0.7818608E-02  0.8157396E-01
          2   -1    0    0  501    0  0.00000000000E+00  0.00000000000E+00  0.32598248748E+04  0.32598248748E+04  0.00000000000E+00 0. -1.
         -2   -1    0    0    0  501 -0.00000000000E+00 -0.00000000000E+00 -0.84618723187E+03  0.84618723187E+03  0.00000000000E+00 0.  1.
         23    2    1    2    0    0  0.12027144163E+04  0.90464566769E+03  0.15048492985E+04  0.21302308191E+04  0.91685223280E+02 0.  0.
        254    2    1    2    0    0 -0.12027144163E+04 -0.90464566769E+03  0.90878834446E+03  0.19757812876E+04  0.90161504546E+03 0.  0.
         23    2    4    4    0    0 -0.11144560891E+04 -0.10649969707E+04  0.74967452328E+03  0.17165341218E+04  0.90810674496E+02 0.  0.
         23    2    4    4    0    0 -0.88258327252E+02  0.16035130300E+03  0.15911382118E+03  0.25924716576E+03  0.91595917824E+02 0.  0.
          3    1    3    3  502    0  0.99410614694E+03  0.71363305281E+03  0.12543855833E+04  0.17524275612E+04  0.00000000000E+00 0. -1.
         -3    1    3    3    0  502  0.20860826936E+03  0.19101261488E+03  0.25046371520E+03  0.37780325795E+03  0.00000000000E+00 0.  1.
         13    1    5    5    0    0 -0.76958532607E+03 -0.72872541585E+03  0.56143703516E+03  0.11993806111E+04  0.00000000000E+00 0.  1.
        -13    1    5    5    0    0 -0.34487076298E+03 -0.33627155484E+03  0.18823748812E+03  0.51715351076E+03  0.00000000000E+00 0. -1.
          4    1    6    6  503    0 -0.43283938310E+02  0.22310823394E+02  0.73922869777E+01  0.49253609644E+02  0.00000000000E+00 0. -1.
         -4    1    6    6    0  503 -0.44974388942E+02  0.13804047961E+03  0.15172153420E+03  0.20999355612E+03  0.00000000000E+00 0.  1.
<mgrwt>
<rscale>  0 0.33216997E+04</rscale>
<asrwt>0</asrwt>
<pdfrwt beam="1">  1        2 0.50151151E+00 0.33216997E+04</pdfrwt>
<pdfrwt beam="2">  1       -2 0.13018265E+00 0.33216997E+04</pdfrwt>
<totfact> 0.42690395E-01</totfact>
</mgrwt>
</event>
<event>
12    3  0.8686020E-008  0.2688115E+04  0.7818608E-02  0.8338872E-01
          2   -1    0    0  501    0  0.00000000000E+00  0.00000000000E+00  0.18241109565E+04  0.18241109565E+04  0.00000000000E+00 0. -1.
         -2   -1    0    0    0  501 -0.00000000000E+00 -0.00000000000E+00 -0.99033999452E+03  0.99033999452E+03  0.00000000000E+00 0.  1.
         23    2    1    2    0    0  0.94099607551E+02  0.11739212354E+04  0.17657102187E+03  0.11941994330E+04  0.89382084407E+02 0.  0.
        254    2    1    2    0    0 -0.94099607551E+02 -0.11739212354E+04  0.65719994015E+03  0.16202515180E+04  0.89797406264E+03 0.  0.
         23    2    4    4    0    0 -0.30052129032E+03 -0.66849120558E+03 -0.28241080594E+02  0.73912010174E+03  0.91145094769E+02 0.  0.
         23    2    4    4    0    0  0.20642168277E+03 -0.50543002985E+03  0.68544102074E+03  0.88113141627E+03  0.92161562658E+02 0.  0.
          4    1    3    3  502    0  0.91143652606E+02  0.79519110925E+03  0.87842640333E+02  0.80520332532E+03  0.00000000000E+00 0. -1.
         -4    1    3    3    0  502  0.29559549445E+01  0.37873012617E+03  0.88728381540E+02  0.38899610773E+03  0.00000000000E+00 0.  1.
         13    1    5    5    0    0 -0.12671041381E+03 -0.28792237483E+03 -0.57235484786E+02  0.31973539625E+03  0.00000000000E+00 0.  1.
        -13    1    5    5    0    0 -0.17381087651E+03 -0.38056883074E+03  0.28994404192E+02  0.41938470550E+03  0.00000000000E+00 0. -1.
          3    1    6    6  503    0  0.13429620476E+03 -0.26840113257E+03  0.43809773773E+03  0.53104073891E+03  0.00000000000E+00 0. -1.
         -3    1    6    6    0  503  0.72125478009E+02 -0.23702889727E+03  0.24734328301E+03  0.35009067735E+03  0.00000000000E+00 0.  1.
<mgrwt>
<rscale>  0 0.26881146E+04</rscale>
<asrwt>0</asrwt>
<pdfrwt beam="1">  1        2 0.28063245E+00 0.26881146E+04</pdfrwt>
<pdfrwt beam="2">  1       -2 0.15236000E+00 0.26881146E+04</pdfrwt>
<totfact> 0.21121498E+00</totfact>
</mgrwt>
</event>
<event>
12    3  0.8686020E-008  0.3171622E+04  0.7818608E-02  0.8196352E-01
         -2   -1    0    0    0  501 -0.00000000000E+00  0.00000000000E+00  0.12730666686E+04  0.12730666686E+04  0.00000000000E+00 0. -1.
          2   -1    0    0  501    0  0.00000000000E+00 -0.00000000000E+00 -0.19753848127E+04  0.19753848127E+04  0.00000000000E+00 0.  1.
         23    2    1    2    0    0  0.13862576358E+03 -0.11387364253E+04 -0.12412440497E+04  0.16927079227E+04  0.92927779444E+02 0.  0.
        254    2    1    2    0    0 -0.13862576358E+03  0.11387364253E+04  0.53892590557E+03  0.15557435586E+04  0.90219684096E+03 0.  0.
         23    2    4    4    0    0 -0.74160065833E+02  0.71485926932E+03  0.77216396169E+03  0.10588045618E+04  0.91139596013E+02 0.  0.
         23    2    4    4    0    0 -0.64465697744E+02  0.42387715594E+03 -0.23323805613E+03  0.49693899683E+03  0.93384721589E+02 0.  0.
          1    1    3    3  502    0  0.25989537984E+02 -0.57341713850E+03 -0.59527963746E+03  0.82694650225E+03  0.00000000000E+00 0. -1.
         -1    1    3    3    0  502  0.11263622559E+03 -0.56531928676E+03 -0.64596441220E+03  0.86576142045E+03  0.00000000000E+00 0.  1.
         13    1    5    5    0    0 -0.24684651015E+02  0.14077316109E+03  0.10555577322E+03  0.17767508587E+03  0.00000000000E+00 0. -1.
        -13    1    5    5    0    0 -0.49475414818E+02  0.57408610823E+03  0.66660818848E+03  0.88112947589E+03  0.00000000000E+00 0.  1.
          1    1    6    6  503    0 -0.45098941041E+02  0.96729794117E+02 -0.28296330559E+02  0.11041399312E+03  0.00000000000E+00 0. -1.
         -1    1    6    6    0  503 -0.19366756704E+02  0.32714736182E+03 -0.20494172557E+03  0.38652500371E+03  0.00000000000E+00 0.  1.
<mgrwt>
<rscale>  0 0.31716220E+04</rscale>
<asrwt>0</asrwt>
<pdfrwt beam="1">  1        2 0.30390535E+00 0.31716220E+04</pdfrwt>
<pdfrwt beam="2">  1       -2 0.19585641E+00 0.31716220E+04</pdfrwt>
<totfact> 0.82444676E-01</totfact>
</mgrwt>
</event>
<event>
12    3  0.8686020E-008  0.1149590E+04  0.7818608E-02  0.9158162E-01
          1   -1    0    0  501    0  0.00000000000E+00  0.00000000000E+00  0.64166667466E+03  0.64166667466E+03  0.00000000000E+00 0. -1.
         -1   -1    0    0    0  501 -0.00000000000E+00 -0.00000000000E+00 -0.51489249895E+03  0.51489249895E+03  0.00000000000E+00 0.  1.
         23    2    1    2    0    0 -0.16850524375E+03  0.81363180072E+02  0.11334894942E+03  0.23701807622E+03  0.91189911045E+02 0.  0.
        254    2    1    2    0    0  0.16850524375E+03 -0.81363180072E+02  0.13425226292E+02  0.91954109739E+03  0.90020087139E+03 0.  0.
         23    2    4    4    0    0  0.28238347095E+03  0.23476318767E+03  0.28835083493E+03  0.47575930586E+03  0.91359368190E+02 0.  0.
         23    2    4    4    0    0 -0.11387822720E+03 -0.31612636775E+03 -0.27492560864E+03  0.44378179153E+03  0.91945947130E+02 0.  0.
          2    1    3    3  502    0 -0.36609955243E+02  0.51163804576E+02  0.39854673319E+01  0.63038937740E+02  0.00000000000E+00 0.  1.
         -2    1    3    3    0  502 -0.13189528851E+03  0.30199375497E+02  0.10936348209E+03  0.17397913848E+03  0.00000000000E+00 0. -1.
         13    1    5    5    0    0  0.15910725764E+03  0.12956741053E+03  0.21711834655E+03  0.29873602012E+03  0.00000000000E+00 0. -1.
        -13    1    5    5    0    0  0.12327621330E+03  0.10519577714E+03  0.71232488386E+02  0.17702328574E+03  0.00000000000E+00 0.  1.
          4    1    6    6  503    0 -0.34967092344E+02 -0.97412244118E+02 -0.14275935060E+03  0.17632945027E+03  0.00000000000E+00 0. -1.
         -4    1    6    6    0  503 -0.78911134853E+02 -0.21871412363E+03 -0.13216625804E+03  0.26745234126E+03  0.00000000000E+00 0.  1.
<mgrwt>
<rscale>  0 0.11495901E+04</rscale>
<asrwt>0</asrwt>
<pdfrwt beam="1">  1        1 0.98717949E-01 0.11495901E+04</pdfrwt>
<pdfrwt beam="2">  1       -1 0.79214231E-01 0.11495901E+04</pdfrwt>
<totfact> 0.49143806E+01</totfact>
</mgrwt>
</event>
<event>
12    3  0.8686020E-008  0.2199894E+04  0.7818608E-02  0.8518472E-01
         -1   -1    0    0    0  501 -0.00000000000E+00  0.00000000000E+00  0.10850812025E+04  0.10850812025E+04  0.00000000000E+00 0.  1.
          1   -1    0    0  501    0  0.00000000000E+00 -0.00000000000E+00 -0.11150169240E+04  0.11150169240E+04  0.00000000000E+00 0. -1.
         23    2    1    2    0    0  0.21441329565E+03 -0.71661106403E+03  0.50460708460E+03  0.90686825514E+03  0.90979359908E+02 0.  0.
        254    2    1    2    0    0 -0.21441329565E+03  0.71661106403E+03 -0.53454280608E+03  0.12932298714E+04  0.90950701492E+03 0.  0.
         23    2    4    4    0    0  0.37259720650E+02  0.73653206214E+03 -0.56734232445E+02  0.74485983999E+03  0.87918386930E+02 0.  0.
         23    2    4    4    0    0 -0.25167301629E+03 -0.19920998111E+02 -0.47780857363E+03  0.54837003136E+03  0.93126285025E+02 0.  0.
          4    1    3    3  502    0  0.15266564309E+03 -0.40356984149E+03  0.25009535331E+03  0.49872146664E+03  0.00000000000E+00 0. -1.
         -4    1    3    3    0  502  0.61747652551E+02 -0.31304122253E+03  0.25451173129E+03  0.40814678850E+03  0.00000000000E+00 0.  1.
         13    1    5    5    0    0  0.51435116838E+02  0.44962453586E+03 -0.27028561396E+01  0.45256502287E+03  0.00000000000E+00 0. -1.
        -13    1    5    5    0    0 -0.14175396188E+02  0.28690752627E+03 -0.54031376306E+02  0.29229481712E+03  0.00000000000E+00 0.  1.
          1    1    6    6  503    0 -0.99258813150E+02  0.37542184831E+02 -0.18196645468E+03  0.21065022730E+03  0.00000000000E+00 0. -1.
         -1    1    6    6    0  503 -0.15241420315E+03 -0.57463182942E+02 -0.29584211895E+03  0.33771980407E+03  0.00000000000E+00 0.  1.
<mgrwt>
<rscale>  0 0.21998945E+04</rscale>
<asrwt>0</asrwt>
<pdfrwt beam="1">  1        1 0.17154106E+00 0.21998945E+04</pdfrwt>
<pdfrwt beam="2">  1       -1 0.16693557E+00 0.21998945E+04</pdfrwt>
<totfact> 0.29199217E+00</totfact>
</mgrwt>
</event>
<event>
12    3  0.8686020E-008  0.2799306E+04  0.7818608E-02  0.8303484E-01
         -1   -1    0    0    0  501 -0.00000000000E+00  0.00000000000E+00  0.17314548909E+04  0.17314548909E+04  0.00000000000E+00 0.  1.
          1   -1    0    0  501    0  0.00000000000E+00 -0.00000000000E+00 -0.11314346764E+04  0.11314346764E+04  0.00000000000E+00 0. -1.
         23    2    1    2    0    0 -0.40737063630E+02  0.62479336950E+03 -0.83929972775E+03  0.10512109885E+04  0.92705158509E+02 0.  0.
        254    2    1    2    0    0  0.40737063630E+02 -0.62479336950E+03  0.14393199423E+04  0.18116785788E+04  0.90471604031E+03 0.  0.
         23    2    4    4    0    0  0.15821380525E+03 -0.81691236479E+03  0.12454261774E+04  0.15005907678E+04  0.91152998832E+02 0.  0.
         23    2    4    4    0    0 -0.11747674162E+03  0.19211899529E+03  0.19389376491E+03  0.31108781097E+03  0.92034454910E+02 0.  0.
          4    1    3    3  502    0 -0.10946288682E+02  0.14201131707E+03 -0.26059537420E+03  0.29697977114E+03  0.00000000000E+00 0. -1.
         -4    1    3    3    0  502 -0.29790774948E+02  0.48278205243E+03 -0.57870435355E+03  0.75423121736E+03  0.00000000000E+00 0.  1.
         13    1    5    5    0    0  0.90424720993E+02 -0.42856302729E+03  0.73563010113E+03  0.85615100549E+03  0.00000000000E+00 0. -1.
        -13    1    5    5    0    0  0.67789084260E+02 -0.38834933750E+03  0.50979607625E+03  0.64443976230E+03  0.00000000000E+00 0.  1.
          3    1    6    6  503    0 -0.10300928708E+03  0.13821564844E+03  0.93199268282E+02  0.19596066520E+03  0.00000000000E+00 0. -1.
         -3    1    6    6    0  503 -0.14467454548E+02  0.53903346853E+02  0.10069449662E+03  0.11512714577E+03  0.00000000000E+00 0.  1.
<mgrwt>
<rscale>  0 0.27993057E+04</rscale>
<asrwt>0</asrwt>
<pdfrwt beam="1">  1        1 0.17406687E+00 0.27993057E+04</pdfrwt>
<pdfrwt beam="2">  1       -1 0.26637767E+00 0.27993057E+04</pdfrwt>
<totfact> 0.56703695E-01</totfact>
</mgrwt>
</event>
<event>
12    3  0.8686020E-008  0.1522086E+04  0.7818608E-02  0.8869897E-01
         -1   -1    0    0    0  501 -0.00000000000E+00  0.00000000000E+00  0.12760158310E+03  0.12760158310E+03  0.00000000000E+00 0.  1.
          1   -1    0    0  501    0  0.00000000000E+00 -0.00000000000E+00 -0.45390228847E+04  0.45390228847E+04  0.00000000000E+00 0. -1.
         23    2    1    2    0    0  0.12916448823E+03 -0.42495482626E+03 -0.20628085153E+04  0.21120984760E+04  0.92254713501E+02 0.  0.
        254    2    1    2    0    0 -0.12916448823E+03  0.42495482626E+03 -0.23486127863E+04  0.25545259918E+04  0.90130513893E+03 0.  0.
         23    2    4    4    0    0 -0.61091290069E+01  0.66320277144E+03 -0.19790681824E+04  0.20892441075E+04  0.91404774026E+02 0.  0.
         23    2    4    4    0    0 -0.12305535923E+03 -0.23824794518E+03 -0.36954460391E+03  0.46528188430E+03  0.89550615640E+02 0.  0.
          1    1    3    3  502    0  0.61170807955E+02 -0.29125985046E+03 -0.15248003284E+04  0.15535733680E+04  0.00000000000E+00 0. -1.
         -1    1    3    3    0  502  0.67993680277E+02 -0.13369497580E+03 -0.53800818689E+03  0.55852510800E+03  0.00000000000E+00 0.  1.
         13    1    5    5    0    0 -0.21235765273E+02  0.74454677990E+02 -0.17190643524E+03  0.18853720926E+03  0.00000000000E+00 0.  1.
        -13    1    5    5    0    0  0.15126636267E+02  0.58874809345E+03 -0.18071617472E+04  0.19007068982E+04  0.00000000000E+00 0. -1.
          3    1    6    6  503    0 -0.13580347380E+03 -0.19757048191E+03 -0.32159064468E+03  0.40111995907E+03  0.00000000000E+00 0. -1.
         -3    1    6    6    0  503  0.12748114578E+02 -0.40677463261E+02 -0.47953959238E+02  0.64161925231E+02  0.00000000000E+00 0.  1.
<mgrwt>
<rscale>  0 0.15220861E+04</rscale>
<asrwt>0</asrwt>
<pdfrwt beam="1">  1        1 0.69831131E+00 0.15220861E+04</pdfrwt>
<pdfrwt beam="2">  1       -1 0.19631010E-01 0.15220861E+04</pdfrwt>
<totfact> 0.61626569E-01</totfact>
</mgrwt>
</event>
<event>
12    3  0.8686020E-008  0.1467748E+04  0.7818608E-02  0.8906188E-01
         -2   -1    0    0    0  501 -0.00000000000E+00  0.00000000000E+00  0.39307341987E+03  0.39307341987E+03  0.00000000000E+00 0.  1.
          2   -1    0    0  501    0  0.00000000000E+00 -0.00000000000E+00 -0.13701531485E+04  0.13701531485E+04  0.00000000000E+00 0. -1.
         23    2    1    2    0    0  0.24175940661E+03 -0.37231525536E+03 -0.19965895693E+03  0.49343164950E+03  0.80900145809E+02 0.  0.
        254    2    1    2    0    0 -0.24175940661E+03  0.37231525536E+03 -0.77742077169E+03  0.12697949189E+04  0.90051641832E+03 0.  0.
         23    2    4    4    0    0 -0.27395635377E+03 -0.24097625744E+03 -0.22323975328E+03  0.43760641931E+03  0.92421590312E+02 0.  0.
         23    2    4    4    0    0  0.32196947161E+02  0.61329151280E+03 -0.55418101841E+03  0.83218849955E+03  0.90873398435E+02 0.  0.
          4    1    3    3  502    0  0.17808634530E+01  0.37721201924E+01 -0.54509570861E+01  0.68639127718E+01  0.00000000000E+00 0. -1.
         -4    1    3    3    0  502  0.23997854316E+03 -0.37608737555E+03 -0.19420799984E+03  0.48656773673E+03  0.00000000000E+00 0.  1.
         13    1    5    5    0    0 -0.14319435977E+03 -0.13735093052E+03 -0.17331259192E+03  0.26345238148E+03  0.00000000000E+00 0.  1.
        -13    1    5    5    0    0 -0.13076199400E+03 -0.10362532692E+03 -0.49927161360E+02  0.17415403784E+03  0.00000000000E+00 0. -1.
          2    1    6    6  503    0  0.59394270107E+02  0.43383523791E+03 -0.41700824954E+03  0.60467890087E+03  0.00000000000E+00 0. -1.
         -2    1    6    6    0  503 -0.27197322946E+02  0.17945627489E+03 -0.13717276887E+03  0.22750959868E+03  0.00000000000E+00 0.  1.
<mgrwt>
<rscale>  0 0.14677476E+04</rscale>
<asrwt>0</asrwt>
<pdfrwt beam="1">  1        2 0.21079280E+00 0.14677476E+04</pdfrwt>
<pdfrwt beam="2">  1       -2 0.60472831E-01 0.14677476E+04</pdfrwt>
<totfact> 0.37133538E+01</totfact>
</mgrwt>
</event>
<event>
12    3  0.8686020E-008  0.1765530E+04  0.7818608E-02  0.8724848E-01
         -2   -1    0    0    0  501 -0.00000000000E+00  0.00000000000E+00  0.29921075567E+03  0.29921075567E+03  0.00000000000E+00 0.  1.
          2   -1    0    0  501    0  0.00000000000E+00 -0.00000000000E+00 -0.26044307028E+04  0.26044307028E+04  0.00000000000E+00 0. -1.
         23    2    1    2    0    0  0.64451819701E+03 -0.73578272615E+02 -0.82344293079E+03  0.10522908593E+04  0.91871234671E+02 0.  0.
        254    2    1    2    0    0 -0.64451819701E+03  0.73578272615E+02 -0.14817770163E+04  0.18513505992E+04  0.90056562587E+03 0.  0.
         23    2    4    4    0    0 -0.57391090605E+03 -0.95876872751E+02 -0.15316363418E+04  0.16409333360E+04  0.90477770852E+02 0.  0.
         23    2    4    4    0    0 -0.70607290959E+02  0.16945514537E+03  0.49859325447E+02  0.21041726316E+03  0.89939070890E+02 0.  0.
          4    1    3    3  502    0  0.37163626534E+03 -0.56366983763E+02 -0.40614398780E+03  0.55339288882E+03  0.00000000000E+00 0.  1.
         -4    1    3    3    0  502  0.27288193167E+03 -0.17211288852E+02 -0.41729894299E+03  0.49889797044E+03  0.00000000000E+00 0. -1.
         13    1    5    5    0    0 -0.22218997013E+03  0.41017094740E+01 -0.53384060486E+03  0.57824821508E+03  0.00000000000E+00 0.  1.
        -13    1    5    5    0    0 -0.35172093591E+03 -0.99978582225E+02 -0.99779573692E+03  0.10626851209E+04  0.00000000000E+00 0. -1.
          1    1    6    6  503    0 -0.43830367878E+02  0.62538259930E+02 -0.21226010476E+02  0.79263349817E+02  0.00000000000E+00 0. -1.
         -1    1    6    6    0  503 -0.26776923081E+02  0.10691688544E+03  0.71085335923E+02  0.13115391334E+03  0.00000000000E+00 0.  1.
<mgrwt>
<rscale>  0 0.17655296E+04</rscale>
<asrwt>0</asrwt>
<pdfrwt beam="1">  1        2 0.40068163E+00 0.17655296E+04</pdfrwt>
<pdfrwt beam="2">  1       -2 0.46032425E-01 0.17655296E+04</pdfrwt>
<totfact> 0.12837205E+01</totfact>
</mgrwt>
</event>
<event>
12    3  0.8686020E-008  0.1444232E+04  0.7818608E-02  0.8922409E-01
          1   -1    0    0  501    0  0.00000000000E+00  0.00000000000E+00  0.12978236148E+04  0.12978236148E+04  0.00000000000E+00 0. -1.
         -1   -1    0    0    0  501 -0.00000000000E+00 -0.00000000000E+00 -0.40178905007E+03  0.40178905007E+03  0.00000000000E+00 0.  1.
         23    2    1    2    0    0 -0.12755969776E+03  0.36854560880E+03  0.50804809950E+02  0.40346397536E+03  0.90026154217E+02 0.  0.
        254    2    1    2    0    0  0.12755969776E+03 -0.36854560880E+03  0.84522975482E+03  0.12961486896E+04  0.90193721773E+03 0.  0.
         23    2    4    4    0    0 -0.30016520708E+03 -0.35309334043E+03  0.68524179497E+03  0.83217085746E+03  0.90432073084E+02 0.  0.
         23    2    4    4    0    0  0.42772490483E+03 -0.15452268364E+02  0.15998795986E+03  0.46397783209E+03  0.80572418111E+02 0.  0.
          1    1    3    3  502    0 -0.10005151117E+03  0.29793288655E+03  0.76471859424E+02  0.32345363664E+03  0.00000000000E+00 0. -1.
         -1    1    3    3    0  502 -0.27508186587E+02  0.70612722250E+02 -0.25667049473E+02  0.80010338716E+02  0.00000000000E+00 0.  1.
         13    1    5    5    0    0 -0.43787856154E+01 -0.38572926294E+02  0.77456876334E+02  0.86640706933E+02  0.00000000000E+00 0. -1.
        -13    1    5    5    0    0 -0.29578642146E+03 -0.31452041414E+03  0.60778491863E+03  0.74553015053E+03  0.00000000000E+00 0.  1.
          2    1    6    6  503    0 -0.29947968633E+01 -0.20604725339E+01  0.46610158773E+01  0.59109579870E+01  0.00000000000E+00 0. -1.
         -2    1    6    6    0  503  0.43071970170E+03 -0.13391795830E+02  0.15532694398E+03  0.45806687410E+03  0.00000000000E+00 0.  1.
<mgrwt>
<rscale>  0 0.14442317E+04</rscale>
<asrwt>0</asrwt>
<pdfrwt beam="1">  1        1 0.19966517E+00 0.14442317E+04</pdfrwt>
<pdfrwt beam="2">  1       -1 0.61813700E-01 0.14442317E+04</pdfrwt>
<totfact> 0.23414568E+01</totfact>
</mgrwt>
</event>
<event>
12    3  0.8686020E-008  0.3035062E+04  0.7818608E-02  0.8233789E-01
         -1   -1    0    0    0  501 -0.00000000000E+00  0.00000000000E+00  0.11280161805E+04  0.11280161805E+04  0.00000000000E+00 0.  1.
          1   -1    0    0  501    0  0.00000000000E+00 -0.00000000000E+00 -0.20415495167E+04  0.20415495167E+04  0.00000000000E+00 0. -1.
         23    2    1    2    0    0 -0.10869630008E+04  0.79192682730E+03 -0.75309944770E+03  0.15439695127E+04  0.89701801663E+02 0.  0.
        254    2    1    2    0    0  0.10869630008E+04 -0.79192682730E+03 -0.16043388851E+03  0.16255961845E+04  0.89899235682E+03 0.  0.
         23    2    4    4    0    0  0.96298656437E+03 -0.46927408492E+03 -0.44984534860E+03  0.11653692074E+04  0.90350772314E+02 0.  0.
         23    2    4    4    0    0  0.12397643639E+03 -0.32265274238E+03  0.28941146009E+03  0.46022697705E+03  0.92600908358E+02 0.  0.
          2    1    3    3  502    0 -0.21695087047E+03  0.11773619386E+03 -0.15157349598E+03  0.28966189985E+03  0.00000000000E+00 0. -1.
         -2    1    3    3    0  502 -0.87001213029E+03  0.67419063344E+03 -0.60152595172E+03  0.12543076129E+04  0.00000000000E+00 0.  1.
         13    1    5    5    0    0  0.21327567076E+03 -0.64129776028E+02 -0.10136922266E+03  0.24469339839E+03  0.00000000000E+00 0.  1.
        -13    1    5    5    0    0  0.74971089361E+03 -0.40514430889E+03 -0.34847612594E+03  0.92067580905E+03  0.00000000000E+00 0. -1.
          3    1    6    6  503    0  0.12191783968E+03 -0.24766460024E+03  0.26133527808E+03  0.38012871690E+03  0.00000000000E+00 0. -1.
         -3    1    6    6    0  503  0.20585967069E+01 -0.74988142149E+02  0.28076182007E+02  0.80098260152E+02  0.00000000000E+00 0.  1.
<mgrwt>
<rscale>  0 0.30350624E+04</rscale>
<asrwt>0</asrwt>
<pdfrwt beam="1">  1        1 0.31408454E+00 0.30350624E+04</pdfrwt>
<pdfrwt beam="2">  1       -1 0.17354095E+00 0.30350624E+04</pdfrwt>
<totfact> 0.54923798E-01</totfact>
</mgrwt>
</event>
<event>
12    3  0.8686020E-008  0.1633365E+04  0.7818608E-02  0.8800309E-01
         -2   -1    0    0    0  501 -0.00000000000E+00  0.00000000000E+00  0.27685807573E+03  0.27685807573E+03  0.00000000000E+00 0. -1.
          2   -1    0    0  501    0  0.00000000000E+00 -0.00000000000E+00 -0.24090694303E+04  0.24090694303E+04  0.00000000000E+00 0.  1.
         23    2    1    2    0    0 -0.35669511893E+03  0.39135215272E+03 -0.10614447486E+04  0.11900679506E+04  0.95962791938E+02 0.  0.
        254    2    1    2    0    0  0.35669511893E+03 -0.39135215272E+03 -0.10707666060E+04  0.14958595554E+04  0.90037035145E+03 0.  0.
         23    2    4    4    0    0 -0.30766732629E+02  0.14444318645E+03 -0.72104554123E+03  0.74200761747E+03  0.94118042440E+02 0.  0.
         23    2    4    4    0    0  0.38746185156E+03 -0.53579533917E+03 -0.34972106476E+03  0.75385193796E+03  0.93726140137E+02 0.  0.
          3    1    3    3  502    0 -0.24518381477E+03  0.28918943124E+03 -0.66097480370E+03  0.76199299294E+03  0.00000000000E+00 0. -1.
         -3    1    3    3    0  502 -0.11151130416E+03  0.10216272148E+03 -0.40046994493E+03  0.42807495770E+03  0.00000000000E+00 0.  1.
         13    1    5    5    0    0 -0.51571665754E+02  0.34271987901E+02 -0.21831482320E+03  0.22692634905E+03  0.00000000000E+00 0.  1.
        -13    1    5    5    0    0  0.20804933126E+02  0.11017119855E+03 -0.50273071803E+03  0.51508126843E+03  0.00000000000E+00 0. -1.
          2    1    6    6  503    0  0.47855937240E+02 -0.13065013670E+03 -0.69947839252E+02  0.15573165756E+03  0.00000000000E+00 0. -1.
         -2    1    6    6    0  503  0.33960591432E+03 -0.40514520247E+03 -0.27977322551E+03  0.59812028041E+03  0.00000000000E+00 0.  1.
<mgrwt>
<rscale>  0 0.16333650E+04</rscale>
<asrwt>0</asrwt>
<pdfrwt beam="1">  1        2 0.37062609E+00 0.16333650E+04</pdfrwt>
<pdfrwt beam="2">  1       -2 0.42593548E-01 0.16333650E+04</pdfrwt>
<totfact> 0.19661994E+01</totfact>
</mgrwt>
</event>
<event>
12    3  0.8686020E-008  0.2018639E+04  0.7818608E-02  0.8597956E-01
          3   -1    0    0  501    0  0.00000000000E+00  0.00000000000E+00  0.18129304188E+04  0.18129304188E+04  0.00000000000E+00 0. -1.
         -3   -1    0    0    0  501 -0.00000000000E+00 -0.00000000000E+00 -0.56192229959E+03  0.56192229959E+03  0.00000000000E+00 0.  1.
         23    2    1    2    0    0 -0.60670044116E+03 -0.50988668278E+03  0.33135636638E+03  0.86373617867E+03  0.90406251032E+02 0.  0.
        254    2    1    2    0    0  0.60670044116E+03  0.50988668278E+03  0.91965175281E+03  0.15111165397E+04  0.89980219799E+03 0.  0.
         23    2    4    4    0    0  0.46955758166E+03 -0.33530577985E+02  0.62057629050E+02  0.48261475967E+03  0.86355282301E+02 0.  0.
         23    2    4    4    0    0  0.13714285951E+03  0.54341726077E+03  0.85759412376E+03  0.10285017800E+04  0.90762036020E+02 0.  0.
          3    1    3    3  502    0 -0.41939995131E+03 -0.36434133414E+03  0.27518379689E+03  0.61997342604E+03  0.00000000000E+00 0. -1.
         -3    1    3    3    0  502 -0.18730048985E+03 -0.14554534864E+03  0.56172569489E+02  0.24376275264E+03  0.00000000000E+00 0.  1.
         13    1    5    5    0    0  0.20762138158E+03  0.14445943751E+02 -0.43381915409E+01  0.20816854538E+03  0.00000000000E+00 0.  1.
        -13    1    5    5    0    0  0.26193620008E+03 -0.47976521736E+02  0.66395820591E+02  0.27444621430E+03  0.00000000000E+00 0. -1.
          2    1    6    6  503    0  0.62892533450E+02  0.38423454254E+03  0.54247605370E+03  0.66773641752E+03  0.00000000000E+00 0. -1.
         -2    1    6    6    0  503  0.74250326056E+02  0.15918271823E+03  0.31511807006E+03  0.36076536250E+03  0.00000000000E+00 0.  1.
<mgrwt>
<rscale>  0 0.20186392E+04</rscale>
<asrwt>0</asrwt>
<pdfrwt beam="1">  1        3 0.27891237E+00 0.20186392E+04</pdfrwt>
<pdfrwt beam="2">  1       -3 0.86449586E-01 0.20186392E+04</pdfrwt>
<totfact> 0.15010861E-01</totfact>
</mgrwt>
</event>
<event>
12    3  0.8686020E-008  0.1603602E+04  0.7818608E-02  0.8818338E-01
          1   -1    0    0  501    0  0.00000000000E+00  0.00000000000E+00  0.77957175302E+03  0.77957175302E+03  0.00000000000E+00 0. -1.
         -1   -1    0    0    0  501 -0.00000000000E+00 -0.00000000000E+00 -0.82466429322E+03  0.82466429322E+03  0.00000000000E+00 0.  1.
         23    2    1    2    0    0  0.10980762384E+03 -0.44115141305E+03  0.28464972610E+03  0.54383825142E+03  0.89790275902E+02 0.  0.
        254    2    1    2    0    0 -0.10980762384E+03  0.44115141305E+03 -0.32974226630E+03  0.10603977948E+04  0.89946719650E+03 0.  0.
         23    2    4    4    0    0 -0.17275669613E+03  0.68971713398E+03 -0.14344112779E+03  0.73099640864E+03  0.90696148374E+02 0.  0.
         23    2    4    4    0    0  0.62949072289E+02 -0.24856572093E+03 -0.18630113851E+03  0.32940138618E+03  0.89719873407E+02 0.  0.
          1    1    3    3  502    0  0.10877947503E+03 -0.34349559359E+03  0.25622745708E+03  0.44212521616E+03  0.00000000000E+00 0. -1.
         -1    1    3    3    0  502  0.10281488082E+01 -0.97655819461E+02  0.28422269013E+02  0.10171303525E+03  0.00000000000E+00 0.  1.
         13    1    5    5    0    0  0.11272721489E+01  0.11296511531E+03 -0.60461220903E+01  0.11313241627E+03  0.00000000000E+00 0. -1.
        -13    1    5    5    0    0 -0.17388396828E+03  0.57675201868E+03 -0.13739500570E+03  0.61786399236E+03  0.00000000000E+00 0.  1.
          4    1    6    6  503    0 -0.11253292743E+02 -0.62954558266E+02 -0.81823327077E+02  0.10385070947E+03  0.00000000000E+00 0. -1.
         -4    1    6    6    0  503  0.74202365032E+02 -0.18561116267E+03 -0.10447781144E+03  0.22555067671E+03  0.00000000000E+00 0.  1.
<mgrwt>
<rscale>  0 0.16036022E+04</rscale>
<asrwt>0</asrwt>
<pdfrwt beam="1">  1        1 0.11993412E+00 0.16036022E+04</pdfrwt>
<pdfrwt beam="2">  1       -1 0.12687143E+00 0.16036022E+04</pdfrwt>
<totfact> 0.11922124E+01</totfact>
</mgrwt>
</event>
<event>
12    3  0.8686020E-008  0.1834639E+04  0.7818608E-02  0.8688093E-01
         -1   -1    0    0    0  501 -0.00000000000E+00  0.00000000000E+00  0.88787472811E+03  0.88787472811E+03  0.00000000000E+00 0.  1.
          1   -1    0    0  501    0  0.00000000000E+00 -0.00000000000E+00 -0.94774050823E+03  0.94774050823E+03  0.00000000000E+00 0. -1.
         23    2    1    2    0    0 -0.58701908412E+03 -0.18798982944E+03 -0.33818073049E+03  0.70911217828E+03  0.92424530430E+02 0.  0.
        254    2    1    2    0    0  0.58701908412E+03  0.18798982944E+03  0.27831495037E+03  0.11265030581E+04  0.90089863310E+03 0.  0.
         23    2    4    4    0    0 -0.13508300223E+03 -0.98625264354E+02  0.28655358418E+03  0.34421164957E+03  0.91620646328E+02 0.  0.
         23    2    4    4    0    0  0.72210208635E+03  0.28661509379E+03 -0.82386338085E+01  0.78229140849E+03  0.91281638990E+02 0.  0.
          2    1    3    3  502    0 -0.45933194206E+03 -0.16244232382E+03 -0.30475442633E+03  0.57467260413E+03  0.00000000000E+00 0. -1.
         -2    1    3    3    0  502 -0.12768714205E+03 -0.25547505617E+02 -0.33426304158E+02  0.13443957415E+03  0.00000000000E+00 0.  1.
         13    1    5    5    0    0 -0.90921702735E+02 -0.12574206517E+02  0.16565530660E+03  0.18938465435E+03  0.00000000000E+00 0.  1.
        -13    1    5    5    0    0 -0.44161299495E+02 -0.86051057837E+02  0.12089827758E+03  0.15482699522E+03  0.00000000000E+00 0. -1.
          3    1    6    6  503    0  0.52388212510E+03  0.24141856412E+03 -0.31297065862E+02  0.57768063014E+03  0.00000000000E+00 0. -1.
         -3    1    6    6    0  503  0.19821996124E+03  0.45196529671E+02  0.23058432054E+02  0.20461077835E+03  0.00000000000E+00 0.  1.
<mgrwt>
<rscale>  0 0.18346388E+04</rscale>
<asrwt>0</asrwt>
<pdfrwt beam="1">  1        1 0.14580623E+00 0.18346388E+04</pdfrwt>
<pdfrwt beam="2">  1       -1 0.13659611E+00 0.18346388E+04</pdfrwt>
<totfact> 0.69992092E+00</totfact>
</mgrwt>
</event>
<event>
12    3  0.8686020E-008  0.1877634E+04  0.7818608E-02  0.8666070E-01
          1   -1    0    0  501    0  0.00000000000E+00  0.00000000000E+00  0.19331331243E+04  0.19331331243E+04  0.00000000000E+00 0. -1.
         -1   -1    0    0    0  501 -0.00000000000E+00 -0.00000000000E+00 -0.45593208962E+03  0.45593208962E+03  0.00000000000E+00 0.  1.
         23    2    1    2    0    0  0.48506833025E+03  0.19383901767E+02 -0.10608525258E+03  0.50481545031E+03  0.88980545022E+02 0.  0.
        254    2    1    2    0    0 -0.48506833025E+03 -0.19383901767E+02  0.15832862872E+04  0.18842497636E+04  0.89885186964E+03 0.  0.
         23    2    4    4    0    0  0.19919391327E+03  0.70589257069E+02  0.81484490116E+03  0.84715866235E+03  0.95102723192E+02 0.  0.
         23    2    4    4    0    0 -0.68426224352E+03 -0.89973158836E+02  0.76844138608E+03  0.10370911012E+04  0.93518988422E+02 0.  0.
          1    1    3    3  502    0  0.15412710652E+03 -0.43514014330E+01  0.68219262535E+01  0.15433936095E+03  0.00000000000E+00 0. -1.
         -1    1    3    3    0  502  0.33094122373E+03  0.23735303200E+02 -0.11290717883E+03  0.35047608936E+03  0.00000000000E+00 0.  1.
         13    1    5    5    0    0  0.51085021790E+01 -0.81896193829E+01  0.14514422675E+03  0.14546481781E+03  0.00000000000E+00 0. -1.
        -13    1    5    5    0    0  0.19408541109E+03  0.78778876452E+02  0.66970067440E+03  0.70169384454E+03  0.00000000000E+00 0.  1.
          1    1    6    6  503    0 -0.25325307372E+02 -0.22216918165E+02  0.30387299657E+02  0.45369049215E+02  0.00000000000E+00 0. -1.
         -1    1    6    6    0  503 -0.65893693615E+03 -0.67756240671E+02  0.73805408642E+03  0.99172205202E+03  0.00000000000E+00 0.  1.
<mgrwt>
<rscale>  0 0.18776341E+04</rscale>
<asrwt>0</asrwt>
<pdfrwt beam="1">  1        1 0.29740509E+00 0.18776341E+04</pdfrwt>
<pdfrwt beam="2">  1       -1 0.70143399E-01 0.18776341E+04</pdfrwt>
<totfact> 0.63713890E+00</totfact>
</mgrwt>
</event>
<event>
12    3  0.8686020E-008  0.2264172E+04  0.7818608E-02  0.8492183E-01
          2   -1    0    0  501    0  0.00000000000E+00  0.00000000000E+00  0.40007391871E+04  0.40007391871E+04  0.00000000000E+00 0. -1.
         -2   -1    0    0    0  501 -0.00000000000E+00 -0.00000000000E+00 -0.32034553858E+03  0.32034553858E+03  0.00000000000E+00 0.  1.
         23    2    1    2    0    0  0.73937290184E+03 -0.38387092295E+03  0.24296250431E+04  0.25700703296E+04  0.90302135529E+02 0.  0.
        254    2    1    2    0    0 -0.73937290184E+03  0.38387092295E+03  0.12507686054E+04  0.17510143960E+04  0.89866575401E+03 0.  0.
         23    2    4    4    0    0  0.86149921032E+02  0.30764374415E+03  0.14065496520E+03  0.36189793327E+03  0.95497710254E+02 0.  0.
         23    2    4    4    0    0 -0.82552282288E+03  0.76227178804E+02  0.11101136402E+04  0.13891164628E+04  0.99968690613E+02 0.  0.
          1    1    3    3  502    0  0.22325857796E+03 -0.10262308333E+03  0.84269692857E+03  0.87778927043E+03  0.00000000000E+00 0. -1.
         -1    1    3    3    0  502  0.51611432388E+03 -0.28124783962E+03  0.15869281145E+04  0.16922810592E+04  0.00000000000E+00 0.  1.
         13    1    5    5    0    0  0.44312026696E+02  0.36539716427E+02  0.38672937538E+02  0.69240903260E+02  0.00000000000E+00 0.  1.
        -13    1    5    5    0    0  0.41837894335E+02  0.27110402772E+03  0.10198202766E+03  0.29265703001E+03  0.00000000000E+00 0. -1.
          2    1    6    6  503    0 -0.61528157377E+03  0.10021587366E+03  0.83504783347E+03  0.10420746233E+04  0.00000000000E+00 0.  1.
         -2    1    6    6    0  503 -0.21024124911E+03 -0.23988694859E+02  0.27506580673E+03  0.34704183947E+03  0.00000000000E+00 0. -1.
<mgrwt>
<rscale>  0 0.22641722E+04</rscale>
<asrwt>0</asrwt>
<pdfrwt beam="1">  1        2 0.61549830E+00 0.22641722E+04</pdfrwt>
<pdfrwt beam="2">  1       -2 0.49283932E-01 0.22641722E+04</pdfrwt>
<totfact> 0.12183184E+00</totfact>
</mgrwt>
</event>
<event>
12    3  0.8686020E-008  0.2807736E+04  0.7818608E-02  0.8300871E-01
          2   -1    0    0  501    0  0.00000000000E+00  0.00000000000E+00  0.24813924141E+04  0.24813924141E+04  0.00000000000E+00 0. -1.
         -2   -1    0    0    0  501 -0.00000000000E+00 -0.00000000000E+00 -0.79425001565E+03  0.79425001565E+03  0.00000000000E+00 0.  1.
         23    2    1    2    0    0  0.48104361838E+02  0.39371806429E+03 -0.63507680615E+03  0.75418276322E+03  0.90228304065E+02 0.  0.
        254    2    1    2    0    0 -0.48104361838E+02 -0.39371806429E+03  0.23222192046E+04  0.25214596665E+04  0.89873737651E+03 0.  0.
         23    2    4    4    0    0  0.38672821549E+03 -0.17362773584E+03  0.68302126333E+03  0.80893263927E+03  0.90269958461E+02 0.  0.
         23    2    4    4    0    0 -0.43483257733E+03 -0.22009032844E+03  0.16391979412E+04  0.17125270272E+04  0.90883471792E+02 0.  0.
          2    1    3    3  502    0  0.35487224048E+02  0.24277716497E+03 -0.30836314307E+03  0.39406588650E+03  0.00000000000E+00 0. -1.
         -2    1    3    3    0  502  0.12617137790E+02  0.15094089931E+03 -0.32671366308E+03  0.36011687671E+03  0.00000000000E+00 0.  1.
         13    1    5    5    0    0  0.23966731061E+02 -0.33770149085E+02  0.40390397370E+02  0.57846446448E+02  0.00000000000E+00 0.  1.
        -13    1    5    5    0    0  0.36276148443E+03 -0.13985758676E+03  0.64263086595E+03  0.75108619282E+03  0.00000000000E+00 0. -1.
          4    1    6    6  503    0 -0.84847746062E+02 -0.40531527783E+02  0.20819882479E+03  0.22844845239E+03  0.00000000000E+00 0. -1.
         -4    1    6    6    0  503 -0.34998483127E+03 -0.17955880066E+03  0.14309991164E+04  0.14840785748E+04  0.00000000000E+00 0.  1.
<mgrwt>
<rscale>  0 0.28077364E+04</rscale>
<asrwt>0</asrwt>
<pdfrwt beam="1">  1        2 0.38175268E+00 0.28077364E+04</pdfrwt>
<pdfrwt beam="2">  1       -2 0.12219231E+00 0.28077364E+04</pdfrwt>
<totfact> 0.15747826E+00</totfact>
</mgrwt>
</event>
<event>
12    3  0.8686020E-008  0.3416014E+04  0.7818608E-02  0.8133987E-01
          1   -1    0    0  501    0  0.00000000000E+00  0.00000000000E+00  0.35822972840E+04  0.35822972840E+04  0.00000000000E+00 0. -1.
         -1   -1    0    0    0  501 -0.00000000000E+00 -0.00000000000E+00 -0.81436245239E+03  0.81436245239E+03  0.00000000000E+00 0.  1.
         23    2    1    2    0    0  0.72146564713E+03 -0.11939342157E+04  0.31214726806E+03  0.14323621552E+04  0.90740483793E+02 0.  0.
        254    2    1    2    0    0 -0.72146564713E+03  0.11939342157E+04  0.24557875636E+04  0.29642975812E+04  0.90009777313E+03 0.  0.
         23    2    4    4    0    0 -0.10246717639E+03  0.97312674851E+03  0.12734959914E+04  0.16085820704E+04  0.90934295212E+02 0.  0.
         23    2    4    4    0    0 -0.61899847074E+03  0.22080746715E+03  0.11822915722E+04  0.13557155108E+04  0.90753183940E+02 0.  0.
          3    1    3    3  502    0  0.24987979271E+03 -0.36015153987E+03  0.65544845937E+02  0.44322135475E+03  0.00000000000E+00 0. -1.
         -3    1    3    3    0  502  0.47158585442E+03 -0.83378267579E+03  0.24660242212E+03  0.98914080046E+03  0.00000000000E+00 0.  1.
         13    1    5    5    0    0 -0.33546422313E+01  0.36954429603E+03  0.43709924059E+03  0.57238971556E+03  0.00000000000E+00 0. -1.
        -13    1    5    5    0    0 -0.99112534158E+02  0.60358245249E+03  0.83639675082E+03  0.10361923548E+04  0.00000000000E+00 0.  1.
          2    1    6    6  503    0 -0.57007134536E+03  0.20724227173E+03  0.11318834706E+04  0.12841693382E+04  0.00000000000E+00 0. -1.
         -2    1    6    6    0  503 -0.48927125376E+02  0.13565195417E+02  0.50408101537E+02  0.71546172678E+02  0.00000000000E+00 0.  1.
<mgrwt>
<rscale>  0 0.34160143E+04</rscale>
<asrwt>0</asrwt>
<pdfrwt beam="1">  1        1 0.55112265E+00 0.34160143E+04</pdfrwt>
<pdfrwt beam="2">  1       -1 0.12528653E+00 0.34160143E+04</pdfrwt>
<totfact> 0.98106455E-02</totfact>
</mgrwt>
</event>
<event>
12    3  0.8686020E-008  0.2298313E+04  0.7818608E-02  0.8478586E-01
          2   -1    0    0  501    0  0.00000000000E+00  0.00000000000E+00  0.17813880720E+04  0.17813880720E+04  0.00000000000E+00 0. -1.
         -2   -1    0    0    0  501 -0.00000000000E+00 -0.00000000000E+00 -0.74131018822E+03  0.74131018822E+03  0.00000000000E+00 0.  1.
         23    2    1    2    0    0  0.27798909507E+03 -0.58593142349E+03  0.12347554654E+04  0.13975753166E+04  0.89454659613E+02 0.  0.
        254    2    1    2    0    0 -0.27798909507E+03  0.58593142349E+03 -0.19467758164E+03  0.11251229436E+04  0.89855923984E+03 0.  0.
         23    2    4    4    0    0  0.32045521789E+03  0.19638575097E+03 -0.67897614997E+02  0.39415111160E+03  0.97396626219E+02 0.  0.
         23    2    4    4    0    0 -0.59844431296E+03  0.38954567252E+03 -0.12677996665E+03  0.73097183204E+03  0.91461645482E+02 0.  0.
          1    1    3    3  502    0  0.19482926151E+03 -0.44929828128E+03  0.85152384906E+03  0.98230354383E+03  0.00000000000E+00 0. -1.
         -1    1    3    3    0  502  0.83159833563E+02 -0.13663314221E+03  0.38323161636E+03  0.41527177275E+03  0.00000000000E+00 0.  1.
         13    1    5    5    0    0  0.31344380180E+03  0.20180461989E+03 -0.52613738382E+02  0.37648416562E+03  0.00000000000E+00 0. -1.
        -13    1    5    5    0    0  0.70114160957E+01 -0.54188689247E+01 -0.15283876615E+02  0.17666945986E+02  0.00000000000E+00 0.  1.
          4    1    6    6  503    0 -0.17310277557E+03  0.11403531247E+03 -0.79442086365E+02  0.22199024412E+03  0.00000000000E+00 0. -1.
         -4    1    6    6    0  503 -0.42534153739E+03  0.27551036005E+03 -0.47337880281E+02  0.50898158791E+03  0.00000000000E+00 0.  1.
<mgrwt>
<rscale>  0 0.22983134E+04</rscale>
<asrwt>0</asrwt>
<pdfrwt beam="1">  1        2 0.27405970E+00 0.22983134E+04</pdfrwt>
<pdfrwt beam="2">  1       -2 0.11404772E+00 0.22983134E+04</pdfrwt>
<totfact> 0.48217801E+00</totfact>
</mgrwt>
</event>
<event>
12    3  0.8686020E-008  0.2257264E+04  0.7818608E-02  0.8494964E-01
         -2   -1    0    0    0  501 -0.00000000000E+00  0.00000000000E+00  0.42142403932E+03  0.42142403932E+03  0.00000000000E+00 0.  1.
          2   -1    0    0  501    0  0.00000000000E+00 -0.00000000000E+00 -0.30226342331E+04  0.30226342331E+04  0.00000000000E+00 0. -1.
         23    2    1    2    0    0 -0.43051624956E+03  0.83019065511E+03 -0.87184201218E+03  0.12817803757E+04  0.91058620292E+02 0.  0.
        254    2    1    2    0    0  0.43051624956E+03 -0.83019065511E+03 -0.17293681816E+04  0.21622778967E+04  0.90009478955E+03 0.  0.
         23    2    4    4    0    0 -0.14516793924E+03 -0.19300526218E+03 -0.35216971127E+02  0.26085701100E+03  0.92094426098E+02 0.  0.
         23    2    4    4    0    0  0.57568418880E+03 -0.63718539293E+03 -0.16941512104E+04  0.19014208857E+04  0.88518645207E+02 0.  0.
          4    1    3    3  502    0 -0.34717762828E+03  0.72615145174E+03 -0.77167461132E+03  0.11150380900E+04  0.00000000000E+00 0. -1.
         -4    1    3    3    0  502 -0.83338621272E+02  0.10403920337E+03 -0.10016740086E+03  0.16674228566E+03  0.00000000000E+00 0.  1.
         13    1    5    5    0    0 -0.13142928258E+03 -0.16075158276E+03 -0.62044287718E+02  0.21671230080E+03  0.00000000000E+00 0. -1.
        -13    1    5    5    0    0 -0.13738656663E+02 -0.32253679421E+02  0.26827316591E+02  0.44144710199E+02  0.00000000000E+00 0.  1.
          1    1    6    6  503    0  0.33247086448E+03 -0.35886113443E+03 -0.86821051101E+03  0.99654788192E+03  0.00000000000E+00 0. -1.
         -1    1    6    6    0  503  0.24321332431E+03 -0.27832425850E+03 -0.82594069942E+03  0.90487300377E+03  0.00000000000E+00 0.  1.
<mgrwt>
<rscale>  0 0.22572645E+04</rscale>
<asrwt>0</asrwt>
<pdfrwt beam="1">  1        2 0.46502067E+00 0.22572645E+04</pdfrwt>
<pdfrwt beam="2">  1       -2 0.64834465E-01 0.22572645E+04</pdfrwt>
<totfact> 0.33686892E+00</totfact>
</mgrwt>
</event>
<event>
12    3  0.8686020E-008  0.1808943E+04  0.7818608E-02  0.8701558E-01
          1   -1    0    0  501    0  0.00000000000E+00  0.00000000000E+00  0.14338273466E+04  0.14338273466E+04  0.00000000000E+00 0. -1.
         -1   -1    0    0    0  501 -0.00000000000E+00 -0.00000000000E+00 -0.57054878559E+03  0.57054878559E+03  0.00000000000E+00 0.  1.
         23    2    1    2    0    0 -0.58361150575E+03  0.20968217050E+03  0.23288672882E+02  0.62757283328E+03  0.93468157800E+02 0.  0.
        254    2    1    2    0    0  0.58361150575E+03 -0.20968217050E+03  0.83998988809E+03  0.13768032989E+04  0.89746047793E+03 0.  0.
         23    2    4    4    0    0  0.53280276811E+03  0.16457033202E+03  0.14968494384E+03  0.58453023277E+03  0.91147280369E+02 0.  0.
         23    2    4    4    0    0  0.50808737632E+02 -0.37425250251E+03  0.69030494425E+03  0.79227306611E+03  0.92353840028E+02 0.  0.
          2    1    3    3  502    0 -0.12301631017E+02 -0.45249896977E+01  0.11302934985E+02  0.17307859392E+02  0.00000000000E+00 0. -1.
         -2    1    3    3    0  502 -0.57130987473E+03  0.21420716020E+03  0.11985737897E+02  0.61026497389E+03  0.00000000000E+00 0.  1.
         13    1    5    5    0    0  0.30608291665E+03  0.86028078051E+02  0.13097287065E+03  0.34386258146E+03  0.00000000000E+00 0. -1.
        -13    1    5    5    0    0  0.22671985146E+03  0.78542253964E+02  0.18712073185E+02  0.24066765131E+03  0.00000000000E+00 0.  1.
          1    1    6    6  503    0  0.84272731906E+01 -0.94116929385E+02  0.26403991444E+03  0.28043910524E+03  0.00000000000E+00 0. -1.
         -1    1    6    6    0  503  0.42381464442E+02 -0.28013557313E+03  0.42626502982E+03  0.51183396087E+03  0.00000000000E+00 0.  1.
<mgrwt>
<rscale>  0 0.18089427E+04</rscale>
<asrwt>0</asrwt>
<pdfrwt beam="1">  1        1 0.22058882E+00 0.18089427E+04</pdfrwt>
<pdfrwt beam="2">  1       -1 0.87776737E-01 0.18089427E+04</pdfrwt>
<totfact> 0.87541111E+00</totfact>
</mgrwt>
</event>
<event>
12    3  0.8686020E-008  0.1795845E+04  0.7818608E-02  0.8708512E-01
          2   -1    0    0  501    0  0.00000000000E+00  0.00000000000E+00  0.68730820867E+03  0.68730820867E+03  0.00000000000E+00 0. -1.
         -2   -1    0    0    0  501 -0.00000000000E+00 -0.00000000000E+00 -0.11730758899E+04  0.11730758899E+04  0.00000000000E+00 0.  1.
         23    2    1    2    0    0  0.46791359772E+03 -0.37230602647E+03 -0.48904889838E+03  0.77774638031E+03  0.90364234071E+02 0.  0.
        254    2    1    2    0    0 -0.46791359772E+03  0.37230602647E+03  0.32812171243E+01  0.10826377183E+04  0.90251800560E+03 0.  0.
         23    2    4    4    0    0 -0.10526678904E+03  0.36014067309E+03  0.38664851506E+03  0.54634736195E+03  0.90641957312E+02 0.  0.
         23    2    4    4    0    0 -0.36264680868E+03  0.12165353377E+02 -0.38336729794E+03  0.53629035635E+03  0.94742585521E+02 0.  0.
          3    1    3    3  502    0  0.39628595706E+03 -0.34617050916E+03 -0.40306698061E+03  0.66282695482E+03  0.00000000000E+00 0. -1.
         -3    1    3    3    0  502  0.71627640658E+02 -0.26135517309E+02 -0.85981917775E+02  0.11491942549E+03  0.00000000000E+00 0.  1.
         13    1    5    5    0    0 -0.11389664160E+02  0.19501605349E+03  0.21258290191E+03  0.28870828833E+03  0.00000000000E+00 0.  1.
        -13    1    5    5    0    0 -0.93877124876E+02  0.16512461960E+03  0.17406561316E+03  0.25763907362E+03  0.00000000000E+00 0. -1.
          2    1    6    6  503    0 -0.54326822848E+02 -0.24254519716E+02 -0.97745788288E+02  0.11442868755E+03  0.00000000000E+00 0. -1.
         -2    1    6    6    0  503 -0.30831998583E+03  0.36419873092E+02 -0.28562150965E+03  0.42186166879E+03  0.00000000000E+00 0.  1.
<mgrwt>
<rscale>  0 0.17958449E+04</rscale>
<asrwt>0</asrwt>
<pdfrwt beam="1">  1        2 0.10573973E+00 0.17958449E+04</pdfrwt>
<pdfrwt beam="2">  1       -2 0.18047321E+00 0.17958449E+04</pdfrwt>
<totfact> 0.71214290E+00</totfact>
</mgrwt>
</event>
<event>
12    3  0.8686020E-008  0.1776812E+04  0.7818608E-02  0.8718729E-01
          2   -1    0    0  501    0  0.00000000000E+00  0.00000000000E+00  0.16687536264E+04  0.16687536264E+04  0.00000000000E+00 0. -1.
         -2   -1    0    0    0  501 -0.00000000000E+00 -0.00000000000E+00 -0.47296695734E+03  0.47296695734E+03  0.00000000000E+00 0.  1.
         23    2    1    2    0    0 -0.47958334347E+03  0.30064881140E+03  0.47046105670E+02  0.57531953040E+03  0.91593312335E+02 0.  0.
        254    2    1    2    0    0  0.47958334347E+03 -0.30064881140E+03  0.11487405634E+04  0.15664010533E+04  0.90200747603E+03 0.  0.
         23    2    4    4    0    0  0.38536615533E+03  0.27181076035E+02  0.11461479763E+04  0.12131116934E+04  0.93482150784E+02 0.  0.
         23    2    4    4    0    0  0.94217188147E+02 -0.32782988743E+03  0.25925871212E+01  0.35328935998E+03  0.91963779442E+02 0.  0.
          1    1    3    3  502    0 -0.44031143469E+03  0.24103555963E+03  0.43369603563E+02  0.50383848904E+03  0.00000000000E+00 0. -1.
         -1    1    3    3    0  502 -0.39271908786E+02  0.59613251766E+02  0.36765021073E+01  0.71481041358E+02  0.00000000000E+00 0.  1.
         13    1    5    5    0    0  0.15317787357E+03 -0.26649119538E+02  0.53487721924E+03  0.55701640567E+03  0.00000000000E+00 0.  1.
        -13    1    5    5    0    0  0.23218828176E+03  0.53830195573E+02  0.61127075702E+03  0.65609528769E+03  0.00000000000E+00 0. -1.
          1    1    6    6  503    0 -0.15059262787E+02 -0.12718451855E+02  0.14679132710E+01  0.19766010792E+02  0.00000000000E+00 0. -1.
         -1    1    6    6    0  503  0.10927645093E+03 -0.31511143558E+03  0.11246738502E+01  0.33352334919E+03  0.00000000000E+00 0.  1.
<mgrwt>
<rscale>  0 0.17768121E+04</rscale>
<asrwt>0</asrwt>
<pdfrwt beam="1">  1        2 0.25673132E+00 0.17768121E+04</pdfrwt>
<pdfrwt beam="2">  1       -2 0.72764148E-01 0.17768121E+04</pdfrwt>
<totfact> 0.16482880E+01</totfact>
</mgrwt>
</event>
<event>
12    3  0.8686020E-008  0.1872387E+04  0.7818608E-02  0.8668725E-01
          2   -1    0    0  501    0  0.00000000000E+00  0.00000000000E+00  0.74303110700E+03  0.74303110700E+03  0.00000000000E+00 0. -1.
         -2   -1    0    0    0  501 -0.00000000000E+00 -0.00000000000E+00 -0.11795712877E+04  0.11795712877E+04  0.00000000000E+00 0.  1.
         23    2    1    2    0    0  0.28392452391E+03  0.23406047844E+03  0.46325896514E+03  0.59826699326E+03  0.88977995040E+02 0.  0.
        254    2    1    2    0    0 -0.28392452391E+03 -0.23406047844E+03 -0.89979914588E+03  0.13243354015E+04  0.89934882544E+03 0.  0.
         23    2    4    4    0    0 -0.49461764452E+03  0.10834674445E+03 -0.69373079719E+03  0.86358262209E+03  0.90149292328E+02 0.  0.
         23    2    4    4    0    0  0.21069312061E+03 -0.34240722289E+03 -0.20606834869E+03  0.46075277938E+03  0.90524372492E+02 0.  0.
          3    1    3    3  502    0  0.16924706339E+02  0.33328845377E+02  0.89491305124E+02  0.96984283839E+02  0.00000000000E+00 0. -1.
         -3    1    3    3    0  502  0.26699981757E+03  0.20073163306E+03  0.37376766001E+03  0.50128270942E+03  0.00000000000E+00 0.  1.
         13    1    5    5    0    0 -0.17205102868E+03 -0.57444820650E+01 -0.22945520745E+03  0.28685231003E+03  0.00000000000E+00 0.  1.
        -13    1    5    5    0    0 -0.32256661584E+03  0.11409122652E+03 -0.46427558974E+03  0.57673031206E+03  0.00000000000E+00 0. -1.
          2    1    6    6  503    0  0.20197157405E+02 -0.26135296525E+02 -0.49969481290E+02  0.59899315122E+02  0.00000000000E+00 0.  1.
         -2    1    6    6    0  503  0.19049596320E+03 -0.31627192637E+03 -0.15609886740E+03  0.40085346426E+03  0.00000000000E+00 0. -1.
<mgrwt>
<rscale>  0 0.18723869E+04</rscale>
<asrwt>0</asrwt>
<pdfrwt beam="1">  1        2 0.11431248E+00 0.18723869E+04</pdfrwt>
<pdfrwt beam="2">  1       -2 0.18147251E+00 0.18723869E+04</pdfrwt>
<totfact> 0.63069024E+00</totfact>
</mgrwt>
</event>
<event>
12    3  0.8686020E-008  0.1697631E+04  0.7818608E-02  0.8762717E-01
          2   -1    0    0  501    0  0.00000000000E+00  0.00000000000E+00  0.16573716443E+04  0.16573716443E+04  0.00000000000E+00 0. -1.
         -2   -1    0    0    0  501 -0.00000000000E+00 -0.00000000000E+00 -0.43471699209E+03  0.43471699209E+03  0.00000000000E+00 0.  1.
         23    2    1    2    0    0  0.22348804854E+03 -0.29932278734E+03  0.10292145670E+04  0.10986999683E+04  0.91202832692E+02 0.  0.
        254    2    1    2    0    0 -0.22348804854E+03  0.29932278734E+03  0.19344008523E+03  0.99338866805E+03  0.89992274134E+03 0.  0.
         23    2    4    4    0    0  0.20919708479E+02  0.38264825790E+03 -0.25540134797E+03  0.46957287535E+03  0.91714302276E+02 0.  0.
         23    2    4    4    0    0 -0.24440775702E+03 -0.83325470563E+02  0.44884143320E+03  0.52381579270E+03  0.79032061791E+02 0.  0.
          3    1    3    3  502    0  0.16658138187E+03 -0.14799696818E+03  0.60249972851E+03  0.64238491750E+03  0.00000000000E+00 0. -1.
         -3    1    3    3    0  502  0.56906666673E+02 -0.15132581916E+03  0.42671483846E+03  0.45631505083E+03  0.00000000000E+00 0.  1.
         13    1    5    5    0    0 -0.24894244030E+02  0.27824666022E+03 -0.16875214090E+03  0.32637127994E+03  0.00000000000E+00 0. -1.
        -13    1    5    5    0    0  0.45813952510E+02  0.10440159768E+03 -0.86649207069E+02  0.14320159541E+03  0.00000000000E+00 0.  1.
          3    1    6    6  503    0 -0.13739161149E+03 -0.85886260948E+02  0.29167180970E+03  0.33365453586E+03  0.00000000000E+00 0. -1.
         -3    1    6    6    0  503 -0.10701614554E+03  0.25607903852E+01  0.15716962350E+03  0.19016125684E+03  0.00000000000E+00 0.  1.
<mgrwt>
<rscale>  0 0.16976308E+04</rscale>
<asrwt>0</asrwt>
<pdfrwt beam="1">  1        2 0.25498025E+00 0.16976308E+04</pdfrwt>
<pdfrwt beam="2">  1       -2 0.66879538E-01 0.16976308E+04</pdfrwt>
<totfact> 0.20235240E+01</totfact>
</mgrwt>
</event>
<event>
12    3  0.8686020E-008  0.2516429E+04  0.7818608E-02  0.8397156E-01
         -2   -1    0    0    0  501 -0.00000000000E+00  0.00000000000E+00  0.41476026096E+03  0.41476026096E+03  0.00000000000E+00 0. -1.
          2   -1    0    0  501    0  0.00000000000E+00 -0.00000000000E+00 -0.38169135908E+04  0.38169135908E+04  0.00000000000E+00 0.  1.
         23    2    1    2    0    0  0.94015342061E+03 -0.50235728871E+03 -0.19086394464E+04  0.21879681011E+04  0.89713852425E+02 0.  0.
        254    2    1    2    0    0 -0.94015342061E+03  0.50235728871E+03 -0.14935138835E+04  0.20437057507E+04  0.89994342901E+03 0.  0.
         23    2    4    4    0    0  0.20327770062E+01  0.42095040416E+03 -0.60829632892E+03  0.74539417380E+03  0.91567874414E+02 0.  0.
         23    2    4    4    0    0 -0.94218619762E+03  0.81406884552E+02 -0.88521755457E+03  0.12983115769E+04  0.87526681183E+02 0.  0.
          3    1    3    3  502    0  0.77367124802E+03 -0.39461726449E+03 -0.14876539061E+04  0.17226154910E+04  0.00000000000E+00 0. -1.
         -3    1    3    3    0  502  0.16648217259E+03 -0.10774002422E+03 -0.42098554028E+03  0.46535261011E+03  0.00000000000E+00 0.  1.
         13    1    5    5    0    0  0.14458091238E+02  0.13442337350E+03 -0.26947517972E+03  0.30148889238E+03  0.00000000000E+00 0. -1.
        -13    1    5    5    0    0 -0.12425314232E+02  0.28652703065E+03 -0.33882114920E+03  0.44390528142E+03  0.00000000000E+00 0.  1.
          3    1    6    6  503    0 -0.81139213900E+03  0.87079071381E+02 -0.72666328491E+03  0.10926936888E+04  0.00000000000E+00 0. -1.
         -3    1    6    6    0  503 -0.13079405862E+03 -0.56721868287E+01 -0.15855426967E+03  0.20561788809E+03  0.00000000000E+00 0.  1.
<mgrwt>
<rscale>  0 0.25164293E+04</rscale>
<asrwt>0</asrwt>
<pdfrwt beam="1">  1        2 0.58721744E+00 0.25164293E+04</pdfrwt>
<pdfrwt beam="2">  1       -2 0.63809275E-01 0.25164293E+04</pdfrwt>
<totfact> 0.96689822E-01</totfact>
</mgrwt>
</event>
<event>
12    3  0.8686020E-008  0.3309843E+04  0.7818608E-02  0.8160395E-01
         -2   -1    0    0    0  501 -0.00000000000E+00  0.00000000000E+00  0.20603706529E+04  0.20603706529E+04  0.00000000000E+00 0.  1.
          2   -1    0    0  501    0  0.00000000000E+00 -0.00000000000E+00 -0.13292583365E+04  0.13292583365E+04  0.00000000000E+00 0. -1.
         23    2    1    2    0    0  0.13311463704E+04 -0.39182883562E+03 -0.32360477426E+03  0.14275799562E+04  0.88226899419E+02 0.  0.
        254    2    1    2    0    0 -0.13311463704E+04  0.39182883562E+03  0.10547170907E+04  0.19620490332E+04  0.90095936188E+03 0.  0.
         23    2    4    4    0    0 -0.32091963923E+03  0.15723404598E+03  0.81466704891E+03  0.89347472024E+03  0.83082579748E+02 0.  0.
         23    2    4    4    0    0 -0.10102267311E+04  0.23459478965E+03  0.24005004174E+03  0.10685743130E+04  0.92920806286E+02 0.  0.
          2    1    3    3  502    0  0.12498440596E+04 -0.34688297990E+03 -0.31078153501E+03  0.13338002615E+04  0.00000000000E+00 0. -1.
         -2    1    3    3    0  502  0.81302310796E+02 -0.44945855727E+02 -0.12823239253E+02  0.93779694778E+02  0.00000000000E+00 0.  1.
         13    1    5    5    0    0 -0.31313470858E+03  0.15292696015E+03  0.81284039031E+03  0.88439216469E+03  0.00000000000E+00 0.  1.
        -13    1    5    5    0    0 -0.77849306496E+01  0.43070858275E+01  0.18266586097E+01  0.90825555446E+01  0.00000000000E+00 0. -1.
          4    1    6    6  503    0 -0.48185073317E+03  0.89078905553E+02  0.71570983518E+02  0.49521468693E+03  0.00000000000E+00 0. -1.
         -4    1    6    6    0  503 -0.52837599796E+03  0.14551588409E+03  0.16847905822E+03  0.57335962606E+03  0.00000000000E+00 0.  1.
<mgrwt>
<rscale>  0 0.33098428E+04</rscale>
<asrwt>0</asrwt>
<pdfrwt beam="1">  1        2 0.20450128E+00 0.33098428E+04</pdfrwt>
<pdfrwt beam="2">  1       -2 0.31698010E+00 0.33098428E+04</pdfrwt>
<totfact> 0.33149886E-01</totfact>
</mgrwt>
</event>
<event>
12    3  0.8686020E-008  0.2031745E+04  0.7818608E-02  0.8591921E-01
          1   -1    0    0  501    0  0.00000000000E+00  0.00000000000E+00  0.13752696160E+04  0.13752696160E+04  0.00000000000E+00 0. -1.
         -1   -1    0    0    0  501 -0.00000000000E+00 -0.00000000000E+00 -0.75039644645E+03  0.75039644645E+03  0.00000000000E+00 0.  1.
         23    2    1    2    0    0 -0.74531185036E+03  0.32613047863E+03  0.24892015675E+03  0.85560740942E+03  0.90840251264E+02 0.  0.
        254    2    1    2    0    0  0.74531185036E+03 -0.32613047863E+03  0.37595301275E+03  0.12700586530E+04  0.89992081364E+03 0.  0.
         23    2    4    4    0    0  0.65134166176E+02 -0.25285891940E+03  0.49740379853E+03  0.56918496486E+03  0.91547215728E+02 0.  0.
         23    2    4    4    0    0  0.68017768418E+03 -0.73271559238E+02 -0.12145078577E+03  0.70087368812E+03  0.91995814479E+02 0.  0.
          2    1    3    3  502    0 -0.49857393784E+03  0.21766165840E+03  0.21065819223E+03  0.58337761611E+03  0.00000000000E+00 0. -1.
         -2    1    3    3    0  502 -0.24673791252E+03  0.10846882023E+03  0.38261964518E+02  0.27222979331E+03  0.00000000000E+00 0.  1.
         13    1    5    5    0    0 -0.20736191199E+02 -0.22515198253E+02  0.63163206580E+02  0.70189133370E+02  0.00000000000E+00 0.  1.
        -13    1    5    5    0    0  0.85870357375E+02 -0.23034372114E+03  0.43424059195E+03  0.49899583149E+03  0.00000000000E+00 0. -1.
          1    1    6    6  503    0  0.54277451582E+03 -0.30687049289E+02 -0.12136113506E+03  0.55702279587E+03  0.00000000000E+00 0. -1.
         -1    1    6    6    0  503  0.13740316836E+03 -0.42584509949E+02 -0.89650715251E-01  0.14385089224E+03  0.00000000000E+00 0.  1.
<mgrwt>
<rscale>  0 0.20317455E+04</rscale>
<asrwt>0</asrwt>
<pdfrwt beam="1">  1        1 0.21157994E+00 0.20317455E+04</pdfrwt>
<pdfrwt beam="2">  1       -1 0.11544561E+00 0.20317455E+04</pdfrwt>
<totfact> 0.50315155E+00</totfact>
</mgrwt>
</event>
<event>
12    3  0.8686020E-008  0.1301381E+04  0.7818608E-02  0.9028470E-01
         -1   -1    0    0    0  501 -0.00000000000E+00  0.00000000000E+00  0.13597774940E+04  0.13597774940E+04  0.00000000000E+00 0.  1.
          1   -1    0    0  501    0  0.00000000000E+00 -0.00000000000E+00 -0.31137326824E+03  0.31137326824E+03  0.00000000000E+00 0. -1.
         23    2    1    2    0    0  0.13875871984E+03  0.30134928557E+03  0.28779046164E+03  0.44831915036E+03  0.90007424831E+02 0.  0.
        254    2    1    2    0    0 -0.13875871984E+03 -0.30134928557E+03  0.76061376413E+03  0.12228316119E+04  0.89817508237E+03 0.  0.
         23    2    4    4    0    0 -0.36835494939E+02  0.64354979981E+02 -0.17187341717E+03  0.21247957430E+03  0.10054193568E+03 0.  0.
         23    2    4    4    0    0 -0.10192322490E+03 -0.36570426555E+03  0.93248718130E+03  0.10103520376E+04  0.84563248169E+02 0.  0.
          2    1    3    3  502    0  0.10565711614E+02  0.33116563091E+02  0.75174927956E+02  0.82822767438E+02  0.00000000000E+00 0.  1.
         -2    1    3    3    0  502  0.12819300822E+03  0.26823272248E+03  0.21261553368E+03  0.36549638292E+03  0.00000000000E+00 0. -1.
         13    1    5    5    0    0  0.13924306451E+02  0.26062427392E+02 -0.35082619707E+00  0.29550964632E+02  0.00000000000E+00 0. -1.
        -13    1    5    5    0    0 -0.50759801390E+02  0.38292552590E+02 -0.17152259098E+03  0.18292860967E+03  0.00000000000E+00 0.  1.
          3    1    6    6  503    0 -0.12388984556E+02 -0.98453844685E+02  0.34100807392E+03  0.35515229543E+03  0.00000000000E+00 0. -1.
         -3    1    6    6    0  503 -0.89534240342E+02 -0.26725042087E+03  0.59147910738E+03  0.65519974215E+03  0.00000000000E+00 0.  1.
<mgrwt>
<rscale>  0 0.13013814E+04</rscale>
<asrwt>0</asrwt>
<pdfrwt beam="1">  1        1 0.47903581E-01 0.13013814E+04</pdfrwt>
<pdfrwt beam="2">  1       -1 0.20919653E+00 0.13013814E+04</pdfrwt>
<totfact> 0.10682778E+01</totfact>
</mgrwt>
</event>
<event>
12    3  0.8686020E-008  0.1835909E+04  0.7818608E-02  0.8687433E-01
          1   -1    0    0  501    0  0.00000000000E+00  0.00000000000E+00  0.14236336600E+04  0.14236336600E+04  0.00000000000E+00 0. -1.
         -1   -1    0    0    0  501 -0.00000000000E+00 -0.00000000000E+00 -0.59189391684E+03  0.59189391684E+03  0.00000000000E+00 0.  1.
         23    2    1    2    0    0 -0.17327151152E+03 -0.50814888180E+03  0.80105752873E+03  0.96836974690E+03  0.88365715041E+02 0.  0.
        254    2    1    2    0    0  0.17327151152E+03  0.50814888180E+03  0.30682214388E+02  0.10471578299E+04  0.89853203596E+03 0.  0.
         23    2    4    4    0    0 -0.35760509915E+02 -0.12322108019E+03  0.28807304836E+03  0.32818552717E+03  0.90870294263E+02 0.  0.
         23    2    4    4    0    0  0.20903202144E+03  0.63136996200E+03 -0.25739083397E+03  0.71897230273E+03  0.91371307203E+02 0.  0.
          2    1    3    3  502    0 -0.18601118136E+02 -0.80770320935E+02  0.74965333393E+02  0.11175709172E+03  0.00000000000E+00 0. -1.
         -2    1    3    3    0  502 -0.15467039339E+03 -0.42737856087E+03  0.72609219534E+03  0.85661265518E+03  0.00000000000E+00 0.  1.
         13    1    5    5    0    0 -0.36256339765E+02 -0.63523530263E+02  0.66989660962E+02  0.99183545743E+02  0.00000000000E+00 0.  1.
        -13    1    5    5    0    0  0.49582985022E+00 -0.59697549931E+02  0.22108338739E+03  0.22900198142E+03  0.00000000000E+00 0. -1.
          3    1    6    6  503    0  0.21224737172E+03  0.62940053082E+03 -0.26108453818E+03  0.71369398980E+03  0.00000000000E+00 0. -1.
         -3    1    6    6    0  503 -0.32153502812E+01  0.19694311717E+01  0.36937042073E+01  0.52783129257E+01  0.00000000000E+00 0.  1.
<mgrwt>
<rscale>  0 0.18359086E+04</rscale>
<asrwt>0</asrwt>
<pdfrwt beam="1">  1        1 0.21902056E+00 0.18359086E+04</pdfrwt>
<pdfrwt beam="2">  1       -1 0.91060603E-01 0.18359086E+04</pdfrwt>
<totfact> 0.81877908E+00</totfact>
</mgrwt>
</event>
<event>
12    3  0.8686020E-008  0.1688707E+04  0.7818608E-02  0.8767832E-01
          1   -1    0    0  501    0  0.00000000000E+00  0.00000000000E+00  0.18324599765E+04  0.18324599765E+04  0.00000000000E+00 0. -1.
         -1   -1    0    0    0  501 -0.00000000000E+00 -0.00000000000E+00 -0.38905768139E+03  0.38905768139E+03  0.00000000000E+00 0.  1.
         23    2    1    2    0    0 -0.27873231499E+03  0.26717256792E+03  0.11218471270E+04  0.11898696830E+04  0.90421245768E+02 0.  0.
        254    2    1    2    0    0  0.27873231499E+03 -0.26717256792E+03  0.32155516816E+03  0.10316479749E+04  0.90101439143E+03 0.  0.
         23    2    4    4    0    0 -0.33097278193E+02  0.79003464859E+02  0.50806837555E+03  0.52143316815E+03  0.80137989333E+02 0.  0.
         23    2    4    4    0    0  0.31182959319E+03 -0.34617603278E+03 -0.18651320738E+03  0.51021480679E+03  0.91958858631E+02 0.  0.
          1    1    3    3  502    0 -0.20929397115E+03  0.18451365686E+03  0.91429526626E+03  0.95592106883E+03  0.00000000000E+00 0. -1.
         -1    1    3    3    0  502 -0.69438343841E+02  0.82658911061E+02  0.20755186071E+03  0.23394861414E+03  0.00000000000E+00 0.  1.
         13    1    5    5    0    0 -0.10085473498E+02  0.76099702985E+01  0.63535609348E+01  0.14141999864E+02  0.00000000000E+00 0. -1.
        -13    1    5    5    0    0 -0.23011804695E+02  0.71393494560E+02  0.50171481461E+03  0.50729116829E+03  0.00000000000E+00 0.  1.
          3    1    6    6  503    0  0.19982645133E+03 -0.15330916101E+03 -0.10061017394E+03  0.27121341522E+03  0.00000000000E+00 0. -1.
         -3    1    6    6    0  503  0.11200314186E+03 -0.19286687178E+03 -0.85903033446E+02  0.23900139157E+03  0.00000000000E+00 0.  1.
<mgrwt>
<rscale>  0 0.16887068E+04</rscale>
<asrwt>0</asrwt>
<pdfrwt beam="1">  1        1 0.28191692E+00 0.16887068E+04</pdfrwt>
<pdfrwt beam="2">  1       -1 0.59855029E-01 0.16887068E+04</pdfrwt>
<totfact> 0.10438944E+01</totfact>
</mgrwt>
</event>
<event>
12    3  0.8686020E-008  0.2824817E+04  0.7818608E-02  0.8295605E-01
          2   -1    0    0  501    0  0.00000000000E+00  0.00000000000E+00  0.18807384407E+04  0.18807384407E+04  0.00000000000E+00 0. -1.
         -2   -1    0    0    0  501 -0.00000000000E+00 -0.00000000000E+00 -0.10606991626E+04  0.10606991626E+04  0.00000000000E+00 0.  1.
         23    2    1    2    0    0 -0.79708047622E+03  0.18385987096E+03  0.13760050328E+04  0.16034032125E+04  0.91489201891E+02 0.  0.
        254    2    1    2    0    0  0.79708047622E+03 -0.18385987096E+03 -0.55596575468E+03  0.13380343908E+04  0.90116389898E+03 0.  0.
         23    2    4    4    0    0  0.53545340561E+03 -0.25619594365E+03  0.11204584793E+03  0.61096080239E+03  0.91499283543E+02 0.  0.
         23    2    4    4    0    0  0.26162707061E+03  0.72336072693E+02 -0.66801160260E+03  0.72707358839E+03  0.93355611714E+02 0.  0.
          3    1    3    3  502    0 -0.56718128094E+03  0.92732577884E+02  0.99928667030E+03  0.11527652779E+04  0.00000000000E+00 0. -1.
         -3    1    3    3    0  502 -0.22989919528E+03  0.91127293073E+02  0.37671836247E+03  0.45063793466E+03  0.00000000000E+00 0.  1.
         13    1    5    5    0    0  0.51687957219E+03 -0.24059863002E+03  0.12468913024E+03  0.58360909187E+03  0.00000000000E+00 0.  1.
        -13    1    5    5    0    0  0.18573833424E+02 -0.15597313631E+02 -0.12643282311E+02  0.27351710516E+02  0.00000000000E+00 0. -1.
          3    1    6    6  503    0 -0.15462710324E+01 -0.41498221987E+01  0.60366445132E+00  0.44694954029E+01  0.00000000000E+00 0. -1.
         -3    1    6    6    0  503  0.26317334164E+03  0.76485894891E+02 -0.66861526706E+03  0.72260409299E+03  0.00000000000E+00 0.  1.
<mgrwt>
<rscale>  0 0.28248169E+04</rscale>
<asrwt>0</asrwt>
<pdfrwt beam="1">  1        2 0.28934437E+00 0.28248169E+04</pdfrwt>
<pdfrwt beam="2">  1       -2 0.16318449E+00 0.28248169E+04</pdfrwt>
<totfact> 0.16132563E+00</totfact>
</mgrwt>
</event>
<event>
12    3  0.8686020E-008  0.1572149E+04  0.7818608E-02  0.8837843E-01
          2   -1    0    0  501    0  0.00000000000E+00  0.00000000000E+00  0.21643195812E+04  0.21643195812E+04  0.00000000000E+00 0. -1.
         -2   -1    0    0    0  501 -0.00000000000E+00 -0.00000000000E+00 -0.28550000468E+03  0.28550000468E+03  0.00000000000E+00 0.  1.
         23    2    1    2    0    0 -0.52000572982E+03 -0.63991959889E+02  0.62553786035E+03  0.82134801007E+03  0.93882953409E+02 0.  0.
        254    2    1    2    0    0  0.52000572982E+03  0.63991959889E+02  0.12532817161E+04  0.16284715758E+04  0.89816684592E+03 0.  0.
         23    2    4    4    0    0 -0.14751133067E+03  0.21194851216E+03  0.67653759166E+03  0.72947548776E+03  0.88031868277E+02 0.  0.
         23    2    4    4    0    0  0.66751706049E+03 -0.14795655228E+03  0.57674412448E+03  0.89899608801E+03  0.89944503600E+02 0.  0.
          3    1    3    3  502    0 -0.31444199432E+03  0.30209011345E+01  0.40165416656E+03  0.51010681543E+03  0.00000000000E+00 0. -1.
         -3    1    3    3    0  502 -0.20556373550E+03 -0.67012861023E+02  0.22388369379E+03  0.31124119464E+03  0.00000000000E+00 0.  1.
         13    1    5    5    0    0 -0.66911560485E+02  0.13695303743E+03  0.29068813957E+03  0.32822688170E+03  0.00000000000E+00 0.  1.
        -13    1    5    5    0    0 -0.80599770185E+02  0.74995474738E+02  0.38584945209E+03  0.40124860606E+03  0.00000000000E+00 0. -1.
          2    1    6    6  503    0  0.11606516391E+03  0.50734439224E+01  0.11734390762E+03  0.16512557271E+03  0.00000000000E+00 0. -1.
         -2    1    6    6    0  503  0.55145189658E+03 -0.15302999620E+03  0.45940021686E+03  0.73387051531E+03  0.00000000000E+00 0.  1.
<mgrwt>
<rscale>  0 0.15721492E+04</rscale>
<asrwt>0</asrwt>
<pdfrwt beam="1">  1        2 0.33297223E+00 0.15721492E+04</pdfrwt>
<pdfrwt beam="2">  1       -2 0.43923079E-01 0.15721492E+04</pdfrwt>
<totfact> 0.25563281E+01</totfact>
</mgrwt>
</event>
<event>
12    3  0.8686020E-008  0.2237917E+04  0.7818608E-02  0.8502810E-01
         -2   -1    0    0    0  501 -0.00000000000E+00  0.00000000000E+00  0.74199875685E+03  0.74199875685E+03  0.00000000000E+00 0.  1.
          2   -1    0    0  501    0  0.00000000000E+00 -0.00000000000E+00 -0.16874261617E+04  0.16874261617E+04  0.00000000000E+00 0. -1.
         23    2    1    2    0    0  0.35981226847E+03  0.84895862655E+03 -0.22316301189E+03  0.95270605572E+03  0.87472741986E+02 0.  0.
        254    2    1    2    0    0 -0.35981226847E+03 -0.84895862655E+03 -0.72226439291E+03  0.14767188628E+04  0.89935372814E+03 0.  0.
         23    2    4    4    0    0  0.14587629062E+03 -0.36838047899E+03  0.74507554700E+02  0.41387547923E+03  0.93581339661E+02 0.  0.
         23    2    4    4    0    0 -0.50568855909E+03 -0.48057814756E+03 -0.79677194761E+03  0.10628433836E+04  0.90079113988E+02 0.  0.
          4    1    3    3  502    0  0.17879351107E+03  0.39238387128E+03 -0.14769617257E+03  0.45579203748E+03  0.00000000000E+00 0. -1.
         -4    1    3    3    0  502  0.18101875740E+03  0.45657475527E+03 -0.75466839317E+02  0.49691401824E+03  0.00000000000E+00 0.  1.
         13    1    5    5    0    0 -0.41696561468E+00 -0.10964467217E+03  0.13822471362E+02  0.11051329654E+03  0.00000000000E+00 0. -1.
        -13    1    5    5    0    0  0.14629325623E+03 -0.25873580682E+03  0.60685083339E+02  0.30336218269E+03  0.00000000000E+00 0.  1.
          2    1    6    6  503    0 -0.56227759491E+02 -0.29201002238E+02 -0.10360074756E+03  0.12143876796E+03  0.00000000000E+00 0. -1.
         -2    1    6    6    0  503 -0.44946079960E+03 -0.45137714532E+03 -0.69317120005E+03  0.94140461560E+03  0.00000000000E+00 0.  1.
<mgrwt>
<rscale>  0 0.22379170E+04</rscale>
<asrwt>0</asrwt>
<pdfrwt beam="1">  1        2 0.25960403E+00 0.22379170E+04</pdfrwt>
<pdfrwt beam="2">  1       -2 0.11415365E+00 0.22379170E+04</pdfrwt>
<totfact> 0.54528508E+00</totfact>
</mgrwt>
</event>
<event>
12    3  0.8686020E-008  0.3413311E+04  0.7818608E-02  0.8134647E-01
          1   -1    0    0  501    0  0.00000000000E+00  0.00000000000E+00  0.19216745028E+04  0.19216745028E+04  0.00000000000E+00 0.  1.
         -1   -1    0    0    0  501 -0.00000000000E+00 -0.00000000000E+00 -0.15156956584E+04  0.15156956584E+04  0.00000000000E+00 0. -1.
         23    2    1    2    0    0  0.50005478587E+02 -0.95709458132E+03  0.14624526936E+04  0.17509741849E+04  0.92801560531E+02 0.  0.
        254    2    1    2    0    0 -0.50005478587E+02  0.95709458132E+03 -0.10564738492E+04  0.16863959763E+04  0.89959091220E+03 0.  0.
         23    2    4    4    0    0  0.40375790307E+03  0.40966417120E+03 -0.34545561078E+03  0.67699625102E+03  0.90217334326E+02 0.  0.
         23    2    4    4    0    0 -0.45376338166E+03  0.54743041012E+03 -0.71101823841E+03  0.10093997253E+04  0.88088645990E+02 0.  0.
          2    1    3    3  502    0 -0.19206405998E+02 -0.51670661042E+03  0.79170875832E+03  0.94559894526E+03  0.00000000000E+00 0. -1.
         -2    1    3    3    0  502  0.69211884584E+02 -0.44038797090E+03  0.67074393527E+03  0.80537523961E+03  0.00000000000E+00 0.  1.
         13    1    5    5    0    0  0.28755450665E+03  0.26285921495E+03 -0.18907328851E+03  0.43304880742E+03  0.00000000000E+00 0.  1.
        -13    1    5    5    0    0  0.11620339642E+03  0.14680495625E+03 -0.15638232227E+03  0.24394744360E+03  0.00000000000E+00 0. -1.
          4    1    6    6  503    0 -0.98591790758E+02  0.10372545852E+03 -0.97974046585E+02  0.17343075204E+03  0.00000000000E+00 0. -1.
         -4    1    6    6    0  503 -0.35517159090E+03  0.44370495160E+03 -0.61304419183E+03  0.83596897322E+03  0.00000000000E+00 0.  1.
<mgrwt>
<rscale>  0 0.34133114E+04</rscale>
<asrwt>0</asrwt>
<pdfrwt beam="1">  1        1 0.29564223E+00 0.34133114E+04</pdfrwt>
<pdfrwt beam="2">  1       -1 0.23318395E+00 0.34133114E+04</pdfrwt>
<totfact> 0.24888772E-01</totfact>
</mgrwt>
</event>
<event>
12    3  0.8686020E-008  0.3932009E+04  0.7818608E-02  0.8018405E-01
         -1   -1    0    0    0  501 -0.00000000000E+00  0.00000000000E+00  0.15320622225E+04  0.15320622225E+04  0.00000000000E+00 0.  1.
          1   -1    0    0  501    0  0.00000000000E+00 -0.00000000000E+00 -0.25228575026E+04  0.25228575026E+04  0.00000000000E+00 0. -1.
         23    2    1    2    0    0  0.95634294158E+02 -0.18273404241E+04 -0.12037401677E+03  0.18360962738E+04  0.91873168741E+02 0.  0.
        254    2    1    2    0    0 -0.95634294158E+02  0.18273404241E+04 -0.87042126327E+03  0.22188234513E+04  0.90400519290E+03 0.  0.
         23    2    4    4    0    0 -0.40062628892E+03  0.49213548897E+03 -0.44848762474E+03  0.78241608185E+03  0.91296290784E+02 0.  0.
         23    2    4    4    0    0  0.30499199476E+03  0.13352049351E+04 -0.42193363852E+03  0.14364073695E+04  0.97189506032E+02 0.  0.
          4    1    3    3  502    0 -0.23597658455E+00 -0.32888516683E+03 -0.52453847932E+02  0.33304191149E+03  0.00000000000E+00 0. -1.
         -4    1    3    3    0  502  0.95870270743E+02 -0.14984552573E+04 -0.67920168840E+02  0.15030543623E+04  0.00000000000E+00 0.  1.
         13    1    5    5    0    0 -0.27297137602E+03  0.38952254640E+03 -0.30825765137E+03  0.56680152250E+03  0.00000000000E+00 0. -1.
        -13    1    5    5    0    0 -0.12765491290E+03  0.10261294257E+03 -0.14022997338E+03  0.21561455935E+03  0.00000000000E+00 0.  1.
          3    1    6    6  503    0  0.13247137480E+03  0.46011861142E+03 -0.10796254357E+03  0.49082961660E+03  0.00000000000E+00 0. -1.
         -3    1    6    6    0  503  0.17252061996E+03  0.87508632369E+03 -0.31397109495E+03  0.94557775286E+03  0.00000000000E+00 0.  1.
<mgrwt>
<rscale>  0 0.39320095E+04</rscale>
<asrwt>0</asrwt>
<pdfrwt beam="1">  1        1 0.38813192E+00 0.39320095E+04</pdfrwt>
<pdfrwt beam="2">  1       -1 0.23570188E+00 0.39320095E+04</pdfrwt>
<totfact> 0.88948370E-02</totfact>
</mgrwt>
</event>
<event>
12    3  0.8686020E-008  0.5060882E+04  0.7818608E-02  0.7819184E-01
          2   -1    0    0  501    0  0.00000000000E+00  0.00000000000E+00  0.28870351842E+04  0.28870351842E+04  0.00000000000E+00 0. -1.
         -2   -1    0    0    0  501 -0.00000000000E+00 -0.00000000000E+00 -0.22178914057E+04  0.22178914057E+04  0.00000000000E+00 0.  1.
         23    2    1    2    0    0  0.20029073046E+04 -0.13819455824E+04  0.61093516192E+03  0.25105046041E+04  0.89332701041E+02 0.  0.
        254    2    1    2    0    0 -0.20029073046E+04  0.13819455824E+04  0.58208616602E+02  0.25944219857E+04  0.89790084828E+03 0.  0.
         23    2    4    4    0    0 -0.18405254373E+04  0.86109426350E+03  0.12186118117E+03  0.20377766241E+04  0.93092459709E+02 0.  0.
         23    2    4    4    0    0 -0.16238186731E+03  0.52085131894E+03 -0.63652564565E+02  0.55664536169E+03  0.90268723475E+02 0.  0.
          1    1    3    3  502    0  0.11700259150E+04 -0.81197682338E+03  0.31228339936E+03  0.14580082047E+04  0.00000000000E+00 0. -1.
         -1    1    3    3    0  502  0.83288138960E+03 -0.56996875906E+03  0.29865176257E+03  0.10524963994E+04  0.00000000000E+00 0.  1.
         13    1    5    5    0    0 -0.90821853325E+03  0.47328651359E+03  0.45630006323E+02  0.10251551715E+04  0.00000000000E+00 0. -1.
        -13    1    5    5    0    0 -0.93230690406E+03  0.38780774991E+03  0.76231174844E+02  0.10126214526E+04  0.00000000000E+00 0.  1.
          3    1    6    6  503    0 -0.13232372876E+02  0.14795579016E+03 -0.42340681832E+02  0.15446276209E+03  0.00000000000E+00 0. -1.
         -3    1    6    6    0  503 -0.14914949443E+03  0.37289552878E+03 -0.21311882734E+02  0.40218259960E+03  0.00000000000E+00 0.  1.
<mgrwt>
<rscale>  0 0.50608816E+04</rscale>
<asrwt>0</asrwt>
<pdfrwt beam="1">  1        2 0.44415926E+00 0.50608816E+04</pdfrwt>
<pdfrwt beam="2">  1       -2 0.34121406E+00 0.50608816E+04</pdfrwt>
<totfact> 0.26189183E-02</totfact>
</mgrwt>
</event>
<event>
12    3  0.8686020E-008  0.1615950E+04  0.7818608E-02  0.8810809E-01
         -1   -1    0    0    0  501 -0.00000000000E+00  0.00000000000E+00  0.74347408203E+03  0.74347408203E+03  0.00000000000E+00 0.  1.
          1   -1    0    0  501    0  0.00000000000E+00 -0.00000000000E+00 -0.87807163288E+03  0.87807163288E+03  0.00000000000E+00 0. -1.
         23    2    1    2    0    0 -0.21297836956E+03 -0.41173983107E+03 -0.34883717878E+03  0.58746542797E+03  0.92405505097E+02 0.  0.
        254    2    1    2    0    0  0.21297836956E+03  0.41173983107E+03  0.21423962793E+03  0.10340802869E+04  0.89918515738E+03 0.  0.
         23    2    4    4    0    0 -0.14807131663E+03  0.52710662110E+03  0.30639368044E+03  0.63402337217E+03  0.91334791988E+02 0.  0.
         23    2    4    4    0    0  0.36104968619E+03 -0.11536679003E+03 -0.92154052511E+02  0.40005691476E+03  0.88807620815E+02 0.  0.
          4    1    3    3  502    0 -0.75077672900E+02 -0.13841798925E+03 -0.66240275057E+02  0.17083316644E+03  0.00000000000E+00 0. -1.
         -4    1    3    3    0  502 -0.13790069666E+03 -0.27332184182E+03 -0.28259690372E+03  0.41663226153E+03  0.00000000000E+00 0.  1.
         13    1    5    5    0    0 -0.10633391089E+03  0.23163488359E+03  0.11582967574E+03  0.27996095028E+03  0.00000000000E+00 0. -1.
        -13    1    5    5    0    0 -0.41737405740E+02  0.29547173751E+03  0.19056400470E+03  0.35406242189E+03  0.00000000000E+00 0.  1.
          2    1    6    6  503    0  0.25209845516E+03 -0.12179747067E+03 -0.60846808640E+02  0.28651455300E+03  0.00000000000E+00 0.  1.
         -2    1    6    6    0  503  0.10895123103E+03  0.64306806458E+01 -0.31307243872E+02  0.11354236176E+03  0.00000000000E+00 0. -1.
<mgrwt>
<rscale>  0 0.16159499E+04</rscale>
<asrwt>0</asrwt>
<pdfrwt beam="1">  1        1 0.13508794E+00 0.16159499E+04</pdfrwt>
<pdfrwt beam="2">  1       -1 0.11438063E+00 0.16159499E+04</pdfrwt>
<totfact> 0.12645132E+01</totfact>
</mgrwt>
</event>
<event>
12    3  0.8686020E-008  0.1410724E+04  0.7818608E-02  0.8946093E-01
         -2   -1    0    0    0  501 -0.00000000000E+00  0.00000000000E+00  0.20146709876E+03  0.20146709876E+03  0.00000000000E+00 0. -1.
          2   -1    0    0  501    0  0.00000000000E+00 -0.00000000000E+00 -0.24695612940E+04  0.24695612940E+04  0.00000000000E+00 0.  1.
         23    2    1    2    0    0  0.33622820113E+03 -0.23239360728E+03 -0.59093770396E+03  0.72412081989E+03  0.89929972180E+02 0.  0.
        254    2    1    2    0    0 -0.33622820113E+03  0.23239360728E+03 -0.16771564912E+04  0.19469075728E+04  0.90029939971E+03 0.  0.
         23    2    4    4    0    0 -0.34535735253E+03  0.44046816305E+03 -0.16145041989E+04  0.17112253366E+04  0.91566591503E+02 0.  0.
         23    2    4    4    0    0  0.91291513996E+01 -0.20807455577E+03 -0.62652292327E+02  0.23568223624E+03  0.90787909892E+02 0.  0.
          4    1    3    3  502    0  0.21927818946E+03 -0.12082944066E+03 -0.29498862135E+03  0.38691208928E+03  0.00000000000E+00 0. -1.
         -4    1    3    3    0  502  0.11695001167E+03 -0.11156416661E+03 -0.29594908261E+03  0.33720873061E+03  0.00000000000E+00 0.  1.
         13    1    5    5    0    0 -0.28820956313E+03  0.35322341584E+03 -0.11965375683E+04  0.12804427696E+04  0.00000000000E+00 0. -1.
        -13    1    5    5    0    0 -0.57147789395E+02  0.87244747214E+02 -0.41796663059E+03  0.43078256701E+03  0.00000000000E+00 0.  1.
          3    1    6    6  503    0 -0.19258171573E+02 -0.18893420681E+03 -0.66522514406E+02  0.20122687842E+03  0.00000000000E+00 0. -1.
         -3    1    6    6    0  503  0.28387322973E+02 -0.19140348960E+02  0.38702220783E+01  0.34455357824E+02  0.00000000000E+00 0.  1.
<mgrwt>
<rscale>  0 0.14107237E+04</rscale>
<asrwt>0</asrwt>
<pdfrwt beam="1">  1        2 0.37993247E+00 0.14107237E+04</pdfrwt>
<pdfrwt beam="2">  1       -2 0.30994941E-01 0.14107237E+04</pdfrwt>
<totfact> 0.34125153E+01</totfact>
</mgrwt>
</event>
<event>
12    3  0.8686020E-008  0.2762193E+04  0.7818608E-02  0.8315103E-01
          2   -1    0    0  501    0  0.00000000000E+00  0.00000000000E+00  0.25548118717E+04  0.25548118717E+04  0.00000000000E+00 0. -1.
         -2   -1    0    0    0  501 -0.00000000000E+00 -0.00000000000E+00 -0.74660195918E+03  0.74660195918E+03  0.00000000000E+00 0.  1.
         23    2    1    2    0    0  0.49380670857E+03 -0.10376607095E+04  0.27631055611E+03  0.11853865881E+04  0.90603677266E+02 0.  0.
        254    2    1    2    0    0 -0.49380670857E+03  0.10376607095E+04  0.15318993564E+04  0.21160272428E+04  0.90015045442E+03 0.  0.
         23    2    4    4    0    0 -0.12459157648E+03  0.38808686959E+03  0.12406760514E+04  0.13089055150E+04  0.88442655695E+02 0.  0.
         23    2    4    4    0    0 -0.36921513209E+03  0.64957383991E+03  0.29122330500E+03  0.80712172780E+03  0.91479412166E+02 0.  0.
          4    1    3    3  502    0  0.30903006769E+03 -0.57296803254E+03  0.12470775306E+03  0.66283027445E+03  0.00000000000E+00 0.  1.
         -4    1    3    3    0  502  0.18477664088E+03 -0.46469267696E+03  0.15160280305E+03  0.52255631364E+03  0.00000000000E+00 0. -1.
         13    1    5    5    0    0 -0.53519955360E+02  0.26374300715E+03  0.89926093262E+03  0.93866659916E+03  0.00000000000E+00 0.  1.
        -13    1    5    5    0    0 -0.71071621121E+02  0.12434386244E+03  0.34141511879E+03  0.37023891583E+03  0.00000000000E+00 0. -1.
          4    1    6    6  503    0 -0.32578686327E+00  0.40005823783E+02  0.10926057982E+02  0.41472289745E+02  0.00000000000E+00 0. -1.
         -4    1    6    6    0  503 -0.36888934523E+03  0.60956801613E+03  0.28029724702E+03  0.76564943806E+03  0.00000000000E+00 0.  1.
<mgrwt>
<rscale>  0 0.27621930E+04</rscale>
<asrwt>0</asrwt>
<pdfrwt beam="1">  1        2 0.39304798E+00 0.27621930E+04</pdfrwt>
<pdfrwt beam="2">  1       -2 0.11486184E+00 0.27621930E+04</pdfrwt>
<totfact> 0.16691921E+00</totfact>
</mgrwt>
</event>
<event>
12    3  0.8686020E-008  0.4542327E+04  0.7818608E-02  0.7903268E-01
          2   -1    0    0  501    0  0.00000000000E+00  0.00000000000E+00  0.40380244339E+04  0.40380244339E+04  0.00000000000E+00 0. -1.
         -2   -1    0    0    0  501 -0.00000000000E+00 -0.00000000000E+00 -0.12774026006E+04  0.12774026006E+04  0.00000000000E+00 0.  1.
         23    2    1    2    0    0  0.15542942624E+04  0.89010341968E+03  0.27827364715E+04  0.33105745384E+04  0.90370085994E+02 0.  0.
        254    2    1    2    0    0 -0.15542942624E+04 -0.89010341968E+03 -0.22114638197E+02  0.20048524960E+04  0.90046083852E+03 0.  0.
         23    2    4    4    0    0 -0.86729985838E+03 -0.27763203794E+03 -0.40954038355E+03  0.10024706542E+04  0.89081389346E+02 0.  0.
         23    2    4    4    0    0 -0.68699440404E+03 -0.61247138174E+03  0.38742574535E+03  0.10023818418E+04  0.87109953788E+02 0.  0.
          4    1    3    3  502    0  0.53896297896E+03  0.25960558034E+03  0.93174725914E+03  0.11072619857E+04  0.00000000000E+00 0. -1.
         -4    1    3    3    0  502  0.10153312835E+04  0.63049783934E+03  0.18509892124E+04  0.22033125527E+04  0.00000000000E+00 0.  1.
         13    1    5    5    0    0 -0.66066446113E+03 -0.19326369368E+03 -0.27101731941E+03  0.73978292283E+03  0.00000000000E+00 0.  1.
        -13    1    5    5    0    0 -0.20663539726E+03 -0.84368344259E+02 -0.13852306414E+03  0.26268773137E+03  0.00000000000E+00 0. -1.
          2    1    6    6  503    0 -0.36113938068E+03 -0.34772173563E+03  0.16855540856E+03  0.52890734866E+03  0.00000000000E+00 0. -1.
         -2    1    6    6    0  503 -0.32585502335E+03 -0.26474964611E+03  0.21887033680E+03  0.47347449318E+03  0.00000000000E+00 0.  1.
<mgrwt>
<rscale>  0 0.45423267E+04</rscale>
<asrwt>0</asrwt>
<pdfrwt beam="1">  1        2 0.62123453E+00 0.45423267E+04</pdfrwt>
<pdfrwt beam="2">  1       -2 0.19652348E+00 0.45423267E+04</pdfrwt>
<totfact> 0.33575812E-02</totfact>
</mgrwt>
</event>
<event>
12    3  0.8686020E-008  0.1444481E+04  0.7818608E-02  0.8922235E-01
         -2   -1    0    0    0  501 -0.00000000000E+00  0.00000000000E+00  0.38889863706E+03  0.38889863706E+03  0.00000000000E+00 0.  1.
          2   -1    0    0  501    0  0.00000000000E+00 -0.00000000000E+00 -0.13413047252E+04  0.13413047252E+04  0.00000000000E+00 0. -1.
         23    2    1    2    0    0 -0.40629679368E+03  0.13974325544E+03 -0.36691284416E+03  0.57249096115E+03  0.92280027059E+02 0.  0.
        254    2    1    2    0    0  0.40629679368E+03 -0.13974325544E+03 -0.58549324393E+03  0.11577124011E+04  0.90160434941E+03 0.  0.
         23    2    4    4    0    0 -0.25000023142E+03  0.10740736802E+03 -0.22086544994E+03  0.36214833369E+03  0.91287513956E+02 0.  0.
         23    2    4    4    0    0  0.65629702510E+03 -0.24715062346E+03 -0.36462779399E+03  0.79556406737E+03  0.90330179350E+02 0.  0.
          3    1    3    3  502    0 -0.36458567687E+03  0.11974533555E+03 -0.35913373798E+03  0.52558415399E+03  0.00000000000E+00 0. -1.
         -3    1    3    3    0  502 -0.41711116809E+02  0.19997919894E+02 -0.77791061803E+01  0.46906807166E+02  0.00000000000E+00 0.  1.
         13    1    5    5    0    0 -0.10203185476E+03  0.11676642832E+02 -0.41723103468E+02  0.11084972141E+03  0.00000000000E+00 0.  1.
        -13    1    5    5    0    0 -0.14796837666E+03  0.95730725191E+02 -0.17914234647E+03  0.25129861228E+03  0.00000000000E+00 0. -1.
          4    1    6    6  503    0  0.53314280288E+03 -0.17493710491E+03 -0.25916616552E+03  0.61807065962E+03  0.00000000000E+00 0. -1.
         -4    1    6    6    0  503  0.12315422222E+03 -0.72213518552E+02 -0.10546162848E+03  0.17749340775E+03  0.00000000000E+00 0.  1.
<mgrwt>
<rscale>  0 0.14444813E+04</rscale>
<asrwt>0</asrwt>
<pdfrwt beam="1">  1        2 0.20635457E+00 0.14444813E+04</pdfrwt>
<pdfrwt beam="2">  1       -2 0.59830560E-01 0.14444813E+04</pdfrwt>
<totfact> 0.39536152E+01</totfact>
</mgrwt>
</event>
<event>
12    3  0.8686020E-008  0.1831990E+04  0.7818608E-02  0.8689470E-01
          2   -1    0    0  501    0  0.00000000000E+00  0.00000000000E+00  0.95693914979E+03  0.95693914979E+03  0.00000000000E+00 0.  1.
         -2   -1    0    0    0  501 -0.00000000000E+00 -0.00000000000E+00 -0.87680243770E+03  0.87680243770E+03  0.00000000000E+00 0. -1.
         23    2    1    2    0    0  0.63548688577E+03  0.26007236843E+03  0.13851782484E+03  0.70539566997E+03  0.83154342092E+02 0.  0.
        254    2    1    2    0    0 -0.63548688577E+03 -0.26007236843E+03 -0.58381112751E+02  0.11283459175E+04  0.89346233074E+03 0.  0.
         23    2    4    4    0    0 -0.41775137348E+03 -0.20318040672E+03  0.39298717243E+03  0.61616722620E+03  0.97080611971E+02 0.  0.
         23    2    4    4    0    0 -0.21773551228E+03 -0.56891961713E+02 -0.45136828518E+03  0.51217869132E+03  0.89152870722E+02 0.  0.
          2    1    3    3  502    0  0.22107029882E+03  0.52730287461E+02  0.27847274606E+02  0.22897168153E+03  0.00000000000E+00 0. -1.
         -2    1    3    3    0  502  0.41441658695E+03  0.20734208097E+03  0.11067055024E+03  0.47642398845E+03  0.00000000000E+00 0.  1.
         13    1    5    5    0    0 -0.36527617600E+03 -0.17152589848E+03  0.29225475506E+03  0.49825762459E+03  0.00000000000E+00 0.  1.
        -13    1    5    5    0    0 -0.52475197485E+02 -0.31654508240E+02  0.10073241737E+03  0.11790960161E+03  0.00000000000E+00 0. -1.
          1    1    6    6  503    0 -0.29135078656E+02  0.33259035987E+01 -0.14867526945E+02  0.32877922691E+02  0.00000000000E+00 0. -1.
         -1    1    6    6    0  503 -0.18860043363E+03 -0.60217865311E+02 -0.43650075824E+03  0.47930076863E+03  0.00000000000E+00 0.  1.
<mgrwt>
<rscale>  0 0.18319897E+04</rscale>
<asrwt>0</asrwt>
<pdfrwt beam="1">  1        2 0.14722141E+00 0.18319897E+04</pdfrwt>
<pdfrwt beam="2">  1       -2 0.13489268E+00 0.18319897E+04</pdfrwt>
<totfact> 0.10000270E+01</totfact>
</mgrwt>
</event>
<event>
12    3  0.8686020E-008  0.3002187E+04  0.7818608E-02  0.8243107E-01
         -2   -1    0    0    0  501 -0.00000000000E+00  0.00000000000E+00  0.86194721002E+03  0.86194721002E+03  0.00000000000E+00 0.  1.
          2   -1    0    0  501    0  0.00000000000E+00 -0.00000000000E+00 -0.26141765871E+04  0.26141765871E+04  0.00000000000E+00 0. -1.
         23    2    1    2    0    0  0.37795209082E+02 -0.13277425609E+04 -0.11610312220E+04  0.17664624806E+04  0.89818767606E+02 0.  0.
        254    2    1    2    0    0 -0.37795209082E+02  0.13277425609E+04 -0.59119815503E+03  0.17096613165E+04  0.89949862301E+03 0.  0.
         23    2    4    4    0    0 -0.45531899736E+03  0.63498832297E+03 -0.34743153124E+03  0.86011928521E+03  0.92579458941E+02 0.  0.
         23    2    4    4    0    0  0.41752378828E+03  0.69275423791E+03 -0.24376662379E+03  0.84954203129E+03  0.89805056252E+02 0.  0.
          1    1    3    3  502    0 -0.28148441604E+02 -0.54238992024E+03 -0.46432150963E+03  0.71454434757E+03  0.00000000000E+00 0. -1.
         -1    1    3    3    0  502  0.65943650686E+02 -0.78535264065E+03 -0.69670971239E+03  0.10519181330E+04  0.00000000000E+00 0.  1.
         13    1    5    5    0    0 -0.99869134165E+02  0.17752170746E+03 -0.12834465996E+03  0.24074914811E+03  0.00000000000E+00 0.  1.
        -13    1    5    5    0    0 -0.35544986320E+03  0.45746661551E+03 -0.21908687128E+03  0.61937013709E+03  0.00000000000E+00 0. -1.
          3    1    6    6  503    0  0.34982000119E+03  0.61100765841E+03 -0.18391499503E+03  0.72768751347E+03  0.00000000000E+00 0. -1.
         -3    1    6    6    0  503  0.67703787087E+02  0.81746579501E+02 -0.59851628766E+02  0.12185451782E+03  0.00000000000E+00 0.  1.
<mgrwt>
<rscale>  0 0.30021873E+04</rscale>
<asrwt>0</asrwt>
<pdfrwt beam="1">  1        2 0.40218102E+00 0.30021873E+04</pdfrwt>
<pdfrwt beam="2">  1       -2 0.13260726E+00 0.30021873E+04</pdfrwt>
<totfact> 0.10547554E+00</totfact>
</mgrwt>
</event>
<event>
12    3  0.8686020E-008  0.1562626E+04  0.7818608E-02  0.8843843E-01
          1   -1    0    0  501    0  0.00000000000E+00  0.00000000000E+00  0.63084805076E+03  0.63084805076E+03  0.00000000000E+00 0. -1.
         -1   -1    0    0    0  501 -0.00000000000E+00 -0.00000000000E+00 -0.96766619912E+03  0.96766619912E+03  0.00000000000E+00 0.  1.
         23    2    1    2    0    0 -0.28335506214E+03 -0.31168101086E+03 -0.42761627225E+03  0.60633098999E+03  0.85711430729E+02 0.  0.
        254    2    1    2    0    0  0.28335506214E+03  0.31168101086E+03  0.90798123883E+02  0.99218325989E+03  0.89372712733E+03 0.  0.
         23    2    4    4    0    0  0.54622725586E+03 -0.14562979030E+02  0.50456082191E+01  0.55401643805E+03  0.91282309715E+02 0.  0.
         23    2    4    4    0    0 -0.26287219372E+03  0.32624398989E+03  0.85752515664E+02  0.43816682184E+03  0.95392550267E+02 0.  0.
          4    1    3    3  502    0 -0.17494498920E+03 -0.13013642866E+03 -0.20446467119E+03  0.29890975407E+03  0.00000000000E+00 0. -1.
         -4    1    3    3    0  502 -0.10841007294E+03 -0.18154458220E+03 -0.22315160105E+03  0.30742123592E+03  0.00000000000E+00 0.  1.
         13    1    5    5    0    0  0.26870139838E+02  0.16374661561E+02 -0.11429565823E+02  0.33477887196E+02  0.00000000000E+00 0. -1.
        -13    1    5    5    0    0  0.51935711602E+03 -0.30937640591E+02  0.16475174042E+02  0.52053855086E+03  0.00000000000E+00 0.  1.
          3    1    6    6  503    0 -0.17054451509E+03  0.14883505807E+03  0.18269392684E+02  0.22709266137E+03  0.00000000000E+00 0.  1.
         -3    1    6    6    0  503 -0.92327678628E+02  0.17740893182E+03  0.67483122980E+02  0.21107416047E+03  0.00000000000E+00 0. -1.
<mgrwt>
<rscale>  0 0.15626264E+04</rscale>
<asrwt>0</asrwt>
<pdfrwt beam="1">  1        1 0.97053545E-01 0.15626264E+04</pdfrwt>
<pdfrwt beam="2">  1       -1 0.14887172E+00 0.15626264E+04</pdfrwt>
<totfact> 0.10910094E+01</totfact>
</mgrwt>
</event>
<event>
12    3  0.8686020E-008  0.1139208E+04  0.7818608E-02  0.9167798E-01
         -2   -1    0    0    0  501 -0.00000000000E+00  0.00000000000E+00  0.18008019830E+03  0.18008019830E+03  0.00000000000E+00 0.  1.
          2   -1    0    0  501    0  0.00000000000E+00 -0.00000000000E+00 -0.18016900952E+04  0.18016900952E+04  0.00000000000E+00 0. -1.
         23    2    1    2    0    0  0.86778800374E+02  0.73629838532E+02 -0.24300934524E+02  0.14720095475E+03  0.90142511308E+02 0.  0.
        254    2    1    2    0    0 -0.86778800374E+02 -0.73629838532E+02 -0.15973089624E+04  0.18345693388E+04  0.89515184416E+03 0.  0.
         23    2    4    4    0    0  0.19720517587E+03 -0.17906542849E+03 -0.14643499522E+04  0.14911644236E+04  0.91083733793E+02 0.  0.
         23    2    4    4    0    0 -0.28398397624E+03  0.10543558996E+03 -0.13295901023E+03  0.34340491523E+03  0.92115552487E+02 0.  0.
          4    1    3    3  502    0  0.12945627926E+02  0.17201392727E+02 -0.46865019102E+02  0.51573318776E+02  0.00000000000E+00 0. -1.
         -4    1    3    3    0  502  0.73833172448E+02  0.56428445805E+02  0.22564084578E+02  0.95627635978E+02  0.00000000000E+00 0.  1.
         13    1    5    5    0    0  0.15785590628E+03 -0.16010689474E+03 -0.13529950744E+04  0.13715496259E+04  0.00000000000E+00 0.  1.
        -13    1    5    5    0    0  0.39349269586E+02 -0.18958533748E+02 -0.11135487780E+03  0.11961479770E+03  0.00000000000E+00 0. -1.
          2    1    6    6  503    0 -0.22989042040E+03  0.45443700642E+02 -0.83951985765E+02  0.24892302271E+03  0.00000000000E+00 0.  1.
         -2    1    6    6    0  503 -0.54093555839E+02  0.59991889318E+02 -0.49007024463E+02  0.94481892518E+02  0.00000000000E+00 0. -1.
<mgrwt>
<rscale>  0 0.11392080E+04</rscale>
<asrwt>0</asrwt>
<pdfrwt beam="1">  1        2 0.27718311E+00 0.11392080E+04</pdfrwt>
<pdfrwt beam="2">  1       -2 0.27704644E-01 0.11392080E+04</pdfrwt>
<totfact> 0.10142598E+02</totfact>
</mgrwt>
</event>
<event>
12    3  0.8686020E-008  0.1580795E+04  0.7818608E-02  0.8832434E-01
         -1   -1    0    0    0  501 -0.00000000000E+00  0.00000000000E+00  0.13435628202E+04  0.13435628202E+04  0.00000000000E+00 0.  1.
          1   -1    0    0  501    0  0.00000000000E+00 -0.00000000000E+00 -0.46497852119E+03  0.46497852119E+03  0.00000000000E+00 0. -1.
         23    2    1    2    0    0 -0.12417035284E+03  0.33934186606E+03  0.74598827571E+03  0.83381783603E+03  0.90457158909E+02 0.  0.
        254    2    1    2    0    0  0.12417035284E+03 -0.33934186606E+03  0.13259602333E+03  0.97472350539E+03  0.89550713452E+03 0.  0.
         23    2    4    4    0    0  0.30644820567E+03  0.17592977575E+03 -0.94040476929E+02  0.37657966923E+03  0.90038032098E+02 0.  0.
         23    2    4    4    0    0 -0.18227785283E+03 -0.51527164181E+03  0.22663650026E+03  0.59814383616E+03  0.87646249174E+02 0.  0.
          3    1    3    3  502    0 -0.35633764654E+01  0.13342309273E+03  0.28601752944E+03  0.31562706866E+03  0.00000000000E+00 0. -1.
         -3    1    3    3    0  502 -0.12060697637E+03  0.20591877333E+03  0.45997074627E+03  0.51819076737E+03  0.00000000000E+00 0.  1.
         13    1    5    5    0    0  0.17528895442E+03  0.83576180502E+02 -0.94953889608E+02  0.21616529934E+03  0.00000000000E+00 0. -1.
        -13    1    5    5    0    0  0.13115925125E+03  0.92353595248E+02  0.91341267873E+00  0.16041436989E+03  0.00000000000E+00 0.  1.
          2    1    6    6  503    0 -0.12213795021E+03 -0.27742658986E+03  0.16529104762E+03  0.34525978924E+03  0.00000000000E+00 0. -1.
         -2    1    6    6    0  503 -0.60139902617E+02 -0.23784505195E+03  0.61345452639E+02  0.25288404691E+03  0.00000000000E+00 0.  1.
<mgrwt>
<rscale>  0 0.15807946E+04</rscale>
<asrwt>0</asrwt>
<pdfrwt beam="1">  1        1 0.71535158E-01 0.15807946E+04</pdfrwt>
<pdfrwt beam="2">  1       -1 0.20670197E+00 0.15807946E+04</pdfrwt>
<totfact> 0.63704824E+00</totfact>
</mgrwt>
</event>
<event>
12    3  0.8686020E-008  0.1302450E+04  0.7818608E-02  0.9027625E-01
          1   -1    0    0  501    0  0.00000000000E+00  0.00000000000E+00  0.14839634734E+04  0.14839634734E+04  0.00000000000E+00 0. -1.
         -1   -1    0    0    0  501 -0.00000000000E+00 -0.00000000000E+00 -0.28578464011E+03  0.28578464011E+03  0.00000000000E+00 0.  1.
         23    2    1    2    0    0  0.15709784850E+02 -0.32459424981E+03  0.40697637998E+03  0.52832406205E+03  0.88816194068E+02 0.  0.
        254    2    1    2    0    0 -0.15709784850E+02  0.32459424981E+03  0.79120245336E+03  0.12414240515E+04  0.89973558844E+03 0.  0.
         23    2    4    4    0    0 -0.39189833813E+03 -0.17101819962E+02  0.17921963270E+03  0.44068523847E+03  0.90592621015E+02 0.  0.
         23    2    4    4    0    0  0.37618855328E+03  0.34169606978E+03  0.61198282066E+03  0.80073881304E+03  0.91573152257E+02 0.  0.
          2    1    3    3  502    0  0.47392554273E+02 -0.25797146740E+03  0.33244399413E+03  0.42345524135E+03  0.00000000000E+00 0. -1.
         -2    1    3    3    0  502 -0.31682769423E+02 -0.66622782412E+02  0.74532385842E+02  0.10486882069E+03  0.00000000000E+00 0.  1.
         13    1    5    5    0    0 -0.29337259161E+03 -0.46517302479E+02  0.15500613355E+03  0.33504960585E+03  0.00000000000E+00 0. -1.
        -13    1    5    5    0    0 -0.98525746515E+02  0.29415482516E+02  0.24213499157E+02  0.10563563262E+03  0.00000000000E+00 0.  1.
          3    1    6    6  503    0  0.79166129196E+02  0.12651548433E+03  0.16341005479E+03  0.22130587383E+03  0.00000000000E+00 0. -1.
         -3    1    6    6    0  503  0.29702242408E+03  0.21518058545E+03  0.44857276587E+03  0.57943293921E+03  0.00000000000E+00 0.  1.
<mgrwt>
<rscale>  0 0.13024499E+04</rscale>
<asrwt>0</asrwt>
<pdfrwt beam="1">  1        1 0.22830207E+00 0.13024499E+04</pdfrwt>
<pdfrwt beam="2">  1       -1 0.43966868E-01 0.13024499E+04</pdfrwt>
<totfact> 0.33714614E+01</totfact>
</mgrwt>
</event>
<event>
12    3  0.8686020E-008  0.1723233E+04  0.7818608E-02  0.8748224E-01
         -1   -1    0    0    0  501 -0.00000000000E+00  0.00000000000E+00  0.49027289403E+03  0.49027289403E+03  0.00000000000E+00 0. -1.
          1   -1    0    0  501    0  0.00000000000E+00 -0.00000000000E+00 -0.15142232946E+04  0.15142232946E+04  0.00000000000E+00 0.  1.
         23    2    1    2    0    0 -0.48322491750E+03  0.32508653593E+03 -0.61770143698E+03  0.85391595308E+03  0.91814012856E+02 0.  0.
        254    2    1    2    0    0  0.48322491750E+03 -0.32508653593E+03 -0.40624896364E+03  0.11505802356E+04  0.90532263936E+03 0.  0.
         23    2    4    4    0    0  0.44537101947E+03 -0.35619672782E+03 -0.65980187648E+03  0.87689746259E+03  0.91537914609E+02 0.  0.
         23    2    4    4    0    0  0.37853898028E+02  0.31110191895E+02  0.25355291284E+03  0.27368277300E+03  0.90622397839E+02 0.  0.
          2    1    3    3  502    0 -0.70173026857E+02  0.49164946857E+02 -0.48540574427E+02  0.98476560985E+02  0.00000000000E+00 0. -1.
         -2    1    3    3    0  502 -0.41305189064E+03  0.27592158907E+03 -0.56916086255E+03  0.75543939210E+03  0.00000000000E+00 0.  1.
         13    1    5    5    0    0  0.14469643535E+03 -0.10484023582E+03 -0.27286778802E+03  0.32616769182E+03  0.00000000000E+00 0.  1.
        -13    1    5    5    0    0  0.30067458412E+03 -0.25135649200E+03 -0.38693408846E+03  0.55072977077E+03  0.00000000000E+00 0. -1.
          2    1    6    6  503    0 -0.16759933533E+02  0.35707760596E+01  0.51981984452E+01  0.17907179587E+02  0.00000000000E+00 0. -1.
         -2    1    6    6    0  503  0.54613831560E+02  0.27539415835E+02  0.24835471439E+03  0.25577559341E+03  0.00000000000E+00 0.  1.
<mgrwt>
<rscale>  0 0.17232326E+04</rscale>
<asrwt>0</asrwt>
<pdfrwt beam="1">  1        1 0.23295743E+00 0.17232326E+04</pdfrwt>
<pdfrwt beam="2">  1       -1 0.75426599E-01 0.17232326E+04</pdfrwt>
<totfact> 0.10729992E+01</totfact>
</mgrwt>
</event>
<event>
12    3  0.8686020E-008  0.2046295E+04  0.7818608E-02  0.8585277E-01
         -2   -1    0    0    0  501 -0.00000000000E+00  0.00000000000E+00  0.83030903101E+03  0.83030903101E+03  0.00000000000E+00 0.  1.
          2   -1    0    0  501    0  0.00000000000E+00 -0.00000000000E+00 -0.12607719713E+04  0.12607719713E+04  0.00000000000E+00 0. -1.
         23    2    1    2    0    0 -0.68254416003E+03 -0.35457941818E+03 -0.47230908018E+03  0.90726380264E+03  0.91970898606E+02 0.  0.
        254    2    1    2    0    0  0.68254416003E+03  0.35457941818E+03  0.41846139917E+02  0.11838171996E+04  0.89893212678E+03 0.  0.
         23    2    4    4    0    0  0.66937987619E+03  0.35386862701E+03  0.36527368576E+03  0.84569739448E+03  0.92123795470E+02 0.  0.
         23    2    4    4    0    0  0.13164283837E+02  0.71079116068E+00 -0.32342754584E+03  0.33811980516E+03  0.97702720751E+02 0.  0.
          2    1    3    3  502    0 -0.56453831202E+03 -0.30771522874E+03 -0.42973092977E+03  0.77334393366E+03  0.00000000000E+00 0. -1.
         -2    1    3    3    0  502 -0.11800584801E+03 -0.46864189438E+02 -0.42578150409E+02  0.13391986898E+03  0.00000000000E+00 0.  1.
         13    1    5    5    0    0  0.31331896361E+03  0.12066721045E+03  0.18622696725E+03  0.38393988067E+03  0.00000000000E+00 0.  1.
        -13    1    5    5    0    0  0.35606091258E+03  0.23320141657E+03  0.17904671851E+03  0.46175751381E+03  0.00000000000E+00 0. -1.
          4    1    6    6  503    0 -0.16704336348E+02 -0.57304417250E+01 -0.51731970954E+01  0.18402032044E+02  0.00000000000E+00 0. -1.
         -4    1    6    6    0  503  0.29868620185E+02  0.64412328857E+01 -0.31825434874E+03  0.31971777312E+03  0.00000000000E+00 0.  1.
<mgrwt>
<rscale>  0 0.20462946E+04</rscale>
<asrwt>0</asrwt>
<pdfrwt beam="1">  1        2 0.19396492E+00 0.20462946E+04</pdfrwt>
<pdfrwt beam="2">  1       -2 0.12773985E+00 0.20462946E+04</pdfrwt>
<totfact> 0.73259177E+00</totfact>
</mgrwt>
</event>
<event>
12    3  0.8686020E-008  0.1777605E+04  0.7818608E-02  0.8718300E-01
         -2   -1    0    0    0  501 -0.00000000000E+00  0.00000000000E+00  0.48768454057E+03  0.48768454057E+03  0.00000000000E+00 0.  1.
          2   -1    0    0  501    0  0.00000000000E+00 -0.00000000000E+00 -0.16198380539E+04  0.16198380539E+04  0.00000000000E+00 0. -1.
         23    2    1    2    0    0  0.21137985632E+03 -0.38676398834E+03  0.15609296587E+03  0.47596380862E+03  0.88930910204E+02 0.  0.
        254    2    1    2    0    0 -0.21137985632E+03  0.38676398834E+03 -0.12882464792E+04  0.16315587859E+04  0.89896454554E+03 0.  0.
         23    2    4    4    0    0 -0.51315749764E+03  0.39652218282E+03 -0.66798317748E+03  0.93550735847E+03  0.91717138595E+02 0.  0.
         23    2    4    4    0    0  0.30177764132E+03 -0.97581944797E+01 -0.62026330174E+03  0.69605142738E+03  0.92714933590E+02 0.  0.
          3    1    3    3  502    0  0.12805358940E+03 -0.19453925786E+03  0.39592255401E+02  0.23624307672E+03  0.00000000000E+00 0. -1.
         -3    1    3    3    0  502  0.83326266911E+02 -0.19222473048E+03  0.11650071047E+03  0.23972073191E+03  0.00000000000E+00 0.  1.
         13    1    5    5    0    0 -0.45434708498E+03  0.30885848491E+03 -0.56229135680E+03  0.78612747520E+03  0.00000000000E+00 0.  1.
        -13    1    5    5    0    0 -0.58810412655E+02  0.87663697913E+02 -0.10569182068E+03  0.14937988327E+03  0.00000000000E+00 0. -1.
          4    1    6    6  503    0  0.29177120307E+03  0.11253530148E+02 -0.56232783505E+03  0.63361634366E+03  0.00000000000E+00 0. -1.
         -4    1    6    6    0  503  0.10006438250E+02 -0.21011724628E+02 -0.57935466696E+02  0.62435083723E+02  0.00000000000E+00 0.  1.
<mgrwt>
<rscale>  0 0.17776051E+04</rscale>
<asrwt>0</asrwt>
<pdfrwt beam="1">  1        2 0.24920585E+00 0.17776051E+04</pdfrwt>
<pdfrwt beam="2">  1       -2 0.75028392E-01 0.17776051E+04</pdfrwt>
<totfact> 0.16401417E+01</totfact>
</mgrwt>
</event>
<event>
12    3  0.8686020E-008  0.3030628E+04  0.7818608E-02  0.8235038E-01
         -2   -1    0    0    0  501 -0.00000000000E+00  0.00000000000E+00  0.12652377475E+04  0.12652377475E+04  0.00000000000E+00 0.  1.
          2   -1    0    0  501    0  0.00000000000E+00 -0.00000000000E+00 -0.18148186157E+04  0.18148186157E+04  0.00000000000E+00 0. -1.
         23    2    1    2    0    0  0.11541717450E+04 -0.72025961626E+03 -0.16229085848E+02  0.13636616883E+04  0.91779547031E+02 0.  0.
        254    2    1    2    0    0 -0.11541717450E+04  0.72025961626E+03 -0.53335178233E+03  0.17163946749E+04  0.90036671666E+03 0.  0.
         23    2    4    4    0    0 -0.11004562123E+04  0.76833374225E+03 -0.19601956052E+03  0.13594780243E+04  0.91739935177E+02 0.  0.
         23    2    4    4    0    0 -0.53715532659E+02 -0.48074125988E+02 -0.33733222181E+03  0.35691665058E+03  0.91651445988E+02 0.  0.
          1    1    3    3  502    0  0.55832201802E+03 -0.30114113861E+03 -0.29624509281E+02  0.63504887428E+03  0.00000000000E+00 0. -1.
         -1    1    3    3    0  502  0.59584972694E+03 -0.41911847765E+03  0.13395423433E+02  0.72861281403E+03  0.00000000000E+00 0.  1.
         13    1    5    5    0    0 -0.20455881397E+03  0.15504513331E+03 -0.26716225056E+01  0.25669133079E+03  0.00000000000E+00 0. -1.
        -13    1    5    5    0    0 -0.89589739833E+03  0.61328860894E+03 -0.19334793801E+03  0.11027866935E+04  0.00000000000E+00 0.  1.
          2    1    6    6  503    0 -0.18443166441E+02 -0.34325868506E+02 -0.35479453528E+02  0.52699214982E+02  0.00000000000E+00 0. -1.
         -2    1    6    6    0  503 -0.35272366218E+02 -0.13748257482E+02 -0.30185276828E+03  0.30421743560E+03  0.00000000000E+00 0.  1.
<mgrwt>
<rscale>  0 0.30306283E+04</rscale>
<asrwt>0</asrwt>
<pdfrwt beam="1">  1        2 0.27920286E+00 0.30306283E+04</pdfrwt>
<pdfrwt beam="2">  1       -2 0.19465196E+00 0.30306283E+04</pdfrwt>
<totfact> 0.10432452E+00</totfact>
</mgrwt>
</event>
<event>
12    3  0.8686020E-008  0.2380254E+04  0.7818608E-02  0.8446933E-01
          1   -1    0    0  501    0  0.00000000000E+00  0.00000000000E+00  0.20661416978E+04  0.20661416978E+04  0.00000000000E+00 0. -1.
         -1   -1    0    0    0  501 -0.00000000000E+00 -0.00000000000E+00 -0.68552998917E+03  0.68552998917E+03  0.00000000000E+00 0.  1.
         23    2    1    2    0    0  0.55590934604E+03  0.85194423175E+03  0.56315089383E+03  0.11662597110E+04  0.90435663814E+02 0.  0.
        254    2    1    2    0    0 -0.55590934604E+03 -0.85194423175E+03  0.81746081481E+03  0.15854119760E+04  0.90024706318E+03 0.  0.
         23    2    4    4    0    0 -0.28439232634E+03 -0.31889764654E+02 -0.10448901458E+03  0.31853844649E+03  0.93020617907E+02 0.  0.
         23    2    4    4    0    0 -0.27151701970E+03 -0.82005446709E+03  0.92194982939E+03  0.12668735295E+04  0.93628151672E+02 0.  0.
          1    1    3    3  502    0  0.12021128184E+03  0.25806327184E+03  0.15285292432E+03  0.32312756154E+03  0.00000000000E+00 0. -1.
         -1    1    3    3    0  502  0.43569806421E+03  0.59388095990E+03  0.41029796951E+03  0.84313214947E+03  0.00000000000E+00 0.  1.
         13    1    5    5    0    0 -0.12117285280E+02 -0.21688506526E+02  0.41951605986E+01  0.25195620459E+02  0.00000000000E+00 0. -1.
        -13    1    5    5    0    0 -0.27227504106E+03 -0.10201258129E+02 -0.10868417518E+03  0.29334282603E+03  0.00000000000E+00 0.  1.
          4    1    6    6  503    0 -0.19434907151E+02 -0.18656373859E+02  0.15945149572E+02  0.31305330160E+02  0.00000000000E+00 0. -1.
         -4    1    6    6    0  503 -0.25208211255E+03 -0.80139809323E+03  0.90600467982E+03  0.12355681993E+04  0.00000000000E+00 0.  1.
<mgrwt>
<rscale>  0 0.23802538E+04</rscale>
<asrwt>0</asrwt>
<pdfrwt beam="1">  1        1 0.31786795E+00 0.23802538E+04</pdfrwt>
<pdfrwt beam="2">  1       -1 0.10546615E+00 0.23802538E+04</pdfrwt>
<totfact> 0.20320330E+00</totfact>
</mgrwt>
</event>
<event>
12    3  0.8686020E-008  0.2106986E+04  0.7818608E-02  0.8558172E-01
          2   -1    0    0  501    0  0.00000000000E+00  0.00000000000E+00  0.30588935745E+04  0.30588935745E+04  0.00000000000E+00 0. -1.
         -2   -1    0    0    0  501 -0.00000000000E+00 -0.00000000000E+00 -0.36282639164E+03  0.36282639164E+03  0.00000000000E+00 0.  1.
         23    2    1    2    0    0  0.17194487600E+03  0.65298037222E+03  0.24260427733E+03  0.72304301341E+03  0.89364181762E+02 0.  0.
        254    2    1    2    0    0 -0.17194487600E+03 -0.65298037222E+03  0.24534629055E+04  0.26986769527E+04  0.89857034197E+03 0.  0.
         23    2    4    4    0    0 -0.35204117667E+03 -0.36930783683E+03  0.52056442779E+03  0.73461492576E+03  0.91381055235E+02 0.  0.
         23    2    4    4    0    0  0.18009630068E+03 -0.28367253539E+03  0.19328984777E+04  0.19640620270E+04  0.92403114947E+02 0.  0.
          1    1    3    3  502    0  0.11609776744E+03  0.47706659940E+03  0.21663869490E+03  0.53665962769E+03  0.00000000000E+00 0. -1.
         -1    1    3    3    0  502  0.55847108561E+02  0.17591377282E+03  0.25965582432E+02  0.18638338573E+03  0.00000000000E+00 0.  1.
         13    1    5    5    0    0 -0.30269136876E+03 -0.35052668360E+03  0.48695078689E+03  0.67202089959E+03  0.00000000000E+00 0. -1.
        -13    1    5    5    0    0 -0.49349807908E+02 -0.18781153226E+02  0.33613640902E+02  0.62594026167E+02  0.00000000000E+00 0.  1.
          3    1    6    6  503    0  0.18894288851E+03 -0.27051659392E+03  0.18834091245E+04  0.19120953358E+04  0.00000000000E+00 0. -1.
         -3    1    6    6    0  503 -0.88465878370E+01 -0.13155941474E+02  0.49489353197E+02  0.51966691180E+02  0.00000000000E+00 0.  1.
<mgrwt>
<rscale>  0 0.21069858E+04</rscale>
<asrwt>0</asrwt>
<pdfrwt beam="1">  1        2 0.47059899E+00 0.21069858E+04</pdfrwt>
<pdfrwt beam="2">  1       -2 0.55819447E-01 0.21069858E+04</pdfrwt>
<totfact> 0.44468031E+00</totfact>
</mgrwt>
</event>
<event>
12    3  0.8686020E-008  0.1474445E+04  0.7818608E-02  0.8901627E-01
         -1   -1    0    0    0  501 -0.00000000000E+00  0.00000000000E+00  0.74327189586E+03  0.74327189586E+03  0.00000000000E+00 0.  1.
          1   -1    0    0  501    0  0.00000000000E+00 -0.00000000000E+00 -0.73122192195E+03  0.73122192195E+03  0.00000000000E+00 0. -1.
         23    2    1    2    0    0 -0.34501088502E+03  0.98556372692E+02  0.28466793780E+03  0.46857717392E+03  0.98908360249E+02 0.  0.
        254    2    1    2    0    0  0.34501088502E+03 -0.98556372692E+02 -0.27261796389E+03  0.10059166439E+04  0.89933412637E+03 0.  0.
         23    2    4    4    0    0  0.68514027047E+01  0.89054571389E+02  0.29047983027E+03  0.31682324058E+03  0.89558782776E+02 0.  0.
         23    2    4    4    0    0  0.33815948231E+03 -0.18761094408E+03 -0.56309779417E+03  0.68909340332E+03  0.90669128602E+02 0.  0.
          2    1    3    3  502    0 -0.30178203058E+03  0.71923853065E+02  0.19770252574E+03  0.36787460269E+03  0.00000000000E+00 0. -1.
         -2    1    3    3    0  502 -0.43228854443E+02  0.26632519627E+02  0.86965412058E+02  0.10070257123E+03  0.00000000000E+00 0.  1.
         13    1    5    5    0    0 -0.38927537197E+02  0.30964370479E+02  0.15047919877E+03  0.15848701730E+03  0.00000000000E+00 0. -1.
        -13    1    5    5    0    0  0.45778939902E+02  0.58090200910E+02  0.14000063150E+03  0.15833622328E+03  0.00000000000E+00 0.  1.
          3    1    6    6  503    0  0.93767115930E+02 -0.10535773183E+02 -0.15620760871E+03  0.18249408638E+03  0.00000000000E+00 0. -1.
         -3    1    6    6    0  503  0.24439236638E+03 -0.17707517090E+03 -0.40689018546E+03  0.50659931693E+03  0.00000000000E+00 0.  1.
<mgrwt>
<rscale>  0 0.14744446E+04</rscale>
<asrwt>0</asrwt>
<pdfrwt beam="1">  1        1 0.11249568E+00 0.14744446E+04</pdfrwt>
<pdfrwt beam="2">  1       -1 0.11434952E+00 0.14744446E+04</pdfrwt>
<totfact> 0.17190677E+01</totfact>
</mgrwt>
</event>
<event>
12    3  0.8686020E-008  0.1943821E+04  0.7818608E-02  0.8633346E-01
          1   -1    0    0  501    0  0.00000000000E+00  0.00000000000E+00  0.81166288081E+03  0.81166288081E+03  0.00000000000E+00 0. -1.
         -1   -1    0    0    0  501 -0.00000000000E+00 -0.00000000000E+00 -0.11637955173E+04  0.11637955173E+04  0.00000000000E+00 0.  1.
         23    2    1    2    0    0  0.17972942205E+03  0.43130351333E+03  0.45529422621E+03  0.65870983957E+03  0.90996893129E+02 0.  0.
        254    2    1    2    0    0 -0.17972942205E+03 -0.43130351333E+03 -0.80742686268E+03  0.13167485585E+04  0.92928103499E+03 0.  0.
         23    2    4    4    0    0  0.25516874550E+03  0.14932109105E+03 -0.24152500712E+03  0.39237127589E+03  0.90625670573E+02 0.  0.
         23    2    4    4    0    0 -0.43489816755E+03 -0.58062460438E+03 -0.56590185556E+03  0.92437728262E+03  0.89258630686E+02 0.  0.
          2    1    3    3  502    0  0.78180847138E+02  0.11662902343E+03  0.94111187226E+02  0.16903103125E+03  0.00000000000E+00 0. -1.
         -2    1    3    3    0  502  0.10154857491E+03  0.31467448990E+03  0.36118303899E+03  0.48967880832E+03  0.00000000000E+00 0.  1.
         13    1    5    5    0    0  0.24291584690E+03  0.11040461040E+03 -0.19498285871E+03  0.33047783868E+03  0.00000000000E+00 0. -1.
        -13    1    5    5    0    0  0.12252898601E+02  0.38916480647E+02 -0.46542148414E+02  0.61893437205E+02  0.00000000000E+00 0.  1.
          2    1    6    6  503    0 -0.29122431350E+03 -0.32038217239E+03 -0.31586114739E+03  0.53593339287E+03  0.00000000000E+00 0. -1.
         -2    1    6    6    0  503 -0.14367385404E+03 -0.26024243199E+03 -0.25004070817E+03  0.38844388976E+03  0.00000000000E+00 0.  1.
<mgrwt>
<rscale>  0 0.19438206E+04</rscale>
<asrwt>0</asrwt>
<pdfrwt beam="1">  1        1 0.12487121E+00 0.19438206E+04</pdfrwt>
<pdfrwt beam="2">  1       -1 0.17904546E+00 0.19438206E+04</pdfrwt>
<totfact> 0.42564801E+00</totfact>
</mgrwt>
</event>
<event>
12    3  0.8686020E-008  0.1622585E+04  0.7818608E-02  0.8806792E-01
          2   -1    0    0  501    0  0.00000000000E+00  0.00000000000E+00  0.84716271289E+03  0.84716271289E+03  0.00000000000E+00 0. -1.
         -2   -1    0    0    0  501 -0.00000000000E+00 -0.00000000000E+00 -0.77694155362E+03  0.77694155362E+03  0.00000000000E+00 0.  1.
         23    2    1    2    0    0  0.53284460985E+03  0.11557038920E+03 -0.87397663783E+02  0.56055170959E+03  0.96436374822E+02 0.  0.
        254    2    1    2    0    0 -0.53284460985E+03 -0.11557038920E+03  0.15761882306E+03  0.10635525569E+04  0.89945564362E+03 0.  0.
         23    2    4    4    0    0 -0.40234639898E+03 -0.39436085645E+03 -0.18034881164E+03  0.59837176317E+03  0.90110838603E+02 0.  0.
         23    2    4    4    0    0 -0.13049821087E+03  0.27879046725E+03  0.33796763470E+03  0.46518079375E+03  0.86122825635E+02 0.  0.
          2    1    3    3  502    0  0.24770831595E+03  0.98896368430E+02 -0.22644051849E+02  0.26768013479E+03  0.00000000000E+00 0. -1.
         -2    1    3    3    0  502  0.28513629390E+03  0.16674020772E+02 -0.64753611934E+02  0.29287157480E+03  0.00000000000E+00 0.  1.
         13    1    5    5    0    0 -0.20524062772E+03 -0.19648201172E+03 -0.13804907615E+03  0.31588992327E+03  0.00000000000E+00 0. -1.
        -13    1    5    5    0    0 -0.19710577126E+03 -0.19787884473E+03 -0.42299735494E+02  0.28248183991E+03  0.00000000000E+00 0.  1.
          2    1    6    6  503    0 -0.78448629710E+02  0.74514843238E+02  0.10089127907E+03  0.14793816126E+03  0.00000000000E+00 0. -1.
         -2    1    6    6    0  503 -0.52049581164E+02  0.20427562401E+03  0.23707635563E+03  0.31724263248E+03  0.00000000000E+00 0.  1.
<mgrwt>
<rscale>  0 0.16225855E+04</rscale>
<asrwt>0</asrwt>
<pdfrwt beam="1">  1        2 0.13033273E+00 0.16225855E+04</pdfrwt>
<pdfrwt beam="2">  1       -2 0.11952947E+00 0.16225855E+04</pdfrwt>
<totfact> 0.16365891E+01</totfact>
</mgrwt>
</event>
<event>
12    3  0.8686020E-008  0.1902537E+04  0.7818608E-02  0.8653595E-01
          1   -1    0    0  501    0  0.00000000000E+00  0.00000000000E+00  0.22684487551E+04  0.22684487551E+04  0.00000000000E+00 0. -1.
         -1   -1    0    0    0  501 -0.00000000000E+00 -0.00000000000E+00 -0.39891195703E+03  0.39891195703E+03  0.00000000000E+00 0.  1.
         23    2    1    2    0    0  0.29465820758E+03 -0.68861455867E+03  0.70046762349E+03  0.10293166383E+04  0.88455529254E+02 0.  0.
        254    2    1    2    0    0 -0.29465820758E+03  0.68861455867E+03  0.11690691746E+04  0.16380440738E+04  0.86916752304E+03 0.  0.
         23    2    4    4    0    0  0.24085746241E+03  0.20988596313E+01  0.38251634325E+03  0.46116199798E+03  0.91295745322E+02 0.  0.
         23    2    4    4    0    0 -0.53551566999E+03  0.68651569903E+03  0.78655283132E+03  0.11768820758E+04  0.91133013375E+02 0.  0.
          1    1    3    3  502    0  0.17057445284E+03 -0.46021257173E+03  0.50393261059E+03  0.70344817233E+03  0.00000000000E+00 0. -1.
         -1    1    3    3    0  502  0.12408375475E+03 -0.22840198694E+03  0.19653501289E+03  0.32586846599E+03  0.00000000000E+00 0.  1.
         13    1    5    5    0    0  0.51222785690E+02  0.32884948425E+02  0.13287792083E+03  0.14615654433E+03  0.00000000000E+00 0.  1.
        -13    1    5    5    0    0  0.18963467672E+03 -0.30786088794E+02  0.24963842242E+03  0.31500545365E+03  0.00000000000E+00 0. -1.
          3    1    6    6  503    0 -0.26879563580E+03  0.27415773364E+03  0.32771606890E+03  0.50478844931E+03  0.00000000000E+00 0. -1.
         -3    1    6    6    0  503 -0.26672003419E+03  0.41235796539E+03  0.45883676242E+03  0.67209362652E+03  0.00000000000E+00 0.  1.
<mgrwt>
<rscale>  0 0.19025366E+04</rscale>
<asrwt>0</asrwt>
<pdfrwt beam="1">  1        1 0.34899211E+00 0.19025366E+04</pdfrwt>
<pdfrwt beam="2">  1       -1 0.61371071E-01 0.19025366E+04</pdfrwt>
<totfact> 0.49287595E+00</totfact>
</mgrwt>
</event>
<event>
12    3  0.8686020E-008  0.2356435E+04  0.7818608E-02  0.8455996E-01
          2   -1    0    0  501    0  0.00000000000E+00  0.00000000000E+00  0.16656046029E+04  0.16656046029E+04  0.00000000000E+00 0. -1.
         -2   -1    0    0    0  501 -0.00000000000E+00 -0.00000000000E+00 -0.83344886570E+03  0.83344886570E+03  0.00000000000E+00 0.  1.
         23    2    1    2    0    0 -0.30988712080E+03 -0.91572987627E+03  0.67209480411E+02  0.97329992264E+03  0.90578094635E+02 0.  0.
        254    2    1    2    0    0  0.30988712080E+03  0.91572987627E+03  0.76494625679E+03  0.15257535460E+04  0.89899381159E+03 0.  0.
         23    2    4    4    0    0  0.51927779283E+03  0.45483990669E+03  0.12973551182E+03  0.70819652410E+03  0.90455773055E+02 0.  0.
         23    2    4    4    0    0 -0.20939067203E+03  0.46088996958E+03  0.63521074497E+03  0.81755702185E+03  0.92966530834E+02 0.  0.
          1    1    3    3  502    0 -0.16531702125E+02 -0.14943632183E+03  0.52965922481E+01  0.15044123553E+03  0.00000000000E+00 0. -1.
         -1    1    3    3    0  502 -0.29335541867E+03 -0.76629355444E+03  0.61912888163E+02  0.82285868712E+03  0.00000000000E+00 0.  1.
         13    1    5    5    0    0  0.28675423313E+03  0.30988677927E+03  0.79331563483E+02  0.42959434721E+03  0.00000000000E+00 0. -1.
        -13    1    5    5    0    0  0.23252355970E+03  0.14495312741E+03  0.50403948332E+02  0.27860217689E+03  0.00000000000E+00 0.  1.
          3    1    6    6  503    0 -0.21355136399E+03  0.40442446749E+03  0.55088980953E+03  0.71599086391E+03  0.00000000000E+00 0. -1.
         -3    1    6    6    0  503  0.41606919566E+01  0.56465502097E+02  0.84320935446E+02  0.10156615794E+03  0.00000000000E+00 0.  1.
<mgrwt>
<rscale>  0 0.23564348E+04</rscale>
<asrwt>0</asrwt>
<pdfrwt beam="1">  1        2 0.25624686E+00 0.23564348E+04</pdfrwt>
<pdfrwt beam="2">  1       -2 0.12822290E+00 0.23564348E+04</pdfrwt>
<totfact> 0.41600223E+00</totfact>
</mgrwt>
</event>
<event>
12    3  0.8686020E-008  0.4369186E+04  0.7818608E-02  0.7933947E-01
          2   -1    0    0  501    0  0.00000000000E+00  0.00000000000E+00  0.31849956466E+04  0.31849956466E+04  0.00000000000E+00 0. -1.
         -2   -1    0    0    0  501 -0.00000000000E+00 -0.00000000000E+00 -0.14984155802E+04  0.14984155802E+04  0.00000000000E+00 0.  1.
         23    2    1    2    0    0  0.13289603072E+04  0.16125081209E+04  0.86603561180E+03  0.22647172752E+04  0.11228854689E+03 0.  0.
        254    2    1    2    0    0 -0.13289603072E+04 -0.16125081209E+04  0.82054445451E+03  0.24186939516E+04  0.90026067981E+03 0.  0.
         23    2    4    4    0    0 -0.45833722529E+03 -0.91367535488E+03  0.79632170723E+03  0.12983948846E+04  0.82615669162E+02 0.  0.
         23    2    4    4    0    0 -0.87062308187E+03 -0.69883276603E+03  0.24222747277E+02  0.11202990670E+04  0.90174677166E+02 0.  0.
          3    1    3    3  502    0  0.12959691332E+04  0.15643181139E+04  0.86018157758E+03  0.22060234591E+04  0.00000000000E+00 0. -1.
         -3    1    3    3    0  502  0.32991173977E+02  0.48190006965E+02  0.58540342213E+01  0.58693816100E+02  0.00000000000E+00 0.  1.
         13    1    5    5    0    0 -0.26207034635E+03 -0.46829010175E+03  0.37526225747E+03  0.65482688378E+03  0.00000000000E+00 0.  1.
        -13    1    5    5    0    0 -0.19626687894E+03 -0.44538525313E+03  0.42105944977E+03  0.64356800084E+03  0.00000000000E+00 0. -1.
          1    1    6    6  503    0 -0.24978016398E+03 -0.25056704766E+03  0.22875092635E+02  0.35453807349E+03  0.00000000000E+00 0. -1.
         -1    1    6    6    0  503 -0.62084291789E+03 -0.44826571837E+03  0.13476546416E+01  0.76576099348E+03  0.00000000000E+00 0.  1.
<mgrwt>
<rscale>  0 0.43691862E+04</rscale>
<asrwt>0</asrwt>
<pdfrwt beam="1">  1        2 0.48999933E+00 0.43691862E+04</pdfrwt>
<pdfrwt beam="2">  1       -2 0.23052548E+00 0.43691862E+04</pdfrwt>
<totfact> 0.86097139E-02</totfact>
</mgrwt>
</event>
<event>
12    3  0.8686020E-008  0.1624930E+04  0.7818608E-02  0.8805377E-01
          2   -1    0    0  501    0  0.00000000000E+00  0.00000000000E+00  0.15452096339E+04  0.15452096339E+04  0.00000000000E+00 0. -1.
         -2   -1    0    0    0  501 -0.00000000000E+00 -0.00000000000E+00 -0.42719090825E+03  0.42719090825E+03  0.00000000000E+00 0.  1.
         23    2    1    2    0    0 -0.46928932962E+03 -0.22287424805E+03  0.14201002791E+03  0.54676913668E+03  0.94256222407E+02 0.  0.
        254    2    1    2    0    0  0.46928932962E+03  0.22287424805E+03  0.97600869778E+03  0.14256314055E+04  0.89995917735E+03 0.  0.
         23    2    4    4    0    0  0.35742602684E+03  0.24921240219E+03  0.66330319335E+01  0.44516955453E+03  0.90949156653E+02 0.  0.
         23    2    4    4    0    0  0.11186330277E+03 -0.26338154147E+02  0.96937566585E+03  0.98046185098E+03  0.91701487519E+02 0.  0.
          2    1    3    3  502    0 -0.19469793175E+03 -0.74028960743E+02  0.10183448195E+03  0.23185735565E+03  0.00000000000E+00 0. -1.
         -2    1    3    3    0  502 -0.27459139787E+03 -0.14884528730E+03  0.40175545956E+02  0.31491178103E+03  0.00000000000E+00 0.  1.
         13    1    5    5    0    0  0.26808239555E+03  0.22805635230E+03 -0.87704084521E+01  0.35207213848E+03  0.00000000000E+00 0. -1.
        -13    1    5    5    0    0  0.89343631291E+02  0.21156049892E+02  0.15403440386E+02  0.93097416049E+02  0.00000000000E+00 0.  1.
          3    1    6    6  503    0  0.88734395873E+02 -0.57624082140E+02  0.62459563196E+03  0.63349351324E+03  0.00000000000E+00 0. -1.
         -3    1    6    6    0  503  0.23128906901E+02  0.31285927993E+02  0.34478003389E+03  0.34696833774E+03  0.00000000000E+00 0.  1.
<mgrwt>
<rscale>  0 0.16249302E+04</rscale>
<asrwt>0</asrwt>
<pdfrwt beam="1">  1        2 0.23772456E+00 0.16249302E+04</pdfrwt>
<pdfrwt beam="2">  1       -2 0.65721679E-01 0.16249302E+04</pdfrwt>
<totfact> 0.24421021E+01</totfact>
</mgrwt>
</event>
<event>
12    3  0.8686020E-008  0.1035335E+04  0.7818608E-02  0.9270617E-01
         -1   -1    0    0    0  501 -0.00000000000E+00  0.00000000000E+00  0.28722514552E+03  0.28722514552E+03  0.00000000000E+00 0.  1.
          1   -1    0    0  501    0  0.00000000000E+00 -0.00000000000E+00 -0.93299452701E+03  0.93299452701E+03  0.00000000000E+00 0. -1.
         23    2    1    2    0    0  0.19007469060E+02 -0.45817632025E+02 -0.17694064290E+03  0.20507899421E+03  0.91043195635E+02 0.  0.
        254    2    1    2    0    0 -0.19007469060E+02  0.45817632025E+02 -0.46882873858E+03  0.10151406783E+04  0.89902706932E+03 0.  0.
         23    2    4    4    0    0 -0.24340874583E+03 -0.29724303925E+03 -0.12339129226E+02  0.39588415172E+03  0.94714125391E+02 0.  0.
         23    2    4    4    0    0  0.22440127677E+03  0.34306067127E+03 -0.45648960936E+03  0.61925652659E+03  0.83960258986E+02 0.  0.
          3    1    3    3  502    0  0.50699880997E+01 -0.69997149884E+02 -0.15292496074E+03  0.16825976759E+03  0.00000000000E+00 0. -1.
         -3    1    3    3    0  502  0.13937480960E+02  0.24179517859E+02 -0.24015682161E+02  0.36819226622E+02  0.00000000000E+00 0.  1.
         13    1    5    5    0    0 -0.16016649304E+03 -0.14568345099E+03 -0.41711574285E+02  0.22049224208E+03  0.00000000000E+00 0.  1.
        -13    1    5    5    0    0 -0.83242252787E+02 -0.15155958825E+03  0.29372445059E+02  0.17539190965E+03  0.00000000000E+00 0. -1.
          3    1    6    6  503    0  0.11541445769E+03  0.19281897642E+03 -0.30957989752E+03  0.38254328860E+03  0.00000000000E+00 0. -1.
         -3    1    6    6    0  503  0.10898681908E+03  0.15024169485E+03 -0.14690971184E+03  0.23671323799E+03  0.00000000000E+00 0.  1.
<mgrwt>
<rscale>  0 0.10353347E+04</rscale>
<asrwt>0</asrwt>
<pdfrwt beam="1">  1        1 0.14353762E+00 0.10353347E+04</pdfrwt>
<pdfrwt beam="2">  1       -1 0.44188485E-01 0.10353347E+04</pdfrwt>
<totfact> 0.86653042E+01</totfact>
</mgrwt>
</event>
<event>
12    3  0.8686020E-008  0.2352286E+04  0.7818608E-02  0.8457586E-01
         -2   -1    0    0    0  501 -0.00000000000E+00  0.00000000000E+00  0.23819112841E+04  0.23819112841E+04  0.00000000000E+00 0.  1.
          2   -1    0    0  501    0  0.00000000000E+00 -0.00000000000E+00 -0.58075711894E+03  0.58075711894E+03  0.00000000000E+00 0. -1.
         23    2    1    2    0    0  0.55137480869E+03  0.46893529790E+03 -0.10291802655E+03  0.73668720864E+03  0.90561746409E+02 0.  0.
        254    2    1    2    0    0 -0.55137480869E+03 -0.46893529790E+03  0.19040721917E+04  0.22259811944E+04  0.89754491438E+03 0.  0.
         23    2    4    4    0    0 -0.64664879835E+03 -0.22399719860E+03  0.67317351717E+03  0.96421287950E+03  0.90633765104E+02 0.  0.
         23    2    4    4    0    0  0.95273989659E+02 -0.24493809930E+03  0.12308986746E+04  0.12617683149E+04  0.88746424876E+02 0.  0.
          1    1    3    3  502    0  0.23017627887E+03  0.14521526141E+03 -0.17423922655E+02  0.27271264104E+03  0.00000000000E+00 0. -1.
         -1    1    3    3    0  502  0.32119852982E+03  0.32372003648E+03 -0.85494103895E+02  0.46397456760E+03  0.00000000000E+00 0.  1.
         13    1    5    5    0    0 -0.29343536657E+03 -0.14586277007E+03  0.29569362274E+03  0.44137850036E+03  0.00000000000E+00 0. -1.
        -13    1    5    5    0    0 -0.35321343178E+03 -0.78134428528E+02  0.37747989444E+03  0.52283437914E+03  0.00000000000E+00 0.  1.
          2    1    6    6  503    0  0.84602586725E+02 -0.20681517564E+03  0.85226950464E+03  0.88107515179E+03  0.00000000000E+00 0.  1.
         -2    1    6    6    0  503  0.10671402933E+02 -0.38122923663E+02  0.37862916992E+03  0.38069316314E+03  0.00000000000E+00 0. -1.
<mgrwt>
<rscale>  0 0.23522856E+04</rscale>
<asrwt>0</asrwt>
<pdfrwt beam="1">  1        2 0.89347251E-01 0.23522856E+04</pdfrwt>
<pdfrwt beam="2">  1       -2 0.36644788E+00 0.23522856E+04</pdfrwt>
<totfact> 0.57027682E-01</totfact>
</mgrwt>
</event>
<event>
12    3  0.8686020E-008  0.2063392E+04  0.7818608E-02  0.8577543E-01
          1   -1    0    0  501    0  0.00000000000E+00  0.00000000000E+00  0.66567680929E+03  0.66567680929E+03  0.00000000000E+00 0. -1.
         -1   -1    0    0    0  501 -0.00000000000E+00 -0.00000000000E+00 -0.15989683542E+04  0.15989683542E+04  0.00000000000E+00 0.  1.
         23    2    1    2    0    0 -0.16947106593E+03  0.73248745394E+03  0.14445037558E+02  0.75728080116E+03  0.89483184635E+02 0.  0.
        254    2    1    2    0    0  0.16947106593E+03 -0.73248745394E+03 -0.94773658243E+03  0.15073643623E+04  0.89926880224E+03 0.  0.
         23    2    4    4    0    0  0.15303683041E+03 -0.12379135488E+03 -0.85866352300E+03  0.88548122103E+03  0.89606785848E+02 0.  0.
         23    2    4    4    0    0  0.16434235517E+02 -0.60869609906E+03 -0.89073059432E+02  0.62188314126E+03  0.89574585451E+02 0.  0.
          1    1    3    3  502    0 -0.83860698560E+02  0.53953309790E+03  0.70206447120E+01  0.54605665452E+03  0.00000000000E+00 0. -1.
         -1    1    3    3    0  502 -0.85610367369E+02  0.19295435604E+03  0.74243928460E+01  0.21122414664E+03  0.00000000000E+00 0.  1.
         13    1    5    5    0    0  0.13691423108E+03 -0.75557273294E+02 -0.74059998209E+03  0.75692981292E+03  0.00000000000E+00 0. -1.
        -13    1    5    5    0    0  0.16122599335E+02 -0.48234081583E+02 -0.11806354090E+03  0.12855140811E+03  0.00000000000E+00 0.  1.
          3    1    6    6  503    0  0.22216161746E+02 -0.48889043201E+03 -0.10601899606E+03  0.50074688204E+03  0.00000000000E+00 0. -1.
         -3    1    6    6    0  503 -0.57819262290E+01 -0.11980566706E+03  0.16945936625E+02  0.12113625922E+03  0.00000000000E+00 0.  1.
<mgrwt>
<rscale>  0 0.20633915E+04</rscale>
<asrwt>0</asrwt>
<pdfrwt beam="1">  1        1 0.10241182E+00 0.20633915E+04</pdfrwt>
<pdfrwt beam="2">  1       -1 0.24599513E+00 0.20633915E+04</pdfrwt>
<totfact> 0.20081358E+00</totfact>
</mgrwt>
</event>
<event>
12    3  0.8686020E-008  0.1500002E+04  0.7818608E-02  0.8884451E-01
         -2   -1    0    0    0  501 -0.00000000000E+00  0.00000000000E+00  0.23794716954E+03  0.23794716954E+03  0.00000000000E+00 0.  1.
          2   -1    0    0  501    0  0.00000000000E+00 -0.00000000000E+00 -0.23639772376E+04  0.23639772376E+04  0.00000000000E+00 0. -1.
         23    2    1    2    0    0  0.37535381540E+03  0.27224734022E+03 -0.86682421505E+03  0.98735918634E+03  0.92113202461E+02 0.  0.
        254    2    1    2    0    0 -0.37535381540E+03 -0.27224734022E+03 -0.12592058530E+04  0.16145652208E+04  0.89789329598E+03 0.  0.
         23    2    4    4    0    0  0.56677429541E+02 -0.48787310547E+03 -0.47973597764E+03  0.69297057159E+03  0.93963326800E+02 0.  0.
         23    2    4    4    0    0 -0.43203124494E+03  0.21562576526E+03 -0.77946987533E+03  0.92159464918E+03  0.92832879932E+02 0.  0.
          3    1    3    3  502    0  0.10440698728E+03  0.11990809247E+03 -0.34696270997E+03  0.38165677217E+03  0.00000000000E+00 0. -1.
         -3    1    3    3    0  502  0.27094682811E+03  0.15233924775E+03 -0.51986150508E+03  0.60570241417E+03  0.00000000000E+00 0.  1.
         13    1    5    5    0    0 -0.21483730248E+02 -0.49146110900E+02 -0.64219828613E+02  0.83672440320E+02  0.00000000000E+00 0. -1.
        -13    1    5    5    0    0  0.78161159789E+02 -0.43872699457E+03 -0.41551614903E+03  0.60929813127E+03  0.00000000000E+00 0.  1.
          2    1    6    6  503    0 -0.41289681113E+03  0.19832373236E+03 -0.68783369190E+03  0.82639655564E+03  0.00000000000E+00 0.  1.
         -2    1    6    6    0  503 -0.19134433810E+02  0.17302032899E+02 -0.91636183433E+02  0.95198093541E+02  0.00000000000E+00 0. -1.
<mgrwt>
<rscale>  0 0.15000023E+04</rscale>
<asrwt>0</asrwt>
<pdfrwt beam="1">  1        2 0.36368880E+00 0.15000023E+04</pdfrwt>
<pdfrwt beam="2">  1       -2 0.36607258E-01 0.15000023E+04</pdfrwt>
<totfact> 0.28358809E+01</totfact>
</mgrwt>
</event>
<event>
12    3  0.8686020E-008  0.1952895E+04  0.7818608E-02  0.8628966E-01
          1   -1    0    0  501    0  0.00000000000E+00  0.00000000000E+00  0.94051035076E+03  0.94051035076E+03  0.00000000000E+00 0. -1.
         -1   -1    0    0    0  501 -0.00000000000E+00 -0.00000000000E+00 -0.10137582015E+04  0.10137582015E+04  0.00000000000E+00 0.  1.
         23    2    1    2    0    0  0.19892065786E+03 -0.73467113566E+03  0.53112582019E+02  0.76830525315E+03  0.90337754929E+02 0.  0.
        254    2    1    2    0    0 -0.19892065786E+03  0.73467113566E+03 -0.12636043274E+03  0.11859632991E+04  0.90068356383E+03 0.  0.
         23    2    4    4    0    0 -0.11086022404E+03  0.48811514882E+02  0.32252984300E+03  0.35647625533E+03  0.91527415142E+02 0.  0.
         23    2    4    4    0    0 -0.88060433818E+02  0.68585962077E+03 -0.44889027575E+03  0.82948704377E+03  0.91587208217E+02 0.  0.
          1    1    3    3  502    0  0.38979589065E+02 -0.83092158755E+02  0.31497801323E+02  0.97035182787E+02  0.00000000000E+00 0. -1.
         -1    1    3    3    0  502  0.15994106879E+03 -0.65157897690E+03  0.21614780696E+02  0.67127007037E+03  0.00000000000E+00 0.  1.
         13    1    5    5    0    0 -0.43699133027E+02  0.43423468525E+02  0.25000680752E+03  0.25748517560E+03  0.00000000000E+00 0.  1.
        -13    1    5    5    0    0 -0.67161091014E+02  0.53880463570E+01  0.72523035484E+02  0.98991079727E+02  0.00000000000E+00 0. -1.
          4    1    6    6  503    0  0.10746331941E+02  0.11191855472E+03 -0.10081297561E+03  0.15101159754E+03  0.00000000000E+00 0. -1.
         -4    1    6    6    0  503 -0.98806765760E+02  0.57394106606E+03 -0.34807730014E+03  0.67847544623E+03  0.00000000000E+00 0.  1.
<mgrwt>
<rscale>  0 0.19528954E+04</rscale>
<asrwt>0</asrwt>
<pdfrwt beam="1">  1        1 0.14469390E+00 0.19528954E+04</pdfrwt>
<pdfrwt beam="2">  1       -1 0.15596280E+00 0.19528954E+04</pdfrwt>
<totfact> 0.49292856E+00</totfact>
</mgrwt>
</event>
<event>
12    3  0.8686020E-008  0.4196715E+04  0.7818608E-02  0.7965997E-01
         -1   -1    0    0    0  501 -0.00000000000E+00  0.00000000000E+00  0.27345186139E+04  0.27345186139E+04  0.00000000000E+00 0.  1.
          1   -1    0    0  501    0  0.00000000000E+00 -0.00000000000E+00 -0.16101936719E+04  0.16101936719E+04  0.00000000000E+00 0. -1.
         23    2    1    2    0    0  0.18792544724E+04 -0.45004683498E+03 -0.27678729589E+00  0.19345157061E+04  0.90616857618E+02 0.  0.
        254    2    1    2    0    0 -0.18792544724E+04  0.45004683498E+03  0.11246017292E+04  0.24101965797E+04  0.90009942644E+03 0.  0.
         23    2    4    4    0    0  0.16198369238E+02 -0.20300230023E+02 -0.71542293444E+02  0.11823035925E+03  0.90474480342E+02 0.  0.
         23    2    4    4    0    0 -0.18954528416E+04  0.47034706501E+03  0.11961440227E+04  0.22919662204E+04  0.91546687769E+02 0.  0.
          4    1    3    3  502    0  0.14892431615E+04 -0.39331345614E+03  0.74693558303E+01  0.15403234921E+04  0.00000000000E+00 0. -1.
         -4    1    3    3    0  502  0.39001131085E+03 -0.56733378839E+02 -0.77461431262E+01  0.39419221403E+03  0.00000000000E+00 0.  1.
         13    1    5    5    0    0  0.37892901329E+02 -0.39844075494E+02 -0.19102872397E+02  0.58209467073E+02  0.00000000000E+00 0. -1.
        -13    1    5    5    0    0 -0.21694532091E+02  0.19543845472E+02 -0.52439421047E+02  0.60020892181E+02  0.00000000000E+00 0.  1.
          1    1    6    6  503    0 -0.13294393391E+04  0.32513313214E+03  0.88658121252E+03  0.16306890434E+04  0.00000000000E+00 0. -1.
         -1    1    6    6    0  503 -0.56601350254E+03  0.14521393287E+03  0.30956281016E+03  0.66127717697E+03  0.00000000000E+00 0.  1.
<mgrwt>
<rscale>  0 0.41967152E+04</rscale>
<asrwt>0</asrwt>
<pdfrwt beam="1">  1        1 0.24772210E+00 0.41967152E+04</pdfrwt>
<pdfrwt beam="2">  1       -1 0.42069517E+00 0.41967152E+04</pdfrwt>
<totfact> 0.21799438E-02</totfact>
</mgrwt>
</event>
<event>
12    3  0.8686020E-008  0.1855689E+04  0.7818608E-02  0.8677233E-01
         -1   -1    0    0    0  501 -0.00000000000E+00  0.00000000000E+00  0.11105058283E+04  0.11105058283E+04  0.00000000000E+00 0.  1.
          1   -1    0    0  501    0  0.00000000000E+00 -0.00000000000E+00 -0.77522839410E+03  0.77522839410E+03  0.00000000000E+00 0. -1.
         23    2    1    2    0    0 -0.31930297581E+03  0.45309382243E+03  0.56350686124E+03  0.79575469126E+03  0.91853926011E+02 0.  0.
        254    2    1    2    0    0  0.31930297581E+03 -0.45309382243E+03 -0.22822942707E+03  0.10899795311E+04  0.91033966439E+03 0.  0.
         23    2    4    4    0    0  0.55949175305E+03 -0.95216333178E+02 -0.29451216147E+03  0.64612169768E+03  0.92944408745E+02 0.  0.
         23    2    4    4    0    0 -0.24018877725E+03 -0.35787748925E+03  0.66282734399E+02  0.44385783342E+03  0.82761279499E+02 0.  0.
          2    1    3    3  502    0 -0.77659204547E+02  0.65686666017E+02  0.13955744296E+03  0.17269038777E+03  0.00000000000E+00 0.  1.
         -2    1    3    3    0  502 -0.24164377126E+03  0.38740715641E+03  0.42394941828E+03  0.62306430349E+03  0.00000000000E+00 0. -1.
         13    1    5    5    0    0  0.11510942010E+03  0.14188760404E+02 -0.78522833922E+02  0.14006189691E+03  0.00000000000E+00 0. -1.
        -13    1    5    5    0    0  0.44438233295E+03 -0.10940509358E+03 -0.21598932755E+03  0.50605980077E+03  0.00000000000E+00 0.  1.
          2    1    6    6  503    0 -0.75481188055E+02 -0.76195484464E+02 -0.13066827764E+02  0.10804584023E+03  0.00000000000E+00 0. -1.
         -2    1    6    6    0  503 -0.16470758919E+03 -0.28168200479E+03  0.79349562163E+02  0.33581199319E+03  0.00000000000E+00 0.  1.
<mgrwt>
<rscale>  0 0.18556893E+04</rscale>
<asrwt>0</asrwt>
<pdfrwt beam="1">  1        1 0.11926591E+00 0.18556893E+04</pdfrwt>
<pdfrwt beam="2">  1       -1 0.17084705E+00 0.18556893E+04</pdfrwt>
<totfact> 0.52959613E+00</totfact>
</mgrwt>
</event>
<event>
12    3  0.8686020E-008  0.1668855E+04  0.7818608E-02  0.8779329E-01
         -1   -1    0    0    0  501 -0.00000000000E+00  0.00000000000E+00  0.25841556161E+03  0.25841556161E+03  0.00000000000E+00 0.  1.
          1   -1    0    0  501    0  0.00000000000E+00 -0.00000000000E+00 -0.26943786898E+04  0.26943786898E+04  0.00000000000E+00 0. -1.
         23    2    1    2    0    0  0.49449484144E+03  0.33824507537E+02 -0.14256556558E+04  0.15123741860E+04  0.95458808136E+02 0.  0.
        254    2    1    2    0    0 -0.49449484144E+03 -0.33824507537E+02 -0.10103074724E+04  0.14404200654E+04  0.89912153269E+03 0.  0.
         23    2    4    4    0    0 -0.81042890537E+02 -0.42173853899E+03 -0.55309341157E+03  0.70635773261E+03  0.92723131473E+02 0.  0.
         23    2    4    4    0    0 -0.41345195090E+03  0.38791403145E+03 -0.45721406084E+03  0.73406233282E+03  0.91558721796E+02 0.  0.
          1    1    3    3  502    0  0.33179195541E+03 -0.18953234777E+02 -0.99287030861E+03  0.10470131692E+04  0.00000000000E+00 0. -1.
         -1    1    3    3    0  502  0.16270288602E+03  0.52777742313E+02 -0.43278534718E+03  0.46536101678E+03  0.00000000000E+00 0.  1.
         13    1    5    5    0    0 -0.90364440875E+02 -0.31856434902E+03 -0.37454794145E+03  0.49993513288E+03  0.00000000000E+00 0. -1.
        -13    1    5    5    0    0  0.93215503374E+01 -0.10317418997E+03 -0.17854547013E+03  0.20642259973E+03  0.00000000000E+00 0.  1.
          1    1    6    6  503    0 -0.12029871412E+03  0.17025176973E+03 -0.18369900788E+03  0.27785386664E+03  0.00000000000E+00 0. -1.
         -1    1    6    6    0  503 -0.29315323678E+03  0.21766226173E+03 -0.27351505296E+03  0.45620846618E+03  0.00000000000E+00 0.  1.
<mgrwt>
<rscale>  0 0.16688552E+04</rscale>
<asrwt>0</asrwt>
<pdfrwt beam="1">  1        1 0.41451980E+00 0.16688552E+04</pdfrwt>
<pdfrwt beam="2">  1       -1 0.39756240E-01 0.16688552E+04</pdfrwt>
<totfact> 0.58350724E+00</totfact>
</mgrwt>
</event>
<event>
12    3  0.8686020E-008  0.2422293E+04  0.7818608E-02  0.8431204E-01
          2   -1    0    0  501    0  0.00000000000E+00  0.00000000000E+00  0.11161088795E+04  0.11161088795E+04  0.00000000000E+00 0. -1.
         -2   -1    0    0    0  501 -0.00000000000E+00 -0.00000000000E+00 -0.13142770217E+04  0.13142770217E+04  0.00000000000E+00 0.  1.
         23    2    1    2    0    0  0.10271059802E+04 -0.15628809920E+03 -0.97662444708E+01  0.10427702828E+04  0.88892174254E+02 0.  0.
        254    2    1    2    0    0 -0.10271059802E+04  0.15628809920E+03 -0.18840189776E+03  0.13876156183E+04  0.90033836118E+03 0.  0.
         23    2    4    4    0    0 -0.31263362491E+03 -0.30780843469E+03  0.14058577441E+03  0.46981240016E+03  0.92051700032E+02 0.  0.
         23    2    4    4    0    0 -0.71447235530E+03  0.46409653389E+03 -0.32898767217E+03  0.91780321817E+03  0.90958889543E+02 0.  0.
          2    1    3    3  502    0  0.52668209181E+03 -0.87070173515E+02  0.38883301436E+02  0.53524494587E+03  0.00000000000E+00 0. -1.
         -2    1    3    3    0  502  0.50042388840E+03 -0.69217925684E+02 -0.48649545907E+02  0.50752533694E+03  0.00000000000E+00 0.  1.
         13    1    5    5    0    0 -0.73162024634E+02 -0.64462167868E+02 -0.72209966766E+01  0.97776253394E+02  0.00000000000E+00 0.  1.
        -13    1    5    5    0    0 -0.23947160028E+03 -0.24334626683E+03  0.14780677109E+03  0.37203614676E+03  0.00000000000E+00 0. -1.
          3    1    6    6  503    0 -0.66056632232E+03  0.42629013593E+03 -0.32826799010E+03  0.85195716999E+03  0.00000000000E+00 0. -1.
         -3    1    6    6    0  503 -0.53906032979E+02  0.37806397966E+02 -0.71968206719E+00  0.65846048180E+02  0.00000000000E+00 0.  1.
<mgrwt>
<rscale>  0 0.24222933E+04</rscale>
<asrwt>0</asrwt>
<pdfrwt beam="1">  1        2 0.17170906E+00 0.24222933E+04</pdfrwt>
<pdfrwt beam="2">  1       -2 0.20219647E+00 0.24222933E+04</pdfrwt>
<totfact> 0.24588855E+00</totfact>
</mgrwt>
</event>
<event>
12    3  0.8686020E-008  0.2953059E+04  0.7818608E-02  0.8257264E-01
         -1   -1    0    0    0  501 -0.00000000000E+00  0.00000000000E+00  0.86722056257E+03  0.86722056257E+03  0.00000000000E+00 0.  1.
          1   -1    0    0  501    0  0.00000000000E+00 -0.00000000000E+00 -0.25139386979E+04  0.25139386979E+04  0.00000000000E+00 0. -1.
         23    2    1    2    0    0  0.90369834749E+03  0.95484269976E+03 -0.46717385044E+03  0.13981759839E+04  0.90826157368E+02 0.  0.
        254    2    1    2    0    0 -0.90369834749E+03 -0.95484269976E+03 -0.11795442849E+04  0.19829832765E+04  0.90138930023E+03 0.  0.
         23    2    4    4    0    0  0.13355475853E+03  0.11840212532E+02 -0.19607102147E+03  0.25492690414E+03  0.92557100425E+02 0.  0.
         23    2    4    4    0    0 -0.10372531060E+04 -0.96668291229E+03 -0.98347326339E+03  0.17280563724E+04  0.92678517062E+02 0.  0.
          4    1    3    3  502    0  0.92208345745E+02  0.60993755788E+02 -0.39273923314E+02  0.11732458533E+03  0.00000000000E+00 0. -1.
         -4    1    3    3    0  502  0.81149000175E+03  0.89384894397E+03 -0.42789992712E+03  0.12808513986E+04  0.00000000000E+00 0.  1.
         13    1    5    5    0    0  0.71977935588E+02  0.48351219609E+02 -0.76851167779E+02  0.11586529091E+03  0.00000000000E+00 0.  1.
        -13    1    5    5    0    0  0.61576822937E+02 -0.36511007077E+02 -0.11921985369E+03  0.13906161323E+03  0.00000000000E+00 0. -1.
          2    1    6    6  503    0 -0.85487514023E+03 -0.74809723125E+03 -0.79897654602E+03  0.13888212606E+04  0.00000000000E+00 0. -1.
         -2    1    6    6    0  503 -0.18237796579E+03 -0.21858568104E+03 -0.18449671737E+03  0.33923511180E+03  0.00000000000E+00 0.  1.
<mgrwt>
<rscale>  0 0.29530590E+04</rscale>
<asrwt>0</asrwt>
<pdfrwt beam="1">  1        1 0.38675980E+00 0.29530590E+04</pdfrwt>
<pdfrwt beam="2">  1       -1 0.13341855E+00 0.29530590E+04</pdfrwt>
<totfact> 0.53723293E-01</totfact>
</mgrwt>
</event>
<event>
12    3  0.8686020E-008  0.1233582E+04  0.7818608E-02  0.9083960E-01
         -1   -1    0    0    0  501 -0.00000000000E+00  0.00000000000E+00  0.16380718157E+03  0.16380718157E+03  0.00000000000E+00 0.  1.
          1   -1    0    0  501    0  0.00000000000E+00 -0.00000000000E+00 -0.23224312299E+04  0.23224312299E+04  0.00000000000E+00 0. -1.
         23    2    1    2    0    0  0.25174871627E+03  0.14365906520E+02 -0.74024535322E+03  0.78762697391E+03  0.93857720248E+02 0.  0.
        254    2    1    2    0    0 -0.25174871627E+03 -0.14365906520E+02 -0.14183786951E+04  0.16986114375E+04  0.89994383027E+03 0.  0.
         23    2    4    4    0    0 -0.46948886575E+03  0.75130255667E+02 -0.34037903321E+03  0.59138236092E+03  0.88379070968E+02 0.  0.
         23    2    4    4    0    0  0.21774014948E+03 -0.89496162187E+02 -0.10779996619E+04  0.11072290766E+04  0.91938138681E+02 0.  0.
          3    1    3    3  502    0  0.21541580147E+03  0.97670186218E+01 -0.70326077984E+03  0.73557806291E+03  0.00000000000E+00 0. -1.
         -3    1    3    3    0  502  0.36332914798E+02  0.45988878979E+01 -0.36984573375E+02  0.52048910992E+02  0.00000000000E+00 0.  1.
         13    1    5    5    0    0 -0.16624919004E+03  0.69831276212E+02 -0.12640375766E+03  0.22021151259E+03  0.00000000000E+00 0.  1.
        -13    1    5    5    0    0 -0.30323967571E+03  0.52989794550E+01 -0.21397527554E+03  0.37117084833E+03  0.00000000000E+00 0. -1.
          2    1    6    6  503    0  0.70192217136E+02  0.20002254212E+00 -0.46898810156E+03  0.47421179526E+03  0.00000000000E+00 0. -1.
         -2    1    6    6    0  503  0.14754793234E+03 -0.89696184729E+02 -0.60901156033E+03  0.63301728137E+03  0.00000000000E+00 0.  1.
<mgrwt>
<rscale>  0 0.12335816E+04</rscale>
<asrwt>0</asrwt>
<pdfrwt beam="1">  1        1 0.35729708E+00 0.12335816E+04</pdfrwt>
<pdfrwt beam="2">  1       -1 0.25201107E-01 0.12335816E+04</pdfrwt>
<totfact> 0.24602240E+01</totfact>
</mgrwt>
</event>
<event>
12    3  0.8686020E-008  0.1277427E+04  0.7818608E-02  0.9047659E-01
          2   -1    0    0  501    0  0.00000000000E+00  0.00000000000E+00  0.12799110237E+04  0.12799110237E+04  0.00000000000E+00 0. -1.
         -2   -1    0    0    0  501 -0.00000000000E+00 -0.00000000000E+00 -0.31873714981E+03  0.31873714981E+03  0.00000000000E+00 0.  1.
         23    2    1    2    0    0 -0.78630398329E+02 -0.70516472225E+02  0.61260905272E+03  0.62782667579E+03  0.87870193850E+02 0.  0.
        254    2    1    2    0    0  0.78630398329E+02  0.70516472225E+02  0.34856482113E+03  0.97082149768E+03  0.89991201428E+03 0.  0.
         23    2    4    4    0    0 -0.31370280548E+03  0.28350484068E+03  0.76065195397E+02  0.43928608092E+03  0.91661890046E+02 0.  0.
         23    2    4    4    0    0  0.39233320381E+03 -0.21298836845E+03  0.27249962574E+03  0.53153541676E+03  0.94786419568E+02 0.  0.
          2    1    3    3  502    0 -0.89370824423E+02 -0.50979984925E+02  0.57478554681E+03  0.58392167963E+03  0.00000000000E+00 0. -1.
         -2    1    3    3    0  502  0.10740426094E+02 -0.19536487300E+02  0.37823505904E+02  0.43904996157E+02  0.00000000000E+00 0.  1.
         13    1    5    5    0    0 -0.53052480676E+01  0.17091896511E+02 -0.13015430561E+02  0.22128714741E+02  0.00000000000E+00 0.  1.
        -13    1    5    5    0    0 -0.30839755741E+03  0.26641294417E+03  0.89080625958E+02  0.41715736618E+03  0.00000000000E+00 0. -1.
          2    1    6    6  503    0  0.30268885248E+03 -0.12704903526E+03  0.16558753160E+03  0.36767000067E+03  0.00000000000E+00 0. -1.
         -2    1    6    6    0  503  0.89644351332E+02 -0.85939333194E+02  0.10691209414E+03  0.16386541609E+03  0.00000000000E+00 0.  1.
<mgrwt>
<rscale>  0 0.12774274E+04</rscale>
<asrwt>0</asrwt>
<pdfrwt beam="1">  1        2 0.19690939E+00 0.12774274E+04</pdfrwt>
<pdfrwt beam="2">  1       -2 0.49036485E-01 0.12774274E+04</pdfrwt>
<totfact> 0.65632852E+01</totfact>
</mgrwt>
</event>
<event>
12    3  0.8686020E-008  0.1775630E+04  0.7818608E-02  0.8719367E-01
          1   -1    0    0  501    0  0.00000000000E+00  0.00000000000E+00  0.61229503221E+03  0.61229503221E+03  0.00000000000E+00 0. -1.
         -1   -1    0    0    0  501 -0.00000000000E+00 -0.00000000000E+00 -0.12873135005E+04  0.12873135005E+04  0.00000000000E+00 0.  1.
         23    2    1    2    0    0 -0.60425632735E+03 -0.79242423003E+02 -0.51157277496E+03  0.80084145191E+03  0.90748312819E+02 0.  0.
        254    2    1    2    0    0  0.60425632735E+03  0.79242423003E+02 -0.16344569329E+03  0.10987670808E+04  0.89953851077E+03 0.  0.
         23    2    4    4    0    0  0.79862269458E+03 -0.30897463996E+02  0.43985667099E+01  0.80520197600E+03  0.97867324434E+02 0.  0.
         23    2    4    4    0    0 -0.19436636724E+03  0.11013988700E+03 -0.16784426000E+03  0.29356510475E+03  0.89998309388E+02 0.  0.
          2    1    3    3  502    0 -0.17867513732E+03 -0.18423514306E+02 -0.99500728743E+02  0.20534026784E+03  0.00000000000E+00 0. -1.
         -2    1    3    3    0  502 -0.42558119002E+03 -0.60818908698E+02 -0.41207204621E+03  0.59550118407E+03  0.00000000000E+00 0.  1.
         13    1    5    5    0    0  0.52092885946E+03 -0.59258422577E+02 -0.22496711792E+02  0.52477093984E+03  0.00000000000E+00 0. -1.
        -13    1    5    5    0    0  0.27769383512E+03  0.28360958581E+02  0.26895278502E+02  0.28043103616E+03  0.00000000000E+00 0.  1.
          1    1    6    6  503    0 -0.58868161611E+02  0.24957779798E+01 -0.10851318045E+02  0.59911939232E+02  0.00000000000E+00 0. -1.
         -1    1    6    6    0  503 -0.13549820562E+03  0.10764410902E+03 -0.15699294196E+03  0.23365316552E+03  0.00000000000E+00 0.  1.
<mgrwt>
<rscale>  0 0.17756302E+04</rscale>
<asrwt>0</asrwt>
<pdfrwt beam="1">  1        1 0.94199238E-01 0.17756302E+04</pdfrwt>
<pdfrwt beam="2">  1       -1 0.19804823E+00 0.17756302E+04</pdfrwt>
<totfact> 0.48809904E+00</totfact>
</mgrwt>
</event>
<event>
12    3  0.8686020E-008  0.2553731E+04  0.7818608E-02  0.8384090E-01
          2   -1    0    0  501    0  0.00000000000E+00  0.00000000000E+00  0.22891744269E+04  0.22891744269E+04  0.00000000000E+00 0. -1.
         -2   -1    0    0    0  501 -0.00000000000E+00 -0.00000000000E+00 -0.71221537931E+03  0.71221537931E+03  0.00000000000E+00 0.  1.
         23    2    1    2    0    0 -0.10504288813E+04  0.37952758203E+03  0.65713539126E+03  0.12991437089E+04  0.92224908090E+02 0.  0.
        254    2    1    2    0    0  0.10504288813E+04 -0.37952758203E+03  0.91982365638E+03  0.17022460974E+04  0.89672972345E+03 0.  0.
         23    2    4    4    0    0  0.86022604501E+02  0.85832958258E+02 -0.13064043730E+03  0.19942101641E+03  0.89076555396E+02 0.  0.
         23    2    4    4    0    0  0.96440627682E+03 -0.46536054029E+03  0.10504640937E+04  0.15028250809E+04  0.91479574813E+02 0.  0.
          1    1    3    3  502    0 -0.17545540814E+03  0.29125719003E+02  0.11552980228E+03  0.21208498996E+03  0.00000000000E+00 0. -1.
         -1    1    3    3    0  502 -0.87497347318E+03  0.35040186303E+03  0.54160558897E+03  0.10870587189E+04  0.00000000000E+00 0.  1.
         13    1    5    5    0    0  0.64446932082E+02  0.10399585668E+03 -0.10296378204E+03  0.15990649040E+03  0.00000000000E+00 0.  1.
        -13    1    5    5    0    0  0.21575672418E+02 -0.18162898422E+02 -0.27676655257E+02  0.39514526008E+02  0.00000000000E+00 0. -1.
          3    1    6    6  503    0  0.48862465581E+02 -0.15356263007E+02  0.78753960399E+02  0.93944353927E+02  0.00000000000E+00 0. -1.
         -3    1    6    6    0  503  0.91554381124E+03 -0.45000427728E+03  0.97171013328E+03  0.14088807270E+04  0.00000000000E+00 0.  1.
<mgrwt>
<rscale>  0 0.25537308E+04</rscale>
<asrwt>0</asrwt>
<pdfrwt beam="1">  1        2 0.35218068E+00 0.25537308E+04</pdfrwt>
<pdfrwt beam="2">  1       -2 0.10957160E+00 0.25537308E+04</pdfrwt>
<totfact> 0.27076291E+00</totfact>
</mgrwt>
</event>
<event>
12    3  0.8686020E-008  0.1336734E+04  0.7818608E-02  0.9000932E-01
         -2   -1    0    0    0  501 -0.00000000000E+00  0.00000000000E+00  0.14979665005E+03  0.14979665005E+03  0.00000000000E+00 0. -1.
          2   -1    0    0  501    0  0.00000000000E+00 -0.00000000000E+00 -0.29821386044E+04  0.29821386044E+04  0.00000000000E+00 0.  1.
         23    2    1    2    0    0 -0.57477186097E+02  0.12206362354E+03 -0.15564159368E+04  0.15649165030E+04  0.91268494829E+02 0.  0.
        254    2    1    2    0    0  0.57477186097E+02 -0.12206362354E+03 -0.12759260176E+04  0.15670187514E+04  0.89964293461E+03 0.  0.
         23    2    4    4    0    0 -0.18828793014E+03 -0.20163292474E+02  0.45262872260E+02  0.21630908998E+03  0.94244319730E+02 0.  0.
         23    2    4    4    0    0  0.24576511624E+03 -0.10190033106E+03 -0.13211888899E+04  0.13507096614E+04  0.89957417694E+02 0.  0.
          2    1    3    3  502    0  0.10773755184E+02  0.82650992406E+02 -0.72601069865E+03  0.73077958024E+03  0.00000000000E+00 0.  1.
         -2    1    3    3    0  502 -0.68250941281E+02  0.39412631130E+02 -0.83040523811E+03  0.83413692279E+03  0.00000000000E+00 0. -1.
         13    1    5    5    0    0 -0.70555000041E+01  0.21293040815E+02 -0.64445588053E+01  0.23338937543E+02  0.00000000000E+00 0. -1.
        -13    1    5    5    0    0 -0.18123243014E+03 -0.41456333289E+02  0.51707431065E+02  0.19297015243E+03  0.00000000000E+00 0.  1.
          3    1    6    6  503    0  0.11066923142E+03 -0.94487203419E+02 -0.67437378575E+03  0.68989529154E+03  0.00000000000E+00 0. -1.
         -3    1    6    6    0  503  0.13509588482E+03 -0.74131276430E+01 -0.64681510412E+03  0.66081436990E+03  0.00000000000E+00 0.  1.
<mgrwt>
<rscale>  0 0.13367339E+04</rscale>
<asrwt>0</asrwt>
<pdfrwt beam="1">  1        2 0.45879053E+00 0.13367339E+04</pdfrwt>
<pdfrwt beam="2">  1       -2 0.23045640E-01 0.13367339E+04</pdfrwt>
<totfact> 0.29323824E+01</totfact>
</mgrwt>
</event>
<event>
12    3  0.8686020E-008  0.1484212E+04  0.7818608E-02  0.8895020E-01
         -2   -1    0    0    0  501 -0.00000000000E+00  0.00000000000E+00  0.24884090048E+03  0.24884090048E+03  0.00000000000E+00 0.  1.
          2   -1    0    0  501    0  0.00000000000E+00 -0.00000000000E+00 -0.22131456385E+04  0.22131456385E+04  0.00000000000E+00 0. -1.
         23    2    1    2    0    0  0.11937925958E+03  0.22773270487E+03  0.14239003180E+02  0.27305190108E+03  0.90779948141E+02 0.  0.
        254    2    1    2    0    0 -0.11937925958E+03 -0.22773270487E+03 -0.19785437412E+04  0.21889346379E+04  0.90038098638E+03 0.  0.
         23    2    4    4    0    0  0.28743171804E+03  0.17286452797E+03 -0.58864737367E+03  0.68358911822E+03  0.91045123217E+02 0.  0.
         23    2    4    4    0    0 -0.40681097763E+03 -0.40059723284E+03 -0.13898963675E+04  0.15053455196E+04  0.90993992268E+02 0.  0.
          2    1    3    3  502    0  0.28712769575E+02  0.29625624080E+02 -0.29650816708E+02  0.50806216846E+02  0.00000000000E+00 0. -1.
         -2    1    3    3    0  502  0.90666490010E+02  0.19810708079E+03  0.43889819888E+02  0.22224568424E+03  0.00000000000E+00 0.  1.
         13    1    5    5    0    0  0.28512199837E+03  0.15615742268E+03 -0.52291166087E+03  0.61572420749E+03  0.00000000000E+00 0. -1.
        -13    1    5    5    0    0  0.23097196705E+01  0.16707105283E+02 -0.65735712798E+02  0.67864910735E+02  0.00000000000E+00 0.  1.
          1    1    6    6  503    0 -0.26457129166E+03 -0.21362144510E+03 -0.89799938131E+03  0.96022652484E+03  0.00000000000E+00 0. -1.
         -1    1    6    6    0  503 -0.14223968596E+03 -0.18697578774E+03 -0.49189698619E+03  0.54511899480E+03  0.00000000000E+00 0.  1.
<mgrwt>
<rscale>  0 0.14842118E+04</rscale>
<asrwt>0</asrwt>
<pdfrwt beam="1">  1        2 0.34048395E+00 0.14842118E+04</pdfrwt>
<pdfrwt beam="2">  1       -2 0.38283215E-01 0.14842118E+04</pdfrwt>
<totfact> 0.31679228E+01</totfact>
</mgrwt>
</event>
<event>
12    3  0.8686020E-008  0.3133546E+04  0.7818608E-02  0.8206591E-01
         -1   -1    0    0    0  501 -0.00000000000E+00  0.00000000000E+00  0.12804394387E+04  0.12804394387E+04  0.00000000000E+00 0.  1.
          1   -1    0    0  501    0  0.00000000000E+00 -0.00000000000E+00 -0.19171366322E+04  0.19171366322E+04  0.00000000000E+00 0. -1.
         23    2    1    2    0    0  0.13312279094E+04 -0.52962390504E+03 -0.19659153580E+03  0.14494208441E+04  0.97484992589E+02 0.  0.
        254    2    1    2    0    0 -0.13312279094E+04  0.52962390504E+03 -0.44010565763E+03  0.17481552268E+04  0.89982469378E+03 0.  0.
         23    2    4    4    0    0 -0.22386089848E+03  0.15924079374E+03  0.25556643842E+03  0.38633026217E+03  0.92008340707E+02 0.  0.
         23    2    4    4    0    0 -0.11073670109E+04  0.37038311130E+03 -0.69567209605E+03  0.13618249646E+04  0.84629918208E+02 0.  0.
          2    1    3    3  502    0  0.61858648937E+03 -0.19720888277E+03 -0.10610848621E+03  0.65787506346E+03  0.00000000000E+00 0. -1.
         -2    1    3    3    0  502  0.71264142004E+03 -0.33241502227E+03 -0.90483049584E+02  0.79154578064E+03  0.00000000000E+00 0.  1.
         13    1    5    5    0    0 -0.38603559422E+02 -0.56720410292E+01  0.18313013714E+02  0.43101894631E+02  0.00000000000E+00 0. -1.
        -13    1    5    5    0    0 -0.18525733906E+03  0.16491283477E+03  0.23725342471E+03  0.34322836754E+03  0.00000000000E+00 0.  1.
          2    1    6    6  503    0 -0.79074114067E+03  0.27823107949E+03 -0.45691005041E+03  0.95469936593E+03  0.00000000000E+00 0. -1.
         -2    1    6    6    0  503 -0.31662587026E+03  0.92152031808E+02 -0.23876204564E+03  0.40712559871E+03  0.00000000000E+00 0.  1.
<mgrwt>
<rscale>  0 0.31335458E+04</rscale>
<asrwt>0</asrwt>
<pdfrwt beam="1">  1        1 0.29494410E+00 0.31335458E+04</pdfrwt>
<pdfrwt beam="2">  1       -1 0.19699068E+00 0.31335458E+04</pdfrwt>
<totfact> 0.45068459E-01</totfact>
</mgrwt>
</event>
<event>
12    3  0.8686020E-008  0.2076533E+04  0.7818608E-02  0.8571652E-01
          2   -1    0    0  501    0  0.00000000000E+00  0.00000000000E+00  0.15770151487E+04  0.15770151487E+04  0.00000000000E+00 0. -1.
         -2   -1    0    0    0  501 -0.00000000000E+00 -0.00000000000E+00 -0.68356785473E+03  0.68356785473E+03  0.00000000000E+00 0.  1.
         23    2    1    2    0    0  0.80377101020E+03 -0.13705346123E+03  0.14124401184E+03  0.83237239343E+03  0.89791104228E+02 0.  0.
        254    2    1    2    0    0 -0.80377101020E+03  0.13705346123E+03  0.75220328209E+03  0.14282106100E+04  0.89952447481E+03 0.  0.
         23    2    4    4    0    0  0.83414701491E+02 -0.20230277058E+03  0.27262609147E+03  0.36034513803E+03  0.87402570544E+02 0.  0.
         23    2    4    4    0    0 -0.88718571169E+03  0.33935623181E+03  0.47957719062E+03  0.10678654719E+04  0.89895746979E+02 0.  0.
          1    1    3    3  502    0  0.48444817182E+03 -0.11655340399E+03  0.57236928255E+02  0.50154839559E+03  0.00000000000E+00 0. -1.
         -1    1    3    3    0  502  0.31932283837E+03 -0.20500057235E+02  0.84007083585E+02  0.33082399784E+03  0.00000000000E+00 0.  1.
         13    1    5    5    0    0  0.93834035144E+02 -0.14376881209E+03  0.23080816461E+03  0.28765727235E+03  0.00000000000E+00 0. -1.
        -13    1    5    5    0    0 -0.10419333653E+02 -0.58533958488E+02  0.41817926859E+02  0.72687865678E+02  0.00000000000E+00 0.  1.
          3    1    6    6  503    0 -0.56180603602E+03  0.17537308815E+03  0.26991883761E+03  0.64748584622E+03  0.00000000000E+00 0. -1.
         -3    1    6    6    0  503 -0.32537967566E+03  0.16398314366E+03  0.20965835301E+03  0.42037962573E+03  0.00000000000E+00 0.  1.
<mgrwt>
<rscale>  0 0.20765326E+04</rscale>
<asrwt>0</asrwt>
<pdfrwt beam="1">  1        2 0.24261771E+00 0.20765326E+04</pdfrwt>
<pdfrwt beam="2">  1       -2 0.10516429E+00 0.20765326E+04</pdfrwt>
<totfact> 0.77683864E+00</totfact>
</mgrwt>
</event>
<event>
12    3  0.8686020E-008  0.1433018E+04  0.7818608E-02  0.8930259E-01
          2   -1    0    0  501    0  0.00000000000E+00  0.00000000000E+00  0.27658120563E+04  0.27658120563E+04  0.00000000000E+00 0. -1.
         -2   -1    0    0    0  501 -0.00000000000E+00 -0.00000000000E+00 -0.18561822662E+03  0.18561822662E+03  0.00000000000E+00 0.  1.
         23    2    1    2    0    0  0.25334985541E+03 -0.29901136892E+03  0.11324123429E+04  0.12018774341E+04  0.92507861602E+02 0.  0.
        254    2    1    2    0    0 -0.25334985541E+03  0.29901136892E+03  0.14477814868E+04  0.17495528488E+04  0.90070527318E+03 0.  0.
         23    2    4    4    0    0 -0.32308555373E+03 -0.16023888655E+03  0.21682572520E+03  0.43058802790E+03  0.91279126150E+02 0.  0.
         23    2    4    4    0    0  0.69735698322E+02  0.45925025547E+03  0.12309557617E+04  0.13189648209E+04  0.92963685811E+02 0.  0.
          3    1    3    3  502    0  0.10905027054E+03 -0.16757674509E+03  0.68865010272E+03  0.71708639018E+03  0.00000000000E+00 0. -1.
         -3    1    3    3    0  502  0.14429958487E+03 -0.13143462384E+03  0.44376224013E+03  0.48479104396E+03  0.00000000000E+00 0.  1.
         13    1    5    5    0    0 -0.14888996845E+03 -0.11862361830E+03  0.86538279086E+02  0.20911398631E+03  0.00000000000E+00 0.  1.
        -13    1    5    5    0    0 -0.17419558528E+03 -0.41615268246E+02  0.13028744611E+03  0.22147404159E+03  0.00000000000E+00 0. -1.
          3    1    6    6  503    0  0.75947506680E+02  0.20955674458E+03  0.53661027517E+03  0.58106164938E+03  0.00000000000E+00 0. -1.
         -3    1    6    6    0  503 -0.62118083577E+01  0.24969351089E+03  0.69434548649E+03  0.73790317153E+03  0.00000000000E+00 0.  1.
<mgrwt>
<rscale>  0 0.14330180E+04</rscale>
<asrwt>0</asrwt>
<pdfrwt beam="1">  1        2 0.42550952E+00 0.14330180E+04</pdfrwt>
<pdfrwt beam="2">  1       -2 0.28556652E-01 0.14330180E+04</pdfrwt>
<totfact> 0.26620254E+01</totfact>
</mgrwt>
</event>
<event>
12    3  0.8686020E-008  0.5612732E+04  0.7818608E-02  0.7740365E-01
          2   -1    0    0  501    0  0.00000000000E+00  0.00000000000E+00  0.28426741628E+04  0.28426741628E+04  0.00000000000E+00 0. -1.
         -2   -1    0    0    0  501 -0.00000000000E+00 -0.00000000000E+00 -0.27705218935E+04  0.27705218935E+04  0.00000000000E+00 0.  1.
         23    2    1    2    0    0  0.23982407348E+04 -0.22970687019E+03  0.13268091960E+04  0.27519340507E+04  0.91621550500E+02 0.  0.
        254    2    1    2    0    0 -0.23982407348E+04  0.22970687019E+03 -0.12546569267E+04  0.28612620056E+04  0.89907307423E+03 0.  0.
         23    2    4    4    0    0 -0.10142723488E+04 -0.33674111201E+03 -0.53567821267E+03  0.11994304273E+04  0.97668972474E+02 0.  0.
         23    2    4    4    0    0 -0.13839683860E+04  0.56644798220E+03 -0.71897871400E+03  0.16618315784E+04  0.92314645086E+02 0.  0.
          3    1    3    3  502    0  0.47337872074E+03 -0.11716961691E+02  0.24440926932E+03  0.53287952800E+03  0.00000000000E+00 0.  1.
         -3    1    3    3    0  502  0.19248620141E+04 -0.21798990850E+03  0.10823999267E+04  0.22190545227E+04  0.00000000000E+00 0. -1.
         13    1    5    5    0    0 -0.12567281845E+03 -0.71776080322E+02 -0.53535718940E+02  0.15430987074E+03  0.00000000000E+00 0.  1.
        -13    1    5    5    0    0 -0.88859953037E+03 -0.26496503169E+03 -0.48214249373E+03  0.10451205565E+04  0.00000000000E+00 0. -1.
          4    1    6    6  503    0 -0.12031585670E+04  0.52137694338E+03 -0.64531939050E+03  0.14614587132E+04  0.00000000000E+00 0. -1.
         -4    1    6    6    0  503 -0.18080981894E+03  0.45071038822E+02 -0.73659323497E+02  0.20037286519E+03  0.00000000000E+00 0.  1.
<mgrwt>
<rscale>  0 0.56127323E+04</rscale>
<asrwt>0</asrwt>
<pdfrwt beam="1">  1        2 0.43733449E+00 0.56127323E+04</pdfrwt>
<pdfrwt beam="2">  1       -2 0.42623414E+00 0.56127323E+04</pdfrwt>
<totfact> 0.75506866E-03</totfact>
</mgrwt>
</event>
<event>
12    3  0.8686020E-008  0.1384804E+04  0.7818608E-02  0.8964892E-01
         -2   -1    0    0    0  501 -0.00000000000E+00  0.00000000000E+00  0.15350178708E+03  0.15350178708E+03  0.00000000000E+00 0.  1.
          2   -1    0    0  501    0  0.00000000000E+00 -0.00000000000E+00 -0.31232255485E+04  0.31232255485E+04  0.00000000000E+00 0. -1.
         23    2    1    2    0    0  0.25831884894E+03 -0.27830314654E+03 -0.11673980617E+04  0.12302140704E+04  0.80169542362E+02 0.  0.
        254    2    1    2    0    0 -0.25831884894E+03  0.27830314654E+03 -0.18023256997E+04  0.20465132651E+04  0.89199627098E+03 0.  0.
         23    2    4    4    0    0 -0.14075727979E+03  0.52752710868E+03 -0.15967096212E+04  0.16898604644E+04  0.89717960547E+02 0.  0.
         23    2    4    4    0    0 -0.11756156916E+03 -0.24922396214E+03 -0.20561607851E+03  0.35665280075E+03  0.94815308346E+02 0.  0.
          1    1    3    3  502    0  0.26381069567E+03 -0.27478744881E+03 -0.11551698442E+04  0.12163558666E+04  0.00000000000E+00 0. -1.
         -1    1    3    3    0  502 -0.54918467303E+01 -0.35156977335E+01 -0.12228217475E+02  0.13858203840E+02  0.00000000000E+00 0.  1.
         13    1    5    5    0    0 -0.14907840401E+03  0.48030133087E+03 -0.14067210199E+04  0.14939135741E+04  0.00000000000E+00 0.  1.
        -13    1    5    5    0    0  0.83211242208E+01  0.47225777814E+02 -0.18998860123E+03  0.19594689025E+03  0.00000000000E+00 0. -1.
          3    1    6    6  503    0 -0.40190729074E+02 -0.23850220227E+02 -0.87116462552E+01  0.47539672789E+02  0.00000000000E+00 0. -1.
         -3    1    6    6    0  503 -0.77370840083E+02 -0.22537374191E+03 -0.19690443226E+03  0.30911312797E+03  0.00000000000E+00 0.  1.
<mgrwt>
<rscale>  0 0.13848043E+04</rscale>
<asrwt>0</asrwt>
<pdfrwt beam="1">  1        2 0.48049627E+00 0.13848043E+04</pdfrwt>
<pdfrwt beam="2">  1       -2 0.23615658E-01 0.13848043E+04</pdfrwt>
<totfact> 0.22786628E+01</totfact>
</mgrwt>
</event>
<event>
12    3  0.8686020E-008  0.1531328E+04  0.7818608E-02  0.8863883E-01
         -1   -1    0    0    0  501 -0.00000000000E+00  0.00000000000E+00  0.70776756673E+03  0.70776756673E+03  0.00000000000E+00 0.  1.
          1   -1    0    0  501    0  0.00000000000E+00 -0.00000000000E+00 -0.82829632170E+03  0.82829632170E+03  0.00000000000E+00 0. -1.
         23    2    1    2    0    0 -0.42394725056E+03 -0.25665632695E+03 -0.15077086564E+02  0.50473126052E+03  0.94459437752E+02 0.  0.
        254    2    1    2    0    0  0.42394725056E+03  0.25665632695E+03 -0.10545166841E+03  0.10313326279E+04  0.89828903678E+03 0.  0.
         23    2    4    4    0    0  0.52549141742E+03  0.45053851259E+03 -0.26416191838E+03  0.74640949268E+03  0.90661075080E+02 0.  0.
         23    2    4    4    0    0 -0.10154416685E+03 -0.19388218563E+03  0.15871024997E+03  0.28492313523E+03  0.89948484247E+02 0.  0.
          4    1    3    3  502    0 -0.40656019359E+03 -0.23314146966E+03 -0.34003939717E+02  0.46989616279E+03  0.00000000000E+00 0. -1.
         -4    1    3    3    0  502 -0.17387056975E+02 -0.23514857290E+02  0.18926853152E+02  0.34835097730E+02  0.00000000000E+00 0.  1.
         13    1    5    5    0    0  0.45812604557E+03  0.39710380827E+03 -0.19757700408E+03  0.63765788689E+03  0.00000000000E+00 0. -1.
        -13    1    5    5    0    0  0.67365371851E+02  0.53434704316E+02 -0.66584914294E+02  0.10875160579E+03  0.00000000000E+00 0.  1.
          4    1    6    6  503    0 -0.79600584548E+02 -0.15022185795E+03  0.16344105688E+03  0.23583010567E+03  0.00000000000E+00 0.  1.
         -4    1    6    6    0  503 -0.21943582307E+02 -0.43660327685E+02 -0.47308069090E+01  0.49093029567E+02  0.00000000000E+00 0. -1.
<mgrwt>
<rscale>  0 0.15313279E+04</rscale>
<asrwt>0</asrwt>
<pdfrwt beam="1">  1        1 0.12743020E+00 0.15313279E+04</pdfrwt>
<pdfrwt beam="2">  1       -1 0.10888732E+00 0.15313279E+04</pdfrwt>
<totfact> 0.15768598E+01</totfact>
</mgrwt>
</event>
<event>
12    3  0.8686020E-008  0.2810019E+04  0.7818608E-02  0.8300165E-01
          1   -1    0    0  501    0  0.00000000000E+00  0.00000000000E+00  0.11537257688E+04  0.11537257688E+04  0.00000000000E+00 0. -1.
         -1   -1    0    0    0  501 -0.00000000000E+00 -0.00000000000E+00 -0.17110231471E+04  0.17110231471E+04  0.00000000000E+00 0.  1.
         23    2    1    2    0    0  0.85951114897E+03  0.91616266637E+03 -0.33619935723E+03  0.13036167861E+04  0.90957520972E+02 0.  0.
        254    2    1    2    0    0 -0.85951114897E+03 -0.91616266637E+03 -0.22109802105E+03  0.15611321298E+04  0.90007541094E+03 0.  0.
         23    2    4    4    0    0  0.10078017542E+03 -0.45605980816E+03 -0.56207296653E+02  0.47972004148E+03  0.93940755945E+02 0.  0.
         23    2    4    4    0    0 -0.96029132439E+03 -0.46010285821E+03 -0.16489072440E+03  0.10814120883E+04  0.91701068499E+02 0.  0.
          3    1    3    3  502    0  0.52953035724E+03  0.61122431938E+03 -0.24661528366E+03  0.84546831164E+03  0.00000000000E+00 0. -1.
         -3    1    3    3    0  502  0.32998079173E+03  0.30493834699E+03 -0.89584073570E+02  0.45814847442E+03  0.00000000000E+00 0.  1.
         13    1    5    5    0    0  0.78178064863E+02 -0.30569356267E+03  0.56033558838E+01  0.31558162444E+03  0.00000000000E+00 0.  1.
        -13    1    5    5    0    0  0.22602110558E+02 -0.15036624549E+03 -0.61810652536E+02  0.16413841705E+03  0.00000000000E+00 0. -1.
          2    1    6    6  503    0 -0.57000694520E+02 -0.53498208195E+02 -0.11041857996E+02  0.78949731373E+02  0.00000000000E+00 0. -1.
         -2    1    6    6    0  503 -0.90329062987E+03 -0.40660465001E+03 -0.15384886640E+03  0.10024623570E+04  0.00000000000E+00 0.  1.
<mgrwt>
<rscale>  0 0.28100189E+04</rscale>
<asrwt>0</asrwt>
<pdfrwt beam="1">  1        1 0.17749627E+00 0.28100189E+04</pdfrwt>
<pdfrwt beam="2">  1       -1 0.26323433E+00 0.28100189E+04</pdfrwt>
<totfact> 0.57152360E-01</totfact>
</mgrwt>
</event>
<event>
12    3  0.8686020E-008  0.1209741E+04  0.7818608E-02  0.9104373E-01
          2   -1    0    0  501    0  0.00000000000E+00  0.00000000000E+00  0.82406911839E+03  0.82406911839E+03  0.00000000000E+00 0. -1.
         -2   -1    0    0    0  501 -0.00000000000E+00 -0.00000000000E+00 -0.44397751653E+03  0.44397751653E+03  0.00000000000E+00 0.  1.
         23    2    1    2    0    0  0.11326877935E+03  0.22997481540E+03  0.75325110360E+02  0.28365667075E+03  0.95231310605E+02 0.  0.
        254    2    1    2    0    0 -0.11326877935E+03 -0.22997481540E+03  0.30476649150E+03  0.98438996416E+03  0.90023483331E+03 0.  0.
         23    2    4    4    0    0 -0.45038194852E+03  0.69468489080E+02  0.22904322880E+03  0.51821064782E+03  0.91715344020E+02 0.  0.
         23    2    4    4    0    0  0.33711316917E+03 -0.29944330448E+03  0.75723262702E+02  0.46617931634E+03  0.90981102651E+02 0.  0.
          4    1    3    3  502    0  0.23198394949E+02  0.37925833716E+02  0.54768350121E+02  0.70541523703E+02  0.00000000000E+00 0. -1.
         -4    1    3    3    0  502  0.90070384402E+02  0.19204898168E+03  0.20556760239E+02  0.21311514705E+03  0.00000000000E+00 0.  1.
         13    1    5    5    0    0  0.36824129888E+00 -0.75474441254E+01  0.33712531402E+01  0.82743496552E+01  0.00000000000E+00 0.  1.
        -13    1    5    5    0    0 -0.45075018982E+03  0.77015933205E+02  0.22567197566E+03  0.50993629817E+03  0.00000000000E+00 0. -1.
          3    1    6    6  503    0  0.28659674062E+03 -0.27942363175E+03  0.42572565877E+02  0.40252662158E+03  0.00000000000E+00 0. -1.
         -3    1    6    6    0  503  0.50516428555E+02 -0.20019672727E+02  0.33150696825E+02  0.63652694758E+02  0.00000000000E+00 0.  1.
<mgrwt>
<rscale>  0 0.12097407E+04</rscale>
<asrwt>0</asrwt>
<pdfrwt beam="1">  1        2 0.12677986E+00 0.12097407E+04</pdfrwt>
<pdfrwt beam="2">  1       -2 0.68304233E-01 0.12097407E+04</pdfrwt>
<totfact> 0.64042171E+01</totfact>
</mgrwt>
</event>
<event>
12    3  0.8686020E-008  0.1759707E+04  0.7818608E-02  0.8728025E-01
         -1   -1    0    0    0  501 -0.00000000000E+00  0.00000000000E+00  0.79410961917E+03  0.79410961917E+03  0.00000000000E+00 0.  1.
          1   -1    0    0  501    0  0.00000000000E+00 -0.00000000000E+00 -0.97485577553E+03  0.97485577553E+03  0.00000000000E+00 0. -1.
         23    2    1    2    0    0 -0.39392339257E+03  0.34009676880E+03  0.31696334832E+03  0.61615784635E+03  0.91341535307E+02 0.  0.
        254    2    1    2    0    0  0.39392339257E+03 -0.34009676880E+03 -0.49770950468E+03  0.11528075484E+04  0.90022721639E+03 0.  0.
         23    2    4    4    0    0  0.51948507148E+03  0.40166921892E+02 -0.51855971347E+03  0.74057334520E+03  0.89814153037E+02 0.  0.
         23    2    4    4    0    0 -0.12556167891E+03 -0.38026369070E+03  0.20850208788E+02  0.41223420315E+03  0.95582934517E+02 0.  0.
          3    1    3    3  502    0 -0.33078405503E+03  0.23513598802E+03  0.23988216240E+03  0.47143448724E+03  0.00000000000E+00 0. -1.
         -3    1    3    3    0  502 -0.63139337541E+02  0.10496078078E+03  0.77081185921E+02  0.14472335910E+03  0.00000000000E+00 0.  1.
         13    1    5    5    0    0  0.45841306793E+03  0.55494040020E+02 -0.42354061432E+03  0.62658501522E+03  0.00000000000E+00 0. -1.
        -13    1    5    5    0    0  0.61072003552E+02 -0.15327118128E+02 -0.95019099153E+02  0.11398832998E+03  0.00000000000E+00 0.  1.
          1    1    6    6  503    0 -0.10997662893E+03 -0.36068523123E+03  0.42077345690E+02  0.37941955400E+03  0.00000000000E+00 0. -1.
         -1    1    6    6    0  503 -0.15585049975E+02 -0.19578459463E+02 -0.21227136902E+02  0.32814649148E+02  0.00000000000E+00 0.  1.
<mgrwt>
<rscale>  0 0.17597072E+04</rscale>
<asrwt>0</asrwt>
<pdfrwt beam="1">  1        1 0.14997781E+00 0.17597072E+04</pdfrwt>
<pdfrwt beam="2">  1       -1 0.12217071E+00 0.17597072E+04</pdfrwt>
<totfact> 0.88836466E+00</totfact>
</mgrwt>
</event>
<event>
12    3  0.8686020E-008  0.4943843E+04  0.7818608E-02  0.7837229E-01
          1   -1    0    0  501    0  0.00000000000E+00  0.00000000000E+00  0.23047156789E+04  0.23047156789E+04  0.00000000000E+00 0.  1.
         -1   -1    0    0    0  501 -0.00000000000E+00 -0.00000000000E+00 -0.26512583949E+04  0.26512583949E+04  0.00000000000E+00 0. -1.
         23    2    1    2    0    0 -0.17681666195E+04 -0.14053893094E+04 -0.94798475826E+03  0.24515461817E+04  0.99354283164E+02 0.  0.
        254    2    1    2    0    0  0.17681666195E+04  0.14053893094E+04  0.60144204227E+03  0.25044278921E+04  0.89938547412E+03 0.  0.
         23    2    4    4    0    0  0.11595445431E+04  0.11047293178E+04  0.79846854706E+03  0.17919517561E+04  0.92567070935E+02 0.  0.
         23    2    4    4    0    0  0.60862207635E+03  0.30065999164E+03 -0.19702650480E+03  0.71247613592E+03  0.89361839010E+02 0.  0.
          1    1    3    3  502    0 -0.72877083646E+03 -0.51771008218E+03 -0.36808328890E+03  0.96675538210E+03  0.00000000000E+00 0. -1.
         -1    1    3    3    0  502 -0.10393957830E+04 -0.88767922726E+03 -0.57990146936E+03  0.14847907996E+04  0.00000000000E+00 0.  1.
         13    1    5    5    0    0  0.20719835174E+03  0.16766486156E+03  0.10325834670E+03  0.28584077549E+03  0.00000000000E+00 0.  1.
        -13    1    5    5    0    0  0.95234619138E+03  0.93706445623E+03  0.69521020037E+03  0.15061109807E+04  0.00000000000E+00 0. -1.
          4    1    6    6  503    0  0.43576527176E+03  0.22487133856E+03 -0.10079423487E+03  0.50061758735E+03  0.00000000000E+00 0. -1.
         -4    1    6    6    0  503  0.17285680459E+03  0.75788653080E+02 -0.96232269927E+02  0.21185854857E+03  0.00000000000E+00 0.  1.
<mgrwt>
<rscale>  0 0.49438434E+04</rscale>
<asrwt>0</asrwt>
<pdfrwt beam="1">  1        1 0.35457164E+00 0.49438434E+04</pdfrwt>
<pdfrwt beam="2">  1       -1 0.40788591E+00 0.49438434E+04</pdfrwt>
<totfact> 0.84669784E-03</totfact>
</mgrwt>
</event>
<event>
12    3  0.8686020E-008  0.1323187E+04  0.7818608E-02  0.9011377E-01
          1   -1    0    0  501    0  0.00000000000E+00  0.00000000000E+00  0.95945384467E+03  0.95945384467E+03  0.00000000000E+00 0. -1.
         -1   -1    0    0    0  501 -0.00000000000E+00 -0.00000000000E+00 -0.45620339453E+03  0.45620339453E+03  0.00000000000E+00 0.  1.
         23    2    1    2    0    0 -0.29853297618E+03  0.40873552102E+02 -0.53911473799E+02  0.31965255202E+03  0.92079975428E+02 0.  0.
        254    2    1    2    0    0  0.29853297618E+03 -0.40873552102E+02  0.55716192394E+03  0.10960046872E+04  0.89442958342E+03 0.  0.
         23    2    4    4    0    0 -0.56941205195E+02  0.14260172404E+03  0.65133958315E+03  0.67505366629E+03  0.88750477424E+02 0.  0.
         23    2    4    4    0    0  0.35547418138E+03 -0.18347527614E+03 -0.94177659209E+02  0.42095102089E+03  0.91133198759E+02 0.  0.
          1    1    3    3  502    0 -0.18653037399E+03  0.38411354103E+02  0.99414730764E+01  0.19070355380E+03  0.00000000000E+00 0. -1.
         -1    1    3    3    0  502 -0.11200260219E+03  0.24621979985E+01 -0.63852946875E+02  0.12894899822E+03  0.00000000000E+00 0.  1.
         13    1    5    5    0    0 -0.52673344649E+02  0.89999118203E+02  0.25938440443E+03  0.27956142756E+03  0.00000000000E+00 0.  1.
        -13    1    5    5    0    0 -0.42678605461E+01  0.52602605833E+02  0.39195517872E+03  0.39549223874E+03  0.00000000000E+00 0. -1.
          3    1    6    6  503    0  0.12904112406E+03 -0.19067909936E+02 -0.31566931649E+02  0.13420755590E+03  0.00000000000E+00 0. -1.
         -3    1    6    6    0  503  0.22643305732E+03 -0.16440736620E+03 -0.62610727560E+02  0.28674346499E+03  0.00000000000E+00 0.  1.
<mgrwt>
<rscale>  0 0.13231872E+04</rscale>
<asrwt>0</asrwt>
<pdfrwt beam="1">  1        1 0.14760828E+00 0.13231872E+04</pdfrwt>
<pdfrwt beam="2">  1       -1 0.70185138E-01 0.13231872E+04</pdfrwt>
<totfact> 0.32791161E+01</totfact>
</mgrwt>
</event>
<event>
12    3  0.8686020E-008  0.1382472E+04  0.7818608E-02  0.8966605E-01
         -2   -1    0    0    0  501 -0.00000000000E+00  0.00000000000E+00  0.17606997154E+03  0.17606997154E+03  0.00000000000E+00 0.  1.
          2   -1    0    0  501    0  0.00000000000E+00 -0.00000000000E+00 -0.27137364732E+04  0.27137364732E+04  0.00000000000E+00 0. -1.
         23    2    1    2    0    0 -0.33017747764E+02  0.28918663231E+03 -0.12816012877E+04  0.13182897475E+04  0.10328077132E+03 0.  0.
        254    2    1    2    0    0  0.33017747764E+02 -0.28918663231E+03 -0.12560652140E+04  0.15715166973E+04  0.89846860161E+03 0.  0.
         23    2    4    4    0    0  0.53642698896E+02  0.12855562004E+03 -0.11048832037E+04  0.11173733562E+04  0.91390571958E+02 0.  0.
         23    2    4    4    0    0 -0.20624951132E+02 -0.41774225235E+03 -0.15118201024E+03  0.45414334108E+03  0.91957577260E+02 0.  0.
          2    1    3    3  502    0 -0.39745851658E+00  0.59156936990E+01 -0.18901759034E+03  0.18911055725E+03  0.00000000000E+00 0. -1.
         -2    1    3    3    0  502 -0.32620289247E+02  0.28327093861E+03 -0.10925836973E+04  0.11291791902E+04  0.00000000000E+00 0.  1.
         13    1    5    5    0    0  0.40602805430E+02  0.64318096608E+02 -0.28834287447E+03  0.29820633564E+03  0.00000000000E+00 0. -1.
        -13    1    5    5    0    0  0.13039893465E+02  0.64237523436E+02 -0.81654032928E+03  0.81916702056E+03  0.00000000000E+00 0.  1.
          3    1    6    6  503    0 -0.40688419270E+02 -0.94747071673E+02 -0.53131601354E+02  0.11599794014E+03  0.00000000000E+00 0. -1.
         -3    1    6    6    0  503  0.20063468138E+02 -0.32299518068E+03 -0.98050408891E+02  0.33814540094E+03  0.00000000000E+00 0.  1.
<mgrwt>
<rscale>  0 0.13824724E+04</rscale>
<asrwt>0</asrwt>
<pdfrwt beam="1">  1        2 0.41749791E+00 0.13824724E+04</pdfrwt>
<pdfrwt beam="2">  1       -2 0.27087688E-01 0.13824724E+04</pdfrwt>
<totfact> 0.31655042E+01</totfact>
</mgrwt>
</event>
<event>
12    3  0.8686020E-008  0.4319704E+04  0.7818608E-02  0.7942985E-01
          2   -1    0    0  501    0  0.00000000000E+00  0.00000000000E+00  0.28678038406E+04  0.28678038406E+04  0.00000000000E+00 0. -1.
         -2   -1    0    0    0  501 -0.00000000000E+00 -0.00000000000E+00 -0.16266662133E+04  0.16266662133E+04  0.00000000000E+00 0.  1.
         23    2    1    2    0    0  0.20174608450E+04 -0.13181003063E+03  0.10294273606E+04  0.22705109842E+04  0.89315694385E+02 0.  0.
        254    2    1    2    0    0 -0.20174608450E+04  0.13181003063E+03  0.21171026669E+03  0.22239590697E+04  0.90202580959E+03 0.  0.
         23    2    4    4    0    0 -0.83617436404E+03 -0.78197759925E+02 -0.32650197543E+03  0.90558943521E+03  0.90477778846E+02 0.  0.
         23    2    4    4    0    0 -0.11812864810E+04  0.21000779056E+03  0.53821224212E+03  0.13183696345E+04  0.94260560420E+02 0.  0.
          3    1    3    3  502    0  0.72750096702E+03 -0.89268007458E+02  0.36121595754E+03  0.81713120253E+03  0.00000000000E+00 0. -1.
         -3    1    3    3    0  502  0.12899598780E+04 -0.42542023172E+02  0.66821140302E+03  0.14533797817E+04  0.00000000000E+00 0.  1.
         13    1    5    5    0    0 -0.66066479081E+03 -0.98600070913E+02 -0.25648541904E+03  0.71553106849E+03  0.00000000000E+00 0. -1.
        -13    1    5    5    0    0 -0.17550957323E+03  0.20402310989E+02 -0.70016556393E+02  0.19005836672E+03  0.00000000000E+00 0.  1.
          1    1    6    6  503    0 -0.10663674312E+04  0.20382295967E+03  0.51196212453E+03  0.12003285026E+04  0.00000000000E+00 0. -1.
         -1    1    6    6    0  503 -0.11491904978E+03  0.61848308805E+01  0.26250117593E+02  0.11804113186E+03  0.00000000000E+00 0.  1.
<mgrwt>
<rscale>  0 0.43197035E+04</rscale>
<asrwt>0</asrwt>
<pdfrwt beam="1">  1        2 0.44120059E+00 0.43197035E+04</pdfrwt>
<pdfrwt beam="2">  1       -2 0.25025634E+00 0.43197035E+04</pdfrwt>
<totfact> 0.10347130E-01</totfact>
</mgrwt>
</event>
<event>
12    3  0.8686020E-008  0.1177873E+04  0.7818608E-02  0.9132448E-01
         -2   -1    0    0    0  501 -0.00000000000E+00  0.00000000000E+00  0.19193781348E+03  0.19193781348E+03  0.00000000000E+00 0.  1.
          2   -1    0    0  501    0  0.00000000000E+00 -0.00000000000E+00 -0.18070748416E+04  0.18070748416E+04  0.00000000000E+00 0. -1.
         23    2    1    2    0    0  0.95580155343E+02 -0.16730309293E+03 -0.12329299546E+03  0.24689953952E+03  0.92910327108E+02 0.  0.
        254    2    1    2    0    0 -0.95580155343E+02  0.16730309293E+03 -0.14918440326E+04  0.17521131155E+04  0.89842966388E+03 0.  0.
         23    2    4    4    0    0 -0.42596941931E+03  0.22250338164E+03 -0.12113913811E+04  0.13061669480E+04  0.87437501812E+02 0.  0.
         23    2    4    4    0    0  0.33038926397E+03 -0.55200288707E+02 -0.28045265149E+03  0.44594616753E+03  0.89499480396E+02 0.  0.
          3    1    3    3  502    0 -0.54776300393E+01 -0.61540572920E+02 -0.64293200828E+02  0.89167607452E+02  0.00000000000E+00 0. -1.
         -3    1    3    3    0  502  0.10105778538E+03 -0.10576252001E+03 -0.58999794637E+02  0.15773193207E+03  0.00000000000E+00 0.  1.
         13    1    5    5    0    0 -0.96248877920E+02  0.13809134244E+02 -0.27689853213E+03  0.29347459138E+03  0.00000000000E+00 0. -1.
        -13    1    5    5    0    0 -0.32972054139E+03  0.20869424740E+03 -0.93449284901E+03  0.10126923566E+04  0.00000000000E+00 0.  1.
          1    1    6    6  503    0  0.11589504159E+03 -0.24904529967E+02 -0.47126780049E+02  0.12756500177E+03  0.00000000000E+00 0. -1.
         -1    1    6    6    0  503  0.21449422238E+03 -0.30295758741E+02 -0.23332587144E+03  0.31838116577E+03  0.00000000000E+00 0.  1.
<mgrwt>
<rscale>  0 0.11778726E+04</rscale>
<asrwt>0</asrwt>
<pdfrwt beam="1">  1        2 0.27801150E+00 0.11778726E+04</pdfrwt>
<pdfrwt beam="2">  1       -2 0.29528896E-01 0.11778726E+04</pdfrwt>
<totfact> 0.89272852E+01</totfact>
</mgrwt>
</event>
<event>
12    3  0.8686020E-008  0.2891738E+04  0.7818608E-02  0.8275340E-01
         -2   -1    0    0    0  501 -0.00000000000E+00  0.00000000000E+00  0.13962896498E+04  0.13962896498E+04  0.00000000000E+00 0.  1.
          2   -1    0    0  501    0  0.00000000000E+00 -0.00000000000E+00 -0.14972083736E+04  0.14972083736E+04  0.00000000000E+00 0. -1.
         23    2    1    2    0    0  0.12679441006E+04  0.50316882039E+02  0.25435628648E+03  0.12973997529E+04  0.91296042615E+02 0.  0.
        254    2    1    2    0    0 -0.12679441006E+04 -0.50316882039E+02 -0.35527501036E+03  0.15960982705E+04  0.90060830849E+03 0.  0.
         23    2    4    4    0    0 -0.12380429586E+04 -0.27272561445E+03 -0.15259761056E+03  0.12801707881E+04  0.91769209571E+02 0.  0.
         23    2    4    4    0    0 -0.29901142005E+02  0.22240873241E+03 -0.20267739980E+03  0.31592748244E+03  0.91500400125E+02 0.  0.
          1    1    3    3  502    0  0.92648681926E+02 -0.18345255400E+02  0.96645588658E+01  0.94940667558E+02  0.00000000000E+00 0.  1.
         -1    1    3    3    0  502  0.11752954187E+04  0.68662137438E+02  0.24469172762E+03  0.12024590853E+04  0.00000000000E+00 0. -1.
         13    1    5    5    0    0 -0.82040764089E+03 -0.18540399978E+03 -0.14455758408E+03  0.85342851808E+03  0.00000000000E+00 0. -1.
        -13    1    5    5    0    0 -0.41763531771E+03 -0.87321614666E+02 -0.80400264818E+01  0.42674227001E+03  0.00000000000E+00 0.  1.
          3    1    6    6  503    0 -0.64567384084E+00  0.20755987485E+03 -0.15986163652E+03  0.26198713971E+03  0.00000000000E+00 0. -1.
         -3    1    6    6    0  503 -0.29255468164E+02  0.14848857563E+02 -0.42815763278E+02  0.53940342728E+02  0.00000000000E+00 0.  1.
<mgrwt>
<rscale>  0 0.28917376E+04</rscale>
<asrwt>0</asrwt>
<pdfrwt beam="1">  1        2 0.23033975E+00 0.28917376E+04</pdfrwt>
<pdfrwt beam="2">  1       -2 0.21481379E+00 0.28917376E+04</pdfrwt>
<totfact> 0.11734721E+00</totfact>
</mgrwt>
</event>
<event>
12    3  0.8686020E-008  0.1410704E+04  0.7818608E-02  0.8946107E-01
         -1   -1    0    0    0  501 -0.00000000000E+00  0.00000000000E+00  0.89000551840E+03  0.89000551840E+03  0.00000000000E+00 0.  1.
          1   -1    0    0  501    0  0.00000000000E+00 -0.00000000000E+00 -0.55900937213E+03  0.55900937213E+03  0.00000000000E+00 0. -1.
         23    2    1    2    0    0 -0.77376543376E+02  0.21480246158E+03  0.44986507456E+03  0.51281230998E+03  0.92036150488E+02 0.  0.
        254    2    1    2    0    0  0.77376543376E+02 -0.21480246158E+03 -0.11886892829E+03  0.93620258054E+03  0.90012122669E+03 0.  0.
         23    2    4    4    0    0  0.67368865508E+02  0.34400551575E+03 -0.39408363813E+02  0.36443792663E+03  0.91562133660E+02 0.  0.
         23    2    4    4    0    0  0.10007677868E+02 -0.55880797733E+03 -0.79460564479E+02  0.57176465391E+03  0.90743203697E+02 0.  0.
          4    1    3    3  502    0  0.18917252740E+02  0.36834260730E+02  0.10639068454E+03  0.11416480619E+03  0.00000000000E+00 0. -1.
         -4    1    3    3    0  502 -0.96293796116E+02  0.17796820085E+03  0.34347439002E+03  0.39864750379E+03  0.00000000000E+00 0.  1.
         13    1    5    5    0    0  0.79033867183E+02  0.33691026603E+03 -0.28999042819E+02  0.34726909451E+03  0.00000000000E+00 0.  1.
        -13    1    5    5    0    0 -0.11665001675E+02  0.70952497178E+01 -0.10409320994E+02  0.17168832115E+02  0.00000000000E+00 0. -1.
          1    1    6    6  503    0 -0.13053769994E+02 -0.37336667162E+03 -0.14328404692E+02  0.37386946328E+03  0.00000000000E+00 0. -1.
         -1    1    6    6    0  503  0.23061447862E+02 -0.18544130570E+03 -0.65132159787E+02  0.19789519064E+03  0.00000000000E+00 0.  1.
<mgrwt>
<rscale>  0 0.14107040E+04</rscale>
<asrwt>0</asrwt>
<pdfrwt beam="1">  1        1 0.86001442E-01 0.14107040E+04</pdfrwt>
<pdfrwt beam="2">  1       -1 0.13692393E+00 0.14107040E+04</pdfrwt>
<totfact> 0.16406208E+01</totfact>
</mgrwt>
</event>
<event>
12    3  0.8686020E-008  0.1651847E+04  0.7818608E-02  0.8789315E-01
         -1   -1    0    0    0  501 -0.00000000000E+00  0.00000000000E+00  0.64943425142E+03  0.64943425142E+03  0.00000000000E+00 0.  1.
          1   -1    0    0  501    0  0.00000000000E+00 -0.00000000000E+00 -0.10503751402E+04  0.10503751402E+04  0.00000000000E+00 0. -1.
         23    2    1    2    0    0  0.14956857730E+03  0.54688656982E+03 -0.24807192981E+03  0.62494565074E+03  0.86958061443E+02 0.  0.
        254    2    1    2    0    0 -0.14956857730E+03 -0.54688656982E+03 -0.15286895899E+03  0.10748637409E+04  0.90028187993E+03 0.  0.
         23    2    4    4    0    0 -0.29706973481E+03  0.10260283244E+03  0.12077984799E+03  0.34893281906E+03  0.91589147673E+02 0.  0.
         23    2    4    4    0    0  0.14750115751E+03 -0.64948940226E+03 -0.27364880698E+03  0.72593092185E+03  0.92189796706E+02 0.  0.
          2    1    3    3  502    0  0.87369637090E+01  0.34327476356E+02 -0.41753906210E+02  0.54754897969E+02  0.00000000000E+00 0. -1.
         -2    1    3    3    0  502  0.14083161359E+03  0.51255909347E+03 -0.20631802360E+03  0.57019075277E+03  0.00000000000E+00 0.  1.
         13    1    5    5    0    0 -0.12757407431E+03  0.87816837157E+02  0.78422193305E+02  0.17360006258E+03  0.00000000000E+00 0. -1.
        -13    1    5    5    0    0 -0.16949566050E+03  0.14785995283E+02  0.42357654683E+02  0.17533275648E+03  0.00000000000E+00 0.  1.
          3    1    6    6  503    0  0.59096086954E+02 -0.45339382895E+03 -0.19008756815E+03  0.49516824937E+03  0.00000000000E+00 0. -1.
         -3    1    6    6    0  503  0.88405070557E+02 -0.19609557331E+03 -0.83561238824E+02  0.23076267247E+03  0.00000000000E+00 0.  1.
<mgrwt>
<rscale>  0 0.16518470E+04</rscale>
<asrwt>0</asrwt>
<pdfrwt beam="1">  1        1 0.16159617E+00 0.16518470E+04</pdfrwt>
<pdfrwt beam="2">  1       -1 0.99912963E-01 0.16518470E+04</pdfrwt>
<totfact> 0.12622056E+01</totfact>
</mgrwt>
</event>
<event>
12    3  0.8686020E-008  0.1485997E+04  0.7818608E-02  0.8893819E-01
         -2   -1    0    0    0  501 -0.00000000000E+00  0.00000000000E+00  0.65559211724E+03  0.65559211724E+03  0.00000000000E+00 0.  1.
          2   -1    0    0  501    0  0.00000000000E+00 -0.00000000000E+00 -0.84205820343E+03  0.84205820343E+03  0.00000000000E+00 0. -1.
         23    2    1    2    0    0  0.32654673144E+03  0.16922501080E+03  0.22501129146E+03  0.43980130399E+03  0.86748104398E+02 0.  0.
        254    2    1    2    0    0 -0.32654673144E+03 -0.16922501080E+03 -0.41147737764E+03  0.10578490167E+04  0.90247495128E+03 0.  0.
         23    2    4    4    0    0  0.12232945329E+03  0.24883983578E+03 -0.31433786802E+03  0.43004689612E+03  0.96157571636E+02 0.  0.
         23    2    4    4    0    0 -0.44887618473E+03 -0.41806484657E+03 -0.97139509627E+02  0.62780212056E+03  0.91822508598E+02 0.  0.
          2    1    3    3  502    0  0.19714867552E+02  0.40608756525E+02  0.24749354808E+02  0.51480847628E+02  0.00000000000E+00 0. -1.
         -2    1    3    3    0  502  0.30683186389E+03  0.12861625427E+03  0.20026193665E+03  0.38832045637E+03  0.00000000000E+00 0.  1.
         13    1    5    5    0    0  0.88853780879E+02  0.77783156679E+02 -0.14536033033E+03  0.18728277944E+03  0.00000000000E+00 0.  1.
        -13    1    5    5    0    0  0.33475672408E+02  0.17105667910E+03 -0.16897753769E+03  0.24276411669E+03  0.00000000000E+00 0. -1.
          1    1    6    6  503    0 -0.21624746173E+03 -0.24014913513E+03 -0.87405692898E+02  0.33477503933E+03  0.00000000000E+00 0. -1.
         -1    1    6    6    0  503 -0.23262872300E+03 -0.17791571145E+03 -0.97338167294E+01  0.29302708122E+03  0.00000000000E+00 0.  1.
<mgrwt>
<rscale>  0 0.14859969E+04</rscale>
<asrwt>0</asrwt>
<pdfrwt beam="1">  1        2 0.12954742E+00 0.14859969E+04</pdfrwt>
<pdfrwt beam="2">  1       -2 0.10086033E+00 0.14859969E+04</pdfrwt>
<totfact> 0.25170795E+01</totfact>
</mgrwt>
</event>
<event>
12    3  0.8686020E-008  0.2549600E+04  0.7818608E-02  0.8385525E-01
         -2   -1    0    0    0  501 -0.00000000000E+00  0.00000000000E+00  0.89888331254E+03  0.89888331254E+03  0.00000000000E+00 0.  1.
          2   -1    0    0  501    0  0.00000000000E+00 -0.00000000000E+00 -0.18079263208E+04  0.18079263208E+04  0.00000000000E+00 0. -1.
         23    2    1    2    0    0  0.10941327699E+04 -0.76883069537E+02 -0.60270617017E+03  0.12549118988E+04  0.92258450059E+02 0.  0.
        254    2    1    2    0    0 -0.10941327699E+04  0.76883069537E+02 -0.30633683805E+03  0.14518977345E+04  0.90062603156E+03 0.  0.
         23    2    4    4    0    0 -0.32439231105E+03  0.43806409095E+03 -0.29552040151E+02  0.55351840839E+03  0.91535709455E+02 0.  0.
         23    2    4    4    0    0 -0.76974045882E+03 -0.36118102141E+03 -0.27678479790E+03  0.89837932615E+03  0.86738025838E+02 0.  0.
          3    1    3    3  502    0  0.55507826863E+03  0.35354071630E+01 -0.32472414493E+03  0.64309420283E+03  0.00000000000E+00 0. -1.
         -3    1    3    3    0  502  0.53905450124E+03 -0.80418476700E+02 -0.27798202523E+03  0.61181769593E+03  0.00000000000E+00 0.  1.
         13    1    5    5    0    0 -0.32572998598E+03  0.42901363901E+03 -0.39374290680E+02  0.54009541842E+03  0.00000000000E+00 0. -1.
        -13    1    5    5    0    0  0.13376749309E+01  0.90504519330E+01  0.98222505298E+01  0.13422989975E+02  0.00000000000E+00 0.  1.
          4    1    6    6  503    0 -0.29882205231E+03 -0.18637872146E+03 -0.12323151702E+03  0.37311881961E+03  0.00000000000E+00 0. -1.
         -4    1    6    6    0  503 -0.47091840651E+03 -0.17480229995E+03 -0.15355328089E+03  0.52526050654E+03  0.00000000000E+00 0.  1.
<mgrwt>
<rscale>  0 0.25495998E+04</rscale>
<asrwt>0</asrwt>
<pdfrwt beam="1">  1        2 0.27814251E+00 0.25495998E+04</pdfrwt>
<pdfrwt beam="2">  1       -2 0.13828974E+00 0.25495998E+04</pdfrwt>
<totfact> 0.28137410E+00</totfact>
</mgrwt>
</event>
<event>
12    3  0.8686020E-008  0.1509747E+04  0.7818608E-02  0.8877997E-01
          1   -1    0    0  501    0  0.00000000000E+00  0.00000000000E+00  0.12140254190E+04  0.12140254190E+04  0.00000000000E+00 0. -1.
         -1   -1    0    0    0  501 -0.00000000000E+00 -0.00000000000E+00 -0.46937559044E+03  0.46937559044E+03  0.00000000000E+00 0.  1.
         23    2    1    2    0    0 -0.32696298332E+03  0.14628809150E+03 -0.11601739157E+03  0.38709727532E+03  0.89884744142E+02 0.  0.
        254    2    1    2    0    0  0.32696298332E+03 -0.14628809150E+03  0.86066722012E+03  0.12963037341E+04  0.90074985933E+03 0.  0.
         23    2    4    4    0    0  0.35296437304E+03 -0.11900052793E+03  0.10303644549E+04  0.10994632458E+04  0.91779871209E+02 0.  0.
         23    2    4    4    0    0 -0.26001389715E+02 -0.27287563568E+02 -0.16969723476E+03  0.19684048828E+03  0.92349027856E+02 0.  0.
          1    1    3    3  502    0 -0.24287857288E+03  0.62925364395E+02 -0.78467583047E+02  0.26288165444E+03  0.00000000000E+00 0. -1.
         -1    1    3    3    0  502 -0.84084410441E+02  0.83362727107E+02 -0.37549808527E+02  0.12421562088E+03  0.00000000000E+00 0.  1.
         13    1    5    5    0    0  0.10531402900E+03  0.62951250327E+01  0.25745651020E+03  0.27823466345E+03  0.00000000000E+00 0. -1.
        -13    1    5    5    0    0  0.24765034404E+03 -0.12529565297E+03  0.77290794468E+03  0.82122858238E+03  0.00000000000E+00 0.  1.
          4    1    6    6  503    0  0.30681682985E+02 -0.15130145681E+02 -0.29656267892E+02  0.45274509433E+02  0.00000000000E+00 0. -1.
         -4    1    6    6    0  503 -0.56683072701E+02 -0.12157417887E+02 -0.14004096687E+03  0.15156597884E+03  0.00000000000E+00 0.  1.
<mgrwt>
<rscale>  0 0.15097469E+04</rscale>
<asrwt>0</asrwt>
<pdfrwt beam="1">  1        1 0.18677314E+00 0.15097469E+04</pdfrwt>
<pdfrwt beam="2">  1       -1 0.72211630E-01 0.15097469E+04</pdfrwt>
<totfact> 0.19518977E+01</totfact>
</mgrwt>
</event>
<event>
12    3  0.8686020E-008  0.1445029E+04  0.7818608E-02  0.8921854E-01
          1   -1    0    0  501    0  0.00000000000E+00  0.00000000000E+00  0.10386888598E+04  0.10386888598E+04  0.00000000000E+00 0. -1.
         -1   -1    0    0    0  501 -0.00000000000E+00 -0.00000000000E+00 -0.50258280474E+03  0.50258280474E+03  0.00000000000E+00 0.  1.
         23    2    1    2    0    0  0.15661691434E+03  0.39172485822E+03  0.57456959973E+02  0.43579088987E+03  0.92925642535E+02 0.  0.
        254    2    1    2    0    0 -0.15661691434E+03 -0.39172485822E+03  0.47864909511E+03  0.11054807747E+04  0.90277658619E+03 0.  0.
         23    2    4    4    0    0  0.68305532880E+02 -0.23401520808E+03 -0.22567534771E+03  0.34430526414E+03  0.90487506942E+02 0.  0.
         23    2    4    4    0    0 -0.22492244722E+03 -0.15770965013E+03  0.70432444282E+03  0.76117551056E+03  0.88616003708E+02 0.  0.
          1    1    3    3  502    0  0.11076768459E+03  0.30486055277E+03  0.81968095784E+02  0.33455672958E+03  0.00000000000E+00 0. -1.
         -1    1    3    3    0  502  0.45849229752E+02  0.86864305452E+02 -0.24511135811E+02  0.10123416029E+03  0.00000000000E+00 0.  1.
         13    1    5    5    0    0  0.84295561656E+02 -0.17930754333E+03 -0.14498531732E+03  0.24551512998E+03  0.00000000000E+00 0. -1.
        -13    1    5    5    0    0 -0.15990028776E+02 -0.54707664757E+02 -0.80690030389E+02  0.98790134161E+02  0.00000000000E+00 0.  1.
          2    1    6    6  503    0 -0.21629169823E+03 -0.11492100496E+03  0.59179662662E+03  0.64047808970E+03  0.00000000000E+00 0. -1.
         -2    1    6    6    0  503 -0.86307489907E+01 -0.42788645174E+02  0.11252781620E+03  0.12069742087E+03  0.00000000000E+00 0.  1.
<mgrwt>
<rscale>  0 0.14450289E+04</rscale>
<asrwt>0</asrwt>
<pdfrwt beam="1">  1        1 0.15979829E+00 0.14450289E+04</pdfrwt>
<pdfrwt beam="2">  1       -1 0.77320431E-01 0.14450289E+04</pdfrwt>
<totfact> 0.23008867E+01</totfact>
</mgrwt>
</event>
<event>
12    3  0.8686020E-008  0.1240466E+04  0.7818608E-02  0.9078156E-01
         -1   -1    0    0    0  501 -0.00000000000E+00  0.00000000000E+00  0.85119114575E+02  0.85119114575E+02  0.00000000000E+00 0.  1.
          1   -1    0    0  501    0  0.00000000000E+00 -0.00000000000E+00 -0.45194216796E+04  0.45194216796E+04  0.00000000000E+00 0. -1.
         23    2    1    2    0    0  0.33650933126E+02 -0.26273985247E+03 -0.14311397352E+04  0.14582847184E+04  0.90932737748E+02 0.  0.
        254    2    1    2    0    0 -0.33650933126E+02  0.26273985247E+03 -0.30031628299E+04  0.31462560758E+04  0.89987537844E+03 0.  0.
         23    2    4    4    0    0  0.38774340877E+03  0.28289406687E+03 -0.18928043918E+04  0.19548932380E+04  0.92331479405E+02 0.  0.
         23    2    4    4    0    0 -0.42139434190E+03 -0.20154214400E+02 -0.11103584381E+04  0.11913628379E+04  0.92033508940E+02 0.  0.
          3    1    3    3  502    0 -0.21859380988E+02 -0.14919076176E+03 -0.88123487337E+03  0.89404173168E+03  0.00000000000E+00 0. -1.
         -3    1    3    3    0  502  0.55510314114E+02 -0.11354909070E+03 -0.54990486184E+03  0.56424298670E+03  0.00000000000E+00 0.  1.
         13    1    5    5    0    0  0.34159198912E+01  0.24979028155E+02 -0.12377337897E+03  0.12631496229E+03  0.00000000000E+00 0.  1.
        -13    1    5    5    0    0  0.38432748888E+03  0.25791503871E+03 -0.17690310128E+04  0.18285782757E+04  0.00000000000E+00 0. -1.
          4    1    6    6  503    0 -0.30732869782E+03 -0.54974121852E+02 -0.78225625640E+03  0.84225764066E+03  0.00000000000E+00 0. -1.
         -4    1    6    6    0  503 -0.11406564407E+03  0.34819907452E+02 -0.32810218167E+03  0.34910519723E+03  0.00000000000E+00 0.  1.
<mgrwt>
<rscale>  0 0.12404663E+04</rscale>
<asrwt>0</asrwt>
<pdfrwt beam="1">  1        1 0.69529556E+00 0.12404663E+04</pdfrwt>
<pdfrwt beam="2">  1       -1 0.13095250E-01 0.12404663E+04</pdfrwt>
<totfact> 0.13050166E+00</totfact>
</mgrwt>
</event>
<event>
12    3  0.8686020E-008  0.4518355E+04  0.7818608E-02  0.7907431E-01
          2   -1    0    0  501    0  0.00000000000E+00  0.00000000000E+00  0.20920133509E+04  0.20920133509E+04  0.00000000000E+00 0.  1.
         -2   -1    0    0    0  501 -0.00000000000E+00 -0.00000000000E+00 -0.24396995598E+04  0.24396995598E+04  0.00000000000E+00 0. -1.
         23    2    1    2    0    0  0.60372108173E+03  0.20695675871E+04 -0.40064683099E+03  0.21948249745E+04  0.95653769678E+02 0.  0.
        254    2    1    2    0    0 -0.60372108173E+03 -0.20695675871E+04  0.52960622081E+02  0.23368879362E+04  0.90036173675E+03 0.  0.
         23    2    4    4    0    0 -0.21384757353E+03 -0.43010073276E+02 -0.11793341197E+03  0.26398217639E+03  0.90540867482E+02 0.  0.
         23    2    4    4    0    0 -0.38987350820E+03 -0.20265575138E+04  0.17089403406E+03  0.20729057598E+04  0.93791306370E+02 0.  0.
          3    1    3    3  502    0  0.48610064699E+03  0.17096753755E+04 -0.29513983382E+03  0.18017744726E+04  0.00000000000E+00 0. -1.
         -3    1    3    3    0  502  0.11762043474E+03  0.35989221160E+03 -0.10550699717E+03  0.39305050196E+03  0.00000000000E+00 0.  1.
         13    1    5    5    0    0 -0.19393277410E+03 -0.23024842234E+02 -0.12858473643E+03  0.23382493167E+03  0.00000000000E+00 0. -1.
        -13    1    5    5    0    0 -0.19914799432E+02 -0.19985231043E+02  0.10651324457E+02  0.30157244717E+02  0.00000000000E+00 0.  1.
          3    1    6    6  503    0 -0.29596297935E+03 -0.16402680834E+04  0.16960901750E+03  0.16753628530E+04  0.00000000000E+00 0. -1.
         -3    1    6    6    0  503 -0.93910528847E+02 -0.38628943045E+03  0.12850165518E+01  0.39754290683E+03  0.00000000000E+00 0.  1.
<mgrwt>
<rscale>  0 0.45183555E+04</rscale>
<asrwt>0</asrwt>
<pdfrwt beam="1">  1        2 0.32184821E+00 0.45183555E+04</pdfrwt>
<pdfrwt beam="2">  1       -2 0.37533839E+00 0.45183555E+04</pdfrwt>
<totfact> 0.48191180E-02</totfact>
</mgrwt>
</event>
<event>
12    3  0.8686020E-008  0.1671043E+04  0.7818608E-02  0.8778054E-01
         -2   -1    0    0    0  501 -0.00000000000E+00  0.00000000000E+00  0.33552884610E+03  0.33552884610E+03  0.00000000000E+00 0.  1.
          2   -1    0    0  501    0  0.00000000000E+00 -0.00000000000E+00 -0.20805849440E+04  0.20805849440E+04  0.00000000000E+00 0. -1.
         23    2    1    2    0    0 -0.21569799832E+03  0.16083006111E+03  0.13637788499E+03  0.31487239114E+03  0.90298173555E+02 0.  0.
        254    2    1    2    0    0  0.21569799832E+03 -0.16083006111E+03 -0.18814339829E+04  0.21012413990E+04  0.89611921625E+03 0.  0.
         23    2    4    4    0    0  0.36502575093E+03 -0.30779284478E+03 -0.48619410657E+03  0.68745930961E+03  0.90748878543E+02 0.  0.
         23    2    4    4    0    0 -0.14932775261E+03  0.14696278367E+03 -0.13952398763E+04  0.14137820894E+04  0.90491139103E+02 0.  0.
          3    1    3    3  502    0 -0.13794875396E+03  0.48493681481E+02  0.83446035058E+02  0.16835895173E+03  0.00000000000E+00 0. -1.
         -3    1    3    3    0  502 -0.77749244368E+02  0.11233637963E+03  0.52931849931E+02  0.14651343940E+03  0.00000000000E+00 0.  1.
         13    1    5    5    0    0  0.13572009209E+02 -0.18674915763E+02 -0.23263857139E+01  0.23202671898E+02  0.00000000000E+00 0. -1.
        -13    1    5    5    0    0  0.35145374172E+03 -0.28911792902E+03 -0.48386772086E+03  0.66425663771E+03  0.00000000000E+00 0.  1.
          3    1    6    6  503    0  0.12539469391E+02  0.78917623337E+01 -0.89468164369E+02  0.90686661869E+02  0.00000000000E+00 0. -1.
         -3    1    6    6    0  503 -0.16186722200E+03  0.13907102133E+03 -0.13057717119E+04  0.13230954275E+04  0.00000000000E+00 0.  1.
<mgrwt>
<rscale>  0 0.16710431E+04</rscale>
<asrwt>0</asrwt>
<pdfrwt beam="1">  1        2 0.32009000E+00 0.16710431E+04</pdfrwt>
<pdfrwt beam="2">  1       -2 0.51619821E-01 0.16710431E+04</pdfrwt>
<totfact> 0.20373310E+01</totfact>
</mgrwt>
</event>
<event>
12    3  0.8686020E-008  0.1456156E+04  0.7818608E-02  0.8914144E-01
          2   -1    0    0  501    0  0.00000000000E+00  0.00000000000E+00  0.92587975050E+03  0.92587975050E+03  0.00000000000E+00 0. -1.
         -2   -1    0    0    0  501 -0.00000000000E+00 -0.00000000000E+00 -0.57253379043E+03  0.57253379043E+03  0.00000000000E+00 0.  1.
         23    2    1    2    0    0 -0.28582990717E+03  0.16994048057E+03  0.41242181902E+03  0.53749513756E+03  0.90723554467E+02 0.  0.
        254    2    1    2    0    0  0.28582990717E+03 -0.16994048057E+03 -0.59075858947E+02  0.96091840336E+03  0.89960864716E+03 0.  0.
         23    2    4    4    0    0  0.41503123438E+03 -0.43764250272E+03  0.88887786835E+02  0.61653066443E+03  0.91799432637E+02 0.  0.
         23    2    4    4    0    0 -0.12920132721E+03  0.26770202215E+03 -0.14796364578E+03  0.34438773893E+03  0.91391020551E+02 0.  0.
          4    1    3    3  502    0 -0.13365348932E+03  0.62405873905E+02  0.25016967499E+03  0.29041799977E+03  0.00000000000E+00 0. -1.
         -4    1    3    3    0  502 -0.15217641785E+03  0.10753460666E+03  0.16225214403E+03  0.24707713780E+03  0.00000000000E+00 0.  1.
         13    1    5    5    0    0  0.30933951231E+03 -0.27235645393E+03  0.81942990464E+02  0.42021854500E+03  0.00000000000E+00 0. -1.
        -13    1    5    5    0    0  0.10569172207E+03 -0.16528604879E+03  0.69447963707E+01  0.19631211943E+03  0.00000000000E+00 0.  1.
          2    1    6    6  503    0 -0.46701209536E+02  0.14693077793E+03 -0.12025265897E+03  0.19552585114E+03  0.00000000000E+00 0. -1.
         -2    1    6    6    0  503 -0.82500117673E+02  0.12077124422E+03 -0.27710986814E+02  0.14886188779E+03  0.00000000000E+00 0.  1.
<mgrwt>
<rscale>  0 0.14561558E+04</rscale>
<asrwt>0</asrwt>
<pdfrwt beam="1">  1        2 0.14244304E+00 0.14561558E+04</pdfrwt>
<pdfrwt beam="2">  1       -2 0.88082122E-01 0.14561558E+04</pdfrwt>
<totfact> 0.30333498E+01</totfact>
</mgrwt>
</event>
<event>
12    3  0.8686020E-008  0.1725484E+04  0.7818608E-02  0.8746962E-01
          1   -1    0    0  501    0  0.00000000000E+00  0.00000000000E+00  0.76138146629E+03  0.76138146629E+03  0.00000000000E+00 0. -1.
         -1   -1    0    0    0  501 -0.00000000000E+00 -0.00000000000E+00 -0.97759602830E+03  0.97759602830E+03  0.00000000000E+00 0.  1.
         23    2    1    2    0    0  0.90788726625E+02 -0.61677551727E+03 -0.59146290115E+02  0.63288062503E+03  0.91569483541E+02 0.  0.
        254    2    1    2    0    0 -0.90788726625E+02  0.61677551727E+03 -0.15706827190E+03  0.11060968696E+04  0.90006955910E+03 0.  0.
         23    2    4    4    0    0 -0.45453492238E+03  0.50809441969E+03 -0.71727422165E+01  0.68796638378E+03  0.92110596502E+02 0.  0.
         23    2    4    4    0    0  0.36374619576E+03  0.10868109758E+03 -0.14989552968E+03  0.41813048578E+03  0.90783023867E+02 0.  0.
          3    1    3    3  502    0 -0.37968331502E+01 -0.18744763731E+03  0.10474666846E+02  0.18777846341E+03  0.00000000000E+00 0. -1.
         -3    1    3    3    0  502  0.94585559776E+02 -0.42932787995E+03 -0.69620956961E+02  0.44510216161E+03  0.00000000000E+00 0.  1.
         13    1    5    5    0    0 -0.24002902847E+03  0.21807936714E+03 -0.34916738588E+02  0.32617744176E+03  0.00000000000E+00 0.  1.
        -13    1    5    5    0    0 -0.21450589391E+03  0.29001505255E+03  0.27743996371E+02  0.36178894201E+03  0.00000000000E+00 0. -1.
          1    1    6    6  503    0  0.31782650013E+03  0.65709704811E+02 -0.14369274994E+03  0.35493528407E+03  0.00000000000E+00 0. -1.
         -1    1    6    6    0  503  0.45919695625E+02  0.42971392766E+02 -0.62027797367E+01  0.63195201709E+02  0.00000000000E+00 0.  1.
<mgrwt>
<rscale>  0 0.17254837E+04</rscale>
<asrwt>0</asrwt>
<pdfrwt beam="1">  1        1 0.11713561E+00 0.17254837E+04</pdfrwt>
<pdfrwt beam="2">  1       -1 0.15039939E+00 0.17254837E+04</pdfrwt>
<totfact> 0.78690221E+00</totfact>
</mgrwt>
</event>
<event>
12    3  0.8686020E-008  0.2301464E+04  0.7818608E-02  0.8477344E-01
         -2   -1    0    0    0  501 -0.00000000000E+00  0.00000000000E+00  0.99671970082E+03  0.99671970082E+03  0.00000000000E+00 0.  1.
          2   -1    0    0  501    0  0.00000000000E+00 -0.00000000000E+00 -0.13285415988E+04  0.13285415988E+04  0.00000000000E+00 0. -1.
         23    2    1    2    0    0 -0.64469945444E+03  0.64310981225E+03 -0.48397627903E+03  0.10354212286E+04  0.92932582443E+02 0.  0.
        254    2    1    2    0    0  0.64469945444E+03 -0.64310981225E+03  0.15215438110E+03  0.12898400709E+04  0.90072683746E+03 0.  0.
         23    2    4    4    0    0  0.23106303647E+03 -0.55958080121E+03 -0.28514427771E+03  0.67532835529E+03  0.90776254845E+02 0.  0.
         23    2    4    4    0    0  0.41363641797E+03 -0.83529011046E+02  0.43729865880E+03  0.61451171565E+03  0.91226913318E+02 0.  0.
          4    1    3    3  502    0 -0.55193563329E+03  0.50581664357E+03 -0.41459313570E+03  0.85578670730E+03  0.00000000000E+00 0. -1.
         -4    1    3    3    0  502 -0.92763821149E+02  0.13729316868E+03 -0.69383143332E+02  0.17963452134E+03  0.00000000000E+00 0.  1.
         13    1    5    5    0    0  0.62861955267E+02 -0.68977686097E+02 -0.50016344501E+02  0.10588286602E+03  0.00000000000E+00 0.  1.
        -13    1    5    5    0    0  0.16820108120E+03 -0.49060311511E+03 -0.23512793321E+03  0.56944548927E+03  0.00000000000E+00 0. -1.
          3    1    6    6  503    0  0.40310316411E+03 -0.66958481672E+02  0.39719416457E+03  0.56985858207E+03  0.00000000000E+00 0. -1.
         -3    1    6    6    0  503  0.10533253858E+02 -0.16570529375E+02  0.40104494231E+02  0.44653133576E+02  0.00000000000E+00 0.  1.
<mgrwt>
<rscale>  0 0.23014635E+04</rscale>
<asrwt>0</asrwt>
<pdfrwt beam="1">  1        2 0.20439101E+00 0.23014635E+04</pdfrwt>
<pdfrwt beam="2">  1       -2 0.15334149E+00 0.23014635E+04</pdfrwt>
<totfact> 0.40757778E+00</totfact>
</mgrwt>
</event>
<event>
12    3  0.8686020E-008  0.1982676E+04  0.7818608E-02  0.8614763E-01
         -1   -1    0    0    0  501 -0.00000000000E+00  0.00000000000E+00  0.56818447532E+03  0.56818447532E+03  0.00000000000E+00 0.  1.
          1   -1    0    0  501    0  0.00000000000E+00 -0.00000000000E+00 -0.17296339283E+04  0.17296339283E+04  0.00000000000E+00 0. -1.
         23    2    1    2    0    0  0.10697188901E+03  0.60576720551E+03  0.10087883675E+03  0.62986034727E+03  0.90280812227E+02 0.  0.
        254    2    1    2    0    0 -0.10697188901E+03 -0.60576720551E+03 -0.12623282897E+04  0.16679580563E+04  0.90011914455E+03 0.  0.
         23    2    4    4    0    0 -0.22947580892E+03 -0.32985388340E+03 -0.12872859514E+04  0.13517281348E+04  0.92742107156E+02 0.  0.
         23    2    4    4    0    0  0.12250391991E+03 -0.27591332211E+03  0.24957661672E+02  0.31622992156E+03  0.90791556337E+02 0.  0.
          3    1    3    3  502    0  0.10048345014E+03  0.31050868695E+03  0.49524468869E+02  0.33009883587E+03  0.00000000000E+00 0. -1.
         -3    1    3    3    0  502  0.64884388644E+01  0.29525851856E+03  0.51354367881E+02  0.29976151141E+03  0.00000000000E+00 0.  1.
         13    1    5    5    0    0 -0.72409400621E+02 -0.84265907674E+02 -0.23724290831E+03  0.26196958227E+03  0.00000000000E+00 0. -1.
        -13    1    5    5    0    0 -0.15706640830E+03 -0.24558797572E+03 -0.10500430431E+04  0.10897585525E+04  0.00000000000E+00 0.  1.
          1    1    6    6  503    0  0.82278710194E+02 -0.12519314406E+03  0.50633063933E+02  0.15813543763E+03  0.00000000000E+00 0. -1.
         -1    1    6    6    0  503  0.40225209714E+02 -0.15072017805E+03 -0.25675402260E+02  0.15809448393E+03  0.00000000000E+00 0.  1.
<mgrwt>
<rscale>  0 0.19826761E+04</rscale>
<asrwt>0</asrwt>
<pdfrwt beam="1">  1        1 0.26609752E+00 0.19826761E+04</pdfrwt>
<pdfrwt beam="2">  1       -1 0.87412997E-01 0.19826761E+04</pdfrwt>
<totfact> 0.54429648E+00</totfact>
</mgrwt>
</event>
<event>
12    3  0.8686020E-008  0.2178236E+04  0.7818608E-02  0.8527542E-01
          2   -1    0    0  501    0  0.00000000000E+00  0.00000000000E+00  0.23772053834E+04  0.23772053834E+04  0.00000000000E+00 0.  1.
         -2   -1    0    0    0  501 -0.00000000000E+00 -0.00000000000E+00 -0.49897988642E+03  0.49897988642E+03  0.00000000000E+00 0. -1.
         23    2    1    2    0    0 -0.18119141798E+03 -0.83825876552E+02  0.19412718740E+04  0.19537063963E+04  0.92601763761E+02 0.  0.
        254    2    1    2    0    0  0.18119141798E+03  0.83825876552E+02 -0.63046377112E+02  0.92247887343E+03  0.89840710078E+03 0.  0.
         23    2    4    4    0    0  0.51431803529E+03 -0.88884676223E+02 -0.79565257943E+02  0.53603565943E+03  0.92628671688E+02 0.  0.
         23    2    4    4    0    0 -0.33312661730E+03  0.17271055278E+03  0.16518880831E+02  0.38644321400E+03  0.90902178339E+02 0.  0.
          3    1    3    3  502    0 -0.18202826482E+02 -0.30202406115E+02  0.14368002211E+03  0.14794416846E+03  0.00000000000E+00 0. -1.
         -3    1    3    3    0  502 -0.16298859150E+03 -0.53623470437E+02  0.17975918519E+04  0.18057622279E+04  0.00000000000E+00 0.  1.
         13    1    5    5    0    0  0.27621801024E+02  0.13249281356E+02  0.65759511487E+01  0.31332897755E+02  0.00000000000E+00 0.  1.
        -13    1    5    5    0    0  0.48669623426E+03 -0.10213395758E+03 -0.86141209092E+02  0.50470276167E+03  0.00000000000E+00 0. -1.
          1    1    6    6  503    0 -0.31937964742E+03  0.13949915806E+03  0.25329077614E+02  0.34943516775E+03  0.00000000000E+00 0. -1.
         -1    1    6    6    0  503 -0.13746969881E+02  0.33211394718E+02 -0.88101967836E+01  0.37008046252E+02  0.00000000000E+00 0.  1.
<mgrwt>
<rscale>  0 0.21782357E+04</rscale>
<asrwt>0</asrwt>
<pdfrwt beam="1">  1        2 0.36572390E+00 0.21782357E+04</pdfrwt>
<pdfrwt beam="2">  1       -2 0.76766138E-01 0.21782357E+04</pdfrwt>
<totfact> 0.56878486E+00</totfact>
</mgrwt>
</event>
<event>
12    3  0.8686020E-008  0.3896277E+04  0.7818608E-02  0.8025804E-01
         -2   -1    0    0    0  501 -0.00000000000E+00  0.00000000000E+00  0.30778985781E+04  0.30778985781E+04  0.00000000000E+00 0.  1.
          2   -1    0    0  501    0  0.00000000000E+00 -0.00000000000E+00 -0.12330631192E+04  0.12330631192E+04  0.00000000000E+00 0. -1.
         23    2    1    2    0    0 -0.90930785008E+03  0.15915108315E+04  0.65929897525E+03  0.19501132605E+04  0.92298954656E+02 0.  0.
        254    2    1    2    0    0  0.90930785008E+03 -0.15915108315E+04  0.11855364837E+04  0.23608484368E+04  0.89908903587E+03 0.  0.
         23    2    4    4    0    0  0.16204940231E+03 -0.38647935624E+03  0.76812609540E+03  0.87994309259E+03  0.93036800099E+02 0.  0.
         23    2    4    4    0    0  0.74725844777E+03 -0.12050314752E+04  0.41741038828E+03  0.14809053442E+04  0.91395635253E+02 0.  0.
          1    1    3    3  502    0 -0.48619571373E+03  0.81687696373E+03  0.38743407431E+03  0.10265375823E+04  0.00000000000E+00 0. -1.
         -1    1    3    3    0  502 -0.42311213636E+03  0.77463386774E+03  0.27186490094E+03  0.92357567819E+03  0.00000000000E+00 0.  1.
         13    1    5    5    0    0  0.12269794753E+03 -0.19857354982E+03  0.36208963984E+03  0.43080755367E+03  0.00000000000E+00 0. -1.
        -13    1    5    5    0    0  0.39351454777E+02 -0.18790580642E+03  0.40603645556E+03  0.44913553892E+03  0.00000000000E+00 0.  1.
          1    1    6    6  503    0  0.18978325268E+03 -0.37295316608E+03  0.14622853938E+03  0.44327703845E+03  0.00000000000E+00 0. -1.
         -1    1    6    6    0  503  0.55747519510E+03 -0.83207830915E+03  0.27118184890E+03  0.10376283057E+04  0.00000000000E+00 0.  1.
<mgrwt>
<rscale>  0 0.38962768E+04</rscale>
<asrwt>0</asrwt>
<pdfrwt beam="1">  1        2 0.18970202E+00 0.38962768E+04</pdfrwt>
<pdfrwt beam="2">  1       -2 0.47352286E+00 0.38962768E+04</pdfrwt>
<totfact> 0.35025327E-02</totfact>
</mgrwt>
</event>
<event>
12    3  0.8686020E-008  0.4065261E+04  0.7818608E-02  0.7991509E-01
         -2   -1    0    0    0  501 -0.00000000000E+00  0.00000000000E+00  0.33615113878E+04  0.33615113878E+04  0.00000000000E+00 0.  1.
          2   -1    0    0  501    0  0.00000000000E+00 -0.00000000000E+00 -0.12290857831E+04  0.12290857831E+04  0.00000000000E+00 0. -1.
         23    2    1    2    0    0 -0.10935793284E+04 -0.15831890876E+04  0.11925003666E+04  0.22654824862E+04  0.89164657504E+02 0.  0.
        254    2    1    2    0    0  0.10935793284E+04  0.15831890876E+04  0.93992523801E+03  0.23251146847E+04  0.90570161173E+03 0.  0.
         23    2    4    4    0    0  0.48900992266E+03  0.42474035412E+03 -0.86530719153E+02  0.66040278734E+03  0.95442146247E+02 0.  0.
         23    2    4    4    0    0  0.60456940575E+03  0.11584487334E+04  0.10264559572E+04  0.16647118974E+04  0.10072852068E+03 0.  0.
          4    1    3    3  502    0 -0.68622300741E+03 -0.98916805698E+03  0.69511559288E+03  0.13901586774E+04  0.00000000000E+00 0. -1.
         -4    1    3    3    0  502 -0.40735632101E+03 -0.59402103059E+03  0.49738477377E+03  0.87532380878E+03  0.00000000000E+00 0.  1.
         13    1    5    5    0    0  0.33039696941E+03  0.34187055618E+03 -0.53665577359E+02  0.47845337158E+03  0.00000000000E+00 0. -1.
        -13    1    5    5    0    0  0.15861295325E+03  0.82869797942E+02 -0.32865141794E+02  0.18194941576E+03  0.00000000000E+00 0.  1.
          4    1    6    6  503    0  0.43162696099E+03  0.72846837504E+03  0.68285439144E+03  0.10877766898E+04  0.00000000000E+00 0. -1.
         -4    1    6    6    0  503  0.17294244476E+03  0.42998035840E+03  0.34360156572E+03  0.57693520761E+03  0.00000000000E+00 0.  1.
<mgrwt>
<rscale>  0 0.40652606E+04</rscale>
<asrwt>0</asrwt>
<pdfrwt beam="1">  1        2 0.18909012E+00 0.40652606E+04</pdfrwt>
<pdfrwt beam="2">  1       -2 0.51715559E+00 0.40652606E+04</pdfrwt>
<totfact> 0.18575984E-02</totfact>
</mgrwt>
</event>
<event>
12    3  0.8686020E-008  0.2161285E+04  0.7818608E-02  0.8534717E-01
          2   -1    0    0  501    0  0.00000000000E+00  0.00000000000E+00  0.14285228157E+04  0.14285228157E+04  0.00000000000E+00 0.  1.
         -2   -1    0    0    0  501 -0.00000000000E+00 -0.00000000000E+00 -0.81747972602E+03  0.81747972602E+03  0.00000000000E+00 0. -1.
         23    2    1    2    0    0 -0.51739468059E+03 -0.52703291121E+03 -0.26265502759E+03  0.78923893665E+03  0.91921110743E+02 0.  0.
        254    2    1    2    0    0  0.51739468059E+03  0.52703291121E+03  0.87369811731E+03  0.14567636051E+04  0.90185966535E+03 0.  0.
         23    2    4    4    0    0 -0.10090011662E+03  0.14865480182E+03  0.66797825661E+03  0.69781576320E+03  0.92047837704E+02 0.  0.
         23    2    4    4    0    0  0.61829479721E+03  0.37837810939E+03  0.20571986069E+03  0.75894784191E+03  0.90679191271E+02 0.  0.
          3    1    3    3  502    0 -0.37678185590E+03 -0.36776087736E+03 -0.22889453448E+03  0.57411265251E+03  0.00000000000E+00 0. -1.
         -3    1    3    3    0  502 -0.14061282469E+03 -0.15927203385E+03 -0.33760493113E+02  0.21512628414E+03  0.00000000000E+00 0.  1.
         13    1    5    5    0    0 -0.11706629100E+03  0.14153158988E+03  0.62232438865E+03  0.64886312280E+03  0.00000000000E+00 0. -1.
        -13    1    5    5    0    0  0.16166174375E+02  0.71232119396E+01  0.45653867968E+02  0.48952640406E+02  0.00000000000E+00 0.  1.
          3    1    6    6  503    0  0.54943935089E+03  0.30373954593E+03  0.16188353856E+03  0.64834218753E+03  0.00000000000E+00 0. -1.
         -3    1    6    6    0  503  0.68855446320E+02  0.74638563456E+02  0.43836322133E+02  0.11060565438E+03  0.00000000000E+00 0.  1.
<mgrwt>
<rscale>  0 0.21612852E+04</rscale>
<asrwt>0</asrwt>
<pdfrwt beam="1">  1        2 0.21977274E+00 0.21612852E+04</pdfrwt>
<pdfrwt beam="2">  1       -2 0.12576611E+00 0.21612852E+04</pdfrwt>
<totfact> 0.60353397E+00</totfact>
</mgrwt>
</event>
<event>
12    3  0.8686020E-008  0.4489635E+04  0.7818608E-02  0.7912454E-01
          2   -1    0    0  501    0  0.00000000000E+00  0.00000000000E+00  0.35554783860E+04  0.35554783860E+04  0.00000000000E+00 0. -1.
         -2   -1    0    0    0  501 -0.00000000000E+00 -0.00000000000E+00 -0.14173075148E+04  0.14173075148E+04  0.00000000000E+00 0.  1.
         23    2    1    2    0    0 -0.14988875199E+04 -0.33622885899E+03  0.26971620790E+04  0.31053358636E+04  0.93348286273E+02 0.  0.
        254    2    1    2    0    0  0.14988875199E+04  0.33622885899E+03 -0.55899120784E+03  0.18674500372E+04  0.90287586527E+03 0.  0.
         23    2    4    4    0    0  0.38336227962E+03 -0.28088175431E+03 -0.34072176855E+02  0.48571605643E+03  0.94329088296E+02 0.  0.
         23    2    4    4    0    0  0.11155252403E+04  0.61711061329E+03 -0.52491903098E+03  0.13817339808E+04  0.91797242841E+02 0.  0.
          4    1    3    3  502    0 -0.63579262870E+03 -0.15107768698E+03  0.12396907354E+04  0.14013885449E+04  0.00000000000E+00 0.  1.
         -4    1    3    3    0  502 -0.86309489118E+03 -0.18515117200E+03  0.14574713436E+04  0.17039473188E+04  0.00000000000E+00 0. -1.
         13    1    5    5    0    0  0.36713700304E+03 -0.28288803544E+03 -0.19622461722E+02  0.46389682107E+03  0.00000000000E+00 0. -1.
        -13    1    5    5    0    0  0.16225276579E+02  0.20062811342E+01 -0.14449715134E+02  0.21819235355E+02  0.00000000000E+00 0.  1.
          1    1    6    6  503    0  0.86629078131E+03  0.48366351466E+03 -0.44882868375E+03  0.10889615698E+04  0.00000000000E+00 0. -1.
         -1    1    6    6    0  503  0.24923445895E+03  0.13344709863E+03 -0.76090347237E+02  0.29277241094E+03  0.00000000000E+00 0.  1.
<mgrwt>
<rscale>  0 0.44896353E+04</rscale>
<asrwt>0</asrwt>
<pdfrwt beam="1">  1        2 0.54699667E+00 0.44896353E+04</pdfrwt>
<pdfrwt beam="2">  1       -2 0.21804731E+00 0.44896353E+04</pdfrwt>
<totfact> 0.57172644E-02</totfact>
</mgrwt>
</event>
<event>
12    3  0.8686020E-008  0.1154216E+04  0.7818608E-02  0.9153903E-01
         -2   -1    0    0    0  501 -0.00000000000E+00  0.00000000000E+00  0.29308721851E+03  0.29308721851E+03  0.00000000000E+00 0.  1.
          2   -1    0    0  501    0  0.00000000000E+00 -0.00000000000E+00 -0.11363627287E+04  0.11363627287E+04  0.00000000000E+00 0. -1.
         23    2    1    2    0    0  0.13180104364E+02  0.18366882966E+03 -0.41084699801E+02  0.21034980052E+03  0.93011461021E+02 0.  0.
        254    2    1    2    0    0 -0.13180104364E+02 -0.18366882966E+03 -0.80219081038E+03  0.12191001467E+04  0.89932592382E+03 0.  0.
         23    2    4    4    0    0  0.47058241913E+02  0.35383134664E+03 -0.31476620246E+03  0.48638407174E+03  0.10040220632E+03 0.  0.
         23    2    4    4    0    0 -0.60238346277E+02 -0.53750017630E+03 -0.48742460793E+03  0.73271607495E+03  0.82188808239E+02 0.  0.
          1    1    3    3  502    0 -0.15260736755E+02 -0.50310675639E+00 -0.16332267936E+02  0.22358134507E+02  0.00000000000E+00 0. -1.
         -1    1    3    3    0  502  0.28440841119E+02  0.18417193642E+03 -0.24752431866E+02  0.18799166601E+03  0.00000000000E+00 0.  1.
         13    1    5    5    0    0 -0.70430971987E+01  0.23992586538E+03 -0.24173957636E+03  0.34066412913E+03  0.00000000000E+00 0. -1.
        -13    1    5    5    0    0  0.54101339112E+02  0.11390548126E+03 -0.73026626096E+02  0.14571994260E+03  0.00000000000E+00 0.  1.
          4    1    6    6  503    0  0.40924610376E+01 -0.31553124085E+03 -0.29537270210E+03  0.43222881132E+03  0.00000000000E+00 0. -1.
         -4    1    6    6    0  503 -0.64330807314E+02 -0.22196893545E+03 -0.19205190582E+03  0.30048726363E+03  0.00000000000E+00 0.  1.
<mgrwt>
<rscale>  0 0.11542156E+04</rscale>
<asrwt>0</asrwt>
<pdfrwt beam="1">  1        2 0.17482504E+00 0.11542156E+04</pdfrwt>
<pdfrwt beam="2">  1       -2 0.45090341E-01 0.11542156E+04</pdfrwt>
<totfact> 0.95478181E+01</totfact>
</mgrwt>
</event>
<event>
12    3  0.8686020E-008  0.3050674E+04  0.7818608E-02  0.8229407E-01
         -2   -1    0    0    0  501 -0.00000000000E+00  0.00000000000E+00  0.13169358526E+04  0.13169358526E+04  0.00000000000E+00 0. -1.
          2   -1    0    0  501    0  0.00000000000E+00 -0.00000000000E+00 -0.17667174885E+04  0.17667174885E+04  0.00000000000E+00 0.  1.
         23    2    1    2    0    0  0.71002509572E+03 -0.99847859610E+03  0.45867663567E+03  0.13113772399E+04  0.90724119406E+02 0.  0.
        254    2    1    2    0    0 -0.71002509572E+03  0.99847859610E+03 -0.90845827159E+03  0.17722761012E+04  0.90253587425E+03 0.  0.
         23    2    4    4    0    0 -0.11915602076E+03  0.31701241247E+03 -0.78115080374E+03  0.85633480413E+03  0.91747978876E+02 0.  0.
         23    2    4    4    0    0 -0.59086907496E+03  0.68146618363E+03 -0.12730746785E+03  0.91594129709E+03  0.96014817497E+02 0.  0.
          2    1    3    3  502    0  0.50893137917E+03 -0.77177536941E+03  0.36845534734E+03  0.99519229926E+03  0.00000000000E+00 0. -1.
         -2    1    3    3    0  502  0.20109371655E+03 -0.22670322668E+03  0.90221288331E+02  0.31618494065E+03  0.00000000000E+00 0.  1.
         13    1    5    5    0    0 -0.10792334236E+03  0.17470959542E+03 -0.51258295031E+03  0.55218852896E+03  0.00000000000E+00 0.  1.
        -13    1    5    5    0    0 -0.11232678394E+02  0.14230281705E+03 -0.26856785343E+03  0.30414627517E+03  0.00000000000E+00 0. -1.
          3    1    6    6  503    0 -0.19800693856E+03  0.16248091330E+03 -0.35445987181E+02  0.25857921980E+03  0.00000000000E+00 0. -1.
         -3    1    6    6    0  503 -0.39286213640E+03  0.51898527033E+03 -0.91861480669E+02  0.65736207729E+03  0.00000000000E+00 0.  1.
<mgrwt>
<rscale>  0 0.30506744E+04</rscale>
<asrwt>0</asrwt>
<pdfrwt beam="1">  1        2 0.27180269E+00 0.30506744E+04</pdfrwt>
<pdfrwt beam="2">  1       -2 0.20260552E+00 0.30506744E+04</pdfrwt>
<totfact> 0.98160025E-01</totfact>
</mgrwt>
</event>
<event>
12    3  0.8686020E-008  0.2351045E+04  0.7818608E-02  0.8458062E-01
         -2   -1    0    0    0  501 -0.00000000000E+00  0.00000000000E+00  0.11099109329E+04  0.11099109329E+04  0.00000000000E+00 0.  1.
          2   -1    0    0  501    0  0.00000000000E+00 -0.00000000000E+00 -0.12450126397E+04  0.12450126397E+04  0.00000000000E+00 0. -1.
         23    2    1    2    0    0  0.12949991543E+03 -0.69638111380E+03 -0.76491771516E+03  0.10461892655E+04  0.87726760268E+02 0.  0.
        254    2    1    2    0    0 -0.12949991543E+03  0.69638111380E+03  0.62981600837E+03  0.13087343071E+04  0.90244135457E+03 0.  0.
         23    2    4    4    0    0 -0.49873226264E+03  0.29723218760E+03  0.24473710309E+03  0.63655095836E+03  0.90664380075E+02 0.  0.
         23    2    4    4    0    0  0.36923234722E+03  0.39914892620E+03  0.38507890528E+03  0.67218334875E+03  0.88838615024E+02 0.  0.
          2    1    3    3  502    0  0.90622446051E+02 -0.55030251003E+03 -0.54877512315E+03  0.78243173253E+03  0.00000000000E+00 0.  1.
         -2    1    3    3    0  502  0.38877469375E+02 -0.14607860377E+03 -0.21614259201E+03  0.26375753294E+03  0.00000000000E+00 0. -1.
         13    1    5    5    0    0 -0.34540982498E+03  0.23732370032E+03  0.14188620857E+03  0.44245020297E+03  0.00000000000E+00 0. -1.
        -13    1    5    5    0    0 -0.15332243766E+03  0.59908487276E+02  0.10285089452E+03  0.19410075538E+03  0.00000000000E+00 0.  1.
          3    1    6    6  503    0  0.31915571748E+03  0.31760947786E+03  0.34989781717E+03  0.57023208862E+03  0.00000000000E+00 0. -1.
         -3    1    6    6    0  503  0.50076629733E+02  0.81539448340E+02  0.35181088116E+02  0.10195126013E+03  0.00000000000E+00 0.  1.
<mgrwt>
<rscale>  0 0.23510450E+04</rscale>
<asrwt>0</asrwt>
<pdfrwt beam="1">  1        2 0.19154041E+00 0.23510450E+04</pdfrwt>
<pdfrwt beam="2">  1       -2 0.17075553E+00 0.23510450E+04</pdfrwt>
<totfact> 0.33847974E+00</totfact>
</mgrwt>
</event>
<event>
12    3  0.8686020E-008  0.2225049E+04  0.7818608E-02  0.8508074E-01
          2   -1    0    0  501    0  0.00000000000E+00  0.00000000000E+00  0.97462313934E+03  0.97462313934E+03  0.00000000000E+00 0. -1.
         -2   -1    0    0    0  501 -0.00000000000E+00 -0.00000000000E+00 -0.12699378300E+04  0.12699378300E+04  0.00000000000E+00 0.  1.
         23    2    1    2    0    0  0.60349308115E+03 -0.70035726724E+03 -0.18088685125E+03  0.94646169012E+03  0.91462982300E+02 0.  0.
        254    2    1    2    0    0 -0.60349308115E+03  0.70035726724E+03 -0.11442783937E+03  0.12980992792E+04  0.90402644177E+03 0.  0.
         23    2    4    4    0    0 -0.49704821912E+03 -0.69131843665E+02 -0.36932730219E+02  0.51181116825E+03  0.93544114952E+02 0.  0.
         23    2    4    4    0    0 -0.10644486203E+03  0.76948911091E+03 -0.77495109154E+02  0.78628811093E+03  0.93805655449E+02 0.  0.
          3    1    3    3  502    0  0.39848352097E+03 -0.48107174926E+03 -0.80033475643E+02  0.62978131256E+03  0.00000000000E+00 0. -1.
         -3    1    3    3    0  502  0.20500956018E+03 -0.21928551798E+03 -0.10085337560E+03  0.31668037756E+03  0.00000000000E+00 0.  1.
         13    1    5    5    0    0 -0.22049364154E+03 -0.81618921979E+01  0.24587448634E+02  0.22201037155E+03  0.00000000000E+00 0. -1.
        -13    1    5    5    0    0 -0.27655457758E+03 -0.60969951468E+02 -0.61520178853E+02  0.28980079670E+03  0.00000000000E+00 0.  1.
          4    1    6    6  503    0 -0.18559831204E+02  0.28578929339E+03 -0.69043941637E+02  0.29459642467E+03  0.00000000000E+00 0. -1.
         -4    1    6    6    0  503 -0.87885030821E+02  0.48369981752E+03 -0.84511675174E+01  0.49169168627E+03  0.00000000000E+00 0.  1.
<mgrwt>
<rscale>  0 0.22250490E+04</rscale>
<asrwt>0</asrwt>
<pdfrwt beam="1">  1        2 0.14994202E+00 0.22250490E+04</pdfrwt>
<pdfrwt beam="2">  1       -2 0.19537505E+00 0.22250490E+04</pdfrwt>
<totfact> 0.34041330E+00</totfact>
</mgrwt>
</event>
<event>
12    3  0.8686020E-008  0.1458775E+04  0.7818608E-02  0.8912340E-01
         -1   -1    0    0    0  501 -0.00000000000E+00  0.00000000000E+00  0.74679520169E+03  0.74679520169E+03  0.00000000000E+00 0.  1.
          1   -1    0    0  501    0  0.00000000000E+00 -0.00000000000E+00 -0.71238524882E+03  0.71238524882E+03  0.00000000000E+00 0. -1.
         23    2    1    2    0    0 -0.31050424809E+03 -0.61461778224E+02  0.32734850694E+03  0.46444108247E+03  0.91422293956E+02 0.  0.
        254    2    1    2    0    0  0.31050424809E+03  0.61461778224E+02 -0.29293855406E+03  0.99473936804E+03  0.89638327495E+03 0.  0.
         23    2    4    4    0    0 -0.20313953420E+02  0.74584194429E+02 -0.55203705110E+03  0.56497051121E+03  0.92039741316E+02 0.  0.
         23    2    4    4    0    0  0.33081820151E+03 -0.13122416205E+02  0.25909849704E+03  0.42976885683E+03  0.89198424160E+02 0.  0.
          2    1    3    3  502    0 -0.49992883278E+02 -0.18227498591E+02  0.11086149035E+03  0.12297072874E+03  0.00000000000E+00 0.  1.
         -2    1    3    3    0  502 -0.26051136481E+03 -0.43234279633E+02  0.21648701659E+03  0.34147035373E+03  0.00000000000E+00 0. -1.
         13    1    5    5    0    0 -0.35987649840E+01  0.53655979026E+02 -0.52185208644E+03  0.52461558813E+03  0.00000000000E+00 0. -1.
        -13    1    5    5    0    0 -0.16715188436E+02  0.20928215403E+02 -0.30184964668E+02  0.40354923075E+02  0.00000000000E+00 0.  1.
          2    1    6    6  503    0  0.13633069814E+03  0.34559855838E+02  0.12994545649E+03  0.19148437156E+03  0.00000000000E+00 0. -1.
         -2    1    6    6    0  503  0.19448750336E+03 -0.47682272043E+02  0.12915304056E+03  0.23828448526E+03  0.00000000000E+00 0.  1.
<mgrwt>
<rscale>  0 0.14587747E+04</rscale>
<asrwt>0</asrwt>
<pdfrwt beam="1">  1        1 0.10959773E+00 0.14587747E+04</pdfrwt>
<pdfrwt beam="2">  1       -1 0.11489157E+00 0.14587747E+04</pdfrwt>
<totfact> 0.17716284E+01</totfact>
</mgrwt>
</event>
<event>
12    3  0.8686020E-008  0.1217681E+04  0.7818608E-02  0.9097520E-01
          1   -1    0    0  501    0  0.00000000000E+00  0.00000000000E+00  0.21560681870E+04  0.21560681870E+04  0.00000000000E+00 0. -1.
         -1   -1    0    0    0  501 -0.00000000000E+00 -0.00000000000E+00 -0.17192717871E+03  0.17192717871E+03  0.00000000000E+00 0.  1.
         23    2    1    2    0    0 -0.56352563845E+02 -0.27125509710E+03  0.54639872071E+03  0.61944504080E+03  0.91682372462E+02 0.  0.
        254    2    1    2    0    0  0.56352563845E+02  0.27125509710E+03  0.14377422876E+04  0.17085503249E+04  0.88050348556E+03 0.  0.
         23    2    4    4    0    0  0.87069711532E+02  0.32858795718E+03  0.99478744254E+02  0.36566735386E+03  0.90914316012E+02 0.  0.
         23    2    4    4    0    0 -0.30717147687E+02 -0.57332860070E+02  0.13382635433E+04  0.13428829710E+04  0.90303723707E+02 0.  0.
          3    1    3    3  502    0 -0.50325149828E+02 -0.13873070397E+03  0.37289705183E+03  0.40103745485E+03  0.00000000000E+00 0. -1.
         -3    1    3    3    0  502 -0.60274140172E+01 -0.13252439314E+03  0.17350166888E+03  0.21840758595E+03  0.00000000000E+00 0.  1.
         13    1    5    5    0    0  0.80444299214E+02  0.30065305051E+03  0.11646771520E+03  0.33230749426E+03  0.00000000000E+00 0. -1.
        -13    1    5    5    0    0  0.66254123183E+01  0.27934906667E+02 -0.16988970949E+02  0.33359859604E+02  0.00000000000E+00 0.  1.
          4    1    6    6  503    0 -0.27742755341E+02 -0.40485248781E+02  0.13004901063E+04  0.13014158568E+04  0.00000000000E+00 0. -1.
         -4    1    6    6    0  503 -0.29743923456E+01 -0.16847611290E+02  0.37773437053E+02  0.41467114233E+02  0.00000000000E+00 0.  1.
<mgrwt>
<rscale>  0 0.12176809E+04</rscale>
<asrwt>0</asrwt>
<pdfrwt beam="1">  1        1 0.33170278E+00 0.12176809E+04</pdfrwt>
<pdfrwt beam="2">  1       -1 0.26450337E-01 0.12176809E+04</pdfrwt>
<totfact> 0.29406939E+01</totfact>
</mgrwt>
</event>
<event>
12    3  0.8686020E-008  0.1257976E+04  0.7818608E-02  0.9063571E-01
         -3   -1    0    0    0  501 -0.00000000000E+00  0.00000000000E+00  0.11689278622E+04  0.11689278622E+04  0.00000000000E+00 0.  1.
          3   -1    0    0  501    0  0.00000000000E+00 -0.00000000000E+00 -0.33845200311E+03  0.33845200311E+03  0.00000000000E+00 0. -1.
         23    2    1    2    0    0 -0.24441330751E+03  0.15195349998E+02  0.64804167278E+01  0.26120539306E+03  0.90650416506E+02 0.  0.
        254    2    1    2    0    0  0.24441330751E+03 -0.15195349998E+02  0.82399544239E+03  0.12461744723E+04  0.90222700177E+03 0.  0.
         23    2    4    4    0    0 -0.73765019047E+02  0.14245690560E+03 -0.12725299660E+03  0.22667005666E+03  0.97214924034E+02 0.  0.
         23    2    4    4    0    0  0.31817832656E+03 -0.15765225559E+03  0.95124843899E+03  0.10195044156E+04  0.91782240124E+02 0.  0.
          2    1    3    3  502    0 -0.12116635155E+03 -0.35248405061E+02 -0.12000610845E+02  0.12675862680E+03  0.00000000000E+00 0. -1.
         -2    1    3    3    0  502 -0.12324695596E+03  0.50443755059E+02  0.18481027573E+02  0.13444676626E+03  0.00000000000E+00 0.  1.
         13    1    5    5    0    0  0.80080882197E+01  0.88217717949E+02 -0.71309620969E+02  0.11371700524E+03  0.00000000000E+00 0.  1.
        -13    1    5    5    0    0 -0.81773107267E+02  0.54239187646E+02 -0.55943375630E+02  0.11295305142E+03  0.00000000000E+00 0. -1.
          1    1    6    6  503    0  0.46094082740E+01 -0.14294688052E+02  0.99350954850E+02  0.10047983370E+03  0.00000000000E+00 0. -1.
         -1    1    6    6    0  503  0.31356891828E+03 -0.14335756754E+03  0.85189748414E+03  0.91902458192E+03  0.00000000000E+00 0.  1.
<mgrwt>
<rscale>  0 0.12579761E+04</rscale>
<asrwt>0</asrwt>
<pdfrwt beam="1">  1        3 0.52069539E-01 0.12579761E+04</pdfrwt>
<pdfrwt beam="2">  1       -3 0.17983505E+00 0.12579761E+04</pdfrwt>
<totfact> 0.18641327E+00</totfact>
</mgrwt>
</event>
<event>
12    3  0.8686020E-008  0.2277291E+04  0.7818608E-02  0.8486929E-01
         -2   -1    0    0    0  501 -0.00000000000E+00  0.00000000000E+00  0.93244062928E+03  0.93244062928E+03  0.00000000000E+00 0.  1.
          2   -1    0    0  501    0  0.00000000000E+00 -0.00000000000E+00 -0.13904520287E+04  0.13904520287E+04  0.00000000000E+00 0. -1.
         23    2    1    2    0    0 -0.80895018753E+03  0.51403879992E+03 -0.19958536229E+03  0.98300687352E+03  0.88498038557E+02 0.  0.
        254    2    1    2    0    0  0.80895018753E+03 -0.51403879992E+03 -0.25842603710E+03  0.13398857844E+04  0.89992977778E+03 0.  0.
         23    2    4    4    0    0 -0.13392538574E+03 -0.27953280478E+03  0.23855382625E+02  0.32387953759E+03  0.90853055511E+02 0.  0.
         23    2    4    4    0    0  0.94287557326E+03 -0.23450599515E+03 -0.28228141972E+03  0.10160062468E+04  0.92620112755E+02 0.  0.
          2    1    3    3  502    0 -0.45848968181E+03  0.25528960158E+03 -0.14155391381E+03  0.54352836128E+03  0.00000000000E+00 0. -1.
         -2    1    3    3    0  502 -0.35046050571E+03  0.25874919835E+03 -0.58031448478E+02  0.43947851224E+03  0.00000000000E+00 0.  1.
         13    1    5    5    0    0 -0.72341288078E+02 -0.23518947668E+03  0.29272707429E+02  0.24779879601E+03  0.00000000000E+00 0. -1.
        -13    1    5    5    0    0 -0.61584097660E+02 -0.44343328095E+02 -0.54173248038E+01  0.76080741579E+02  0.00000000000E+00 0.  1.
          1    1    6    6  503    0  0.61109932664E+03 -0.12664342464E+03 -0.21932687152E+03  0.66150224535E+03  0.00000000000E+00 0. -1.
         -1    1    6    6    0  503  0.33177624662E+03 -0.10786257051E+03 -0.62954548206E+02  0.35450400150E+03  0.00000000000E+00 0.  1.
<mgrwt>
<rscale>  0 0.22772913E+04</rscale>
<asrwt>0</asrwt>
<pdfrwt beam="1">  1        2 0.21391569E+00 0.22772913E+04</pdfrwt>
<pdfrwt beam="2">  1       -2 0.14345241E+00 0.22772913E+04</pdfrwt>
<totfact> 0.44867842E+00</totfact>
</mgrwt>
</event>
<event>
12    3  0.8686020E-008  0.2055964E+04  0.7818608E-02  0.8580893E-01
          1   -1    0    0  501    0  0.00000000000E+00  0.00000000000E+00  0.27604303416E+04  0.27604303416E+04  0.00000000000E+00 0. -1.
         -1   -1    0    0    0  501 -0.00000000000E+00 -0.00000000000E+00 -0.38281972728E+03  0.38281972728E+03  0.00000000000E+00 0.  1.
         23    2    1    2    0    0  0.40549186275E+03 -0.10795762147E+03 -0.12779851673E+03  0.44791712930E+03  0.90657570267E+02 0.  0.
        254    2    1    2    0    0 -0.40549186275E+03  0.10795762147E+03  0.25054091310E+04  0.26953329396E+04  0.90092521470E+03 0.  0.
         23    2    4    4    0    0 -0.45554216198E+03  0.24503363806E+03  0.66784813610E+03  0.84973662438E+03  0.92038322471E+02 0.  0.
         23    2    4    4    0    0  0.50050299224E+02 -0.13707601658E+03  0.18375609949E+04  0.18455963152E+04  0.91106979851E+02 0.  0.
          1    1    3    3  502    0  0.23753527462E+03 -0.51375670319E+02 -0.28309529811E+02  0.24467099474E+03  0.00000000000E+00 0. -1.
         -1    1    3    3    0  502  0.16795658813E+03 -0.56581951156E+02 -0.99488986922E+02  0.20324613456E+03  0.00000000000E+00 0.  1.
         13    1    5    5    0    0 -0.31743096127E+03  0.15757796151E+03  0.38678621360E+03  0.52459203592E+03  0.00000000000E+00 0. -1.
        -13    1    5    5    0    0 -0.13811120071E+03  0.87455676542E+02  0.28106192251E+03  0.32514458846E+03  0.00000000000E+00 0.  1.
          4    1    6    6  503    0 -0.79046741325E+01  0.10140851444E+02  0.19892614305E+03  0.19934124293E+03  0.00000000000E+00 0. -1.
         -4    1    6    6    0  503  0.57954973357E+02 -0.14721686802E+03  0.16386348519E+04  0.16462550723E+04  0.00000000000E+00 0.  1.
<mgrwt>
<rscale>  0 0.20559642E+04</rscale>
<asrwt>0</asrwt>
<pdfrwt beam="1">  1        1 0.42468158E+00 0.20559642E+04</pdfrwt>
<pdfrwt beam="2">  1       -1 0.58895345E-01 0.20559642E+04</pdfrwt>
<totfact> 0.24009403E+00</totfact>
</mgrwt>
</event>
<event>
12    3  0.8686020E-008  0.3763506E+04  0.7818608E-02  0.8054032E-01
         -1   -1    0    0    0  501 -0.00000000000E+00  0.00000000000E+00  0.17600103308E+04  0.17600103308E+04  0.00000000000E+00 0.  1.
          1   -1    0    0  501    0  0.00000000000E+00 -0.00000000000E+00 -0.20119166606E+04  0.20119166606E+04  0.00000000000E+00 0. -1.
         23    2    1    2    0    0  0.17908288001E+03  0.12824394797E+04 -0.13325316421E+04  0.18603140158E+04  0.91684040730E+02 0.  0.
        254    2    1    2    0    0 -0.17908288001E+03 -0.12824394797E+04  0.10806253123E+04  0.19116129755E+04  0.89988410669E+03 0.  0.
         23    2    4    4    0    0 -0.21079288402E+03 -0.10853432341E+04  0.37324518665E+03  0.11706739771E+04  0.93605638818E+02 0.  0.
         23    2    4    4    0    0  0.31710004013E+02 -0.19709624556E+03  0.70738012568E+03  0.74093899834E+03  0.93549466535E+02 0.  0.
          2    1    3    3  502    0  0.17283745882E+03  0.96071553752E+03 -0.98791854621E+03  0.13888233096E+04  0.00000000000E+00 0. -1.
         -2    1    3    3    0  502  0.62454211882E+01  0.32172394215E+03 -0.34461309591E+03  0.47149070628E+03  0.00000000000E+00 0.  1.
         13    1    5    5    0    0  0.46101910118E+01 -0.50496384305E+02  0.31864198266E+02  0.59887108965E+02  0.00000000000E+00 0. -1.
        -13    1    5    5    0    0 -0.21540307503E+03 -0.10348468498E+04  0.34138098839E+03  0.11107868682E+04  0.00000000000E+00 0.  1.
          4    1    6    6  503    0  0.33973077582E+02 -0.20466354355E+03  0.63277797114E+03  0.66591988769E+03  0.00000000000E+00 0.  1.
         -4    1    6    6    0  503 -0.22630735687E+01  0.75672979967E+01  0.74602154548E+02  0.75019110659E+02  0.00000000000E+00 0. -1.
<mgrwt>
<rscale>  0 0.37635059E+04</rscale>
<asrwt>0</asrwt>
<pdfrwt beam="1">  1        1 0.30952564E+00 0.37635059E+04</pdfrwt>
<pdfrwt beam="2">  1       -1 0.27077082E+00 0.37635059E+04</pdfrwt>
<totfact> 0.11924204E-01</totfact>
</mgrwt>
</event>
<event>
12    3  0.8686020E-008  0.1831142E+04  0.7818608E-02  0.8689912E-01
         -1   -1    0    0    0  501 -0.00000000000E+00  0.00000000000E+00  0.74712842222E+03  0.74712842222E+03  0.00000000000E+00 0.  1.
          1   -1    0    0  501    0  0.00000000000E+00 -0.00000000000E+00 -0.11219896372E+04  0.11219896372E+04  0.00000000000E+00 0. -1.
         23    2    1    2    0    0 -0.66635544719E+03  0.15655136912E+03 -0.45075246041E+02  0.69189594963E+03  0.90279090267E+02 0.  0.
        254    2    1    2    0    0  0.66635544719E+03 -0.15655136912E+03 -0.32978596896E+03  0.11772221098E+04  0.89919697359E+03 0.  0.
         23    2    4    4    0    0  0.68786147882E+03  0.93665280175E+02 -0.50162912730E+03  0.86143500068E+03  0.92259851965E+02 0.  0.
         23    2    4    4    0    0 -0.21506031634E+02 -0.25021664930E+03  0.17184315834E+03  0.31578710912E+03  0.84383329153E+02 0.  0.
          2    1    3    3  502    0 -0.37931833134E+03  0.47279298015E+02 -0.61212277118E+01  0.38230249533E+03  0.00000000000E+00 0.  1.
         -2    1    3    3    0  502 -0.28703711585E+03  0.10927207111E+03 -0.38954018330E+02  0.30959345430E+03  0.00000000000E+00 0. -1.
         13    1    5    5    0    0  0.67777029912E+03  0.96740804053E+02 -0.50456973898E+03  0.85048338199E+03  0.00000000000E+00 0.  1.
        -13    1    5    5    0    0  0.10091179705E+02 -0.30755238786E+01  0.29406116850E+01  0.10951618695E+02  0.00000000000E+00 0. -1.
          1    1    6    6  503    0 -0.12110421053E+02 -0.12037647072E+03  0.32878689793E+02  0.12537210712E+03  0.00000000000E+00 0. -1.
         -1    1    6    6    0  503 -0.93956105811E+01 -0.12984017858E+03  0.13896446854E+03  0.19041500201E+03  0.00000000000E+00 0.  1.
<mgrwt>
<rscale>  0 0.18311421E+04</rscale>
<asrwt>0</asrwt>
<pdfrwt beam="1">  1        1 0.17261379E+00 0.18311421E+04</pdfrwt>
<pdfrwt beam="2">  1       -1 0.11494283E+00 0.18311421E+04</pdfrwt>
<totfact> 0.78949166E+00</totfact>
</mgrwt>
</event>
<event>
12    3  0.8686020E-008  0.2850457E+04  0.7818608E-02  0.8287772E-01
          2   -1    0    0  501    0  0.00000000000E+00  0.00000000000E+00  0.26704060505E+04  0.26704060505E+04  0.00000000000E+00 0. -1.
         -2   -1    0    0    0  501 -0.00000000000E+00 -0.00000000000E+00 -0.76066219215E+03  0.76066219215E+03  0.00000000000E+00 0.  1.
         23    2    1    2    0    0  0.69369729158E+03  0.82612560521E+03  0.16917853729E+04  0.20085431175E+04  0.91696558967E+02 0.  0.
        254    2    1    2    0    0 -0.69369729158E+03 -0.82612560521E+03  0.21795848549E+03  0.14225251252E+04  0.90131702663E+03 0.  0.
         23    2    4    4    0    0 -0.20132841075E+03 -0.86889449883E+03  0.20409294029E+03  0.91953438547E+03  0.91535669059E+02 0.  0.
         23    2    4    4    0    0 -0.49236888083E+03  0.42768893616E+02  0.13865545205E+02  0.50299073973E+03  0.92472362588E+02 0.  0.
          1    1    3    3  502    0  0.23773779944E+03  0.34246487926E+03  0.60954623940E+03  0.73847686001E+03  0.00000000000E+00 0. -1.
         -1    1    3    3    0  502  0.45595949214E+03  0.48366072595E+03  0.10822391335E+04  0.12700662575E+04  0.00000000000E+00 0.  1.
         13    1    5    5    0    0 -0.11804402381E+03 -0.66374473480E+03  0.13451605227E+03  0.68744893108E+03  0.00000000000E+00 0.  1.
        -13    1    5    5    0    0 -0.83284386943E+02 -0.20514976403E+03  0.69576888019E+02  0.23208545439E+03  0.00000000000E+00 0. -1.
          1    1    6    6  503    0 -0.40876098606E+02  0.29995146673E+02  0.76493288876E+01  0.51274520901E+02  0.00000000000E+00 0. -1.
         -1    1    6    6    0  503 -0.45149278222E+03  0.12773746944E+02  0.62162163169E+01  0.45171621883E+03  0.00000000000E+00 0.  1.
<mgrwt>
<rscale>  0 0.28504575E+04</rscale>
<asrwt>0</asrwt>
<pdfrwt beam="1">  1        2 0.41083170E+00 0.28504575E+04</pdfrwt>
<pdfrwt beam="2">  1       -2 0.11702495E+00 0.28504575E+04</pdfrwt>
<totfact> 0.13534761E+00</totfact>
</mgrwt>
</event>
<event>
12    3  0.8686020E-008  0.1257009E+04  0.7818608E-02  0.9064370E-01
          2   -1    0    0  501    0  0.00000000000E+00  0.00000000000E+00  0.15745932689E+04  0.15745932689E+04  0.00000000000E+00 0. -1.
         -2   -1    0    0    0  501 -0.00000000000E+00 -0.00000000000E+00 -0.25086970526E+03  0.25086970526E+03  0.00000000000E+00 0.  1.
         23    2    1    2    0    0 -0.19999934613E+03  0.21439183409E+03  0.30158466053E+03  0.42905243358E+03  0.84670457173E+02 0.  0.
        254    2    1    2    0    0  0.19999934613E+03 -0.21439183409E+03  0.10221389031E+04  0.13964105406E+04  0.90511372965E+03 0.  0.
         23    2    4    4    0    0 -0.27204198510E+03  0.17017111463E+03  0.30932475058E+03  0.45443792575E+03  0.88695981468E+02 0.  0.
         23    2    4    4    0    0  0.47204133123E+03 -0.38456294872E+03  0.71281415253E+03  0.94197261482E+03  0.92177606379E+02 0.  0.
          4    1    3    3  502    0 -0.87859139595E+02  0.97504897520E+02  0.77070307384E+02  0.15220468367E+03  0.00000000000E+00 0.  1.
         -4    1    3    3    0  502 -0.11214020653E+03  0.11688693657E+03  0.22451435314E+03  0.27684774991E+03  0.00000000000E+00 0. -1.
         13    1    5    5    0    0 -0.23590703977E+03  0.13748232278E+03  0.21231165088E+03  0.34587534979E+03  0.00000000000E+00 0. -1.
        -13    1    5    5    0    0 -0.36134945328E+02  0.32688791844E+02  0.97013099699E+02  0.10856257596E+03  0.00000000000E+00 0.  1.
          3    1    6    6  503    0  0.37979474341E+03 -0.26983888097E+03  0.50238674976E+03  0.68516386006E+03  0.00000000000E+00 0. -1.
         -3    1    6    6    0  503  0.92246587821E+02 -0.11472406775E+03  0.21042740277E+03  0.25680875476E+03  0.00000000000E+00 0.  1.
<mgrwt>
<rscale>  0 0.12570087E+04</rscale>
<asrwt>0</asrwt>
<pdfrwt beam="1">  1        2 0.24224511E+00 0.12570087E+04</pdfrwt>
<pdfrwt beam="2">  1       -2 0.38595340E-01 0.12570087E+04</pdfrwt>
<totfact> 0.71817219E+01</totfact>
</mgrwt>
</event>
<event>
12    3  0.8686020E-008  0.1975716E+04  0.7818608E-02  0.8618059E-01
         -2   -1    0    0    0  501 -0.00000000000E+00  0.00000000000E+00  0.57362771867E+03  0.57362771867E+03  0.00000000000E+00 0.  1.
          2   -1    0    0  501    0  0.00000000000E+00 -0.00000000000E+00 -0.17012131432E+04  0.17012131432E+04  0.00000000000E+00 0. -1.
         23    2    1    2    0    0 -0.35420441004E+03 -0.59113406641E+03 -0.86722024928E+03  0.11111794117E+04  0.88025426375E+02 0.  0.
        254    2    1    2    0    0  0.35420441004E+03  0.59113406641E+03 -0.26036517529E+03  0.11636614502E+04  0.90078726545E+03 0.  0.
         23    2    4    4    0    0 -0.14289964426E+03 -0.15433114446E+03 -0.12074518439E+02  0.22991008665E+03  0.92056740476E+02 0.  0.
         23    2    4    4    0    0  0.49710405430E+03  0.74546521088E+03 -0.24829065685E+03  0.93375136355E+03  0.86096092958E+02 0.  0.
          2    1    3    3  502    0 -0.20262596460E+03 -0.37178427131E+03 -0.59356618281E+03  0.72911016952E+03  0.00000000000E+00 0. -1.
         -2    1    3    3    0  502 -0.15157844544E+03 -0.21934979511E+03 -0.27365406648E+03  0.38206924220E+03  0.00000000000E+00 0.  1.
         13    1    5    5    0    0 -0.12718845058E+03 -0.10686782228E+03  0.24556809168E+02  0.16793055195E+03  0.00000000000E+00 0. -1.
        -13    1    5    5    0    0 -0.15711193670E+02 -0.47463322185E+02 -0.36631327608E+02  0.61979534701E+02  0.00000000000E+00 0.  1.
          4    1    6    6  503    0  0.20901566074E+03  0.31140174101E+03 -0.14816158803E+03  0.40324985668E+03  0.00000000000E+00 0. -1.
         -4    1    6    6    0  503  0.28808839356E+03  0.43406346986E+03 -0.10012906882E+03  0.53050150687E+03  0.00000000000E+00 0.  1.
<mgrwt>
<rscale>  0 0.19757156E+04</rscale>
<asrwt>0</asrwt>
<pdfrwt beam="1">  1        2 0.26172510E+00 0.19757156E+04</pdfrwt>
<pdfrwt beam="2">  1       -2 0.88250419E-01 0.19757156E+04</pdfrwt>
<totfact> 0.10078321E+01</totfact>
</mgrwt>
</event>
<event>
12    3  0.8686020E-008  0.2590405E+04  0.7818608E-02  0.8371468E-01
         -2   -1    0    0    0  501 -0.00000000000E+00  0.00000000000E+00  0.91002155251E+03  0.91002155251E+03  0.00000000000E+00 0.  1.
          2   -1    0    0  501    0  0.00000000000E+00 -0.00000000000E+00 -0.18434178229E+04  0.18434178229E+04  0.00000000000E+00 0. -1.
         23    2    1    2    0    0 -0.22006162299E+03  0.10132931692E+04  0.83156539402E+02  0.10442716069E+04  0.91640680544E+02 0.  0.
        254    2    1    2    0    0  0.22006162299E+03 -0.10132931692E+04 -0.10165528098E+04  0.17091677686E+04  0.90149025579E+03 0.  0.
         23    2    4    4    0    0 -0.21804674965E+03 -0.79905425608E+01 -0.35251011083E+03  0.42445850432E+03  0.91068160486E+02 0.  0.
         23    2    4    4    0    0  0.43810837264E+03 -0.10053026266E+04 -0.66404269901E+03  0.12847092642E+04  0.83383872834E+02 0.  0.
          4    1    3    3  502    0 -0.56483747213E+02  0.17333890790E+03 -0.15003796417E+02  0.18292595387E+03  0.00000000000E+00 0. -1.
         -4    1    3    3    0  502 -0.16357787578E+03  0.83995426127E+03  0.98160335819E+02  0.86134565304E+03  0.00000000000E+00 0.  1.
         13    1    5    5    0    0 -0.18616838275E+03 -0.29623105525E+02 -0.32941847517E+03  0.37954278666E+03  0.00000000000E+00 0.  1.
        -13    1    5    5    0    0 -0.31878366895E+02  0.21632562964E+02 -0.23091635654E+02  0.44915717666E+02  0.00000000000E+00 0. -1.
          1    1    6    6  503    0  0.26262561695E+03 -0.69523547703E+03 -0.46325543647E+03  0.87574550106E+03  0.00000000000E+00 0. -1.
         -1    1    6    6    0  503  0.17548275569E+03 -0.31006714958E+03 -0.20078726254E+03  0.40896376317E+03  0.00000000000E+00 0.  1.
<mgrwt>
<rscale>  0 0.25904053E+04</rscale>
<asrwt>0</asrwt>
<pdfrwt beam="1">  1        2 0.28360274E+00 0.25904053E+04</pdfrwt>
<pdfrwt beam="2">  1       -2 0.14000332E+00 0.25904053E+04</pdfrwt>
<totfact> 0.25955602E+00</totfact>
</mgrwt>
</event>
<event>
12    3  0.8686020E-008  0.3105495E+04  0.7818608E-02  0.8214231E-01
          1   -1    0    0  501    0  0.00000000000E+00  0.00000000000E+00  0.17536381113E+04  0.17536381113E+04  0.00000000000E+00 0. -1.
         -1   -1    0    0    0  501 -0.00000000000E+00 -0.00000000000E+00 -0.13748702222E+04  0.13748702222E+04  0.00000000000E+00 0.  1.
         23    2    1    2    0    0  0.37038533606E+03  0.55907243003E+03  0.14353670434E+04  0.15869165647E+04  0.90985466251E+02 0.  0.
        254    2    1    2    0    0 -0.37038533606E+03 -0.55907243003E+03 -0.10565991542E+04  0.15415917687E+04  0.90019782794E+03 0.  0.
         23    2    4    4    0    0 -0.27751224526E+02 -0.22086483904E+03  0.11869381738E+03  0.26821363787E+03  0.91098439418E+02 0.  0.
         23    2    4    4    0    0 -0.34263411154E+03 -0.33820759098E+03 -0.11752929716E+04  0.12733781308E+04  0.91628521606E+02 0.  0.
          3    1    3    3  502    0  0.34751194816E+03  0.54150533947E+03  0.14033728599E+04  0.15438419513E+04  0.00000000000E+00 0. -1.
         -3    1    3    3    0  502  0.22873387904E+02  0.17567090556E+02  0.31994183499E+02  0.43074613435E+02  0.00000000000E+00 0.  1.
         13    1    5    5    0    0 -0.97594112371E+01 -0.50972635074E+02  0.76150530571E+02  0.92153995791E+02  0.00000000000E+00 0.  1.
        -13    1    5    5    0    0 -0.17991813289E+02 -0.16989220397E+03  0.42543286813E+02  0.17605964208E+03  0.00000000000E+00 0. -1.
          1    1    6    6  503    0 -0.33578126459E+03 -0.33415479284E+03 -0.11730740577E+04  0.12651131285E+04  0.00000000000E+00 0. -1.
         -1    1    6    6    0  503 -0.68528469507E+01 -0.40527981463E+01 -0.22189139724E+01  0.82650023207E+01  0.00000000000E+00 0.  1.
<mgrwt>
<rscale>  0 0.31054950E+04</rscale>
<asrwt>0</asrwt>
<pdfrwt beam="1">  1        1 0.26979048E+00 0.31054950E+04</pdfrwt>
<pdfrwt beam="2">  1       -1 0.21151850E+00 0.31054950E+04</pdfrwt>
<totfact> 0.46392181E-01</totfact>
</mgrwt>
</event>
<event>
12    3  0.8686020E-008  0.5601298E+04  0.7818608E-02  0.7741902E-01
         -2   -1    0    0    0  501 -0.00000000000E+00  0.00000000000E+00  0.26127182881E+04  0.26127182881E+04  0.00000000000E+00 0.  1.
          2   -1    0    0  501    0  0.00000000000E+00 -0.00000000000E+00 -0.30020971775E+04  0.30020971775E+04  0.00000000000E+00 0. -1.
         23    2    1    2    0    0  0.13721759183E+04  0.20150798405E+04 -0.14133009936E+04  0.28195699982E+04  0.95612561686E+02 0.  0.
        254    2    1    2    0    0 -0.13721759183E+04 -0.20150798405E+04  0.10239221043E+04  0.27952454674E+04  0.90640346045E+03 0.  0.
         23    2    4    4    0    0 -0.69798391667E+03 -0.10166719835E+04  0.40562827135E+02  0.12374774243E+04  0.94348093535E+02 0.  0.
         23    2    4    4    0    0 -0.67419200165E+03 -0.99840785699E+03  0.98335927712E+03  0.15577680431E+04  0.91064286253E+02 0.  0.
          1    1    3    3  502    0  0.76436356700E+03  0.11839861373E+04 -0.77944501825E+03  0.16104686810E+04  0.00000000000E+00 0. -1.
         -1    1    3    3    0  502  0.60781235133E+03  0.83109370317E+03 -0.63385597535E+03  0.12091013172E+04  0.00000000000E+00 0.  1.
         13    1    5    5    0    0 -0.10664410541E+03 -0.12138897585E+03  0.30780975696E+02  0.16448622174E+03  0.00000000000E+00 0. -1.
        -13    1    5    5    0    0 -0.59133981126E+03 -0.89528300765E+03  0.97818514392E+01  0.10729912026E+04  0.00000000000E+00 0.  1.
          3    1    6    6  503    0 -0.28008436959E+03 -0.42847999900E+03  0.47541087080E+03  0.69861137960E+03  0.00000000000E+00 0. -1.
         -3    1    6    6    0  503 -0.39410763207E+03 -0.56992785799E+03  0.50794840632E+03  0.85915666351E+03  0.00000000000E+00 0.  1.
<mgrwt>
<rscale>  0 0.56012978E+04</rscale>
<asrwt>0</asrwt>
<pdfrwt beam="1">  1        2 0.46186110E+00 0.56012978E+04</pdfrwt>
<pdfrwt beam="2">  1       -2 0.40195666E+00 0.56012978E+04</pdfrwt>
<totfact> 0.86910240E-03</totfact>
</mgrwt>
</event>
<event>
12    3  0.8686020E-008  0.3674500E+04  0.7818608E-02  0.8073637E-01
         -2   -1    0    0    0  501 -0.00000000000E+00  0.00000000000E+00  0.13770341533E+04  0.13770341533E+04  0.00000000000E+00 0.  1.
          2   -1    0    0  501    0  0.00000000000E+00 -0.00000000000E+00 -0.24512734532E+04  0.24512734532E+04  0.00000000000E+00 0. -1.
         23    2    1    2    0    0  0.60785476110E+03  0.15051043874E+04 -0.11222897594E+04  0.19754916941E+04  0.90589745020E+02 0.  0.
        254    2    1    2    0    0 -0.60785476110E+03 -0.15051043874E+04  0.48050459505E+02  0.18528159124E+04  0.89207137098E+03 0.  0.
         23    2    4    4    0    0 -0.14562146774E+03 -0.61002419937E+03  0.43596471096E+03  0.76940298531E+03  0.92631468239E+02 0.  0.
         23    2    4    4    0    0 -0.46223329336E+03 -0.89508018800E+03 -0.38791425145E+03  0.10834129270E+04  0.92075749083E+02 0.  0.
          4    1    3    3  502    0  0.30231873137E+02  0.12219646877E+03 -0.10768161584E+03  0.16565407790E+03  0.00000000000E+00 0. -1.
         -4    1    3    3    0  502  0.57762288796E+03  0.13829079186E+04 -0.10146081435E+04  0.18098376162E+04  0.00000000000E+00 0.  1.
         13    1    5    5    0    0 -0.11598553565E+03 -0.28786867147E+03  0.20675946111E+03  0.37292156179E+03  0.00000000000E+00 0. -1.
        -13    1    5    5    0    0 -0.29635932087E+02 -0.32215552791E+03  0.22920524985E+03  0.39648142351E+03  0.00000000000E+00 0.  1.
          1    1    6    6  503    0 -0.14757001096E+03 -0.38159905838E+03 -0.14582524750E+03  0.43434980407E+03  0.00000000000E+00 0. -1.
         -1    1    6    6    0  503 -0.31466328240E+03 -0.51348112962E+03 -0.24208900395E+03  0.64906312298E+03  0.00000000000E+00 0.  1.
<mgrwt>
<rscale>  0 0.36744998E+04</rscale>
<asrwt>0</asrwt>
<pdfrwt beam="1">  1        2 0.37711899E+00 0.36744998E+04</pdfrwt>
<pdfrwt beam="2">  1       -2 0.21185141E+00 0.36744998E+04</pdfrwt>
<totfact> 0.33522969E-01</totfact>
</mgrwt>
</event>
<event>
12    3  0.8686020E-008  0.1454529E+04  0.7818608E-02  0.8915267E-01
         -2   -1    0    0    0  501 -0.00000000000E+00  0.00000000000E+00  0.11415218173E+04  0.11415218173E+04  0.00000000000E+00 0.  1.
          2   -1    0    0  501    0  0.00000000000E+00 -0.00000000000E+00 -0.46334072942E+03  0.46334072942E+03  0.00000000000E+00 0. -1.
         23    2    1    2    0    0  0.39254729265E+03 -0.14623995739E+03  0.36671959316E+03  0.56431679573E+03  0.92144906729E+02 0.  0.
        254    2    1    2    0    0 -0.39254729265E+03  0.14623995739E+03  0.31146149471E+03  0.10405457510E+04  0.90013759787E+03 0.  0.
         23    2    4    4    0    0  0.23477522128E+03  0.20808422372E+03  0.22574890755E+03  0.39779466667E+03  0.94125336027E+02 0.  0.
         23    2    4    4    0    0 -0.62732251393E+03 -0.61844266327E+02  0.85712587160E+02  0.64275108431E+03  0.91782672765E+02 0.  0.
          3    1    3    3  502    0  0.13435982069E+03 -0.52012834323E+02  0.71080138253E+02  0.16065578858E+03  0.00000000000E+00 0. -1.
         -3    1    3    3    0  502  0.25818747195E+03 -0.94227123069E+02  0.29563945491E+03  0.40366100715E+03  0.00000000000E+00 0.  1.
         13    1    5    5    0    0  0.17691900897E+03  0.95897272525E+02  0.14267955866E+03  0.24668619554E+03  0.00000000000E+00 0.  1.
        -13    1    5    5    0    0  0.57856212317E+02  0.11218695119E+03  0.83069348892E+02  0.15110847113E+03  0.00000000000E+00 0. -1.
          4    1    6    6  503    0 -0.13837831036E+03 -0.50422066370E+02  0.32174058396E+02  0.15075182118E+03  0.00000000000E+00 0. -1.
         -4    1    6    6    0  503 -0.48894420358E+03 -0.11422199958E+02  0.53538528764E+02  0.49199926313E+03  0.00000000000E+00 0.  1.
<mgrwt>
<rscale>  0 0.14545289E+04</rscale>
<asrwt>0</asrwt>
<pdfrwt beam="1">  1        2 0.71283189E-01 0.14545289E+04</pdfrwt>
<pdfrwt beam="2">  1       -2 0.17561874E+00 0.14545289E+04</pdfrwt>
<totfact> 0.12668494E+01</totfact>
</mgrwt>
</event>
<event>
12    3  0.8686020E-008  0.1886811E+04  0.7818608E-02  0.8661449E-01
          1   -1    0    0  501    0  0.00000000000E+00  0.00000000000E+00  0.13602152908E+04  0.13602152908E+04  0.00000000000E+00 0. -1.
         -1   -1    0    0    0  501 -0.00000000000E+00 -0.00000000000E+00 -0.65431856323E+03  0.65431856323E+03  0.00000000000E+00 0.  1.
         23    2    1    2    0    0  0.56475352350E+03 -0.37872509115E+03  0.53651113458E+03  0.87381733306E+03  0.11546989677E+03 0.  0.
        254    2    1    2    0    0 -0.56475352350E+03  0.37872509115E+03  0.16938559302E+03  0.11407165210E+04  0.90009080940E+03 0.  0.
         23    2    4    4    0    0 -0.32461112211E+03  0.56967677553E+03  0.37400914517E+03  0.76034272760E+03  0.91291914023E+02 0.  0.
         23    2    4    4    0    0 -0.24014240138E+03 -0.19095168438E+03 -0.20462355215E+03  0.38037379339E+03  0.93179965112E+02 0.  0.
          3    1    3    3  502    0  0.47552544083E+03 -0.26310805679E+03  0.41389416891E+03  0.68312420356E+03  0.00000000000E+00 0. -1.
         -3    1    3    3    0  502  0.89228082666E+02 -0.11561703436E+03  0.12261696567E+03  0.19069312951E+03  0.00000000000E+00 0.  1.
         13    1    5    5    0    0 -0.54880226192E+01  0.28396620237E+00  0.13732568562E+02  0.14791297049E+02  0.00000000000E+00 0. -1.
        -13    1    5    5    0    0 -0.31912309950E+03  0.56939280933E+03  0.36027657660E+03  0.74555143055E+03  0.00000000000E+00 0.  1.
          4    1    6    6  503    0 -0.10772167370E+03 -0.34263514717E+02 -0.50642337910E+02  0.12386522439E+03  0.00000000000E+00 0. -1.
         -4    1    6    6    0  503 -0.13242072769E+03 -0.15668816966E+03 -0.15398121424E+03  0.25650856900E+03  0.00000000000E+00 0.  1.
<mgrwt>
<rscale>  0 0.18868112E+04</rscale>
<asrwt>0</asrwt>
<pdfrwt beam="1">  1        1 0.20926389E+00 0.18868112E+04</pdfrwt>
<pdfrwt beam="2">  1       -1 0.10066439E+00 0.18868112E+04</pdfrwt>
<totfact> 0.72065374E+00</totfact>
</mgrwt>
</event>
<event>
12    3  0.8686020E-008  0.2149786E+04  0.7818608E-02  0.8539624E-01
          1   -1    0    0  501    0  0.00000000000E+00  0.00000000000E+00  0.28459633226E+04  0.28459633226E+04  0.00000000000E+00 0. -1.
         -1   -1    0    0    0  501 -0.00000000000E+00 -0.00000000000E+00 -0.40597690403E+03  0.40597690403E+03  0.00000000000E+00 0.  1.
         23    2    1    2    0    0  0.68938503131E+03 -0.75787821768E+02  0.18398796199E+04  0.19680132116E+04  0.83207392127E+02 0.  0.
        254    2    1    2    0    0 -0.68938503131E+03  0.75787821768E+02  0.60010679868E+03  0.12839270150E+04  0.89852373075E+03 0.  0.
         23    2    4    4    0    0 -0.86132790010E+03 -0.80000291189E+02  0.55339584867E+03  0.10307648386E+04  0.89125692668E+02 0.  0.
         23    2    4    4    0    0  0.17194286878E+03  0.15578811296E+03  0.46710950009E+02  0.25316217641E+03  0.89860383085E+02 0.  0.
          1    1    3    3  502    0  0.64999525149E+03 -0.69015262951E+02  0.17780395817E+04  0.18943816108E+04  0.00000000000E+00 0. -1.
         -1    1    3    3    0  502  0.39389779816E+02 -0.67725588167E+01  0.61840038198E+02  0.73631600765E+02  0.00000000000E+00 0.  1.
         13    1    5    5    0    0 -0.74806047009E+03 -0.89366732499E+02  0.45276934955E+03  0.87896584898E+03  0.00000000000E+00 0. -1.
        -13    1    5    5    0    0 -0.11326743001E+03  0.93664413108E+01  0.10062649912E+03  0.15179898962E+03  0.00000000000E+00 0.  1.
          4    1    6    6  503    0  0.11682065856E+03  0.77393766867E+02 -0.12212635053E+02  0.14066275225E+03  0.00000000000E+00 0.  1.
         -4    1    6    6    0  503  0.55122210228E+02  0.78394346089E+02  0.58923585063E+02  0.11249942416E+03  0.00000000000E+00 0. -1.
<mgrwt>
<rscale>  0 0.21497864E+04</rscale>
<asrwt>0</asrwt>
<pdfrwt beam="1">  1        1 0.43784050E+00 0.21497864E+04</pdfrwt>
<pdfrwt beam="2">  1       -1 0.62457987E-01 0.21497864E+04</pdfrwt>
<totfact> 0.18409378E+00</totfact>
</mgrwt>
</event>
<event>
12    3  0.8686020E-008  0.1481877E+04  0.7818608E-02  0.8896595E-01
         -1   -1    0    0    0  501 -0.00000000000E+00  0.00000000000E+00  0.31402018437E+03  0.31402018437E+03  0.00000000000E+00 0.  1.
          1   -1    0    0  501    0  0.00000000000E+00 -0.00000000000E+00 -0.17482623929E+04  0.17482623929E+04  0.00000000000E+00 0. -1.
         23    2    1    2    0    0 -0.46312365601E+03  0.50496570562E+01 -0.50487048177E+03  0.69142866010E+03  0.93114815423E+02 0.  0.
        254    2    1    2    0    0  0.46312365601E+03 -0.50496570562E+01 -0.92937172673E+03  0.13708539171E+04  0.89498583000E+03 0.  0.
         23    2    4    4    0    0  0.50698542269E+03 -0.20543944301E+03 -0.99302696361E+03  0.11373396184E+04  0.90549840740E+02 0.  0.
         23    2    4    4    0    0 -0.43861766681E+02  0.20038978595E+03  0.63655236871E+02  0.23351429871E+03  0.91635242282E+02 0.  0.
          4    1    3    3  502    0 -0.31887052173E+02  0.18647016496E+02 -0.68211090532E+02  0.77570923625E+02  0.00000000000E+00 0. -1.
         -4    1    3    3    0  502 -0.43123660384E+03 -0.13597359439E+02 -0.43665939124E+03  0.61385773648E+03  0.00000000000E+00 0.  1.
         13    1    5    5    0    0  0.20577173131E+03 -0.38788722368E+02 -0.34569236466E+03  0.40416553709E+03  0.00000000000E+00 0. -1.
        -13    1    5    5    0    0  0.30121369138E+03 -0.16665072064E+03 -0.64733459895E+03  0.73317408135E+03  0.00000000000E+00 0.  1.
          4    1    6    6  503    0 -0.40853679857E+02  0.24563681265E+02  0.23448139049E+02  0.53124503009E+02  0.00000000000E+00 0. -1.
         -4    1    6    6    0  503 -0.30080868249E+01  0.17582610469E+03  0.40207097823E+02  0.18038979570E+03  0.00000000000E+00 0.  1.
<mgrwt>
<rscale>  0 0.14818768E+04</rscale>
<asrwt>0</asrwt>
<pdfrwt beam="1">  1        1 0.26896344E+00 0.14818768E+04</pdfrwt>
<pdfrwt beam="2">  1       -1 0.48310798E-01 0.14818768E+04</pdfrwt>
<totfact> 0.18342217E+01</totfact>
</mgrwt>
</event>
<event>
12    3  0.8686020E-008  0.2060219E+04  0.7818608E-02  0.8578973E-01
         -1   -1    0    0    0  501 -0.00000000000E+00  0.00000000000E+00  0.35627190238E+03  0.35627190238E+03  0.00000000000E+00 0.  1.
          1   -1    0    0  501    0  0.00000000000E+00 -0.00000000000E+00 -0.29784137527E+04  0.29784137527E+04  0.00000000000E+00 0. -1.
         23    2    1    2    0    0 -0.82579280723E+03  0.38549622063E+02 -0.93514268662E+03  0.12512437807E+04  0.87745772049E+02 0.  0.
        254    2    1    2    0    0  0.82579280723E+03 -0.38549622063E+02 -0.16869991637E+04  0.20834418744E+04  0.90074637486E+03 0.  0.
         23    2    4    4    0    0 -0.88827354636E+02  0.10158696143E+03 -0.73456789360E+03  0.75245974570E+03  0.91626791574E+02 0.  0.
         23    2    4    4    0    0  0.91462016186E+03 -0.14013658350E+03 -0.95243127009E+03  0.13309821287E+04  0.90663113224E+02 0.  0.
          4    1    3    3  502    0 -0.21165581868E+03  0.51698127282E+01 -0.29927969735E+03  0.36659684913E+03  0.00000000000E+00 0. -1.
         -4    1    3    3    0  502 -0.61413698855E+03  0.33379809335E+02 -0.63586298926E+03  0.88464693154E+03  0.00000000000E+00 0.  1.
         13    1    5    5    0    0 -0.89255575853E+02  0.70238494430E+02 -0.68088139465E+03  0.69028941575E+03  0.00000000000E+00 0. -1.
        -13    1    5    5    0    0  0.42822121724E+00  0.31348467003E+02 -0.53686498951E+02  0.62170329953E+02  0.00000000000E+00 0.  1.
          2    1    6    6  503    0  0.40385110595E+03 -0.19455894442E+02 -0.39136100608E+03  0.56270568211E+03  0.00000000000E+00 0. -1.
         -2    1    6    6    0  503  0.51076905592E+03 -0.12068068905E+03 -0.56107026401E+03  0.76827644657E+03  0.00000000000E+00 0.  1.
<mgrwt>
<rscale>  0 0.20602186E+04</rscale>
<asrwt>0</asrwt>
<pdfrwt beam="1">  1        1 0.45821747E+00 0.20602186E+04</pdfrwt>
<pdfrwt beam="2">  1       -1 0.54811065E-01 0.20602186E+04</pdfrwt>
<totfact> 0.19267943E+00</totfact>
</mgrwt>
</event>
<event>
12    3  0.8686020E-008  0.2038636E+04  0.7818608E-02  0.8588767E-01
         -1   -1    0    0    0  501 -0.00000000000E+00  0.00000000000E+00  0.17672595785E+04  0.17672595785E+04  0.00000000000E+00 0.  1.
          1   -1    0    0  501    0  0.00000000000E+00 -0.00000000000E+00 -0.58792124379E+03  0.58792124379E+03  0.00000000000E+00 0. -1.
         23    2    1    2    0    0 -0.11110973511E+03 -0.73000125194E+03  0.88032145246E+03  0.11525326018E+04  0.90101817296E+02 0.  0.
        254    2    1    2    0    0  0.11110973511E+03  0.73000125194E+03  0.29901688222E+03  0.12026482205E+04  0.90094641643E+03 0.  0.
         23    2    4    4    0    0  0.21760291183E+03 -0.36056141531E+02 -0.17079179141E+03  0.29312206083E+03  0.89997966377E+02 0.  0.
         23    2    4    4    0    0 -0.10649317672E+03  0.76605739347E+03  0.46980867363E+03  0.90952615964E+03  0.91284820580E+02 0.  0.
          3    1    3    3  502    0 -0.11475854905E+03 -0.53557416106E+03  0.61451936855E+03  0.82319090185E+03  0.00000000000E+00 0. -1.
         -3    1    3    3    0  502  0.36488139390E+01 -0.19442709088E+03  0.26580208391E+03  0.32934169994E+03  0.00000000000E+00 0.  1.
         13    1    5    5    0    0  0.11358224552E+03 -0.18608554836E+02 -0.33266646893E+02  0.11980765671E+03  0.00000000000E+00 0. -1.
        -13    1    5    5    0    0  0.10402066631E+03 -0.17447586695E+02 -0.13752514452E+03  0.17331440413E+03  0.00000000000E+00 0.  1.
          3    1    6    6  503    0 -0.95856779854E+02  0.35999257737E+03  0.21949016717E+03  0.43238768656E+03  0.00000000000E+00 0. -1.
         -3    1    6    6    0  503 -0.10636396864E+02  0.40606481610E+03  0.25031850647E+03  0.47713847308E+03  0.00000000000E+00 0.  1.
<mgrwt>
<rscale>  0 0.20386363E+04</rscale>
<asrwt>0</asrwt>
<pdfrwt beam="1">  1        1 0.90449423E-01 0.20386363E+04</pdfrwt>
<pdfrwt beam="2">  1       -1 0.27188609E+00 0.20386363E+04</pdfrwt>
<totfact> 0.16384010E+00</totfact>
</mgrwt>
</event>
