<event>
12    1  0.4247462E-008  0.1757414E+04  0.7818608E-02  0.8729280E-01
          1   -1    0    0  501    0  0.00000000000E+00  0.00000000000E+00  0.61367625008E+03  0.61367625008E+03  0.00000000000E+00 0. -1.
         -1   -1    0    0    0  501 -0.00000000000E+00 -0.00000000000E+00 -0.12581974182E+04  0.12581974182E+04  0.00000000000E+00 0.  1.
         23    2    1    2    0    0 -0.17918454177E+03 -0.62003304043E+03 -0.24191389347E+03  0.69542359117E+03  0.92431423568E+02 0.  0.
        254    2    1    2    0    0  0.17918454177E+03  0.62003304043E+03 -0.40260727465E+03  0.11764500771E+04  0.89743751599E+03 0.  0.
         23    2    4    4    0    0 -0.27897651640E+03  0.25937246757E+03  0.96756765730E+02  0.40339851722E+03  0.90920395623E+02 0.  0.
         23    2    4    4    0    0  0.45816105818E+03  0.36066057286E+03 -0.49936404038E+03  0.77305155990E+03  0.90866194965E+02 0.  0.
         13    1    3    3    0    0  0.32886778888E+01 -0.86147991668E+02 -0.48907629579E+02  0.99117345110E+02  0.00000000000E+00 0. -1.
        -13    1    3    3    0    0 -0.18247321966E+03 -0.53388504877E+03 -0.19300626389E+03  0.59630624606E+03  0.00000000000E+00 0.  1.
          2    1    5    5  502    0 -0.15969300880E+03  0.19661761535E+03  0.88676150316E+02  0.26837250858E+03  0.00000000000E+00 0. -1.
          3    1    6    6  503    0  0.35432744320E+03  0.29400089502E+03 -0.43704745193E+03  0.63481882338E+03  0.00000000000E+00 0. -1.
         -2    1    5    5    0  502 -0.11928350760E+03  0.62754852216E+02  0.80806154140E+01  0.13502600864E+03  0.00000000000E+00 0.  1.
         -3    1    6    6    0  503  0.10383361498E+03  0.66659677842E+02 -0.62316588449E+02  0.13823273652E+03  0.00000000000E+00 0.  1.
<mgrwt>
<rscale>  0 0.17574139E+04</rscale>
<asrwt>0</asrwt>
<pdfrwt beam="1">  1        1 0.94411731E-01 0.17574139E+04</pdfrwt>
<pdfrwt beam="2">  1       -1 0.19356883E+00 0.17574139E+04</pdfrwt>
<totfact> 0.52351681E+00</totfact>
</mgrwt>
</event>
<event>
12    1  0.4247462E-008  0.2556903E+04  0.7818608E-02  0.8382989E-01
         -2   -1    0    0    0  501 -0.00000000000E+00  0.00000000000E+00  0.10727549334E+04  0.10727549334E+04  0.00000000000E+00 0.  1.
          2   -1    0    0  501    0  0.00000000000E+00 -0.00000000000E+00 -0.15235894416E+04  0.15235894416E+04  0.00000000000E+00 0. -1.
         23    2    1    2    0    0  0.73120224636E+03  0.80336758176E+03  0.91360975935E+02  0.10939965025E+04  0.91789558774E+02 0.  0.
        254    2    1    2    0    0 -0.73120224636E+03 -0.80336758176E+03 -0.54219548413E+03  0.15023478725E+04  0.88488247273E+03 0.  0.
         23    2    4    4    0    0  0.87405004653E+02 -0.55330017092E+02  0.14009504337E+03  0.19719546549E+03  0.92511538762E+02 0.  0.
         23    2    4    4    0    0 -0.81860725101E+03 -0.74803756467E+03 -0.68229052749E+03  0.13051524070E+04  0.90688544463E+02 0.  0.
         13    1    3    3    0    0  0.33716413449E+03  0.34398438620E+03  0.82643647026E+02  0.48870736021E+03  0.00000000000E+00 0.  1.
        -13    1    3    3    0    0  0.39403811187E+03  0.45938319556E+03  0.87173289086E+01  0.60528914231E+03  0.00000000000E+00 0. -1.
          4    1    5    5  502    0  0.67601581528E+02  0.65921746452E+01  0.43149158425E+02  0.80469127399E+02  0.00000000000E+00 0. -1.
          3    1    6    6  503    0 -0.76854097056E+03 -0.69817496404E+03 -0.61087193393E+03  0.12046858609E+04  0.00000000000E+00 0. -1.
         -4    1    5    5    0  502  0.19803423125E+02 -0.61922191737E+02  0.96945884940E+02  0.11672633809E+03  0.00000000000E+00 0.  1.
         -3    1    6    6    0  503 -0.50066280455E+02 -0.49862600631E+02 -0.71418593567E+02  0.10046654611E+03  0.00000000000E+00 0.  1.
<mgrwt>
<rscale>  0 0.25569029E+04</rscale>
<asrwt>0</asrwt>
<pdfrwt beam="1">  1        2 0.23439838E+00 0.25569029E+04</pdfrwt>
<pdfrwt beam="2">  1       -2 0.16503922E+00 0.25569029E+04</pdfrwt>
<totfact> 0.25288111E+00</totfact>
</mgrwt>
</event>
<event>
12    1  0.4247462E-008  0.1636898E+04  0.7818608E-02  0.8798195E-01
         -2   -1    0    0    0  501 -0.00000000000E+00  0.00000000000E+00  0.44605452291E+03  0.44605452291E+03  0.00000000000E+00 0.  1.
          2   -1    0    0  501    0  0.00000000000E+00 -0.00000000000E+00 -0.15017420378E+04  0.15017420378E+04  0.00000000000E+00 0. -1.
         23    2    1    2    0    0  0.33408252334E+03 -0.46968184165E+03 -0.35266787278E+03  0.68159765646E+03  0.89378811971E+02 0.  0.
        254    2    1    2    0    0 -0.33408252334E+03  0.46968184165E+03 -0.70301964215E+03  0.12661989043E+04  0.88136875551E+03 0.  0.
         23    2    4    4    0    0 -0.30559579473E+03  0.21696725371E+03 -0.86763650710E+03  0.94978350716E+03  0.93978843797E+02 0.  0.
         23    2    4    4    0    0 -0.28486728608E+02  0.25271458794E+03  0.16461686494E+03  0.31641539713E+03  0.91344592882E+02 0.  0.
         13    1    3    3    0    0  0.17479205329E+03 -0.22148901483E+03 -0.12295712740E+03  0.30777930529E+03  0.00000000000E+00 0. -1.
        -13    1    3    3    0    0  0.15929047005E+03 -0.24819282681E+03 -0.22971074539E+03  0.37381835118E+03  0.00000000000E+00 0.  1.
          1    1    5    5  502    0 -0.21848799393E+03  0.20256645163E+03 -0.68039234638E+03  0.74276774017E+03  0.00000000000E+00 0. -1.
          3    1    6    6  503    0 -0.33267679555E+02  0.94914175471E+02  0.11075697547E+03  0.14960797714E+03  0.00000000000E+00 0. -1.
         -1    1    5    5    0  502 -0.87107800802E+02  0.14400802080E+02 -0.18724416072E+03  0.20701576699E+03  0.00000000000E+00 0.  1.
         -3    1    6    6    0  503  0.47809509473E+01  0.15780041247E+03  0.53859889470E+02  0.16680741998E+03  0.00000000000E+00 0.  1.
<mgrwt>
<rscale>  0 0.16368981E+04</rscale>
<asrwt>0</asrwt>
<pdfrwt beam="1">  1        2 0.23103724E+00 0.16368981E+04</pdfrwt>
<pdfrwt beam="2">  1       -2 0.68623773E-01 0.16368981E+04</pdfrwt>
<totfact> 0.23507731E+01</totfact>
</mgrwt>
</event>
<event>
12    1  0.4247462E-008  0.1732629E+04  0.7818608E-02  0.8742971E-01
          2   -1    0    0  501    0  0.00000000000E+00  0.00000000000E+00  0.90613696411E+03  0.90613696411E+03  0.00000000000E+00 0. -1.
         -2   -1    0    0    0  501 -0.00000000000E+00 -0.00000000000E+00 -0.82824179825E+03  0.82824179825E+03  0.00000000000E+00 0.  1.
         23    2    1    2    0    0  0.41717082372E+03 -0.12054584026E+03  0.48337776908E+03  0.65581926627E+03  0.88780891014E+02 0.  0.
        254    2    1    2    0    0 -0.41717082372E+03  0.12054584026E+03 -0.40548260322E+03  0.10785594961E+04  0.90017312186E+03 0.  0.
         23    2    4    4    0    0 -0.35340009702E+03  0.34191657145E+03  0.10481828770E+03  0.51122204513E+03  0.92533969894E+02 0.  0.
         23    2    4    4    0    0 -0.63770726699E+02 -0.22137073119E+03 -0.51030089092E+03  0.56733745096E+03  0.91613742273E+02 0.  0.
         11    1    3    3    0    0  0.81113235900E+02  0.97247565545E+01  0.10805399647E+03  0.13546067356E+03  0.00000000000E+00 0. -1.
        -11    1    3    3    0    0  0.33605758782E+03 -0.13027059681E+03  0.37532377261E+03  0.52035859271E+03  0.00000000000E+00 0.  1.
          1    1    5    5  502    0 -0.27501474195E+03  0.27014642450E+03  0.12026475867E+03  0.40382646167E+03  0.00000000000E+00 0. -1.
          3    1    6    6  503    0 -0.29794954462E+02 -0.50355723652E+02 -0.57104506135E+02  0.81757952744E+02  0.00000000000E+00 0.  1.
         -1    1    5    5    0  502 -0.78385355063E+02  0.71770146946E+02 -0.15446470975E+02  0.10739558346E+03  0.00000000000E+00 0.  1.
         -3    1    6    6    0  503 -0.33975772237E+02 -0.17101500753E+03 -0.45319638479E+03  0.48557949821E+03  0.00000000000E+00 0. -1.
<mgrwt>
<rscale>  0 0.17326286E+04</rscale>
<asrwt>0</asrwt>
<pdfrwt beam="1">  1        2 0.13940569E+00 0.17326286E+04</pdfrwt>
<pdfrwt beam="2">  1       -2 0.12742181E+00 0.17326286E+04</pdfrwt>
<totfact> 0.12592761E+01</totfact>
</mgrwt>
</event>
<event>
12    1  0.4247462E-008  0.1078121E+04  0.7818608E-02  0.9226783E-01
          1   -1    0    0  501    0  0.00000000000E+00  0.00000000000E+00  0.15539485624E+04  0.15539485624E+04  0.00000000000E+00 0.  1.
         -1   -1    0    0    0  501 -0.00000000000E+00 -0.00000000000E+00 -0.18699854134E+03  0.18699854134E+03  0.00000000000E+00 0. -1.
         23    2    1    2    0    0 -0.52939440097E+02 -0.11213319225E+03  0.11094533218E+03  0.18959087760E+03  0.90881224761E+02 0.  0.
        254    2    1    2    0    0  0.52939440097E+02  0.11213319225E+03  0.12560046889E+04  0.15513562261E+04  0.90209862255E+03 0.  0.
         23    2    4    4    0    0  0.32066793513E+03  0.25566409440E+02  0.87744860725E+02  0.34635339335E+03  0.93701369196E+02 0.  0.
         23    2    4    4    0    0 -0.26772849504E+03  0.86566782808E+02  0.11682598281E+04  0.12050028328E+04  0.89601596101E+02 0.  0.
         13    1    3    3    0    0  0.78576513668E+01 -0.87582699121E+02  0.58312516001E+02  0.10551218599E+03  0.00000000000E+00 0. -1.
        -13    1    3    3    0    0 -0.60797091464E+02 -0.24550493127E+02  0.52632816178E+02  0.84078691606E+02  0.00000000000E+00 0.  1.
          2    1    5    5  502    0  0.23398783486E+03  0.51558838157E+02  0.36521495417E+02  0.24236839786E+03  0.00000000000E+00 0. -1.
          1    1    6    6  503    0 -0.15708043561E+03  0.24767599979E+02  0.79692874240E+03  0.81263959892E+03  0.00000000000E+00 0. -1.
         -2    1    5    5    0  502  0.86680100277E+02 -0.25992428717E+02  0.51223365308E+02  0.10398499549E+03  0.00000000000E+00 0.  1.
         -1    1    6    6    0  503 -0.11064805943E+03  0.61799182829E+02  0.37133108574E+03  0.39236323387E+03  0.00000000000E+00 0.  1.
<mgrwt>
<rscale>  0 0.10781208E+04</rscale>
<asrwt>0</asrwt>
<pdfrwt beam="1">  1        1 0.23906900E+00 0.10781208E+04</pdfrwt>
<pdfrwt beam="2">  1       -1 0.28769007E-01 0.10781208E+04</pdfrwt>
<totfact> 0.65780995E+01</totfact>
</mgrwt>
</event>
<event>
12    1  0.4247462E-008  0.1777486E+04  0.7818608E-02  0.8718365E-01
         -4   -1    0    0    0  501 -0.00000000000E+00  0.00000000000E+00  0.55984002537E+03  0.55984002537E+03  0.00000000000E+00 0.  1.
          4   -1    0    0  501    0  0.00000000000E+00 -0.00000000000E+00 -0.14108741270E+04  0.14108741270E+04  0.00000000000E+00 0. -1.
         23    2    1    2    0    0 -0.25530519859E+03  0.47126109603E+03  0.10676381200E+03  0.55372794982E+03  0.89153607931E+02 0.  0.
        254    2    1    2    0    0  0.25530519859E+03 -0.47126109603E+03 -0.95779791363E+03  0.14169862025E+04  0.89621721127E+03 0.  0.
         23    2    4    4    0    0  0.35151437631E+03 -0.18450997393E+03 -0.10168861580E+04  0.10953937650E+04  0.90684920196E+02 0.  0.
         23    2    4    4    0    0 -0.96209177719E+02 -0.28675112210E+03  0.59088244392E+02  0.32159243756E+03  0.91912259071E+02 0.  0.
         13    1    3    3    0    0 -0.22827608550E+03  0.37411438787E+03  0.11333625337E+03  0.45267720591E+03  0.00000000000E+00 0.  1.
        -13    1    3    3    0    0 -0.27029113096E+02  0.97146708155E+02 -0.65724413697E+01  0.10105074391E+03  0.00000000000E+00 0. -1.
          1    1    6    6  502    0 -0.15360719280E+02  0.26104394645E+01  0.12418723824E+01  0.15630365895E+02  0.00000000000E+00 0. -1.
          1    1    5    5  503    0  0.20571563210E+02 -0.30121673287E+02 -0.15689308483E+03  0.16107744871E+03  0.00000000000E+00 0. -1.
         -1    1    5    5    0  503  0.33094281310E+03 -0.15438830064E+03 -0.85999307319E+03  0.93431631627E+03  0.00000000000E+00 0.  1.
         -1    1    6    6    0  502 -0.80848458439E+02 -0.28936156156E+03  0.57846372009E+02  0.30596207166E+03  0.00000000000E+00 0.  1.
<mgrwt>
<rscale>  0 0.17774856E+04</rscale>
<asrwt>0</asrwt>
<pdfrwt beam="1">  1        4 0.21705756E+00 0.17774856E+04</pdfrwt>
<pdfrwt beam="2">  1       -4 0.86129235E-01 0.17774856E+04</pdfrwt>
<totfact> 0.22594755E-01</totfact>
</mgrwt>
</event>
<event>
12    1  0.4247462E-008  0.1196065E+04  0.7818608E-02  0.9116308E-01
          2   -1    0    0  501    0  0.00000000000E+00  0.00000000000E+00  0.16312724048E+04  0.16312724048E+04  0.00000000000E+00 0. -1.
         -2   -1    0    0    0  501 -0.00000000000E+00 -0.00000000000E+00 -0.21924169577E+03  0.21924169577E+03  0.00000000000E+00 0.  1.
         23    2    1    2    0    0 -0.20169019201E+03  0.12463699800E+03  0.41609710075E+03  0.48757038092E+03  0.91513738180E+02 0.  0.
        254    2    1    2    0    0  0.20169019201E+03 -0.12463699800E+03  0.99593360823E+03  0.13629437196E+04  0.89973246911E+03 0.  0.
         23    2    4    4    0    0  0.18130328143E+03 -0.31019068448E+03  0.10777124213E+04  0.11398560741E+04  0.93373797840E+02 0.  0.
         23    2    4    4    0    0  0.20386910574E+02  0.18555368648E+03 -0.81778813062E+02  0.22308764547E+03  0.90744292432E+02 0.  0.
         11    1    3    3    0    0 -0.15537563480E+03  0.58002163538E+02  0.32954993758E+03  0.36892953287E+03  0.00000000000E+00 0. -1.
        -11    1    3    3    0    0 -0.46314557204E+02  0.66634834466E+02  0.86547163173E+02  0.11864084805E+03  0.00000000000E+00 0.  1.
          2    1    5    5  502    0  0.18421169008E+03 -0.26441909951E+03  0.88763690151E+03  0.94432551372E+03  0.00000000000E+00 0.  1.
          3    1    6    6  503    0  0.23218226788E+01 -0.89511019386E+01 -0.13077766529E+02  0.16016899321E+02  0.00000000000E+00 0. -1.
         -2    1    5    5    0  502 -0.29084086472E+01 -0.45771584973E+02  0.19007551979E+03  0.19553056041E+03  0.00000000000E+00 0. -1.
         -3    1    6    6    0  503  0.18065087895E+02  0.19450478841E+03 -0.68701046532E+02  0.20707074615E+03  0.00000000000E+00 0.  1.
<mgrwt>
<rscale>  0 0.11960651E+04</rscale>
<asrwt>0</asrwt>
<pdfrwt beam="1">  1        2 0.25096498E+00 0.11960651E+04</pdfrwt>
<pdfrwt beam="2">  1       -2 0.33729493E-01 0.11960651E+04</pdfrwt>
<totfact> 0.86888823E+01</totfact>
</mgrwt>
</event>
<event>
12    1  0.4247462E-008  0.2032537E+04  0.7818608E-02  0.8591558E-01
         -1   -1    0    0    0  501 -0.00000000000E+00  0.00000000000E+00  0.10514150408E+04  0.10514150408E+04  0.00000000000E+00 0.  1.
          1   -1    0    0  501    0  0.00000000000E+00 -0.00000000000E+00 -0.98229684657E+03  0.98229684657E+03  0.00000000000E+00 0. -1.
         23    2    1    2    0    0  0.69900409600E+03 -0.41663505838E+03 -0.15138705087E+02  0.81964371960E+03  0.96928574727E+02 0.  0.
        254    2    1    2    0    0 -0.69900409600E+03  0.41663505838E+03  0.84256899301E+02  0.12140681677E+04  0.89703444346E+03 0.  0.
         23    2    4    4    0    0 -0.80154058793E+03  0.58179356523E+03  0.48702026158E+02  0.99585064763E+03  0.91627279722E+02 0.  0.
         23    2    4    4    0    0  0.10253649193E+03 -0.16515850685E+03  0.35554873144E+02  0.21821752012E+03  0.92540113040E+02 0.  0.
         11    1    3    3    0    0  0.65950676514E+03 -0.41447562321E+03 -0.23174917132E+02  0.77927934163E+03  0.00000000000E+00 0.  1.
        -11    1    3    3    0    0  0.39497330859E+02 -0.21594351639E+01  0.80362120453E+01  0.40364377974E+02  0.00000000000E+00 0. -1.
          3    1    5    5  502    0 -0.19375845241E+03  0.19087601215E+03  0.99364057863E+01  0.27216671739E+03  0.00000000000E+00 0. -1.
          3    1    6    6  503    0  0.18655201508E+02  0.77789582830E+01  0.14469870536E+02  0.24857712859E+02  0.00000000000E+00 0. -1.
         -3    1    5    5    0  502 -0.60778213552E+03  0.39091755308E+03  0.38765620371E+02  0.72368393024E+03  0.00000000000E+00 0.  1.
         -3    1    6    6    0  503  0.83881290419E+02 -0.17293746513E+03  0.21085002608E+02  0.19335980726E+03  0.00000000000E+00 0.  1.
<mgrwt>
<rscale>  0 0.20325370E+04</rscale>
<asrwt>0</asrwt>
<pdfrwt beam="1">  1        1 0.15112259E+00 0.20325370E+04</pdfrwt>
<pdfrwt beam="2">  1       -1 0.16175616E+00 0.20325370E+04</pdfrwt>
<totfact> 0.40966182E+00</totfact>
</mgrwt>
</event>
<event>
12    1  0.4247462E-008  0.1893574E+04  0.7818608E-02  0.8658062E-01
          2   -1    0    0  501    0  0.00000000000E+00  0.00000000000E+00  0.22099684339E+04  0.22099684339E+04  0.00000000000E+00 0.  1.
         -2   -1    0    0    0  501 -0.00000000000E+00 -0.00000000000E+00 -0.40561914657E+03  0.40561914657E+03  0.00000000000E+00 0. -1.
         23    2    1    2    0    0  0.68999703102E+03  0.15407876175E+03  0.44954828932E+03  0.84260674335E+03  0.89756848534E+02 0.  0.
        254    2    1    2    0    0 -0.68999703102E+03 -0.15407876175E+03  0.13548009980E+04  0.17729808371E+04  0.89896559275E+03 0.  0.
         23    2    4    4    0    0 -0.31366574780E+02  0.56388883338E+02  0.96857994462E+03  0.97502315789E+03  0.91430198058E+02 0.  0.
         23    2    4    4    0    0 -0.65863045624E+03 -0.21046764509E+03  0.38622105341E+03  0.79795767925E+03  0.97360403955E+02 0.  0.
         11    1    3    3    0    0  0.48256279931E+03  0.11466249627E+03  0.36189956178E+03  0.61399156032E+03  0.00000000000E+00 0. -1.
        -11    1    3    3    0    0  0.20743423171E+03  0.39416265485E+02  0.87648727543E+02  0.22861518302E+03  0.00000000000E+00 0.  1.
          3    1    5    5  502    0  0.13139108629E+02 -0.12295482024E+02  0.56916296522E+02  0.59693214552E+02  0.00000000000E+00 0. -1.
          3    1    6    6  503    0 -0.54664577151E+02 -0.12573432309E+02  0.38131783826E+01  0.56221415176E+02  0.00000000000E+00 0. -1.
         -3    1    5    5    0  502 -0.44505683409E+02  0.68684365362E+02  0.91166364810E+03  0.91532994333E+03  0.00000000000E+00 0.  1.
         -3    1    6    6    0  503 -0.60396587909E+03 -0.19789421278E+03  0.38240787503E+03  0.74173626408E+03  0.00000000000E+00 0.  1.
<mgrwt>
<rscale>  0 0.18935739E+04</rscale>
<asrwt>0</asrwt>
<pdfrwt beam="1">  1        2 0.33999514E+00 0.18935739E+04</pdfrwt>
<pdfrwt beam="2">  1       -2 0.62402947E-01 0.18935739E+04</pdfrwt>
<totfact> 0.11382172E+01</totfact>
</mgrwt>
</event>
<event>
12    1  0.4247462E-008  0.1809679E+04  0.7818608E-02  0.8701169E-01
          2   -1    0    0  501    0  0.00000000000E+00  0.00000000000E+00  0.21864246177E+04  0.21864246177E+04  0.00000000000E+00 0.  1.
         -2   -1    0    0    0  501 -0.00000000000E+00 -0.00000000000E+00 -0.37446274428E+03  0.37446274428E+03  0.00000000000E+00 0. -1.
         23    2    1    2    0    0 -0.59521590626E+03 -0.57197658490E+02  0.24007073022E+03  0.65080223033E+03  0.91411379409E+02 0.  0.
        254    2    1    2    0    0  0.59521590626E+03  0.57197658490E+02  0.15718911432E+04  0.19100851317E+04  0.90555502148E+03 0.  0.
         23    2    4    4    0    0  0.16660863807E+03 -0.24149101048E+03  0.67041347763E+02  0.31462342049E+03  0.91744253145E+02 0.  0.
         23    2    4    4    0    0  0.42860726819E+03  0.29868866897E+03  0.15048497955E+04  0.15954617112E+04  0.89476553702E+02 0.  0.
         13    1    3    3    0    0 -0.87404179320E+02  0.19389199764E+02  0.54140469492E+02  0.10462610605E+03  0.00000000000E+00 0.  1.
        -13    1    3    3    0    0 -0.50781172694E+03 -0.76586858254E+02  0.18593026073E+03  0.54617612428E+03  0.00000000000E+00 0. -1.
          1    1    5    5  502    0  0.34779183413E+02 -0.83702712303E+02  0.60367482884E+02  0.10890348312E+03  0.00000000000E+00 0. -1.
          3    1    6    6  503    0  0.32305410860E+02  0.95599758664E+01  0.17042995679E+03  0.17372795653E+03  0.00000000000E+00 0. -1.
         -1    1    5    5    0  502  0.13182945466E+03 -0.15778829818E+03  0.66738648786E+01  0.20571993737E+03  0.00000000000E+00 0.  1.
         -3    1    6    6    0  503  0.39630185733E+03  0.28912869311E+03  0.13344198387E+04  0.14217337547E+04  0.00000000000E+00 0.  1.
<mgrwt>
<rscale>  0 0.18096790E+04</rscale>
<asrwt>0</asrwt>
<pdfrwt beam="1">  1        2 0.33637301E+00 0.18096790E+04</pdfrwt>
<pdfrwt beam="2">  1       -2 0.57609654E-01 0.18096790E+04</pdfrwt>
<totfact> 0.13992739E+01</totfact>
</mgrwt>
</event>
<event>
12    1  0.4247462E-008  0.1867144E+04  0.7818608E-02  0.8671386E-01
          2   -1    0    0  501    0  0.00000000000E+00  0.00000000000E+00  0.19052492416E+04  0.19052492416E+04  0.00000000000E+00 0. -1.
         -2   -1    0    0    0  501 -0.00000000000E+00 -0.00000000000E+00 -0.45745011648E+03  0.45745011648E+03  0.00000000000E+00 0.  1.
         23    2    1    2    0    0 -0.68361473445E+03  0.15369937994E+03  0.76602351130E+03  0.10420936526E+04  0.90634189545E+02 0.  0.
        254    2    1    2    0    0  0.68361473445E+03 -0.15369937994E+03  0.68177561381E+03  0.13206057055E+04  0.88782252578E+03 0.  0.
         23    2    4    4    0    0 -0.74764824690E+02 -0.11785192099E+03 -0.12784128815E+03  0.20669426892E+03  0.83067873194E+02 0.  0.
         23    2    4    4    0    0  0.75837955914E+03 -0.35847458954E+02  0.80961690196E+03  0.11139114366E+04  0.94310999252E+02 0.  0.
         13    1    3    3    0    0 -0.52102948811E+03  0.11283744314E+03  0.52265281346E+03  0.74657215290E+03  0.00000000000E+00 0.  1.
        -13    1    3    3    0    0 -0.16258524634E+03  0.40861936801E+02  0.24337069784E+03  0.29552149968E+03  0.00000000000E+00 0. -1.
          3    1    6    6  502    0  0.52631754072E+03  0.79977608722E+01  0.51610430927E+03  0.73718232201E+03  0.00000000000E+00 0. -1.
          3    1    5    5  503    0 -0.24914033963E+02 -0.90167907109E+02 -0.11500240962E+03  0.14824477994E+03  0.00000000000E+00 0. -1.
         -3    1    5    5    0  503 -0.49850790727E+02 -0.27684013879E+02 -0.12838878534E+02  0.58449488985E+02  0.00000000000E+00 0.  1.
         -3    1    6    6    0  502  0.23206201842E+03 -0.43845219827E+02  0.29351259269E+03  0.37672911457E+03  0.00000000000E+00 0.  1.
<mgrwt>
<rscale>  0 0.18671438E+04</rscale>
<asrwt>0</asrwt>
<pdfrwt beam="1">  1        2 0.29311526E+00 0.18671438E+04</pdfrwt>
<pdfrwt beam="2">  1       -2 0.70376942E-01 0.18671438E+04</pdfrwt>
<totfact> 0.13011226E+01</totfact>
</mgrwt>
</event>
<event>
12    1  0.4247462E-008  0.1925785E+04  0.7818608E-02  0.8642127E-01
         -2   -1    0    0    0  501 -0.00000000000E+00  0.00000000000E+00  0.39922302800E+03  0.39922302800E+03  0.00000000000E+00 0.  1.
          2   -1    0    0  501    0  0.00000000000E+00 -0.00000000000E+00 -0.23224149913E+04  0.23224149913E+04  0.00000000000E+00 0. -1.
         23    2    1    2    0    0  0.43876683120E+03  0.18915378161E+03  0.66367269903E+02  0.49117901095E+03  0.92502546000E+02 0.  0.
        254    2    1    2    0    0 -0.43876683120E+03 -0.18915378161E+03 -0.19895592332E+04  0.22304590083E+04  0.88786595849E+03 0.  0.
         23    2    4    4    0    0 -0.41175265467E+02 -0.12004632909E+03 -0.17404064779E+04  0.17474591392E+04  0.92153194020E+02 0.  0.
         23    2    4    4    0    0 -0.39759156574E+03 -0.69107452527E+02 -0.24915275527E+03  0.48299986915E+03  0.91415999665E+02 0.  0.
         13    1    3    3    0    0  0.27941841459E+03  0.14523956276E+03  0.52572740678E+01  0.31495526656E+03  0.00000000000E+00 0. -1.
        -13    1    3    3    0    0  0.15934841661E+03  0.43914218853E+02  0.61109995835E+02  0.17622374438E+03  0.00000000000E+00 0.  1.
          2    1    5    5  502    0 -0.89967969167E+01 -0.51815859603E+01 -0.16932875225E+02  0.19862362680E+02  0.00000000000E+00 0.  1.
          3    1    6    6  503    0 -0.18090334796E+03 -0.20909454278E+00 -0.71787880740E+02  0.19462673209E+03  0.00000000000E+00 0. -1.
         -2    1    5    5    0  502 -0.32178468550E+02 -0.11486474313E+03 -0.17234736027E+04  0.17275967765E+04  0.00000000000E+00 0. -1.
         -3    1    6    6    0  503 -0.21668821778E+03 -0.68898357985E+02 -0.17736487453E+03  0.28837313706E+03  0.00000000000E+00 0.  1.
<mgrwt>
<rscale>  0 0.19257846E+04</rscale>
<asrwt>0</asrwt>
<pdfrwt beam="1">  1        2 0.35729461E+00 0.19257846E+04</pdfrwt>
<pdfrwt beam="2">  1       -2 0.61418928E-01 0.19257846E+04</pdfrwt>
<totfact> 0.10144434E+01</totfact>
</mgrwt>
</event>
<event>
12    1  0.4247462E-008  0.2311346E+04  0.7818608E-02  0.8473461E-01
          1   -1    0    0  501    0  0.00000000000E+00  0.00000000000E+00  0.11650696464E+04  0.11650696464E+04  0.00000000000E+00 0. -1.
         -1   -1    0    0    0  501 -0.00000000000E+00 -0.00000000000E+00 -0.11463525819E+04  0.11463525819E+04  0.00000000000E+00 0.  1.
         23    2    1    2    0    0 -0.13314896596E+03  0.40523916714E+02 -0.96042591760E+03  0.97466411717E+03  0.90450887943E+02 0.  0.
        254    2    1    2    0    0  0.13314896596E+03 -0.40523916714E+02  0.97914298210E+03  0.13367581111E+04  0.89935000592E+03 0.  0.
         23    2    4    4    0    0  0.29743799301E+03  0.15580732038E+03  0.10047561060E+04  0.10632926618E+04  0.91165624896E+02 0.  0.
         23    2    4    4    0    0 -0.16428902705E+03 -0.19633123709E+03 -0.25613123937E+02  0.27346544931E+03  0.92684846543E+02 0.  0.
         13    1    3    3    0    0 -0.35457247088E+02  0.52998841388E+02 -0.28147068490E+03  0.28860325712E+03  0.00000000000E+00 0. -1.
        -13    1    3    3    0    0 -0.97691718871E+02 -0.12474924674E+02 -0.67895523270E+03  0.68606086005E+03  0.00000000000E+00 0.  1.
          2    1    5    5  502    0  0.10283392476E+03  0.17769652594E+02  0.22861560882E+03  0.25130792513E+03  0.00000000000E+00 0.  1.
          4    1    6    6  503    0 -0.57668065040E+02 -0.41030117769E+02 -0.45347046549E+02  0.84056117686E+02  0.00000000000E+00 0. -1.
         -2    1    5    5    0  502  0.19460406826E+03  0.13803766779E+03  0.77614049721E+03  0.81198473663E+03  0.00000000000E+00 0. -1.
         -4    1    6    6    0  503 -0.10662096201E+03 -0.15530111932E+03  0.19733922612E+02  0.18940933162E+03  0.00000000000E+00 0.  1.
<mgrwt>
<rscale>  0 0.23113464E+04</rscale>
<asrwt>0</asrwt>
<pdfrwt beam="1">  1        1 0.17924148E+00 0.23113464E+04</pdfrwt>
<pdfrwt beam="2">  1       -1 0.17636194E+00 0.23113464E+04</pdfrwt>
<totfact> 0.22635174E+00</totfact>
</mgrwt>
</event>
<event>
12    1  0.4247462E-008  0.2059412E+04  0.7818608E-02  0.8579336E-01
         -2   -1    0    0    0  501 -0.00000000000E+00  0.00000000000E+00  0.65908225256E+03  0.65908225256E+03  0.00000000000E+00 0. -1.
          2   -1    0    0  501    0  0.00000000000E+00 -0.00000000000E+00 -0.16087439525E+04  0.16087439525E+04  0.00000000000E+00 0.  1.
         23    2    1    2    0    0 -0.25067649031E+03  0.21692434762E+03 -0.12125975857E+04  0.12608594747E+04  0.97359308227E+02 0.  0.
        254    2    1    2    0    0  0.25067649031E+03 -0.21692434762E+03  0.26293588567E+03  0.10069667304E+04  0.91375699216E+03 0.  0.
         23    2    4    4    0    0  0.11169755334E+03 -0.21404085735E+03  0.58741744188E+03  0.64264263937E+03  0.98185940279E+02 0.  0.
         23    2    4    4    0    0  0.13897893697E+03 -0.28834902641E+01 -0.32448155621E+03  0.36432409100E+03  0.90112726789E+02 0.  0.
         13    1    3    3    0    0 -0.12540399055E+03  0.16735045408E+03 -0.67599759399E+03  0.70760517410E+03  0.00000000000E+00 0.  1.
        -13    1    3    3    0    0 -0.12527249976E+03  0.49573893537E+02 -0.53659999166E+03  0.55325430063E+03  0.00000000000E+00 0. -1.
          3    1    5    5  502    0  0.12772710563E+03 -0.20428365410E+03  0.55742601092E+03  0.60726417851E+03  0.00000000000E+00 0. -1.
          3    1    6    6  503    0  0.12075505484E+03  0.73300777864E+01 -0.17122895881E+03  0.20965416677E+03  0.00000000000E+00 0. -1.
         -3    1    5    5    0  502 -0.16029552289E+02 -0.97572032532E+01  0.29991430960E+02  0.35378460862E+02  0.00000000000E+00 0.  1.
         -3    1    6    6    0  503  0.18223882126E+02 -0.10213568051E+02 -0.15325259740E+03  0.15466992423E+03  0.00000000000E+00 0.  1.
<mgrwt>
<rscale>  0 0.20594121E+04</rscale>
<asrwt>0</asrwt>
<pdfrwt beam="1">  1        2 0.24749906E+00 0.20594121E+04</pdfrwt>
<pdfrwt beam="2">  1       -2 0.10139727E+00 0.20594121E+04</pdfrwt>
<totfact> 0.81485538E+00</totfact>
</mgrwt>
</event>
<event>
12    1  0.4247462E-008  0.1638766E+04  0.7818608E-02  0.8797080E-01
         -1   -1    0    0    0  501 -0.00000000000E+00  0.00000000000E+00  0.34634968037E+03  0.34634968037E+03  0.00000000000E+00 0.  1.
          1   -1    0    0  501    0  0.00000000000E+00 -0.00000000000E+00 -0.19384710267E+04  0.19384710267E+04  0.00000000000E+00 0. -1.
         23    2    1    2    0    0 -0.11361583448E+03 -0.34666743787E+03 -0.11420131991E+04  0.12022932704E+04  0.90708824982E+02 0.  0.
        254    2    1    2    0    0  0.11361583448E+03  0.34666743787E+03 -0.45010814724E+03  0.10825274366E+04  0.91442956891E+03 0.  0.
         23    2    4    4    0    0 -0.30729199682E+03 -0.11524198789E+02 -0.40969653745E+03  0.52081401683E+03  0.93993663907E+02 0.  0.
         23    2    4    4    0    0  0.42090783130E+03  0.35819163666E+03 -0.40411609790E+02  0.56171341979E+03  0.91783531991E+02 0.  0.
         11    1    3    3    0    0  0.14947361690E+02 -0.34503208659E+02 -0.13851941648E+03  0.14353230915E+03  0.00000000000E+00 0.  1.
        -11    1    3    3    0    0 -0.12856319617E+03 -0.31216422921E+03 -0.10034937826E+04  0.10587609613E+04  0.00000000000E+00 0. -1.
          4    1    5    5  502    0 -0.26912816054E+03 -0.40059259199E+02 -0.36676954226E+03  0.45667779470E+03  0.00000000000E+00 0. -1.
          3    1    6    6  503    0  0.32957956209E+03  0.23536884377E+03 -0.70164372710E+01  0.40505605878E+03  0.00000000000E+00 0. -1.
         -4    1    5    5    0  502 -0.38163836282E+02  0.28535060410E+02 -0.42926995191E+02  0.64136222125E+02  0.00000000000E+00 0.  1.
         -3    1    6    6    0  503  0.91328269211E+02  0.12282279289E+03 -0.33395172519E+02  0.15665736101E+03  0.00000000000E+00 0.  1.
<mgrwt>
<rscale>  0 0.16387664E+04</rscale>
<asrwt>0</asrwt>
<pdfrwt beam="1">  1        1 0.29822630E+00 0.16387664E+04</pdfrwt>
<pdfrwt beam="2">  1       -1 0.53284568E-01 0.16387664E+04</pdfrwt>
<totfact> 0.11150928E+01</totfact>
</mgrwt>
</event>
<event>
12    1  0.4247462E-008  0.1681838E+04  0.7818608E-02  0.8771791E-01
         -2   -1    0    0    0  501 -0.00000000000E+00  0.00000000000E+00  0.32616701789E+03  0.32616701789E+03  0.00000000000E+00 0.  1.
          2   -1    0    0  501    0  0.00000000000E+00 -0.00000000000E+00 -0.21680445063E+04  0.21680445063E+04  0.00000000000E+00 0. -1.
         23    2    1    2    0    0 -0.30927158240E+03 -0.97642808326E+02  0.71471761256E+02  0.35170285488E+03  0.11577415850E+03 0.  0.
        254    2    1    2    0    0  0.30927158240E+03  0.97642808326E+02 -0.19133492497E+04  0.21425086693E+04  0.90788491404E+03 0.  0.
         23    2    4    4    0    0  0.18168542958E-01  0.42428216490E+03 -0.52895473647E+03  0.68430066756E+03  0.91972466572E+02 0.  0.
         23    2    4    4    0    0  0.30925341386E+03 -0.32663935657E+03 -0.13843945132E+04  0.14582080018E+04  0.86553249080E+02 0.  0.
         13    1    3    3    0    0 -0.50287101970E+02  0.25389986407E+02  0.23298778610E+02  0.60961275569E+02  0.00000000000E+00 0. -1.
        -13    1    3    3    0    0 -0.25898448043E+03 -0.12303279473E+03  0.48172982646E+02  0.29074157932E+03  0.00000000000E+00 0.  1.
          4    1    6    6  502    0  0.26585559508E+03 -0.24324097599E+03 -0.10160586274E+04  0.10780633117E+04  0.00000000000E+00 0.  1.
          4    1    5    5  503    0  0.14957500996E+01  0.39216622564E+01  0.38090443192E+01  0.56679380589E+01  0.00000000000E+00 0. -1.
         -4    1    5    5    0  503 -0.14775815567E+01  0.42036050264E+03 -0.53276378079E+03  0.67863272950E+03  0.00000000000E+00 0.  1.
         -4    1    6    6    0  502  0.43397818784E+02 -0.83398380584E+02 -0.36833588588E+03  0.38014469007E+03  0.00000000000E+00 0. -1.
<mgrwt>
<rscale>  0 0.16818378E+04</rscale>
<asrwt>0</asrwt>
<pdfrwt beam="1">  1        2 0.33354531E+00 0.16818378E+04</pdfrwt>
<pdfrwt beam="2">  1       -2 0.50179541E-01 0.16818378E+04</pdfrwt>
<totfact> 0.19274837E+01</totfact>
</mgrwt>
</event>
<event>
12    1  0.4247462E-008  0.1869419E+04  0.7818608E-02  0.8670230E-01
          1   -1    0    0  501    0  0.00000000000E+00  0.00000000000E+00  0.23888443544E+04  0.23888443544E+04  0.00000000000E+00 0. -1.
         -1   -1    0    0    0  501 -0.00000000000E+00 -0.00000000000E+00 -0.36573425714E+03  0.36573425714E+03  0.00000000000E+00 0.  1.
         23    2    1    2    0    0 -0.14855756395E+03 -0.50102788172E+03  0.62500216510E+02  0.53410629352E+03  0.90911867491E+02 0.  0.
        254    2    1    2    0    0  0.14855756395E+03  0.50102788172E+03  0.19606098807E+04  0.22204723180E+04  0.90189130304E+03 0.  0.
         23    2    4    4    0    0  0.27868274990E+03  0.46402320858E+03  0.47537396785E+03  0.72632416491E+03  0.92654034048E+02 0.  0.
         23    2    4    4    0    0 -0.13012518595E+03  0.37004673133E+02  0.14852359129E+04  0.14941481531E+04  0.90835436865E+02 0.  0.
         11    1    3    3    0    0 -0.13897972513E+03 -0.40304681276E+03  0.19795509460E+02  0.42679498529E+03  0.00000000000E+00 0.  1.
        -11    1    3    3    0    0 -0.95778388241E+01 -0.97981068960E+02  0.42704707051E+02  0.10731130824E+03  0.00000000000E+00 0. -1.
          2    1    5    5  502    0  0.68218831662E+02  0.20096886482E+03  0.17990589006E+03  0.27822369220E+03  0.00000000000E+00 0.  1.
          3    1    6    6  503    0 -0.39545863809E+02  0.40918305105E+02  0.29331252204E+03  0.29878155670E+03  0.00000000000E+00 0. -1.
         -2    1    5    5    0  502  0.21046391824E+03  0.26305434376E+03  0.29546807778E+03  0.44810047271E+03  0.00000000000E+00 0. -1.
         -3    1    6    6    0  503 -0.90579322140E+02 -0.39136319713E+01  0.11919233909E+04  0.11953665964E+04  0.00000000000E+00 0.  1.
<mgrwt>
<rscale>  0 0.18694194E+04</rscale>
<asrwt>0</asrwt>
<pdfrwt beam="1">  1        1 0.36751451E+00 0.18694194E+04</pdfrwt>
<pdfrwt beam="2">  1       -1 0.56266810E-01 0.18694194E+04</pdfrwt>
<totfact> 0.48510007E+00</totfact>
</mgrwt>
</event>
<event>
12    1  0.4247462E-008  0.2257348E+04  0.7818608E-02  0.8494931E-01
         -1   -1    0    0    0  501 -0.00000000000E+00  0.00000000000E+00  0.50363459319E+03  0.50363459319E+03  0.00000000000E+00 0.  1.
          1   -1    0    0  501    0  0.00000000000E+00 -0.00000000000E+00 -0.25294225190E+04  0.25294225190E+04  0.00000000000E+00 0. -1.
         23    2    1    2    0    0  0.75501114882E+03  0.42129963651E+03 -0.31673301737E+03  0.92537967979E+03  0.92046341095E+02 0.  0.
        254    2    1    2    0    0 -0.75501114882E+03 -0.42129963651E+03 -0.17090549084E+04  0.21076774324E+04  0.87971601122E+03 0.  0.
         23    2    4    4    0    0 -0.47390080841E+03  0.43905953054E+02 -0.13873335532E+04  0.14694865062E+04  0.90479252529E+02 0.  0.
         23    2    4    4    0    0 -0.28111034041E+03 -0.46520558956E+03 -0.32172135524E+03  0.63819092620E+03  0.91344205147E+02 0.  0.
         13    1    3    3    0    0  0.72630205981E+03  0.42288547077E+03 -0.30187471534E+03  0.89301463999E+03  0.00000000000E+00 0.  1.
        -13    1    3    3    0    0  0.28709089011E+02 -0.15858342596E+01 -0.14858302032E+02  0.32365039802E+02  0.00000000000E+00 0. -1.
          2    1    5    5  502    0 -0.11678699430E+03 -0.12260059237E+02 -0.25261592584E+03  0.27857551414E+03  0.00000000000E+00 0.  1.
          2    1    6    6  503    0 -0.16909606604E+02 -0.68206685655E+02 -0.69021476901E+02  0.98498990031E+02  0.00000000000E+00 0.  1.
         -2    1    5    5    0  502 -0.35711381411E+03  0.56166012291E+02 -0.11347176274E+04  0.11909109921E+04  0.00000000000E+00 0. -1.
         -2    1    6    6    0  503 -0.26420073381E+03 -0.39699890391E+03 -0.25269987834E+03  0.53969193617E+03  0.00000000000E+00 0. -1.
<mgrwt>
<rscale>  0 0.22573477E+04</rscale>
<asrwt>0</asrwt>
<pdfrwt beam="1">  1        1 0.38914193E+00 0.22573477E+04</pdfrwt>
<pdfrwt beam="2">  1       -1 0.77482245E-01 0.22573477E+04</pdfrwt>
<totfact> 0.19574183E+00</totfact>
</mgrwt>
</event>
<event>
12    1  0.4247462E-008  0.1315324E+04  0.7818608E-02  0.9017500E-01
         -2   -1    0    0    0  501 -0.00000000000E+00  0.00000000000E+00  0.15802036531E+03  0.15802036531E+03  0.00000000000E+00 0. -1.
          2   -1    0    0  501    0  0.00000000000E+00 -0.00000000000E+00 -0.27371118899E+04  0.27371118899E+04  0.00000000000E+00 0.  1.
         23    2    1    2    0    0 -0.13871257054E+03 -0.34014081160E+02 -0.17258606183E+01  0.16923599180E+03  0.90772833957E+02 0.  0.
        254    2    1    2    0    0  0.13871257054E+03  0.34014081160E+02 -0.25773656640E+04  0.27258962635E+04  0.87595578549E+03 0.  0.
         23    2    4    4    0    0  0.29089765010E+03  0.34539211288E+03 -0.90675769322E+03  0.10170703474E+04  0.91134092384E+02 0.  0.
         23    2    4    4    0    0 -0.15218507956E+03 -0.31137803172E+03 -0.16706079708E+04  0.17088259161E+04  0.95070722907E+02 0.  0.
         11    1    3    3    0    0 -0.12226410844E+03 -0.56491017132E+02  0.16884461324E+02  0.13573810174E+03  0.00000000000E+00 0. -1.
        -11    1    3    3    0    0 -0.16448462099E+02  0.22476935972E+02 -0.18610321943E+02  0.33497890066E+02  0.00000000000E+00 0.  1.
          1    1    5    5  502    0  0.92930214415E+02  0.11063500105E+03 -0.39064246572E+03  0.41650649963E+03  0.00000000000E+00 0. -1.
          3    1    6    6  503    0 -0.13439251018E+03 -0.31372997243E+03 -0.15966646877E+04  0.16327357310E+04  0.00000000000E+00 0. -1.
         -1    1    5    5    0  502  0.19796743568E+03  0.23475711183E+03 -0.51611522749E+03  0.60056384773E+03  0.00000000000E+00 0.  1.
         -3    1    6    6    0  503 -0.17792569381E+02  0.23519407070E+01 -0.73943283075E+02  0.76090185058E+02  0.00000000000E+00 0.  1.
<mgrwt>
<rscale>  0 0.13153242E+04</rscale>
<asrwt>0</asrwt>
<pdfrwt beam="1">  1        2 0.42109415E+00 0.13153242E+04</pdfrwt>
<pdfrwt beam="2">  1       -2 0.24310825E-01 0.13153242E+04</pdfrwt>
<totfact> 0.37558976E+01</totfact>
</mgrwt>
</event>
<event>
12    1  0.4247462E-008  0.1359112E+04  0.7818608E-02  0.8983959E-01
          2   -1    0    0  501    0  0.00000000000E+00  0.00000000000E+00  0.59424370616E+03  0.59424370616E+03  0.00000000000E+00 0. -1.
         -2   -1    0    0    0  501 -0.00000000000E+00 -0.00000000000E+00 -0.77711657745E+03  0.77711657745E+03  0.00000000000E+00 0.  1.
         23    2    1    2    0    0  0.68171796132E+02 -0.36064642485E+03 -0.71899560224E+02  0.38475810789E+03  0.90310670920E+02 0.  0.
        254    2    1    2    0    0 -0.68171796132E+02  0.36064642485E+03 -0.11097331107E+03  0.98660217572E+03  0.90904100008E+03 0.  0.
         23    2    4    4    0    0 -0.33582396479E+03  0.39000548840E+03 -0.33863668102E+03  0.62274832122E+03  0.90877134345E+02 0.  0.
         23    2    4    4    0    0  0.26765216865E+03 -0.29359063552E+02  0.22766336995E+03  0.36385385450E+03  0.89774046465E+02 0.  0.
         11    1    3    3    0    0  0.78278429822E+02 -0.29892089473E+03 -0.32195601529E+02  0.31067309288E+03  0.00000000000E+00 0. -1.
        -11    1    3    3    0    0 -0.10106633690E+02 -0.61725530121E+02 -0.39703958694E+02  0.74085015012E+02  0.00000000000E+00 0.  1.
          2    1    5    5  502    0 -0.25365636646E+03  0.23188205140E+03 -0.23875186090E+03  0.41846539772E+03  0.00000000000E+00 0. -1.
          1    1    6    6  503    0  0.13300636801E+03 -0.56525144703E+02  0.13797158135E+03  0.19980476264E+03  0.00000000000E+00 0. -1.
         -2    1    5    5    0  502 -0.82167598327E+02  0.15812343701E+03 -0.99884820123E+02  0.20428292351E+03  0.00000000000E+00 0.  1.
         -1    1    6    6    0  503  0.13464580065E+03  0.27166081152E+02  0.89691788603E+02  0.16404909186E+03  0.00000000000E+00 0.  1.
<mgrwt>
<rscale>  0 0.13591124E+04</rscale>
<asrwt>0</asrwt>
<pdfrwt beam="1">  1        2 0.91422109E-01 0.13591124E+04</pdfrwt>
<pdfrwt beam="2">  1       -2 0.11955640E+00 0.13591124E+04</pdfrwt>
<totfact> 0.26244624E+01</totfact>
</mgrwt>
</event>
<event>
12    1  0.4247462E-008  0.3012008E+04  0.7818608E-02  0.8240310E-01
         -2   -1    0    0    0  501 -0.00000000000E+00  0.00000000000E+00  0.18921423551E+04  0.18921423551E+04  0.00000000000E+00 0.  1.
          2   -1    0    0  501    0  0.00000000000E+00 -0.00000000000E+00 -0.11986669924E+04  0.11986669924E+04  0.00000000000E+00 0. -1.
         23    2    1    2    0    0 -0.84360280404E+03  0.23714157422E+03  0.13924677236E+04  0.16486576445E+04  0.10584824180E+03 0.  0.
        254    2    1    2    0    0  0.84360280404E+03 -0.23714157422E+03 -0.69899236082E+03  0.14421517030E+04  0.90736398256E+03 0.  0.
         23    2    4    4    0    0  0.74381656692E+03 -0.14823355901E+03 -0.41138664372E+02  0.76484783405E+03  0.89797251107E+02 0.  0.
         23    2    4    4    0    0  0.99786237122E+02 -0.88908015208E+02 -0.65785369644E+03  0.67730386898E+03  0.90039528638E+02 0.  0.
         13    1    3    3    0    0 -0.18236389688E+03  0.96288895693E+02  0.34603456700E+03  0.40282510334E+03  0.00000000000E+00 0. -1.
        -13    1    3    3    0    0 -0.66123890715E+03  0.14085267853E+03  0.10464331566E+04  0.12458325412E+04  0.00000000000E+00 0.  1.
          1    1    5    5  502    0  0.69175775922E+03 -0.13909489871E+03 -0.14716969492E+02  0.70575688270E+03  0.00000000000E+00 0. -1.
          1    1    6    6  503    0  0.25239130896E+02 -0.81275818719E+02 -0.38910052732E+03  0.39829887371E+03  0.00000000000E+00 0. -1.
         -1    1    5    5    0  502  0.52058807692E+02 -0.91386603033E+01 -0.26421694880E+02  0.59090951344E+02  0.00000000000E+00 0.  1.
         -1    1    6    6    0  503  0.74547106226E+02 -0.76321964889E+01 -0.26875316913E+03  0.27900499527E+03  0.00000000000E+00 0.  1.
<mgrwt>
<rscale>  0 0.30120084E+04</rscale>
<asrwt>0</asrwt>
<pdfrwt beam="1">  1        2 0.18441031E+00 0.30120084E+04</pdfrwt>
<pdfrwt beam="2">  1       -2 0.29109883E+00 0.30120084E+04</pdfrwt>
<totfact> 0.58461870E-01</totfact>
</mgrwt>
</event>
<event>
12    1  0.4247462E-008  0.2269078E+04  0.7818608E-02  0.8490214E-01
         -1   -1    0    0    0  501 -0.00000000000E+00  0.00000000000E+00  0.92992897035E+03  0.92992897035E+03  0.00000000000E+00 0.  1.
          1   -1    0    0  501    0  0.00000000000E+00 -0.00000000000E+00 -0.13841685304E+04  0.13841685304E+04  0.00000000000E+00 0. -1.
         23    2    1    2    0    0 -0.51145077745E+03 -0.51360478007E+02  0.62445365459E+03  0.81366597927E+03  0.88826587430E+02 0.  0.
        254    2    1    2    0    0  0.51145077745E+03  0.51360478007E+02 -0.10786932146E+04  0.15004315215E+04  0.90746675031E+03 0.  0.
         23    2    4    4    0    0  0.33434966265E+03 -0.18161313640E+03 -0.12474987269E+02  0.39091685528E+03  0.88810664958E+02 0.  0.
         23    2    4    4    0    0  0.17710111480E+03  0.23297361441E+03 -0.10662182274E+04  0.11095146662E+04  0.92520139833E+02 0.  0.
         13    1    3    3    0    0 -0.42789946193E+03 -0.75789590176E+02  0.52360722639E+03  0.68044583842E+03  0.00000000000E+00 0.  1.
        -13    1    3    3    0    0 -0.83551315516E+02  0.24429112170E+02  0.10084642820E+03  0.13322014085E+03  0.00000000000E+00 0. -1.
          4    1    6    6  502    0 -0.20794104819E+01 -0.68979555605E+01 -0.18434670227E+02  0.19792493659E+02  0.00000000000E+00 0.  1.
          4    1    5    5  503    0  0.26927038170E+03 -0.17699122608E+03  0.86272563805E+01  0.32234587344E+03  0.00000000000E+00 0. -1.
         -4    1    5    5    0  503  0.65079280946E+02 -0.46219103165E+01 -0.21102243650E+02  0.68570981840E+02  0.00000000000E+00 0.  1.
         -4    1    6    6    0  502  0.17918052528E+03  0.23987156997E+03 -0.10477835571E+04  0.10897221726E+04  0.00000000000E+00 0. -1.
<mgrwt>
<rscale>  0 0.22690777E+04</rscale>
<asrwt>0</asrwt>
<pdfrwt beam="1">  1        1 0.21294901E+00 0.22690777E+04</pdfrwt>
<pdfrwt beam="2">  1       -1 0.14306600E+00 0.22690777E+04</pdfrwt>
<totfact> 0.28286848E+00</totfact>
</mgrwt>
</event>
<event>
12    1  0.4247462E-008  0.2716690E+04  0.7818608E-02  0.8329610E-01
         -2   -1    0    0    0  501 -0.00000000000E+00  0.00000000000E+00  0.96873665267E+03  0.96873665267E+03  0.00000000000E+00 0.  1.
          2   -1    0    0  501    0  0.00000000000E+00 -0.00000000000E+00 -0.19046466317E+04  0.19046466317E+04  0.00000000000E+00 0. -1.
         23    2    1    2    0    0 -0.10277070709E+03 -0.30035283904E+03 -0.16488647120E+04  0.16814160643E+04  0.87358437703E+02 0.  0.
        254    2    1    2    0    0  0.10277070709E+03  0.30035283904E+03  0.71295473291E+03  0.11919672201E+04  0.90094825409E+03 0.  0.
         23    2    4    4    0    0 -0.10325016487E+03 -0.22988819299E+03 -0.77269331788E+01  0.26846986741E+03  0.92234409991E+02 0.  0.
         23    2    4    4    0    0  0.20602087197E+03  0.53024103204E+03  0.72068166609E+03  0.92349735273E+03  0.99323435909E+02 0.  0.
         11    1    3    3    0    0 -0.70363168370E+02 -0.10449402501E+03 -0.50658796262E+03  0.52201660950E+03  0.00000000000E+00 0. -1.
        -11    1    3    3    0    0 -0.32407538723E+02 -0.19585881403E+03 -0.11422767494E+04  0.11593994548E+04  0.00000000000E+00 0.  1.
          1    1    5    5  502    0 -0.15715485426E+02 -0.13181474768E+03  0.19645685564E+02  0.13419410251E+03  0.00000000000E+00 0. -1.
          3    1    6    6  503    0  0.82128655697E+02  0.25883204798E+03  0.41825812197E+03  0.49867725208E+03  0.00000000000E+00 0. -1.
         -1    1    5    5    0  502 -0.87534679447E+02 -0.98073445313E+02 -0.27372618743E+02  0.13427576490E+03  0.00000000000E+00 0.  1.
         -3    1    6    6    0  503  0.12389221627E+03  0.27140898406E+03  0.30242354412E+03  0.42482010065E+03  0.00000000000E+00 0.  1.
<mgrwt>
<rscale>  0 0.27166899E+04</rscale>
<asrwt>0</asrwt>
<pdfrwt beam="1">  1        2 0.29302256E+00 0.27166899E+04</pdfrwt>
<pdfrwt beam="2">  1       -2 0.14903641E+00 0.27166899E+04</pdfrwt>
<totfact> 0.20158064E+00</totfact>
</mgrwt>
</event>
<event>
12    1  0.4247462E-008  0.1713076E+04  0.7818608E-02  0.8753942E-01
          2   -1    0    0  501    0  0.00000000000E+00  0.00000000000E+00  0.61999109668E+03  0.61999109668E+03  0.00000000000E+00 0. -1.
         -2   -1    0    0    0  501 -0.00000000000E+00 -0.00000000000E+00 -0.11833349372E+04  0.11833349372E+04  0.00000000000E+00 0.  1.
         23    2    1    2    0    0  0.50312007951E+03  0.34391694814E+03 -0.11422187400E+03  0.62610320406E+03  0.86890183596E+02 0.  0.
        254    2    1    2    0    0 -0.50312007951E+03 -0.34391694814E+03 -0.44912196652E+03  0.11772228298E+04  0.90151781381E+03 0.  0.
         23    2    4    4    0    0 -0.67705442559E+03 -0.30912129084E+03 -0.57171797722E+03  0.94295611110E+03  0.91357070382E+02 0.  0.
         23    2    4    4    0    0  0.17393434608E+03 -0.34795657305E+02  0.12259601070E+03  0.23426671873E+03  0.91581762095E+02 0.  0.
         13    1    3    3    0    0  0.19896456088E+01  0.24265962558E-01 -0.90831003499E+01  0.92984939884E+01  0.00000000000E+00 0. -1.
        -13    1    3    3    0    0  0.50113043390E+03  0.34389268218E+03 -0.10513877365E+03  0.61680471007E+03  0.00000000000E+00 0.  1.
          4    1    5    5  502    0 -0.34094898322E+03 -0.20550751476E+03 -0.29753520686E+03  0.49699773350E+03  0.00000000000E+00 0. -1.
          4    1    6    6  503    0  0.75271332944E+02  0.23333068913E+02  0.79423859561E+02  0.11188545542E+03  0.00000000000E+00 0. -1.
         -4    1    5    5    0  502 -0.33610544238E+03 -0.10361377608E+03 -0.27418277036E+03  0.44595837760E+03  0.00000000000E+00 0.  1.
         -4    1    6    6    0  503  0.98663013139E+02 -0.58128726218E+02  0.43172151142E+02  0.12238126330E+03  0.00000000000E+00 0.  1.
<mgrwt>
<rscale>  0 0.17130757E+04</rscale>
<asrwt>0</asrwt>
<pdfrwt beam="1">  1        2 0.95383247E-01 0.17130757E+04</pdfrwt>
<pdfrwt beam="2">  1       -2 0.18205153E+00 0.17130757E+04</pdfrwt>
<totfact> 0.79441449E+00</totfact>
</mgrwt>
</event>
<event>
12    1  0.4247462E-008  0.2315755E+04  0.7818608E-02  0.8471735E-01
          3   -1    0    0  501    0  0.00000000000E+00  0.00000000000E+00  0.69705943364E+03  0.69705943364E+03  0.00000000000E+00 0. -1.
         -3   -1    0    0    0  501 -0.00000000000E+00 -0.00000000000E+00 -0.19233378236E+04  0.19233378236E+04  0.00000000000E+00 0.  1.
         23    2    1    2    0    0 -0.25055990279E+03 -0.93297657349E+03 -0.70257452442E+03  0.11980467727E+04  0.92084502831E+02 0.  0.
        254    2    1    2    0    0  0.25055990279E+03  0.93297657349E+03 -0.52370386558E+03  0.14223504846E+04  0.90310000032E+03 0.  0.
         23    2    4    4    0    0 -0.47895703811E+02  0.99814557996E+03 -0.41630818722E+03  0.10860032340E+04  0.86613626172E+02 0.  0.
         23    2    4    4    0    0  0.29845560660E+03 -0.65169006472E+02 -0.10739567836E+03  0.33634725059E+03  0.90955443657E+02 0.  0.
         11    1    3    3    0    0 -0.43109619311E+02 -0.23198964472E+03 -0.12951885540E+03  0.26917051926E+03  0.00000000000E+00 0.  1.
        -11    1    3    3    0    0 -0.20745028348E+03 -0.70098692877E+03 -0.57305566902E+03  0.92887625344E+03  0.00000000000E+00 0. -1.
          1    1    5    5  502    0 -0.63541543881E+02  0.90754449475E+03 -0.36144733312E+03  0.97893754263E+03  0.00000000000E+00 0. -1.
          3    1    6    6  503    0  0.17156745477E+03 -0.31380293888E+01 -0.90793768520E+02  0.19413589871E+03  0.00000000000E+00 0. -1.
         -1    1    5    5    0  502  0.15645840070E+02  0.90601085214E+02 -0.54860854095E+02  0.10706569136E+03  0.00000000000E+00 0.  1.
         -3    1    6    6    0  503  0.12688815184E+03 -0.62030977084E+02 -0.16601909838E+02  0.14221135188E+03  0.00000000000E+00 0.  1.
<mgrwt>
<rscale>  0 0.23157554E+04</rscale>
<asrwt>0</asrwt>
<pdfrwt beam="1">  1        3 0.10723991E+00 0.23157554E+04</pdfrwt>
<pdfrwt beam="2">  1       -3 0.29589812E+00 0.23157554E+04</pdfrwt>
<totfact> 0.70207699E-02</totfact>
</mgrwt>
</event>
<event>
12    1  0.4247462E-008  0.1371310E+04  0.7818608E-02  0.8974852E-01
          1   -1    0    0  501    0  0.00000000000E+00  0.00000000000E+00  0.35584601631E+04  0.35584601631E+04  0.00000000000E+00 0. -1.
         -1   -1    0    0    0  501 -0.00000000000E+00 -0.00000000000E+00 -0.13211409485E+03  0.13211409485E+03  0.00000000000E+00 0.  1.
         23    2    1    2    0    0 -0.23554512037E+03 -0.23733206297E+03  0.49104946156E+03  0.60100356017E+03  0.90926859627E+02 0.  0.
        254    2    1    2    0    0  0.23554512037E+03  0.23733206297E+03  0.29352966066E+04  0.30895706977E+04  0.90425268342E+03 0.  0.
         23    2    4    4    0    0  0.30835795404E+03  0.38566921436E+02  0.28031410070E+04  0.28218319725E+04  0.92542641024E+02 0.  0.
         23    2    4    4    0    0 -0.72812833672E+02  0.19876514154E+03  0.13215559960E+03  0.26773872523E+03  0.97003258944E+02 0.  0.
         13    1    3    3    0    0 -0.64648156038E+02 -0.12523626086E+03  0.22530703949E+03  0.26575697011E+03  0.00000000000E+00 0. -1.
        -13    1    3    3    0    0 -0.17089696434E+03 -0.11209580211E+03  0.26574242206E+03  0.33524659007E+03  0.00000000000E+00 0.  1.
          1    1    5    5  502    0  0.25805330030E+03 -0.35180545930E+01  0.23001436177E+04  0.23145765368E+04  0.00000000000E+00 0. -1.
          3    1    6    6  503    0 -0.80644754939E+02  0.17286983411E+03  0.75871194256E+02  0.20529002450E+03  0.00000000000E+00 0. -1.
         -1    1    5    5    0  502  0.50304653749E+02  0.42084976029E+02  0.50299738931E+03  0.50725543570E+03  0.00000000000E+00 0.  1.
         -3    1    6    6    0  503  0.78319212670E+01  0.25895307429E+02  0.56284405343E+02  0.62448700727E+02  0.00000000000E+00 0.  1.
<mgrwt>
<rscale>  0 0.13713099E+04</rscale>
<asrwt>0</asrwt>
<pdfrwt beam="1">  1        1 0.54745534E+00 0.13713099E+04</pdfrwt>
<pdfrwt beam="2">  1       -1 0.20325248E-01 0.13713099E+04</pdfrwt>
<totfact> 0.44412917E+00</totfact>
</mgrwt>
</event>
<event>
12    1  0.4247462E-008  0.1533904E+04  0.7818608E-02  0.8862215E-01
         -2   -1    0    0    0  501 -0.00000000000E+00  0.00000000000E+00  0.48812007391E+03  0.48812007391E+03  0.00000000000E+00 0. -1.
          2   -1    0    0  501    0  0.00000000000E+00 -0.00000000000E+00 -0.12050625454E+04  0.12050625454E+04  0.00000000000E+00 0.  1.
         23    2    1    2    0    0 -0.11239063894E+03  0.47683382032E+03 -0.12700757465E+03  0.51421086512E+03  0.90993086951E+02 0.  0.
        254    2    1    2    0    0  0.11239063894E+03 -0.47683382032E+03 -0.58993489681E+03  0.11789717542E+04  0.89551608959E+03 0.  0.
         23    2    4    4    0    0 -0.20614916737E+03 -0.61868192900E+03 -0.43136947679E+03  0.78729849670E+03  0.92165551756E+02 0.  0.
         23    2    4    4    0    0  0.31853980632E+03  0.14184810868E+03 -0.15856542002E+03  0.39167325746E+03  0.81709571265E+02 0.  0.
         13    1    3    3    0    0 -0.98213317384E+02  0.27518285470E+03 -0.43125209581E+02  0.29534935743E+03  0.00000000000E+00 0. -1.
        -13    1    3    3    0    0 -0.14177321561E+02  0.20165096561E+03 -0.83882365069E+02  0.21886150769E+03  0.00000000000E+00 0.  1.
          2    1    5    5  502    0 -0.18142203329E+02 -0.36515393058E+02 -0.38629024453E+01  0.40956507262E+02  0.00000000000E+00 0. -1.
          1    1    6    6  503    0  0.16234393518E+03  0.34138836227E+02 -0.50931465364E+02  0.17353681912E+03  0.00000000000E+00 0. -1.
         -2    1    5    5    0  502 -0.18800696404E+03 -0.58216653594E+03 -0.42750657434E+03  0.74634198944E+03  0.00000000000E+00 0.  1.
         -1    1    6    6    0  503  0.15619587114E+03  0.10770927245E+03 -0.10763395466E+03  0.21813643834E+03  0.00000000000E+00 0.  1.
<mgrwt>
<rscale>  0 0.15339038E+04</rscale>
<asrwt>0</asrwt>
<pdfrwt beam="1">  1        2 0.18539424E+00 0.15339038E+04</pdfrwt>
<pdfrwt beam="2">  1       -2 0.75095396E-01 0.15339038E+04</pdfrwt>
<totfact> 0.28867262E+01</totfact>
</mgrwt>
</event>
<event>
12    1  0.4247462E-008  0.2141888E+04  0.7818608E-02  0.8543013E-01
          2   -1    0    0  501    0  0.00000000000E+00  0.00000000000E+00  0.30578941356E+04  0.30578941356E+04  0.00000000000E+00 0. -1.
         -2   -1    0    0    0  501 -0.00000000000E+00 -0.00000000000E+00 -0.37506877656E+03  0.37506877656E+03  0.00000000000E+00 0.  1.
         23    2    1    2    0    0 -0.85863450704E+03 -0.11681994348E+03  0.88387472314E+03  0.12412801775E+04  0.92961481712E+02 0.  0.
        254    2    1    2    0    0  0.85863450704E+03  0.11681994348E+03  0.17989506359E+04  0.21916827346E+04  0.90352072633E+03 0.  0.
         23    2    4    4    0    0  0.47553594457E+03 -0.25018396558E+03  0.35496719417E+03  0.65067066419E+03  0.92973937663E+02 0.  0.
         23    2    4    4    0    0  0.38309856246E+03  0.36700390907E+03  0.14439834417E+04  0.15410120704E+04  0.90408204074E+02 0.  0.
         13    1    3    3    0    0 -0.66989204257E+03 -0.82677573954E+02  0.73939490974E+03  0.10011472232E+04  0.00000000000E+00 0.  1.
        -13    1    3    3    0    0 -0.18874246446E+03 -0.34142369529E+02  0.14447981340E+03  0.24013295436E+03  0.00000000000E+00 0. -1.
          1    1    5    5  502    0  0.29629123374E+03 -0.11520653226E+03  0.17399216142E+03  0.36240076228E+03  0.00000000000E+00 0. -1.
          3    1    6    6  503    0  0.32175083399E+03  0.29719833110E+03  0.12753245986E+04  0.13484447631E+04  0.00000000000E+00 0. -1.
         -1    1    5    5    0  502  0.17924471084E+03 -0.13497743332E+03  0.18097503275E+03  0.28826990191E+03  0.00000000000E+00 0.  1.
         -3    1    6    6    0  503  0.61347728472E+02  0.69805577963E+02  0.16865884307E+03  0.19256730732E+03  0.00000000000E+00 0.  1.
<mgrwt>
<rscale>  0 0.21418876E+04</rscale>
<asrwt>0</asrwt>
<pdfrwt beam="1">  1        2 0.47044524E+00 0.21418876E+04</pdfrwt>
<pdfrwt beam="2">  1       -2 0.57702891E-01 0.21418876E+04</pdfrwt>
<totfact> 0.41415571E+00</totfact>
</mgrwt>
</event>
<event>
12    1  0.4247462E-008  0.1960043E+04  0.7818608E-02  0.8625533E-01
         -2   -1    0    0    0  501 -0.00000000000E+00  0.00000000000E+00  0.73655759352E+03  0.73655759352E+03  0.00000000000E+00 0.  1.
          2   -1    0    0  501    0  0.00000000000E+00 -0.00000000000E+00 -0.13039609496E+04  0.13039609496E+04  0.00000000000E+00 0. -1.
         23    2    1    2    0    0  0.39578252099E+03 -0.50947861315E+03  0.21548757172E+03  0.68626981700E+03  0.91209138681E+02 0.  0.
        254    2    1    2    0    0 -0.39578252099E+03  0.50947861315E+03 -0.78289092780E+03  0.13542487261E+04  0.89713942406E+03 0.  0.
         23    2    4    4    0    0 -0.31035205545E+03  0.55193832144E+03 -0.86250492082E+02  0.64523822349E+03  0.89100553750E+02 0.  0.
         23    2    4    4    0    0 -0.85430465543E+02 -0.42459708293E+02 -0.69664043572E+03  0.70901050263E+03  0.91031889398E+02 0.  0.
         11    1    3    3    0    0  0.15353411830E+02 -0.22090208068E-01  0.16100811348E+01  0.15437619766E+02  0.00000000000E+00 0.  1.
        -11    1    3    3    0    0  0.38042910916E+03 -0.50945652294E+03  0.21387749059E+03  0.67083219723E+03  0.00000000000E+00 0. -1.
          2    1    5    5  502    0 -0.83418319572E+02  0.18000347342E+03  0.11432562171E+02  0.19872234389E+03  0.00000000000E+00 0. -1.
          1    1    6    6  503    0  0.12917622053E+02  0.13384366163E+02 -0.11140210217E+03  0.11294438714E+03  0.00000000000E+00 0. -1.
         -2    1    5    5    0  502 -0.22693373588E+03  0.37193484802E+03 -0.97683054253E+02  0.44651587961E+03  0.00000000000E+00 0.  1.
         -1    1    6    6    0  503 -0.98348087596E+02 -0.55844074456E+02 -0.58523833355E+03  0.59606611549E+03  0.00000000000E+00 0.  1.
<mgrwt>
<rscale>  0 0.19600432E+04</rscale>
<asrwt>0</asrwt>
<pdfrwt beam="1">  1        2 0.20060938E+00 0.19600432E+04</pdfrwt>
<pdfrwt beam="2">  1       -2 0.11331655E+00 0.19600432E+04</pdfrwt>
<totfact> 0.93700776E+00</totfact>
</mgrwt>
</event>
<event>
12    1  0.4247462E-008  0.2389687E+04  0.7818608E-02  0.8443375E-01
         -2   -1    0    0    0  501 -0.00000000000E+00  0.00000000000E+00  0.57447800980E+03  0.57447800980E+03  0.00000000000E+00 0.  1.
          2   -1    0    0  501    0  0.00000000000E+00 -0.00000000000E+00 -0.24851274584E+04  0.24851274584E+04  0.00000000000E+00 0. -1.
         23    2    1    2    0    0  0.91364202546E+03 -0.80464275781E+02 -0.23415019485E+03  0.95084246211E+03  0.89770951012E+02 0.  0.
        254    2    1    2    0    0 -0.91364202546E+03  0.80464275781E+02 -0.16764992538E+04  0.21087630061E+04  0.89163637077E+03 0.  0.
         23    2    4    4    0    0 -0.85204865506E+03 -0.25898976485E+03 -0.98726362436E+03  0.13328539945E+04  0.93529127578E+02 0.  0.
         23    2    4    4    0    0 -0.61593370397E+02  0.33945404063E+03 -0.68923562939E+03  0.77590901162E+03  0.89253865552E+02 0.  0.
         11    1    3    3    0    0  0.91098454209E+03 -0.79923057124E+02 -0.22563881174E+03  0.94190944594E+03  0.00000000000E+00 0.  1.
        -11    1    3    3    0    0  0.26574833690E+01 -0.54121865677E+00 -0.85113831101E+01  0.89330161725E+01  0.00000000000E+00 0. -1.
          4    1    5    5  502    0 -0.53260325708E+03 -0.20758868122E+03 -0.64564863075E+03  0.86233487950E+03  0.00000000000E+00 0. -1.
          1    1    6    6  503    0 -0.23737108320E+02  0.22462755124E+03 -0.35805897016E+03  0.42335235112E+03  0.00000000000E+00 0. -1.
         -4    1    5    5    0  502 -0.31944539798E+03 -0.51401083637E+02 -0.34161499362E+03  0.47051911497E+03  0.00000000000E+00 0.  1.
         -1    1    6    6    0  503 -0.37856262077E+02  0.11482648939E+03 -0.33117665923E+03  0.35255666050E+03  0.00000000000E+00 0.  1.
<mgrwt>
<rscale>  0 0.23896871E+04</rscale>
<asrwt>0</asrwt>
<pdfrwt beam="1">  1        2 0.38232730E+00 0.23896871E+04</pdfrwt>
<pdfrwt beam="2">  1       -2 0.88381232E-01 0.23896871E+04</pdfrwt>
<totfact> 0.35212226E+00</totfact>
</mgrwt>
</event>
<event>
12    1  0.4247462E-008  0.1992009E+04  0.7818608E-02  0.8610366E-01
         -1   -1    0    0    0  501 -0.00000000000E+00  0.00000000000E+00  0.93493177373E+03  0.93493177373E+03  0.00000000000E+00 0. -1.
          1   -1    0    0  501    0  0.00000000000E+00 -0.00000000000E+00 -0.10610668779E+04  0.10610668779E+04  0.00000000000E+00 0.  1.
         23    2    1    2    0    0 -0.13350077812E+03  0.56688633157E+03 -0.58602548473E+03  0.83168306832E+03  0.95332506050E+02 0.  0.
        254    2    1    2    0    0  0.13350077812E+03 -0.56688633157E+03  0.45989038060E+03  0.11643155833E+04  0.89718952546E+03 0.  0.
         23    2    4    4    0    0 -0.64555344347E+02  0.13498186523E+03 -0.13154980179E+03  0.22103629382E+03  0.95729809422E+02 0.  0.
         23    2    4    4    0    0  0.19805612247E+03 -0.70186819680E+03  0.59144018239E+03  0.94327928944E+03  0.90161717037E+02 0.  0.
         13    1    3    3    0    0 -0.13170622018E+03  0.41862625247E+03 -0.47311016377E+03  0.64531209098E+03  0.00000000000E+00 0.  1.
        -13    1    3    3    0    0 -0.17945579391E+01  0.14826007910E+03 -0.11291532095E+03  0.18637097735E+03  0.00000000000E+00 0. -1.
          2    1    5    5  502    0 -0.13685981460E+02  0.72757782076E+01 -0.67727214625E+02  0.69478188217E+02  0.00000000000E+00 0. -1.
          3    1    6    6  503    0  0.16158020270E+02 -0.33559085412E+02  0.90083860598E+01  0.38320292955E+02  0.00000000000E+00 0. -1.
         -2    1    5    5    0  502 -0.50869362887E+02  0.12770608702E+03 -0.63822587166E+02  0.15155810561E+03  0.00000000000E+00 0.  1.
         -3    1    6    6    0  503  0.18189810220E+03 -0.66830911139E+03  0.58243179633E+03  0.90495899648E+03  0.00000000000E+00 0.  1.
<mgrwt>
<rscale>  0 0.19920092E+04</rscale>
<asrwt>0</asrwt>
<pdfrwt beam="1">  1        1 0.16324106E+00 0.19920092E+04</pdfrwt>
<pdfrwt beam="2">  1       -1 0.14383566E+00 0.19920092E+04</pdfrwt>
<totfact> 0.49182308E+00</totfact>
</mgrwt>
</event>
<event>
12    1  0.4247462E-008  0.1498903E+04  0.7818608E-02  0.8885183E-01
          3   -1    0    0  501    0  0.00000000000E+00  0.00000000000E+00  0.42516237706E+03  0.42516237706E+03  0.00000000000E+00 0. -1.
         -3   -1    0    0    0  501 -0.00000000000E+00 -0.00000000000E+00 -0.13210893946E+04  0.13210893946E+04  0.00000000000E+00 0.  1.
         23    2    1    2    0    0  0.26628824036E+03 -0.38931964289E+03 -0.25804779740E+03  0.54521962456E+03  0.90534866035E+02 0.  0.
        254    2    1    2    0    0 -0.26628824036E+03  0.38931964289E+03 -0.63787922012E+03  0.12010321471E+04  0.90172562766E+03 0.  0.
         23    2    4    4    0    0 -0.38352073247E+03  0.13803555454E+03  0.80543124644E+02  0.42561920535E+03  0.92317639045E+02 0.  0.
         23    2    4    4    0    0  0.11723249211E+03  0.25128408835E+03 -0.71842234477E+03  0.77541294174E+03  0.90815276807E+02 0.  0.
         13    1    3    3    0    0  0.20589610351E+02 -0.64176581942E+01 -0.28202235848E+02  0.35503302634E+02  0.00000000000E+00 0. -1.
        -13    1    3    3    0    0  0.24569863001E+03 -0.38290198470E+03 -0.22984556155E+03  0.50971632193E+03  0.00000000000E+00 0.  1.
          2    1    6    6  502    0  0.12036137112E+01  0.99413490044E+02 -0.21295201965E+03  0.23501713419E+03  0.00000000000E+00 0. -1.
          2    1    5    5  503    0 -0.89882645350E+01  0.15318998136E+02 -0.11147740010E+02  0.20969804734E+02  0.00000000000E+00 0. -1.
         -2    1    5    5    0  503 -0.37453246794E+03  0.12271655641E+03  0.91690864654E+02  0.40464940061E+03  0.00000000000E+00 0.  1.
         -2    1    6    6    0  502  0.11602887840E+03  0.15187059830E+03 -0.50547032511E+03  0.54039580755E+03  0.00000000000E+00 0.  1.
<mgrwt>
<rscale>  0 0.14989029E+04</rscale>
<asrwt>0</asrwt>
<pdfrwt beam="1">  1        3 0.65409597E-01 0.14989029E+04</pdfrwt>
<pdfrwt beam="2">  1       -3 0.20324452E+00 0.14989029E+04</pdfrwt>
<totfact> 0.79912053E-01</totfact>
</mgrwt>
</event>
<event>
12    1  0.4247462E-008  0.1218738E+04  0.7818608E-02  0.9096611E-01
         -2   -1    0    0    0  501 -0.00000000000E+00  0.00000000000E+00  0.22024760037E+03  0.22024760037E+03  0.00000000000E+00 0.  1.
          2   -1    0    0  501    0  0.00000000000E+00 -0.00000000000E+00 -0.16859691662E+04  0.16859691662E+04  0.00000000000E+00 0. -1.
         23    2    1    2    0    0 -0.11554896677E+03  0.70503823877E+02 -0.62314432488E+03  0.64411413519E+03  0.90839510243E+02 0.  0.
        254    2    1    2    0    0  0.11554896677E+03 -0.70503823877E+02 -0.84257724094E+03  0.12621026314E+04  0.92986251255E+03 0.  0.
         23    2    4    4    0    0  0.41124823801E+03 -0.63670943684E+02 -0.85069954076E+03  0.95212196826E+03  0.98323097317E+02 0.  0.
         23    2    4    4    0    0 -0.29569927124E+03 -0.68328801928E+01  0.81222998186E+01  0.30998066310E+03  0.92397470089E+02 0.  0.
         11    1    3    3    0    0 -0.11484390484E+03  0.25034696993E+02 -0.44993860973E+03  0.46503828988E+03  0.00000000000E+00 0. -1.
        -11    1    3    3    0    0 -0.70506192689E+00  0.45469126885E+02 -0.17320571515E+03  0.17907584531E+03  0.00000000000E+00 0.  1.
          4    1    5    5  502    0  0.36264279568E+03 -0.87060260635E+02 -0.76051099210E+03  0.84703379823E+03  0.00000000000E+00 0. -1.
          1    1    6    6  503    0 -0.27506773035E+03  0.25201626491E+01  0.32157963447E+02  0.27695259904E+03  0.00000000000E+00 0. -1.
         -4    1    5    5    0  502  0.48605442329E+02  0.23389316951E+02 -0.90188548653E+02  0.10508817003E+03  0.00000000000E+00 0.  1.
         -1    1    6    6    0  503 -0.20631540892E+02 -0.93530428419E+01 -0.24035663628E+02  0.33028064067E+02  0.00000000000E+00 0.  1.
<mgrwt>
<rscale>  0 0.12187381E+04</rscale>
<asrwt>0</asrwt>
<pdfrwt beam="1">  1        2 0.25937988E+00 0.12187381E+04</pdfrwt>
<pdfrwt beam="2">  1       -2 0.33884246E-01 0.12187381E+04</pdfrwt>
<totfact> 0.80184311E+01</totfact>
</mgrwt>
</event>
<event>
12    1  0.4247462E-008  0.2043274E+04  0.7818608E-02  0.8586652E-01
          2   -1    0    0  501    0  0.00000000000E+00  0.00000000000E+00  0.61965505272E+03  0.61965505272E+03  0.00000000000E+00 0.  1.
         -2   -1    0    0    0  501 -0.00000000000E+00 -0.00000000000E+00 -0.16843915675E+04  0.16843915675E+04  0.00000000000E+00 0. -1.
         23    2    1    2    0    0  0.42244741973E+03 -0.67150254335E+03 -0.65935804132E+03  0.10362996937E+04  0.98926945033E+02 0.  0.
        254    2    1    2    0    0 -0.42244741973E+03  0.67150254335E+03 -0.40537847346E+03  0.12677469265E+04  0.90192742205E+03 0.  0.
         23    2    4    4    0    0 -0.23854582283E+03  0.50509483794E+03 -0.68207078473E+03  0.88583161437E+03  0.86326060567E+02 0.  0.
         23    2    4    4    0    0 -0.18390159689E+03  0.16640770541E+03  0.27669231127E+03  0.38191531209E+03  0.88257287152E+02 0.  0.
         11    1    3    3    0    0  0.14530734566E+03 -0.17435714479E+03 -0.23187421275E+03  0.32446924228E+03  0.00000000000E+00 0.  1.
        -11    1    3    3    0    0  0.27714007406E+03 -0.49714539855E+03 -0.42748382857E+03  0.71183045147E+03  0.00000000000E+00 0. -1.
          2    1    5    5  502    0 -0.14551665281E+02  0.57655139618E+02 -0.11569984544E+03  0.13008581906E+03  0.00000000000E+00 0. -1.
          1    1    6    6  503    0 -0.67375439228E+02  0.42745764621E+02  0.36609842136E+02  0.87789126578E+02  0.00000000000E+00 0. -1.
         -2    1    5    5    0  502 -0.22399415755E+03  0.44743969832E+03 -0.56637093929E+03  0.75574579531E+03  0.00000000000E+00 0.  1.
         -1    1    6    6    0  503 -0.11652615767E+03  0.12366194079E+03  0.24008246913E+03  0.29412618551E+03  0.00000000000E+00 0.  1.
<mgrwt>
<rscale>  0 0.20432736E+04</rscale>
<asrwt>0</asrwt>
<pdfrwt beam="1">  1        2 0.95331548E-01 0.20432736E+04</pdfrwt>
<pdfrwt beam="2">  1       -2 0.25913716E+00 0.20432736E+04</pdfrwt>
<totfact> 0.24932998E+00</totfact>
</mgrwt>
</event>
<event>
12    1  0.4247462E-008  0.1257421E+04  0.7818608E-02  0.9064029E-01
          1   -1    0    0  501    0  0.00000000000E+00  0.00000000000E+00  0.90215724639E+03  0.90215724639E+03  0.00000000000E+00 0. -1.
         -1   -1    0    0    0  501 -0.00000000000E+00 -0.00000000000E+00 -0.43814624622E+03  0.43814624622E+03  0.00000000000E+00 0.  1.
         23    2    1    2    0    0  0.21201054671E+03  0.20646090207E+03  0.18181707837E+03  0.35910442040E+03  0.91235731841E+02 0.  0.
        254    2    1    2    0    0 -0.21201054671E+03 -0.20646090207E+03  0.28219392180E+03  0.98119907222E+03  0.89193252762E+03 0.  0.
         23    2    4    4    0    0  0.12598375449E+03 -0.32697919078E+03 -0.16744906200E+03  0.39906787860E+03  0.91807874220E+02 0.  0.
         23    2    4    4    0    0 -0.33799430120E+03  0.12051828871E+03  0.44964298379E+03  0.58213119362E+03  0.89067997377E+02 0.  0.
         13    1    3    3    0    0  0.20538731269E+03  0.17971773007E+03  0.18731174133E+03  0.33101072363E+03  0.00000000000E+00 0. -1.
        -13    1    3    3    0    0  0.66232340208E+01  0.26743171992E+02 -0.54946629624E+01  0.28093696769E+02  0.00000000000E+00 0.  1.
          2    1    5    5  502    0  0.12305730442E+03 -0.25282387899E+03 -0.98978139208E+02  0.29809341824E+03  0.00000000000E+00 0. -1.
          3    1    6    6  503    0 -0.34259488855E+03  0.12262705351E+03  0.43797300781E+03  0.56941110587E+03  0.00000000000E+00 0. -1.
         -2    1    5    5    0  502  0.29264500643E+01 -0.74155311788E+02 -0.68470922787E+02  0.10097446035E+03  0.00000000000E+00 0.  1.
         -3    1    6    6    0  503  0.46005873556E+01 -0.21087648010E+01  0.11669975983E+02  0.12720087753E+02  0.00000000000E+00 0.  1.
<mgrwt>
<rscale>  0 0.12574209E+04</rscale>
<asrwt>0</asrwt>
<pdfrwt beam="1">  1        1 0.13879342E+00 0.12574209E+04</pdfrwt>
<pdfrwt beam="2">  1       -1 0.67407115E-01 0.12574209E+04</pdfrwt>
<totfact> 0.39822493E+01</totfact>
</mgrwt>
</event>
<event>
12    1  0.4247462E-008  0.3089999E+04  0.7818608E-02  0.8218488E-01
          2   -1    0    0  501    0  0.00000000000E+00  0.00000000000E+00  0.17547996239E+04  0.17547996239E+04  0.00000000000E+00 0. -1.
         -2   -1    0    0    0  501 -0.00000000000E+00 -0.00000000000E+00 -0.13602823062E+04  0.13602823062E+04  0.00000000000E+00 0.  1.
         23    2    1    2    0    0  0.67652356925E+03  0.50730321979E+03  0.13453818934E+04  0.15916492263E+04  0.90852209088E+02 0.  0.
        254    2    1    2    0    0 -0.67652356925E+03 -0.50730321979E+03 -0.95086457567E+03  0.15234327038E+04  0.83765330845E+03 0.  0.
         23    2    4    4    0    0 -0.28823317862E+03  0.15335887447E+03 -0.59359853791E+02  0.34419092344E+03  0.91359125973E+02 0.  0.
         23    2    4    4    0    0 -0.38829039063E+03 -0.66066209426E+03 -0.89150472188E+03  0.11792417803E+04  0.92664325102E+02 0.  0.
         11    1    3    3    0    0  0.10620045224E+03  0.89918622529E+02  0.28756046834E+03  0.31946035385E+03  0.00000000000E+00 0. -1.
        -11    1    3    3    0    0  0.57032311701E+03  0.41738459726E+03  0.10578214251E+04  0.12721888725E+04  0.00000000000E+00 0.  1.
          1    1    5    5  502    0 -0.22022770232E+03  0.14163869131E+03 -0.77064098647E+02  0.27294804459E+03  0.00000000000E+00 0. -1.
          1    1    6    6  503    0 -0.30525210764E+03 -0.49179622837E+03 -0.72708603214E+03  0.92935271969E+03  0.00000000000E+00 0. -1.
         -1    1    5    5    0  502 -0.68005476308E+02  0.11720183154E+02  0.17704244857E+02  0.71242878851E+02  0.00000000000E+00 0.  1.
         -1    1    6    6    0  503 -0.83038282984E+02 -0.16886586588E+03 -0.16441868974E+03  0.24988906066E+03  0.00000000000E+00 0.  1.
<mgrwt>
<rscale>  0 0.30899986E+04</rscale>
<asrwt>0</asrwt>
<pdfrwt beam="1">  1        2 0.26996917E+00 0.30899986E+04</pdfrwt>
<pdfrwt beam="2">  1       -2 0.20927420E+00 0.30899986E+04</pdfrwt>
<totfact> 0.89926405E-01</totfact>
</mgrwt>
</event>
<event>
12    1  0.4247462E-008  0.1807495E+04  0.7818608E-02  0.8702324E-01
          1   -1    0    0  501    0  0.00000000000E+00  0.00000000000E+00  0.19615913210E+04  0.19615913210E+04  0.00000000000E+00 0. -1.
         -1   -1    0    0    0  501 -0.00000000000E+00 -0.00000000000E+00 -0.41637585427E+03  0.41637585427E+03  0.00000000000E+00 0.  1.
         23    2    1    2    0    0  0.17199236024E+03 -0.48911107998E+03  0.11452995600E+04  0.12605914318E+04  0.92567030960E+02 0.  0.
        254    2    1    2    0    0 -0.17199236024E+03  0.48911107998E+03  0.39991590680E+03  0.11173757436E+04  0.90541968127E+03 0.  0.
         23    2    4    4    0    0  0.11163167881E+03  0.64444610571E+03  0.10027054083E+03  0.66746159995E+03  0.87626429591E+02 0.  0.
         23    2    4    4    0    0 -0.28362403905E+03 -0.15533502573E+03  0.29964536597E+03  0.44991414361E+03  0.89798805809E+02 0.  0.
         11    1    3    3    0    0  0.15436865856E+03 -0.47565059763E+03  0.11221540243E+04  0.12285368647E+04  0.00000000000E+00 0. -1.
        -11    1    3    3    0    0  0.17623701675E+02 -0.13460482357E+02  0.23145535704E+02  0.32054567054E+02  0.00000000000E+00 0.  1.
          1    1    5    5  502    0  0.10196384613E+03  0.63478252638E+03  0.87667811540E+02  0.64886911384E+03  0.00000000000E+00 0. -1.
          3    1    6    6  503    0 -0.18250336279E+03 -0.87216564754E+02  0.24095153210E+03  0.31459791388E+03  0.00000000000E+00 0. -1.
         -1    1    5    5    0  502  0.96678326777E+01  0.96635793355E+01  0.12602729285E+02  0.18592486109E+02  0.00000000000E+00 0.  1.
         -3    1    6    6    0  503 -0.10112067625E+03 -0.68118460976E+02  0.58693833871E+02  0.13531622972E+03  0.00000000000E+00 0.  1.
<mgrwt>
<rscale>  0 0.18074947E+04</rscale>
<asrwt>0</asrwt>
<pdfrwt beam="1">  1        1 0.30178328E+00 0.18074947E+04</pdfrwt>
<pdfrwt beam="2">  1       -1 0.64057825E-01 0.18074947E+04</pdfrwt>
<totfact> 0.73751456E+00</totfact>
</mgrwt>
</event>
<event>
12    1  0.4247462E-008  0.1275721E+04  0.7818608E-02  0.9049043E-01
          1   -1    0    0  501    0  0.00000000000E+00  0.00000000000E+00  0.79469088475E+03  0.79469088475E+03  0.00000000000E+00 0. -1.
         -1   -1    0    0    0  501 -0.00000000000E+00 -0.00000000000E+00 -0.51198023753E+03  0.51198023753E+03  0.00000000000E+00 0.  1.
         23    2    1    2    0    0  0.27326829043E+03 -0.80153112434E+02 -0.57690989379E+02  0.30467970343E+03  0.91659104511E+02 0.  0.
        254    2    1    2    0    0 -0.27326829043E+03  0.80153112434E+02  0.34040163660E+03  0.10019914188E+04  0.89833927291E+03 0.  0.
         23    2    4    4    0    0  0.20696862727E+03 -0.25324888502E+03  0.53402741517E+02  0.34438592983E+03  0.93695279626E+02 0.  0.
         23    2    4    4    0    0 -0.48023691769E+03  0.33340199746E+03  0.28699889508E+03  0.65760548902E+03  0.91061651568E+02 0.  0.
         11    1    3    3    0    0  0.15353789944E+03 -0.82857525878E+02 -0.61134248234E+02  0.18486928481E+03  0.00000000000E+00 0.  1.
        -11    1    3    3    0    0  0.11973039099E+03  0.27044134433E+01  0.34432588548E+01  0.11981041862E+03  0.00000000000E+00 0. -1.
          1    1    6    6  502    0 -0.19745285365E+03  0.87883386234E+02  0.12402915965E+03  0.24918738217E+03  0.00000000000E+00 0. -1.
          1    1    5    5  503    0 -0.94568047239E+00  0.66543099253E+01  0.42256966838E+01  0.79391853865E+01  0.00000000000E+00 0. -1.
         -1    1    5    5    0  503  0.20791430774E+03 -0.25990319495E+03  0.49177044833E+02  0.33644674444E+03  0.00000000000E+00 0.  1.
         -1    1    6    6    0  502 -0.28278406404E+03  0.24551861122E+03  0.16296973543E+03  0.40841810684E+03  0.00000000000E+00 0.  1.
<mgrwt>
<rscale>  0 0.12757210E+04</rscale>
<asrwt>0</asrwt>
<pdfrwt beam="1">  1        1 0.12226014E+00 0.12757210E+04</pdfrwt>
<pdfrwt beam="2">  1       -1 0.78766190E-01 0.12757210E+04</pdfrwt>
<totfact> 0.35480329E+01</totfact>
</mgrwt>
</event>
<event>
12    1  0.4247462E-008  0.1467495E+04  0.7818608E-02  0.8906361E-01
          2   -1    0    0  501    0  0.00000000000E+00  0.00000000000E+00  0.18119592805E+04  0.18119592805E+04  0.00000000000E+00 0.  1.
         -2   -1    0    0    0  501 -0.00000000000E+00 -0.00000000000E+00 -0.29712873576E+03  0.29712873576E+03  0.00000000000E+00 0. -1.
         23    2    1    2    0    0 -0.21849295200E+03 -0.33650224885E+03  0.74669161451E+03  0.85246282732E+03  0.90396743463E+02 0.  0.
        254    2    1    2    0    0  0.21849295200E+03  0.33650224885E+03  0.76813893024E+03  0.12566251890E+04  0.90999808562E+03 0.  0.
         23    2    4    4    0    0  0.55218037903E+02 -0.23617723571E+03 -0.25435288466E+02  0.26029515508E+03  0.90982940596E+02 0.  0.
         23    2    4    4    0    0  0.16327491409E+03  0.57267948456E+03  0.79357421870E+03  0.99633003388E+03  0.91065944350E+02 0.  0.
         13    1    3    3    0    0 -0.14665197197E+03 -0.21551889366E+03  0.39079821703E+03  0.46976423963E+03  0.00000000000E+00 0. -1.
        -13    1    3    3    0    0 -0.71840980030E+02 -0.12098335518E+03  0.35589339749E+03  0.38269858769E+03  0.00000000000E+00 0.  1.
          1    1    6    6  502    0  0.16988238277E+03  0.51577003172E+03  0.74020561570E+03  0.91803219068E+03  0.00000000000E+00 0. -1.
          1    1    5    5  503    0 -0.21207195427E+02 -0.78974667626E+02  0.85776844288E+01  0.82221164762E+02  0.00000000000E+00 0. -1.
         -1    1    5    5    0  503  0.76425233330E+02 -0.15720256808E+03 -0.34012972895E+02  0.17807399032E+03  0.00000000000E+00 0.  1.
         -1    1    6    6    0  502 -0.66074686804E+01  0.56909452839E+02  0.53368602997E+02  0.78297843205E+02  0.00000000000E+00 0.  1.
<mgrwt>
<rscale>  0 0.14674947E+04</rscale>
<asrwt>0</asrwt>
<pdfrwt beam="1">  1        2 0.27876296E+00 0.14674947E+04</pdfrwt>
<pdfrwt beam="2">  1       -2 0.45712114E-01 0.14674947E+04</pdfrwt>
<totfact> 0.37350191E+01</totfact>
</mgrwt>
</event>
<event>
12    1  0.4247462E-008  0.3444690E+04  0.7818608E-02  0.8127024E-01
          2   -1    0    0  501    0  0.00000000000E+00  0.00000000000E+00  0.38052222617E+04  0.38052222617E+04  0.00000000000E+00 0.  1.
         -2   -1    0    0    0  501 -0.00000000000E+00 -0.00000000000E+00 -0.77957946979E+03  0.77957946979E+03  0.00000000000E+00 0. -1.
         23    2    1    2    0    0 -0.97956059000E+03 -0.14989583310E+03  0.31013116971E+04  0.32579328895E+04  0.11825717549E+03 0.  0.
        254    2    1    2    0    0  0.97956059000E+03  0.14989583310E+03 -0.75668905246E+02  0.13268688419E+04  0.87911741550E+03 0.  0.
         23    2    4    4    0    0  0.23875821806E+03  0.52177423101E+02  0.36946988476E+03  0.45231149823E+03  0.91376832482E+02 0.  0.
         23    2    4    4    0    0  0.74080237195E+03  0.97718409995E+02 -0.44513879000E+03  0.87455734372E+03  0.91460172485E+02 0.  0.
         13    1    3    3    0    0 -0.44259122167E+03 -0.10071891219E+03  0.15789087653E+04  0.16428585386E+04  0.00000000000E+00 0. -1.
        -13    1    3    3    0    0 -0.53696936833E+03 -0.49176920906E+02  0.15224029319E+04  0.16150743509E+04  0.00000000000E+00 0.  1.
          2    1    5    5  502    0  0.16508443377E+03 -0.82901647491E+01  0.22354296196E+03  0.27801628180E+03  0.00000000000E+00 0. -1.
          1    1    6    6  503    0  0.67454012865E+03  0.11094614456E+03 -0.42080685834E+03  0.80274020964E+03  0.00000000000E+00 0. -1.
         -2    1    5    5    0  502  0.73673784284E+02  0.60467587850E+02  0.14592692280E+03  0.17429521643E+03  0.00000000000E+00 0.  1.
         -1    1    6    6    0  503  0.66262243292E+02 -0.13227734562E+02 -0.24331931665E+02  0.71817134072E+02  0.00000000000E+00 0.  1.
<mgrwt>
<rscale>  0 0.34446905E+04</rscale>
<asrwt>0</asrwt>
<pdfrwt beam="1">  1        2 0.58541880E+00 0.34446905E+04</pdfrwt>
<pdfrwt beam="2">  1       -2 0.11993531E+00 0.34446905E+04</pdfrwt>
<totfact> 0.21313078E-01</totfact>
</mgrwt>
</event>
<event>
12    1  0.4247462E-008  0.1520709E+04  0.7818608E-02  0.8870797E-01
          2   -1    0    0  501    0  0.00000000000E+00  0.00000000000E+00  0.54756942667E+03  0.54756942667E+03  0.00000000000E+00 0. -1.
         -2   -1    0    0    0  501 -0.00000000000E+00 -0.00000000000E+00 -0.10558275076E+04  0.10558275076E+04  0.00000000000E+00 0.  1.
         23    2    1    2    0    0 -0.20370719539E+03  0.41809248127E+03 -0.15123971787E+03  0.49739333726E+03  0.90712376988E+02 0.  0.
        254    2    1    2    0    0  0.20370719539E+03 -0.41809248127E+03 -0.35701836301E+03  0.11060035970E+04  0.93780802972E+03 0.  0.
         23    2    4    4    0    0  0.20198477346E+03  0.29230553062E+01 -0.57925057924E+03  0.62000864269E+03  0.89850378384E+02 0.  0.
         23    2    4    4    0    0  0.17224219356E+01 -0.42101553658E+03  0.22223221623E+03  0.48599495427E+03  0.97708182203E+02 0.  0.
         13    1    3    3    0    0 -0.13362579219E+03  0.30671880612E+03 -0.14781183874E+03  0.36576032868E+03  0.00000000000E+00 0. -1.
        -13    1    3    3    0    0 -0.70081403201E+02  0.11137367516E+03 -0.34278791260E+01  0.13163300858E+03  0.00000000000E+00 0.  1.
          4    1    5    5  502    0  0.62611820536E+02 -0.86683249897E+01 -0.31240175210E+03  0.31873223032E+03  0.00000000000E+00 0. -1.
          3    1    6    6  503    0  0.44370466461E+02 -0.31162504828E+03  0.15930094799E+03  0.35278279584E+03  0.00000000000E+00 0. -1.
         -4    1    5    5    0  502  0.13937295292E+03  0.11591380296E+02 -0.26684882714E+03  0.30127641237E+03  0.00000000000E+00 0.  1.
         -3    1    6    6    0  503 -0.42648044525E+02 -0.10939048830E+03  0.62931268232E+02  0.13321215843E+03  0.00000000000E+00 0.  1.
<mgrwt>
<rscale>  0 0.15207089E+04</rscale>
<asrwt>0</asrwt>
<pdfrwt beam="1">  1        2 0.84241450E-01 0.15207089E+04</pdfrwt>
<pdfrwt beam="2">  1       -2 0.16243500E+00 0.15207089E+04</pdfrwt>
<totfact> 0.12891973E+01</totfact>
</mgrwt>
</event>
<event>
12    1  0.4247462E-008  0.1672043E+04  0.7818608E-02  0.8777472E-01
         -2   -1    0    0    0  501 -0.00000000000E+00  0.00000000000E+00  0.24588489045E+03  0.24588489045E+03  0.00000000000E+00 0.  1.
          2   -1    0    0  501    0  0.00000000000E+00 -0.00000000000E+00 -0.28425177105E+04  0.28425177105E+04  0.00000000000E+00 0. -1.
         23    2    1    2    0    0  0.81705753921E+02 -0.57140097575E+03 -0.65663703751E+03  0.87901989553E+03  0.91262656040E+02 0.  0.
        254    2    1    2    0    0 -0.81705753921E+02  0.57140097575E+03 -0.19399957826E+04  0.22093827055E+04  0.88578405802E+03 0.  0.
         23    2    4    4    0    0  0.14613414630E+03  0.71156011275E+03 -0.16443359794E+04  0.17999166810E+04  0.90477967884E+02 0.  0.
         23    2    4    4    0    0 -0.22783990022E+03 -0.14015913700E+03 -0.29565980314E+03  0.40946602441E+03  0.93231443922E+02 0.  0.
         13    1    3    3    0    0  0.62608461576E+02 -0.51844200655E+03 -0.54991269562E+03  0.75835737382E+03  0.00000000000E+00 0.  1.
        -13    1    3    3    0    0  0.19097292345E+02 -0.52958969204E+02 -0.10672434189E+03  0.12066252171E+03  0.00000000000E+00 0. -1.
          4    1    5    5  502    0 -0.15763104356E+01  0.22172136058E+02 -0.23325082620E+02  0.32220301848E+02  0.00000000000E+00 0. -1.
          1    1    6    6  503    0 -0.59799609627E+02 -0.27777721362E+02 -0.13854284458E+03  0.15343309584E+03  0.00000000000E+00 0. -1.
         -4    1    5    5    0  502  0.14771045673E+03  0.68938797669E+03 -0.16210108968E+04  0.17676963792E+04  0.00000000000E+00 0.  1.
         -1    1    6    6    0  503 -0.16804029059E+03 -0.11238141564E+03 -0.15711695856E+03  0.25603292857E+03  0.00000000000E+00 0.  1.
<mgrwt>
<rscale>  0 0.16720432E+04</rscale>
<asrwt>0</asrwt>
<pdfrwt beam="1">  1        2 0.43731041E+00 0.16720432E+04</pdfrwt>
<pdfrwt beam="2">  1       -2 0.37828445E-01 0.16720432E+04</pdfrwt>
<totfact> 0.13755701E+01</totfact>
</mgrwt>
</event>
<event>
12    1  0.6147721E-008  0.2614884E+04  0.7818608E-02  0.8363163E-01
          2   -1    0    0  501    0  0.00000000000E+00  0.00000000000E+00  0.22715441227E+04  0.22715441227E+04  0.00000000000E+00 0. -1.
         -2   -1    0    0    0  501 -0.00000000000E+00 -0.00000000000E+00 -0.75253005470E+03  0.75253005470E+03  0.00000000000E+00 0.  1.
         23    2    1    2    0    0  0.35376633140E+03 -0.16969075210E+03 -0.57916508651E+03  0.70550533956E+03  0.91433134733E+02 0.  0.
        254    2    1    2    0    0 -0.35376633140E+03  0.16969075210E+03  0.20981791545E+04  0.23185688379E+04  0.90524036744E+03 0.  0.
         23    2    4    4    0    0 -0.27325470664E+03 -0.26648728385E+02  0.20663929126E+04  0.20865469520E+04  0.91215261718E+02 0.  0.
         23    2    4    4    0    0 -0.80511624760E+02  0.19633948048E+03  0.31786241877E+02  0.23202188588E+03  0.88275007994E+02 0.  0.
         13    1    3    3    0    0  0.48145344942E+02 -0.23954394272E+02 -0.33593409199E+02  0.63405870282E+02  0.00000000000E+00 0. -1.
        -13    1    3    3    0    0  0.30562098645E+03 -0.14573635783E+03 -0.54557167732E+03  0.64209946927E+03  0.00000000000E+00 0.  1.
          1    1    5    5  502    0 -0.26600166118E+03 -0.31868650326E+02  0.17831294773E+04  0.18031425976E+04  0.00000000000E+00 0. -1.
          3    1    6    6  503    0 -0.61087680061E+02  0.19886993919E+03  0.19621925134E+02  0.20896405747E+03  0.00000000000E+00 0. -1.
         -1    1    5    5    0  502 -0.72530454551E+01  0.52199219414E+01  0.28326343537E+03  0.28340435436E+03  0.00000000000E+00 0.  1.
         -3    1    6    6    0  503 -0.19423944699E+02 -0.25304587102E+01  0.12164316743E+02  0.23057828405E+02  0.00000000000E+00 0.  1.
<mgrwt>
<rscale>  0 0.26148845E+04</rscale>
<asrwt>0</asrwt>
<pdfrwt beam="1">  1        2 0.34946832E+00 0.26148845E+04</pdfrwt>
<pdfrwt beam="2">  1       -2 0.11577386E+00 0.26148845E+04</pdfrwt>
<totfact> 0.24109350E+00</totfact>
</mgrwt>
</event>
<event>
12    1  0.4247462E-008  0.1475193E+04  0.7818608E-02  0.8901119E-01
         -2   -1    0    0    0  501 -0.00000000000E+00  0.00000000000E+00  0.43292868301E+03  0.43292868301E+03  0.00000000000E+00 0.  1.
          2   -1    0    0  501    0  0.00000000000E+00 -0.00000000000E+00 -0.12566700967E+04  0.12566700967E+04  0.00000000000E+00 0. -1.
         23    2    1    2    0    0 -0.16964043329E+03 -0.16265109424E+03 -0.71108028978E+03  0.75439986097E+03  0.90833455596E+02 0.  0.
        254    2    1    2    0    0  0.16964043329E+03  0.16265109424E+03 -0.11266112394E+03  0.93519891877E+03  0.89814878153E+03 0.  0.
         23    2    4    4    0    0  0.41146268229E+03  0.22836876452E+03  0.20282107645E+03  0.52125679510E+03  0.95490449031E+02 0.  0.
         23    2    4    4    0    0 -0.24182224900E+03 -0.65717670285E+02 -0.31548220040E+03  0.41394212367E+03  0.94985528830E+02 0.  0.
         13    1    3    3    0    0 -0.87491631785E+02 -0.79533682747E+02 -0.49300704411E+03  0.50698751254E+03  0.00000000000E+00 0. -1.
        -13    1    3    3    0    0 -0.82148801506E+02 -0.83117411489E+02 -0.21807324567E+03  0.24741234843E+03  0.00000000000E+00 0.  1.
          1    1    5    5  502    0  0.49599002087E+02  0.38596592803E+02  0.64037756966E+02  0.89725092930E+02  0.00000000000E+00 0. -1.
          1    1    6    6  503    0 -0.20067381124E+03 -0.72416356140E+02 -0.30271987702E+03  0.37034231610E+03  0.00000000000E+00 0. -1.
         -1    1    5    5    0  502  0.36186368020E+03  0.18977217172E+03  0.13878331949E+03  0.43153170217E+03  0.00000000000E+00 0.  1.
         -1    1    6    6    0  503 -0.41148437759E+02  0.66986858552E+01 -0.12762323375E+02  0.43599807570E+02  0.00000000000E+00 0.  1.
<mgrwt>
<rscale>  0 0.14751929E+04</rscale>
<asrwt>0</asrwt>
<pdfrwt beam="1">  1        2 0.19333386E+00 0.14751929E+04</pdfrwt>
<pdfrwt beam="2">  1       -2 0.66604413E-01 0.14751929E+04</pdfrwt>
<totfact> 0.35143237E+01</totfact>
</mgrwt>
</event>
<event>
12    1  0.4247462E-008  0.2287252E+04  0.7818608E-02  0.8482964E-01
          2   -1    0    0  501    0  0.00000000000E+00  0.00000000000E+00  0.64891919080E+03  0.64891919080E+03  0.00000000000E+00 0. -1.
         -2   -1    0    0    0  501 -0.00000000000E+00 -0.00000000000E+00 -0.20154752358E+04  0.20154752358E+04  0.00000000000E+00 0.  1.
         23    2    1    2    0    0 -0.28267835650E+02 -0.64275297306E+03 -0.14045691751E+04  0.15484971027E+04  0.10534825429E+03 0.  0.
        254    2    1    2    0    0  0.28267835650E+02  0.64275297306E+03  0.38013130126E+02  0.11158973238E+04  0.91096179083E+03 0.  0.
         23    2    4    4    0    0  0.38217456730E+03  0.63783164265E+03  0.56059190846E+02  0.75062967762E+03  0.86114318203E+02 0.  0.
         23    2    4    4    0    0 -0.35390673165E+03  0.49213304144E+01 -0.18046060720E+02  0.36526764620E+03  0.88434149826E+02 0.  0.
         11    1    3    3    0    0  0.23301864709E+02 -0.48008294849E+02 -0.14807283940E+03  0.15739548609E+03  0.00000000000E+00 0. -1.
        -11    1    3    3    0    0 -0.51569700359E+02 -0.59474467821E+03 -0.12564963357E+04  0.13911016166E+04  0.00000000000E+00 0.  1.
          1    1    5    5  502    0  0.28690614654E+03  0.52839075585E+03  0.22382990405E+02  0.60167510007E+03  0.00000000000E+00 0.  1.
          3    1    6    6  503    0 -0.16089410644E+03 -0.77790155312E+01 -0.51186490092E+02  0.16901918038E+03  0.00000000000E+00 0. -1.
         -1    1    5    5    0  502  0.95268420760E+02  0.10944088680E+03  0.33676200440E+02  0.14895457755E+03  0.00000000000E+00 0. -1.
         -3    1    6    6    0  503 -0.19301262521E+03  0.12700345946E+02  0.33140429373E+02  0.19624846582E+03  0.00000000000E+00 0.  1.
<mgrwt>
<rscale>  0 0.22872521E+04</rscale>
<asrwt>0</asrwt>
<pdfrwt beam="1">  1        2 0.99833723E-01 0.22872521E+04</pdfrwt>
<pdfrwt beam="2">  1       -2 0.31007311E+00 0.22872521E+04</pdfrwt>
<totfact> 0.11278466E+00</totfact>
</mgrwt>
</event>
<event>
12    1  0.4247462E-008  0.1480337E+04  0.7818608E-02  0.8897635E-01
          4   -1    0    0  501    0  0.00000000000E+00  0.00000000000E+00  0.16534411090E+04  0.16534411090E+04  0.00000000000E+00 0.  1.
         -4   -1    0    0    0  501 -0.00000000000E+00 -0.00000000000E+00 -0.33133912411E+03  0.33133912411E+03  0.00000000000E+00 0. -1.
         23    2    1    2    0    0 -0.19754478272E+03  0.23022891293E+03 -0.34850457834E+02  0.31800169374E+03  0.88776287827E+02 0.  0.
        254    2    1    2    0    0  0.19754478272E+03 -0.23022891293E+03  0.13569524427E+04  0.16667785394E+04  0.91913082528E+03 0.  0.
         23    2    4    4    0    0 -0.11496870605E+03 -0.93561605970E+02  0.12971145770E+04  0.13087883083E+04  0.91918618772E+02 0.  0.
         23    2    4    4    0    0  0.31251348878E+03 -0.13666730696E+03  0.59837865693E+02  0.35799023109E+03  0.90740299338E+02 0.  0.
         13    1    3    3    0    0 -0.44289543301E+02  0.93545112694E+02  0.20078920763E+02  0.10542966762E+03  0.00000000000E+00 0.  1.
        -13    1    3    3    0    0 -0.15325523942E+03  0.13668380024E+03 -0.54929378597E+02  0.21257202613E+03  0.00000000000E+00 0. -1.
          1    1    6    6  502    0  0.12858014025E+03 -0.44365718001E+02 -0.19546177976E+02  0.13741623803E+03  0.00000000000E+00 0. -1.
          1    1    5    5  503    0 -0.71961156633E+02 -0.46433900147E+02  0.38338918804E+03  0.39283811507E+03  0.00000000000E+00 0.  1.
         -1    1    5    5    0  503 -0.43007549420E+02 -0.47127705823E+02  0.91372538901E+03  0.91595019323E+03  0.00000000000E+00 0. -1.
         -1    1    6    6    0  502  0.18393334853E+03 -0.92301588961E+02  0.79384043668E+02  0.22057399306E+03  0.00000000000E+00 0.  1.
<mgrwt>
<rscale>  0 0.14803374E+04</rscale>
<asrwt>0</asrwt>
<pdfrwt beam="1">  1        4 0.25437555E+00 0.14803374E+04</pdfrwt>
<pdfrwt beam="2">  1       -4 0.50975251E-01 0.14803374E+04</pdfrwt>
<totfact> 0.42661357E-01</totfact>
</mgrwt>
</event>
<event>
12    1  0.4247462E-008  0.1558595E+04  0.7818608E-02  0.8846397E-01
          2   -1    0    0  501    0  0.00000000000E+00  0.00000000000E+00  0.69953357491E+03  0.69953357491E+03  0.00000000000E+00 0. -1.
         -2   -1    0    0    0  501 -0.00000000000E+00 -0.00000000000E+00 -0.86815598457E+03  0.86815598457E+03  0.00000000000E+00 0.  1.
         23    2    1    2    0    0  0.23050734265E+03 -0.28010359348E+03  0.31013311563E+03  0.48589275481E+03  0.91200667060E+02 0.  0.
        254    2    1    2    0    0 -0.23050734265E+03  0.28010359348E+03 -0.47875552530E+03  0.10817968047E+04  0.89971429660E+03 0.  0.
         23    2    4    4    0    0  0.49575886416E+02 -0.21751069664E+03 -0.43937347025E+03  0.50098512910E+03  0.90379099072E+02 0.  0.
         23    2    4    4    0    0 -0.28008322906E+03  0.49761429012E+03 -0.39382055047E+02  0.58081167558E+03  0.98613687150E+02 0.  0.
         13    1    3    3    0    0  0.95426948149E+02 -0.52064408024E+02  0.99051719474E+02  0.14706545531E+03  0.00000000000E+00 0.  1.
        -13    1    3    3    0    0  0.13508039450E+03 -0.22803918545E+03  0.21108139616E+03  0.33882729950E+03  0.00000000000E+00 0. -1.
          2    1    5    5  502    0  0.27283832723E+02 -0.20852255806E+03 -0.42143909981E+03  0.47099573203E+03  0.00000000000E+00 0. -1.
          1    1    6    6  503    0 -0.13033830613E+03  0.32127740986E+03 -0.36504289379E+01  0.34672838615E+03  0.00000000000E+00 0. -1.
         -2    1    5    5    0  502  0.22292053693E+02 -0.89881385787E+01 -0.17934370444E+02  0.29989397062E+02  0.00000000000E+00 0.  1.
         -1    1    6    6    0  503 -0.14974492293E+03  0.17633688025E+03 -0.35731626109E+02  0.23408328942E+03  0.00000000000E+00 0.  1.
<mgrwt>
<rscale>  0 0.15585946E+04</rscale>
<asrwt>0</asrwt>
<pdfrwt beam="1">  1        2 0.10762055E+00 0.15585946E+04</pdfrwt>
<pdfrwt beam="2">  1       -2 0.13356246E+00 0.15585946E+04</pdfrwt>
<totfact> 0.15988369E+01</totfact>
</mgrwt>
</event>
<event>
12    1  0.4247462E-008  0.1660317E+04  0.7818608E-02  0.8784326E-01
         -2   -1    0    0    0  501 -0.00000000000E+00  0.00000000000E+00  0.20874430236E+03  0.20874430236E+03  0.00000000000E+00 0.  1.
          2   -1    0    0  501    0  0.00000000000E+00 -0.00000000000E+00 -0.33014706271E+04  0.33014706271E+04  0.00000000000E+00 0. -1.
         23    2    1    2    0    0 -0.44621533473E+03 -0.51030539827E+02 -0.31506296830E+03  0.55626677652E+03  0.91955487713E+02 0.  0.
        254    2    1    2    0    0  0.44621533473E+03  0.51030539827E+02 -0.27776633565E+04  0.29539481530E+04  0.89926844023E+03 0.  0.
         23    2    4    4    0    0  0.68251397430E+03  0.10689607410E+03 -0.15545348687E+04  0.17034645862E+04  0.89223555005E+02 0.  0.
         23    2    4    4    0    0 -0.23629863957E+03 -0.55865534277E+02 -0.12231284878E+04  0.12504835668E+04  0.93315851250E+02 0.  0.
         13    1    3    3    0    0 -0.41375989055E+03 -0.54813475507E+02 -0.25849334659E+03  0.49093846290E+03  0.00000000000E+00 0.  1.
        -13    1    3    3    0    0 -0.32455444175E+02  0.37829356803E+01 -0.56569621711E+02  0.65328313613E+02  0.00000000000E+00 0. -1.
          2    1    5    5  502    0  0.45204521463E+03  0.90022952211E+02 -0.94015144835E+03  0.10470595751E+04  0.00000000000E+00 0. -1.
          4    1    6    6  503    0 -0.17775659069E+03 -0.82130156253E+02 -0.90260782904E+03  0.92360362772E+03  0.00000000000E+00 0. -1.
         -2    1    5    5    0  502  0.23046875967E+03  0.16873121893E+02 -0.61438342030E+03  0.65640501107E+03  0.00000000000E+00 0.  1.
         -4    1    6    6    0  503 -0.58542048872E+02  0.26264621976E+02 -0.32052065876E+03  0.32687993904E+03  0.00000000000E+00 0.  1.
<mgrwt>
<rscale>  0 0.16603171E+04</rscale>
<asrwt>0</asrwt>
<pdfrwt beam="1">  1        2 0.50791857E+00 0.16603171E+04</pdfrwt>
<pdfrwt beam="2">  1       -2 0.32114507E-01 0.16603171E+04</pdfrwt>
<totfact> 0.96508980E+00</totfact>
</mgrwt>
</event>
<event>
12    1  0.4247462E-008  0.2774319E+04  0.7818608E-02  0.8311286E-01
          2   -1    0    0  501    0  0.00000000000E+00  0.00000000000E+00  0.30592878007E+04  0.30592878007E+04  0.00000000000E+00 0. -1.
         -2   -1    0    0    0  501 -0.00000000000E+00 -0.00000000000E+00 -0.62897383750E+03  0.62897383750E+03  0.00000000000E+00 0.  1.
         23    2    1    2    0    0 -0.11601312295E+04  0.17019365051E+03  0.57531203349E+03  0.13092593679E+04  0.91136207895E+02 0.  0.
        254    2    1    2    0    0  0.11601312295E+04 -0.17019365051E+03  0.18550019297E+04  0.23790022703E+04  0.91855826947E+03 0.  0.
         23    2    4    4    0    0  0.35266429580E+03  0.23728049054E+03  0.17234642457E+03  0.46652179910E+03  0.85235921132E+02 0.  0.
         23    2    4    4    0    0  0.80746693368E+03 -0.40747414105E+03  0.16826555051E+04  0.19124804712E+04  0.90631004560E+02 0.  0.
         13    1    3    3    0    0 -0.17575033430E+03  0.52653459039E+02  0.11213106720E+03  0.21502079663E+03  0.00000000000E+00 0. -1.
        -13    1    3    3    0    0 -0.98438089518E+03  0.11754019147E+03  0.46318096629E+03  0.10942385713E+04  0.00000000000E+00 0.  1.
          2    1    5    5  502    0  0.33680854299E+03  0.19729855697E+03  0.15131684466E+03  0.41864484076E+03  0.00000000000E+00 0. -1.
          4    1    6    6  503    0  0.77814665377E+03 -0.40893948672E+03  0.16152790917E+04  0.18389862052E+04  0.00000000000E+00 0. -1.
         -2    1    5    5    0  502  0.15855752809E+02  0.39981933570E+02  0.21029579909E+02  0.47876958344E+02  0.00000000000E+00 0.  1.
         -4    1    6    6    0  503  0.29320279908E+02  0.14653456703E+01  0.67376413393E+02  0.73494265991E+02  0.00000000000E+00 0.  1.
<mgrwt>
<rscale>  0 0.27743194E+04</rscale>
<asrwt>0</asrwt>
<pdfrwt beam="1">  1        2 0.47065965E+00 0.27743194E+04</pdfrwt>
<pdfrwt beam="2">  1       -2 0.96765208E-01 0.27743194E+04</pdfrwt>
<totfact> 0.12429522E+00</totfact>
</mgrwt>
</event>
<event>
12    1  0.4247462E-008  0.1360706E+04  0.7818608E-02  0.8982763E-01
         -1   -1    0    0    0  501 -0.00000000000E+00  0.00000000000E+00  0.11261643665E+04  0.11261643665E+04  0.00000000000E+00 0.  1.
          1   -1    0    0  501    0  0.00000000000E+00 -0.00000000000E+00 -0.41102383122E+03  0.41102383122E+03  0.00000000000E+00 0. -1.
         23    2    1    2    0    0  0.31068309828E+03 -0.19137103591E+03  0.28937431341E+03  0.47453051769E+03  0.91076111107E+02 0.  0.
        254    2    1    2    0    0 -0.31068309828E+03  0.19137103591E+03  0.42576622192E+03  0.10626576801E+04  0.90267248122E+03 0.  0.
         23    2    4    4    0    0  0.18651041794E+03  0.23313568658E+03 -0.10410521066E+03  0.32936060047E+03  0.92206973154E+02 0.  0.
         23    2    4    4    0    0 -0.49719351623E+03 -0.41764650666E+02  0.52987143258E+03  0.73329707960E+03  0.89527611707E+02 0.  0.
         13    1    3    3    0    0  0.68805131566E+01  0.88556358437E+01  0.15470554538E+02  0.19107637353E+02  0.00000000000E+00 0. -1.
        -13    1    3    3    0    0  0.30380258513E+03 -0.20022667176E+03  0.27390375887E+03  0.45542288034E+03  0.00000000000E+00 0.  1.
          4    1    5    5  502    0  0.97384832644E+01  0.16741613059E+02 -0.37358397402E+02  0.42080512361E+02  0.00000000000E+00 0. -1.
          1    1    6    6  503    0 -0.30491698407E+02 -0.51839302023E+01  0.74418059915E+01  0.31811904698E+02  0.00000000000E+00 0. -1.
         -4    1    5    5    0  502  0.17677193468E+03  0.21639407352E+03 -0.66746813261E+02  0.28728008811E+03  0.00000000000E+00 0.  1.
         -1    1    6    6    0  503 -0.46670181782E+03 -0.36580720464E+02  0.52242962659E+03  0.70148517490E+03  0.00000000000E+00 0.  1.
<mgrwt>
<rscale>  0 0.13607063E+04</rscale>
<asrwt>0</asrwt>
<pdfrwt beam="1">  1        1 0.63234436E-01 0.13607063E+04</pdfrwt>
<pdfrwt beam="2">  1       -1 0.17325605E+00 0.13607063E+04</pdfrwt>
<totfact> 0.13177671E+01</totfact>
</mgrwt>
</event>
<event>
12    1  0.4247462E-008  0.1299481E+04  0.7818608E-02  0.9029977E-01
         -2   -1    0    0    0  501 -0.00000000000E+00  0.00000000000E+00  0.14724640517E+03  0.14724640517E+03  0.00000000000E+00 0.  1.
          2   -1    0    0  501    0  0.00000000000E+00 -0.00000000000E+00 -0.28670506066E+04  0.28670506066E+04  0.00000000000E+00 0. -1.
         23    2    1    2    0    0 -0.97222859732E+02  0.62337746124E+02 -0.13616320501E+04  0.13694261399E+04  0.89150623747E+02 0.  0.
        254    2    1    2    0    0  0.97222859732E+02 -0.62337746124E+02 -0.13581721513E+04  0.16448708719E+04  0.92066840582E+03 0.  0.
         23    2    4    4    0    0  0.26250155129E+03  0.36532890221E+03 -0.72739206281E+03  0.86019114219E+03  0.91963671317E+02 0.  0.
         23    2    4    4    0    0 -0.16527869155E+03 -0.42766664833E+03 -0.63078008853E+03  0.78467972970E+03  0.87309507727E+02 0.  0.
         13    1    3    3    0    0 -0.43301568913E+02  0.21024503849E+02 -0.10183926143E+04  0.10195295839E+04  0.00000000000E+00 0. -1.
        -13    1    3    3    0    0 -0.53921290818E+02  0.41313242274E+02 -0.34323943576E+03  0.34989655593E+03  0.00000000000E+00 0.  1.
          2    1    5    5  502    0  0.15498714256E+03  0.13795384897E+03 -0.31759221855E+03  0.37936406800E+03  0.00000000000E+00 0. -1.
          1    1    6    6  503    0 -0.15970121858E+03 -0.31100352741E+03 -0.45991741538E+03  0.57771247368E+03  0.00000000000E+00 0. -1.
         -2    1    5    5    0  502  0.10751440873E+03  0.22737505324E+03 -0.40979984426E+03  0.48082707419E+03  0.00000000000E+00 0.  1.
         -1    1    6    6    0  503 -0.55774729742E+01 -0.11666312092E+03 -0.17086267315E+03  0.20696725602E+03  0.00000000000E+00 0.  1.
<mgrwt>
<rscale>  0 0.12994813E+04</rscale>
<asrwt>0</asrwt>
<pdfrwt beam="1">  1        2 0.44108473E+00 0.12994813E+04</pdfrwt>
<pdfrwt beam="2">  1       -2 0.22653292E-01 0.12994813E+04</pdfrwt>
<totfact> 0.35689603E+01</totfact>
</mgrwt>
</event>
<event>
12    1  0.4247462E-008  0.1582671E+04  0.7818608E-02  0.8831265E-01
         -2   -1    0    0    0  501 -0.00000000000E+00  0.00000000000E+00  0.48555961879E+03  0.48555961879E+03  0.00000000000E+00 0.  1.
          2   -1    0    0  501    0  0.00000000000E+00 -0.00000000000E+00 -0.12896697567E+04  0.12896697567E+04  0.00000000000E+00 0. -1.
         23    2    1    2    0    0  0.25999847702E+03 -0.31926760899E+03 -0.63931314957E+03  0.76608216573E+03  0.92895464032E+02 0.  0.
        254    2    1    2    0    0 -0.25999847702E+03  0.31926760899E+03 -0.16479698833E+03  0.10091472098E+04  0.90647064453E+03 0.  0.
         23    2    4    4    0    0 -0.26446257553E+03 -0.31143085299E+02  0.30612229601E+03  0.41567484371E+03  0.90356903196E+02 0.  0.
         23    2    4    4    0    0  0.44640985140E+01  0.35041069429E+03 -0.47091928435E+03  0.59347236605E+03  0.87389324534E+02 0.  0.
         13    1    3    3    0    0 -0.59597608732E-01 -0.69442304997E+00  0.31756840630E+01  0.32512681396E+01  0.00000000000E+00 0.  1.
        -13    1    3    3    0    0  0.26005807463E+03 -0.31857318594E+03 -0.64248883364E+03  0.76283089759E+03  0.00000000000E+00 0. -1.
          2    1    5    5  502    0 -0.17067576991E+03  0.76965300956E+01  0.23972814675E+03  0.29437907425E+03  0.00000000000E+00 0. -1.
          4    1    6    6  503    0 -0.39258505379E+02  0.18757868448E+03 -0.27166047992E+03  0.33245512399E+03  0.00000000000E+00 0. -1.
         -2    1    5    5    0  502 -0.93786805621E+02 -0.38839615395E+02  0.66394149266E+02  0.12129576946E+03  0.00000000000E+00 0.  1.
         -4    1    6    6    0  503  0.43722603893E+02  0.16283200980E+03 -0.19925880443E+03  0.26101724205E+03  0.00000000000E+00 0.  1.
<mgrwt>
<rscale>  0 0.15826706E+04</rscale>
<asrwt>0</asrwt>
<pdfrwt beam="1">  1        2 0.19841073E+00 0.15826706E+04</pdfrwt>
<pdfrwt beam="2">  1       -2 0.74701480E-01 0.15826706E+04</pdfrwt>
<totfact> 0.25931655E+01</totfact>
</mgrwt>
</event>
<event>
12    1  0.4247462E-008  0.3175686E+04  0.7818608E-02  0.8195268E-01
         -4   -1    0    0    0  501 -0.00000000000E+00  0.00000000000E+00  0.19802444396E+04  0.19802444396E+04  0.00000000000E+00 0.  1.
          4   -1    0    0  501    0  0.00000000000E+00 -0.00000000000E+00 -0.12731991099E+04  0.12731991099E+04  0.00000000000E+00 0. -1.
         23    2    1    2    0    0 -0.69815473158E+03  0.68676309392E+03  0.14337753264E+04  0.17385919784E+04  0.89032603160E+02 0.  0.
        254    2    1    2    0    0  0.69815473158E+03 -0.68676309392E+03 -0.72672999665E+03  0.15148515711E+04  0.89865188920E+03 0.  0.
         23    2    4    4    0    0 -0.20598666806E+03 -0.18365476128E+03 -0.15940554543E+03  0.33084190041E+03  0.88806848799E+02 0.  0.
         23    2    4    4    0    0  0.90414139965E+03 -0.50310833264E+03 -0.56732445121E+03  0.11840096707E+04  0.97119526102E+02 0.  0.
         13    1    3    3    0    0 -0.34730319342E+03  0.33406778429E+03  0.62745172835E+03  0.79114882549E+03  0.00000000000E+00 0.  1.
        -13    1    3    3    0    0 -0.35085153816E+03  0.35269530962E+03  0.80632359800E+03  0.94744315289E+03  0.00000000000E+00 0. -1.
          1    1    5    5  502    0 -0.19787858159E+03 -0.19376212935E+03 -0.15256711126E+03  0.31619047940E+03  0.00000000000E+00 0. -1.
          3    1    6    6  503    0  0.84927961866E+03 -0.45220078668E+03 -0.54553193049E+03  0.11060589990E+04  0.00000000000E+00 0. -1.
         -1    1    5    5    0  502 -0.81080864779E+01  0.10107368079E+02 -0.68384341739E+01  0.14651421015E+02  0.00000000000E+00 0.  1.
         -3    1    6    6    0  503  0.54861780993E+02 -0.50907545962E+02 -0.21792520720E+02  0.77950671639E+02  0.00000000000E+00 0.  1.
<mgrwt>
<rscale>  0 0.31756860E+04</rscale>
<asrwt>0</asrwt>
<pdfrwt beam="1">  1        4 0.19587679E+00 0.31756860E+04</pdfrwt>
<pdfrwt beam="2">  1       -4 0.30465299E+00 0.31756860E+04</pdfrwt>
<totfact> 0.67641836E-03</totfact>
</mgrwt>
</event>
<event>
12    1  0.4247462E-008  0.2531980E+04  0.7818608E-02  0.8391680E-01
         -1   -1    0    0    0  501 -0.00000000000E+00  0.00000000000E+00  0.63028055605E+03  0.63028055605E+03  0.00000000000E+00 0.  1.
          1   -1    0    0  501    0  0.00000000000E+00 -0.00000000000E+00 -0.25428852110E+04  0.25428852110E+04  0.00000000000E+00 0. -1.
         23    2    1    2    0    0  0.85335903021E+03 -0.51894643303E+03 -0.14166214481E+04  0.17359142043E+04  0.95156516024E+02 0.  0.
        254    2    1    2    0    0 -0.85335903021E+03  0.51894643303E+03 -0.49598320683E+03  0.14372515628E+04  0.90673352118E+03 0.  0.
         23    2    4    4    0    0  0.18190120877E+03  0.73277662905E+02 -0.80395483425E+02  0.23238345870E+03  0.95294136701E+02 0.  0.
         23    2    4    4    0    0 -0.10352602390E+04  0.44566877013E+03 -0.41558772341E+03  0.12048681041E+04  0.92787807846E+02 0.  0.
         13    1    3    3    0    0  0.27785545906E+03 -0.12628186107E+03 -0.39039706445E+03  0.49554074757E+03  0.00000000000E+00 0.  1.
        -13    1    3    3    0    0  0.57550357115E+03 -0.39266457197E+03 -0.10262243837E+04  0.12403734567E+04  0.00000000000E+00 0. -1.
          2    1    5    5  502    0  0.17692095668E+03  0.86149672351E+02 -0.89155966056E+02  0.21603605542E+03  0.00000000000E+00 0. -1.
          3    1    6    6  503    0 -0.10132131997E+04  0.43775365901E+03 -0.39109244858E+03  0.11709750456E+04  0.00000000000E+00 0. -1.
         -2    1    5    5    0  502  0.49802520890E+01 -0.12872009445E+02  0.87604826305E+01  0.16347403279E+02  0.00000000000E+00 0.  1.
         -3    1    6    6    0  503 -0.22047039255E+02  0.79151111148E+01 -0.24495274830E+02  0.33893058476E+02  0.00000000000E+00 0.  1.
<mgrwt>
<rscale>  0 0.25319803E+04</rscale>
<asrwt>0</asrwt>
<pdfrwt beam="1">  1        1 0.39121312E+00 0.25319803E+04</pdfrwt>
<pdfrwt beam="2">  1       -1 0.96966237E-01 0.25319803E+04</pdfrwt>
<totfact> 0.11452552E+00</totfact>
</mgrwt>
</event>
<event>
12    1  0.4247462E-008  0.1635592E+04  0.7818608E-02  0.8798976E-01
          2   -1    0    0  501    0  0.00000000000E+00  0.00000000000E+00  0.20080611471E+04  0.20080611471E+04  0.00000000000E+00 0. -1.
         -2   -1    0    0    0  501 -0.00000000000E+00 -0.00000000000E+00 -0.33305283810E+03  0.33305283810E+03  0.00000000000E+00 0.  1.
         23    2    1    2    0    0 -0.27606679210E+03 -0.28511018495E+03  0.50808121624E+01  0.40760989445E+03  0.92840293719E+02 0.  0.
        254    2    1    2    0    0  0.27606679210E+03  0.28511018495E+03  0.16699274969E+04  0.19335040908E+04  0.89010085554E+03 0.  0.
         23    2    4    4    0    0 -0.84631195469E+02 -0.20246018569E+03  0.98609819641E+03  0.10143427644E+04  0.91372997440E+02 0.  0.
         23    2    4    4    0    0  0.36069798757E+03  0.48757037064E+03  0.68382930046E+03  0.91916132640E+03  0.96990346051E+02 0.  0.
         11    1    3    3    0    0 -0.10277485884E+03 -0.12092516238E+03  0.46394677097E+02  0.16534216815E+03  0.00000000000E+00 0. -1.
        -11    1    3    3    0    0 -0.17329193326E+03 -0.16418502257E+03 -0.41313864935E+02  0.24226772629E+03  0.00000000000E+00 0.  1.
          4    1    5    5  502    0 -0.46495427287E+02 -0.17955651619E+03  0.67265760091E+03  0.69776114489E+03  0.00000000000E+00 0. -1.
          1    1    6    6  503    0  0.17526601471E+03  0.16473004127E+03  0.23885457728E+03  0.33897739084E+03  0.00000000000E+00 0.  1.
         -4    1    5    5    0  502 -0.38135768182E+02 -0.22903669506E+02  0.31344059550E+03  0.31658161949E+03  0.00000000000E+00 0.  1.
         -1    1    6    6    0  503  0.18543197286E+03  0.32284032937E+03  0.44497472317E+03  0.58018393557E+03  0.00000000000E+00 0. -1.
<mgrwt>
<rscale>  0 0.16355922E+04</rscale>
<asrwt>0</asrwt>
<pdfrwt beam="1">  1        2 0.30893248E+00 0.16355922E+04</pdfrwt>
<pdfrwt beam="2">  1       -2 0.51238900E-01 0.16355922E+04</pdfrwt>
<totfact> 0.22764888E+01</totfact>
</mgrwt>
</event>
<event>
12    1  0.4247462E-008  0.1568885E+04  0.7818608E-02  0.8839894E-01
         -2   -1    0    0    0  501 -0.00000000000E+00  0.00000000000E+00  0.28977220552E+03  0.28977220552E+03  0.00000000000E+00 0.  1.
          2   -1    0    0  501    0  0.00000000000E+00 -0.00000000000E+00 -0.21235659616E+04  0.21235659616E+04  0.00000000000E+00 0. -1.
         23    2    1    2    0    0 -0.46537417812E+03 -0.77513777452E+02 -0.29530150854E+03  0.56391089719E+03  0.90614610673E+02 0.  0.
        254    2    1    2    0    0  0.46537417812E+03  0.77513777452E+02 -0.15384922475E+04  0.18494272699E+04  0.91150497510E+03 0.  0.
         23    2    4    4    0    0  0.32976732091E+03 -0.39496726874E+03 -0.71699785504E+03  0.88749373844E+03  0.93880681238E+02 0.  0.
         23    2    4    4    0    0  0.13560685722E+03  0.47248104619E+03 -0.82149439248E+03  0.96193353147E+03  0.93997464609E+02 0.  0.
         11    1    3    3    0    0 -0.44042703687E+03 -0.93371315730E+02 -0.26978029483E+03  0.52485768060E+03  0.00000000000E+00 0.  1.
        -11    1    3    3    0    0 -0.24947141254E+02  0.15857538278E+02 -0.25521213707E+02  0.39053216590E+02  0.00000000000E+00 0. -1.
          4    1    5    5  502    0  0.26772546845E+03 -0.30839344878E+03 -0.49856430319E+03  0.64447638446E+03  0.00000000000E+00 0. -1.
          3    1    6    6  503    0  0.14984814504E+03  0.44185808337E+03 -0.77104891494E+03  0.90122664277E+03  0.00000000000E+00 0. -1.
         -4    1    5    5    0  502  0.62041852454E+02 -0.86573819958E+02 -0.21843355185E+03  0.24301735397E+03  0.00000000000E+00 0.  1.
         -3    1    6    6    0  503 -0.14241287827E+02  0.30622962822E+02 -0.50445477543E+02  0.60706888700E+02  0.00000000000E+00 0.  1.
<mgrwt>
<rscale>  0 0.15688855E+04</rscale>
<asrwt>0</asrwt>
<pdfrwt beam="1">  1        2 0.32670244E+00 0.15688855E+04</pdfrwt>
<pdfrwt beam="2">  1       -2 0.44580341E-01 0.15688855E+04</pdfrwt>
<totfact> 0.26160266E+01</totfact>
</mgrwt>
</event>
<event>
12    1  0.4247462E-008  0.1542833E+04  0.7818608E-02  0.8856459E-01
          2   -1    0    0  501    0  0.00000000000E+00  0.00000000000E+00  0.45411699181E+04  0.45411699181E+04  0.00000000000E+00 0. -1.
         -2   -1    0    0    0  501 -0.00000000000E+00 -0.00000000000E+00 -0.13104183323E+03  0.13104183323E+03  0.00000000000E+00 0.  1.
         23    2    1    2    0    0 -0.16000803875E+03  0.18579996691E+03  0.27482168750E+04  0.27606267470E+04  0.90773586700E+02 0.  0.
        254    2    1    2    0    0  0.16000803875E+03 -0.18579996691E+03  0.16619112099E+04  0.19115850043E+04  0.91218647170E+03 0.  0.
         23    2    4    4    0    0  0.30561079589E+03  0.10360510787E+03  0.15011500016E+04  0.15381376445E+04  0.91017081833E+02 0.  0.
         23    2    4    4    0    0 -0.14560275714E+03 -0.28940507478E+03  0.16076120820E+03  0.37344735977E+03  0.93076872867E+02 0.  0.
         13    1    3    3    0    0 -0.11128549468E+02  0.38451135925E+02  0.20998141582E+03  0.21376278783E+03  0.00000000000E+00 0.  1.
        -13    1    3    3    0    0 -0.14887948928E+03  0.14734883099E+03  0.25382354591E+04  0.25468639591E+04  0.00000000000E+00 0. -1.
          2    1    5    5  502    0  0.31038528640E+03  0.98960466901E+02  0.14282294260E+04  0.14649134764E+04  0.00000000000E+00 0. -1.
          2    1    6    6  503    0 -0.15747393851E+03 -0.25120051985E+03  0.13427707980E+03  0.32546901027E+03  0.00000000000E+00 0. -1.
         -2    1    5    5    0  502 -0.47744905092E+01  0.46446409664E+01  0.72920575617E+02  0.73224168125E+02  0.00000000000E+00 0.  1.
         -2    1    6    6    0  503  0.11871181366E+02 -0.38204554925E+02  0.26484128400E+02  0.47978349504E+02  0.00000000000E+00 0.  1.
<mgrwt>
<rscale>  0 0.15428328E+04</rscale>
<asrwt>0</asrwt>
<pdfrwt beam="1">  1        2 0.69864140E+00 0.15428328E+04</pdfrwt>
<pdfrwt beam="2">  1       -2 0.20160286E-01 0.15428328E+04</pdfrwt>
<totfact> 0.23546265E+00</totfact>
</mgrwt>
</event>
<event>
12    1  0.4247462E-008  0.3080385E+04  0.7818608E-02  0.8221142E-01
          1   -1    0    0  501    0  0.00000000000E+00  0.00000000000E+00  0.22477656036E+04  0.22477656036E+04  0.00000000000E+00 0. -1.
         -1   -1    0    0    0  501 -0.00000000000E+00 -0.00000000000E+00 -0.10553558485E+04  0.10553558485E+04  0.00000000000E+00 0.  1.
         23    2    1    2    0    0 -0.63678228510E+03 -0.71074918446E+03  0.16589481261E+04  0.19160034422E+04  0.91127511664E+02 0.  0.
        254    2    1    2    0    0  0.63678228510E+03  0.71074918446E+03 -0.46653837095E+03  0.13871180099E+04  0.89206627561E+03 0.  0.
         23    2    4    4    0    0  0.42106216037E+03 -0.11230916274E+03 -0.10615975079E+03  0.45881173320E+03  0.96600325580E+02 0.  0.
         23    2    4    4    0    0  0.21572012474E+03  0.82305834720E+03 -0.36037862016E+03  0.92830627673E+03  0.88992013349E+02 0.  0.
         13    1    3    3    0    0 -0.58788052184E+03 -0.65018059249E+03  0.15672344185E+04  0.17957065555E+04  0.00000000000E+00 0. -1.
        -13    1    3    3    0    0 -0.48901763267E+02 -0.60568591967E+02  0.91713707629E+02  0.12029688670E+03  0.00000000000E+00 0.  1.
          1    1    5    5  502    0  0.30702978043E+03 -0.36236408745E+02 -0.78490447046E+02  0.31896882867E+03  0.00000000000E+00 0. -1.
          1    1    6    6  503    0  0.13304156122E+03  0.64777675177E+03 -0.29048764677E+03  0.72228654291E+03  0.00000000000E+00 0. -1.
         -1    1    5    5    0  502  0.11403237994E+03 -0.76072754000E+02 -0.27669303742E+02  0.13984290452E+03  0.00000000000E+00 0.  1.
         -1    1    6    6    0  503  0.82678563522E+02  0.17528159543E+03 -0.69890973395E+02  0.20601973382E+03  0.00000000000E+00 0.  1.
<mgrwt>
<rscale>  0 0.30803848E+04</rscale>
<asrwt>0</asrwt>
<pdfrwt beam="1">  1        1 0.34581009E+00 0.30803848E+04</pdfrwt>
<pdfrwt beam="2">  1       -1 0.16236244E+00 0.30803848E+04</pdfrwt>
<totfact> 0.47900689E-01</totfact>
</mgrwt>
</event>
<event>
12    1  0.4247462E-008  0.1861209E+04  0.7818608E-02  0.8674410E-01
         -2   -1    0    0    0  501 -0.00000000000E+00  0.00000000000E+00  0.44574352125E+03  0.44574352125E+03  0.00000000000E+00 0. -1.
          2   -1    0    0  501    0  0.00000000000E+00 -0.00000000000E+00 -0.19428762535E+04  0.19428762535E+04  0.00000000000E+00 0.  1.
         23    2    1    2    0    0  0.41986164113E+03 -0.31968833031E+03  0.28575495218E+02  0.53644736600E+03  0.92058629862E+02 0.  0.
        254    2    1    2    0    0 -0.41986164113E+03  0.31968833031E+03 -0.15257082275E+04  0.18521724087E+04  0.90789460300E+03 0.  0.
         23    2    4    4    0    0  0.42544519848E+02 -0.42670520963E+02 -0.11361565344E+04  0.11415197388E+04  0.92654378408E+02 0.  0.
         23    2    4    4    0    0 -0.46240616098E+03  0.36235885127E+03 -0.38955169307E+03  0.71065266997E+03  0.90295630918E+02 0.  0.
         11    1    3    3    0    0  0.42626483821E+02 -0.24116922096E+02 -0.23622677774E+02  0.54375306524E+02  0.00000000000E+00 0.  1.
        -11    1    3    3    0    0  0.37723515731E+03 -0.29557140821E+03  0.52198172992E+02  0.48207205947E+03  0.00000000000E+00 0. -1.
          1    1    5    5  502    0  0.42894444336E+02 -0.48476494878E+02 -0.38960271175E+03  0.39494325784E+03  0.00000000000E+00 0. -1.
          1    1    6    6  503    0 -0.92710129416E+02  0.31183888973E+02 -0.57085876511E+02  0.11325369895E+03  0.00000000000E+00 0. -1.
         -1    1    5    5    0  502 -0.34992448768E+00  0.58059739153E+01 -0.74655382265E+03  0.74657648094E+03  0.00000000000E+00 0.  1.
         -1    1    6    6    0  503 -0.36969603156E+03  0.33117496230E+03 -0.33246581656E+03  0.59739897103E+03  0.00000000000E+00 0.  1.
<mgrwt>
<rscale>  0 0.18612087E+04</rscale>
<asrwt>0</asrwt>
<pdfrwt beam="1">  1        2 0.29890404E+00 0.18612087E+04</pdfrwt>
<pdfrwt beam="2">  1       -2 0.68575927E-01 0.18612087E+04</pdfrwt>
<totfact> 0.13128249E+01</totfact>
</mgrwt>
</event>
<event>
12    1  0.4247462E-008  0.1630406E+04  0.7818608E-02  0.8802083E-01
         -2   -1    0    0    0  501 -0.00000000000E+00  0.00000000000E+00  0.80142803077E+03  0.80142803077E+03  0.00000000000E+00 0.  1.
          2   -1    0    0  501    0  0.00000000000E+00 -0.00000000000E+00 -0.82921425658E+03  0.82921425658E+03  0.00000000000E+00 0. -1.
         23    2    1    2    0    0  0.21269071202E+01  0.58170432914E+03  0.14462957511E+02  0.58880976295E+03  0.90018384378E+02 0.  0.
        254    2    1    2    0    0 -0.21269071202E+01 -0.58170432914E+03 -0.42249183318E+02  0.10418325244E+04  0.86327606541E+03 0.  0.
         23    2    4    4    0    0 -0.19158523664E+03  0.15400906296E+03  0.70006016663E+02  0.26848240984E+03  0.82208683565E+02 0.  0.
         23    2    4    4    0    0  0.18945832952E+03 -0.73571339211E+03 -0.11225519998E+03  0.77335011455E+03  0.91107166613E+02 0.  0.
         11    1    3    3    0    0  0.10436614557E+01  0.90447334145E+02  0.35330762418E+02  0.97108559129E+02  0.00000000000E+00 0. -1.
        -11    1    3    3    0    0  0.10832456645E+01  0.49125699500E+03 -0.20867804906E+02  0.49170120382E+03  0.00000000000E+00 0.  1.
          1    1    5    5  502    0 -0.29442566917E+02  0.71010852599E+02  0.25253882638E+02  0.80914550743E+02  0.00000000000E+00 0. -1.
          3    1    6    6  503    0  0.15548909293E+03 -0.69453035545E+03 -0.10212127569E+03  0.71901184108E+03  0.00000000000E+00 0. -1.
         -1    1    5    5    0  502 -0.16214266972E+03  0.82998210364E+02  0.44752134025E+02  0.18756785910E+03  0.00000000000E+00 0.  1.
         -3    1    6    6    0  503  0.33969236589E+02 -0.41183036653E+02 -0.10133924288E+02  0.54338273472E+02  0.00000000000E+00 0.  1.
<mgrwt>
<rscale>  0 0.16304055E+04</rscale>
<asrwt>0</asrwt>
<pdfrwt beam="1">  1        2 0.12757142E+00 0.16304055E+04</pdfrwt>
<pdfrwt beam="2">  1       -2 0.12329662E+00 0.16304055E+04</pdfrwt>
<totfact> 0.15583927E+01</totfact>
</mgrwt>
</event>
<event>
12    1  0.4247462E-008  0.1877164E+04  0.7818608E-02  0.8666308E-01
          2   -1    0    0  501    0  0.00000000000E+00  0.00000000000E+00  0.13686894455E+04  0.13686894455E+04  0.00000000000E+00 0. -1.
         -2   -1    0    0    0  501 -0.00000000000E+00 -0.00000000000E+00 -0.64363473805E+03  0.64363473805E+03  0.00000000000E+00 0.  1.
         23    2    1    2    0    0 -0.58901659667E+03  0.36386249146E+03  0.48322901563E+03  0.84904307994E+03  0.89595793410E+02 0.  0.
        254    2    1    2    0    0  0.58901659667E+03 -0.36386249146E+03  0.24182569181E+03  0.11632811036E+04  0.90299878014E+03 0.  0.
         23    2    4    4    0    0 -0.21136533655E+03 -0.21700826463E+03  0.40029319626E+02  0.31899346973E+03  0.91578353795E+02 0.  0.
         23    2    4    4    0    0  0.80038193322E+03 -0.14685422683E+03  0.20179637218E+03  0.84428763388E+03  0.99611394573E+02 0.  0.
         13    1    3    3    0    0 -0.58222646064E+02  0.41443486758E+02  0.86036942946E+02  0.11184719335E+03  0.00000000000E+00 0. -1.
        -13    1    3    3    0    0 -0.53079395061E+03  0.32241900470E+03  0.39719207269E+03  0.73719588659E+03  0.00000000000E+00 0.  1.
          2    1    5    5  502    0 -0.16380811734E+03 -0.11744599455E+03 -0.17186723723E+00  0.20156063723E+03  0.00000000000E+00 0. -1.
          1    1    6    6  503    0  0.72452117164E+03 -0.11417487886E+03  0.15609842305E+03  0.74988902432E+03  0.00000000000E+00 0. -1.
         -2    1    5    5    0  502 -0.47557219215E+02 -0.99562270081E+02  0.40201186863E+02  0.11743283250E+03  0.00000000000E+00 0.  1.
         -1    1    6    6    0  503  0.75860761584E+02 -0.32679347973E+02  0.45697949133E+02  0.94398609561E+02  0.00000000000E+00 0.  1.
<mgrwt>
<rscale>  0 0.18771639E+04</rscale>
<asrwt>0</asrwt>
<pdfrwt beam="1">  1        2 0.21056761E+00 0.18771639E+04</pdfrwt>
<pdfrwt beam="2">  1       -2 0.99020729E-01 0.18771639E+04</pdfrwt>
<totfact> 0.11966483E+01</totfact>
</mgrwt>
</event>
<event>
12    1  0.4247462E-008  0.1919634E+04  0.7818608E-02  0.8645144E-01
          1   -1    0    0  501    0  0.00000000000E+00  0.00000000000E+00  0.10525165609E+04  0.10525165609E+04  0.00000000000E+00 0. -1.
         -1   -1    0    0    0  501 -0.00000000000E+00 -0.00000000000E+00 -0.87528202205E+03  0.87528202205E+03  0.00000000000E+00 0.  1.
         23    2    1    2    0    0 -0.44289433514E+03  0.40171648057E+03  0.52313793625E+03  0.79975226651E+03  0.91645319519E+02 0.  0.
        254    2    1    2    0    0  0.44289433514E+03 -0.40171648057E+03 -0.34590339735E+03  0.11280463165E+04  0.89180031900E+03 0.  0.
         23    2    4    4    0    0 -0.26264593945E+03 -0.16668254311E+03 -0.94173074852E+02  0.33775781842E+03  0.91901121802E+02 0.  0.
         23    2    4    4    0    0  0.70554027459E+03 -0.23503393746E+03 -0.25173032250E+03  0.79028849806E+03  0.90331191014E+02 0.  0.
         13    1    3    3    0    0 -0.31522292492E+03  0.33266716376E+03  0.42056635247E+03  0.62202008896E+03  0.00000000000E+00 0. -1.
        -13    1    3    3    0    0 -0.12767141022E+03  0.69049316809E+02  0.10257158378E+03  0.17773217755E+03  0.00000000000E+00 0.  1.
          2    1    5    5  502    0 -0.68442753979E+02 -0.74123615561E+02 -0.66543075789E+02  0.12085818918E+03  0.00000000000E+00 0. -1.
          3    1    6    6  503    0  0.41015940229E+03 -0.18293066808E+03 -0.15657236785E+03  0.47561462444E+03  0.00000000000E+00 0. -1.
         -2    1    5    5    0  502 -0.19420318547E+03 -0.92558927549E+02 -0.27629999063E+02  0.21689962924E+03  0.00000000000E+00 0.  1.
         -3    1    6    6    0  503  0.29538087230E+03 -0.52103269372E+02 -0.95157954653E+02  0.31467387361E+03  0.00000000000E+00 0.  1.
<mgrwt>
<rscale>  0 0.19196342E+04</rscale>
<asrwt>0</asrwt>
<pdfrwt beam="1">  1        1 0.16192562E+00 0.19196342E+04</pdfrwt>
<pdfrwt beam="2">  1       -1 0.13465877E+00 0.19196342E+04</pdfrwt>
<totfact> 0.59674373E+00</totfact>
</mgrwt>
</event>
<event>
12    1  0.4247462E-008  0.2286456E+04  0.7818608E-02  0.8483280E-01
         -2   -1    0    0    0  501 -0.00000000000E+00  0.00000000000E+00  0.10957965957E+04  0.10957965957E+04  0.00000000000E+00 0.  1.
          2   -1    0    0  501    0  0.00000000000E+00 -0.00000000000E+00 -0.11927125332E+04  0.11927125332E+04  0.00000000000E+00 0. -1.
         23    2    1    2    0    0 -0.11573372915E+03  0.88126736617E+03 -0.38309090921E+03  0.97206875949E+03  0.90180717020E+02 0.  0.
        254    2    1    2    0    0  0.11573372915E+03 -0.88126736617E+03  0.28617497176E+03  0.13164403694E+04  0.92795078796E+03 0.  0.
         23    2    4    4    0    0  0.42952817024E+00  0.14651387982E+03  0.21456978073E+03  0.27554909348E+03  0.91763885288E+02 0.  0.
         23    2    4    4    0    0  0.11530420098E+03 -0.10277812460E+04  0.71605191039E+02  0.10408912759E+04  0.93263049724E+02 0.  0.
         11    1    3    3    0    0 -0.33681430426E+01  0.13931323915E+03 -0.92991236982E+02  0.16753176757E+03  0.00000000000E+00 0. -1.
        -11    1    3    3    0    0 -0.11236558611E+03  0.74195412702E+03 -0.29009967223E+03  0.80453699192E+03  0.00000000000E+00 0.  1.
          4    1    5    5  502    0 -0.17895138117E+02 -0.62268487234E+01  0.26483360401E+02  0.32563445631E+02  0.00000000000E+00 0. -1.
          1    1    6    6  503    0  0.57223763369E+02 -0.18677577403E+03  0.18250908892E+02  0.19619593404E+03  0.00000000000E+00 0. -1.
         -4    1    5    5    0  502  0.18324666287E+02  0.15274072854E+03  0.18808642032E+03  0.24298564785E+03  0.00000000000E+00 0.  1.
         -1    1    6    6    0  503  0.58080437612E+02 -0.84100547196E+03  0.53354282146E+02  0.84469534184E+03  0.00000000000E+00 0.  1.
<mgrwt>
<rscale>  0 0.22864561E+04</rscale>
<asrwt>0</asrwt>
<pdfrwt beam="1">  1        2 0.18349424E+00 0.22864561E+04</pdfrwt>
<pdfrwt beam="2">  1       -2 0.16858409E+00 0.22864561E+04</pdfrwt>
<totfact> 0.37882401E+00</totfact>
</mgrwt>
</event>
<event>
12    1  0.4247462E-008  0.1838664E+04  0.7818608E-02  0.8686004E-01
          2   -1    0    0  501    0  0.00000000000E+00  0.00000000000E+00  0.77694925818E+03  0.77694925818E+03  0.00000000000E+00 0. -1.
         -2   -1    0    0    0  501 -0.00000000000E+00 -0.00000000000E+00 -0.10878075709E+04  0.10878075709E+04  0.00000000000E+00 0.  1.
         23    2    1    2    0    0  0.43789089398E+03  0.52906384296E+03 -0.20754694886E+03  0.72318406856E+03  0.90898163263E+02 0.  0.
        254    2    1    2    0    0 -0.43789089398E+03 -0.52906384296E+03 -0.10331136390E+03  0.11415727605E+04  0.90601222108E+03 0.  0.
         23    2    4    4    0    0 -0.26300520340E+03 -0.13903687879E+03  0.37859507823E+03  0.49047692302E+03  0.93436545727E+02 0.  0.
         23    2    4    4    0    0 -0.17488569058E+03 -0.39002696417E+03 -0.48190644213E+03  0.65109583753E+03  0.94794161923E+02 0.  0.
         11    1    3    3    0    0  0.35513543715E+03  0.38706600822E+03 -0.18680328032E+03  0.55752734371E+03  0.00000000000E+00 0.  1.
        -11    1    3    3    0    0  0.82755456825E+02  0.14199783474E+03 -0.20743668534E+02  0.16565672486E+03  0.00000000000E+00 0. -1.
          2    1    5    5  502    0 -0.14215977492E+03 -0.23046379247E+02  0.18583848420E+03  0.23510950515E+03  0.00000000000E+00 0. -1.
          4    1    6    6  503    0 -0.98832832625E+02 -0.12465073504E+03 -0.14224968597E+03  0.21340268909E+03  0.00000000000E+00 0. -1.
         -2    1    5    5    0  502 -0.12084542848E+03 -0.11599049954E+03  0.19275659402E+03  0.25536741787E+03  0.00000000000E+00 0.  1.
         -4    1    6    6    0  503 -0.76052857957E+02 -0.26537622913E+03 -0.33965675616E+03  0.43769314844E+03  0.00000000000E+00 0.  1.
<mgrwt>
<rscale>  0 0.18386640E+04</rscale>
<asrwt>0</asrwt>
<pdfrwt beam="1">  1        2 0.11953065E+00 0.18386640E+04</pdfrwt>
<pdfrwt beam="2">  1       -2 0.16735501E+00 0.18386640E+04</pdfrwt>
<totfact> 0.74985587E+00</totfact>
</mgrwt>
</event>
<event>
12    1  0.4247462E-008  0.1364983E+04  0.7818608E-02  0.8979563E-01
          2   -1    0    0  501    0  0.00000000000E+00  0.00000000000E+00  0.40294692268E+03  0.40294692268E+03  0.00000000000E+00 0. -1.
         -2   -1    0    0    0  501 -0.00000000000E+00 -0.00000000000E+00 -0.11559698915E+04  0.11559698915E+04  0.00000000000E+00 0.  1.
         23    2    1    2    0    0 -0.12691478197E+03  0.13981727546E+03  0.15567068024E+03  0.26124183503E+03  0.91420475171E+02 0.  0.
        254    2    1    2    0    0  0.12691478197E+03 -0.13981727546E+03 -0.90869364903E+03  0.12976749791E+04  0.90696194586E+03 0.  0.
         23    2    4    4    0    0  0.10539200150E+03 -0.51592869484E+03 -0.57239122822E+03  0.78443034789E+03  0.10202627318E+03 0.  0.
         23    2    4    4    0    0  0.21522780474E+02  0.37611141938E+03 -0.33630242081E+03  0.51324463123E+03  0.91638983921E+02 0.  0.
         13    1    3    3    0    0 -0.22506061117E+02  0.31157181787E+02 -0.74690250549E+01  0.39154554003E+02  0.00000000000E+00 0.  1.
        -13    1    3    3    0    0 -0.10440872086E+03  0.10866009367E+03  0.16313970530E+03  0.22208728102E+03  0.00000000000E+00 0. -1.
          2    1    5    5  502    0  0.10764234232E+02 -0.30111917120E+03 -0.30792972827E+03  0.43082402620E+03  0.00000000000E+00 0. -1.
          1    1    6    6  503    0  0.43216951520E+02  0.34425458900E+03 -0.28455419301E+03  0.44872042042E+03  0.00000000000E+00 0. -1.
         -2    1    5    5    0  502  0.94627767267E+02 -0.21480952364E+03 -0.26446149995E+03  0.35360632169E+03  0.00000000000E+00 0.  1.
         -1    1    6    6    0  503 -0.21694171046E+02  0.31856830378E+02 -0.51748227804E+02  0.64524210804E+02  0.00000000000E+00 0.  1.
<mgrwt>
<rscale>  0 0.13649828E+04</rscale>
<asrwt>0</asrwt>
<pdfrwt beam="1">  1        2 0.61991834E-01 0.13649828E+04</pdfrwt>
<pdfrwt beam="2">  1       -2 0.17784152E+00 0.13649828E+04</pdfrwt>
<totfact> 0.14425436E+01</totfact>
</mgrwt>
</event>
<event>
12    1  0.4247462E-008  0.1959224E+04  0.7818608E-02  0.8625926E-01
         -1   -1    0    0    0  501 -0.00000000000E+00  0.00000000000E+00  0.42876595645E+03  0.42876595645E+03  0.00000000000E+00 0.  1.
          1   -1    0    0  501    0  0.00000000000E+00 -0.00000000000E+00 -0.22381436383E+04  0.22381436383E+04  0.00000000000E+00 0. -1.
         23    2    1    2    0    0  0.84062493458E+02 -0.75763199141E+03 -0.59424529484E+03  0.96979145729E+03  0.79342693218E+02 0.  0.
        254    2    1    2    0    0 -0.84062493458E+02  0.75763199141E+03 -0.12151323870E+04  0.16971181375E+04  0.90696775981E+03 0.  0.
         23    2    4    4    0    0  0.38505246543E+03  0.17890767843E+03 -0.46598384931E+03  0.63704870286E+03  0.91742811567E+02 0.  0.
         23    2    4    4    0    0 -0.46911495888E+03  0.57872431298E+03 -0.74914853770E+03  0.10600694346E+04  0.86792854216E+02 0.  0.
         13    1    3    3    0    0  0.33436519771E+01 -0.16538143212E+02 -0.31586018914E+02  0.35810149124E+02  0.00000000000E+00 0.  1.
        -13    1    3    3    0    0  0.80718841481E+02 -0.74109384820E+03 -0.56265927593E+03  0.93398130816E+03  0.00000000000E+00 0. -1.
          4    1    5    5  502    0  0.46065674590E+02  0.53881396332E+02 -0.54261702521E+02  0.89272524366E+02  0.00000000000E+00 0. -1.
          1    1    6    6  503    0 -0.14021656041E+03  0.13168376788E+03 -0.23317527214E+03  0.30227802777E+03  0.00000000000E+00 0. -1.
         -4    1    5    5    0  502  0.33898679084E+03  0.12502628210E+03 -0.41172214678E+03  0.54777617850E+03  0.00000000000E+00 0.  1.
         -1    1    6    6    0  503 -0.32889839847E+03  0.44704054511E+03 -0.51597326556E+03  0.75779140683E+03  0.00000000000E+00 0.  1.
<mgrwt>
<rscale>  0 0.19592241E+04</rscale>
<asrwt>0</asrwt>
<pdfrwt beam="1">  1        1 0.34432979E+00 0.19592241E+04</pdfrwt>
<pdfrwt beam="2">  1       -1 0.65963994E-01 0.19592241E+04</pdfrwt>
<totfact> 0.44494787E+00</totfact>
</mgrwt>
</event>
<event>
12    1  0.4247462E-008  0.1193713E+04  0.7818608E-02  0.9118377E-01
         -2   -1    0    0    0  501 -0.00000000000E+00  0.00000000000E+00  0.17331001123E+04  0.17331001123E+04  0.00000000000E+00 0. -1.
          2   -1    0    0  501    0  0.00000000000E+00 -0.00000000000E+00 -0.20554939590E+03  0.20554939590E+03  0.00000000000E+00 0.  1.
         23    2    1    2    0    0 -0.43806957145E+02  0.11705392044E+02 -0.56012011285E+02  0.11643255450E+03  0.91450142924E+02 0.  0.
        254    2    1    2    0    0  0.43806957145E+02 -0.11705392044E+02  0.15835627277E+04  0.18222169537E+04  0.90041526427E+03 0.  0.
         23    2    4    4    0    0 -0.21493842432E+03 -0.91948485735E+01  0.20004268264E+02  0.23474649486E+03  0.91775130680E+02 0.  0.
         23    2    4    4    0    0  0.25874538146E+03 -0.25105434709E+01  0.15635584594E+04  0.15874704588E+04  0.91607458260E+02 0.  0.
         13    1    3    3    0    0 -0.33115957785E+02 -0.22548692704E+02 -0.67723019655E+02  0.78686196972E+02  0.00000000000E+00 0.  1.
        -13    1    3    3    0    0 -0.10690999360E+02  0.34254084748E+02  0.11711008370E+02  0.37746357524E+02  0.00000000000E+00 0. -1.
          4    1    5    5  502    0 -0.66209930764E+02  0.41889414785E+01 -0.35733739345E+02  0.75353847214E+02  0.00000000000E+00 0. -1.
          1    1    6    6  503    0  0.30454562576E+02  0.26978668646E+02  0.15621544190E+03  0.16142674261E+03  0.00000000000E+00 0. -1.
         -4    1    5    5    0  502 -0.14872849355E+03 -0.13383790052E+02  0.55738007609E+02  0.15939264764E+03  0.00000000000E+00 0.  1.
         -1    1    6    6    0  503  0.22829081889E+03 -0.29489212117E+02  0.14073430175E+04  0.14260437162E+04  0.00000000000E+00 0.  1.
<mgrwt>
<rscale>  0 0.11937130E+04</rscale>
<asrwt>0</asrwt>
<pdfrwt beam="1">  1        2 0.31622985E-01 0.11937130E+04</pdfrwt>
<pdfrwt beam="2">  1       -2 0.26663078E+00 0.11937130E+04</pdfrwt>
<totfact> 0.84550929E+00</totfact>
</mgrwt>
</event>
<event>
12    1  0.4247462E-008  0.1745669E+04  0.7818608E-02  0.8735738E-01
         -2   -1    0    0    0  501 -0.00000000000E+00  0.00000000000E+00  0.79058123905E+03  0.79058123905E+03  0.00000000000E+00 0.  1.
          2   -1    0    0  501    0  0.00000000000E+00 -0.00000000000E+00 -0.96364580580E+03  0.96364580580E+03  0.00000000000E+00 0. -1.
         23    2    1    2    0    0  0.47323573714E+02  0.30668564880E+03 -0.59382175238E+03  0.67603951829E+03  0.90053033755E+02 0.  0.
        254    2    1    2    0    0 -0.47323573714E+02 -0.30668564880E+03  0.42075718563E+03  0.10781875266E+04  0.94295075448E+03 0.  0.
         23    2    4    4    0    0 -0.65542590264E+02 -0.62848504568E+03  0.37495559549E+03  0.74033672092E+03  0.90650305937E+02 0.  0.
         23    2    4    4    0    0  0.18219016550E+02  0.32179939689E+03  0.45801590142E+02  0.33785080564E+03  0.90324951231E+02 0.  0.
         13    1    3    3    0    0  0.13722376337E+02  0.14849380365E+03 -0.37797318262E+03  0.40632799573E+03  0.00000000000E+00 0. -1.
        -13    1    3    3    0    0  0.33601197376E+02  0.15819184514E+03 -0.21584856976E+03  0.26971152256E+03  0.00000000000E+00 0.  1.
          3    1    6    6  502    0 -0.12329645600E+02  0.62385425575E+01  0.13256362221E+02  0.19148647817E+02  0.00000000000E+00 0. -1.
          3    1    5    5  503    0 -0.50142112453E+02 -0.12656603132E+03  0.75482751262E+02  0.15566257567E+03  0.00000000000E+00 0. -1.
         -3    1    5    5    0  503 -0.15400477811E+02 -0.50191901436E+03  0.29947284422E+03  0.58467414525E+03  0.00000000000E+00 0.  1.
         -3    1    6    6    0  502  0.30548662150E+02  0.31556085433E+03  0.32545227920E+02  0.31870215783E+03  0.00000000000E+00 0.  1.
<mgrwt>
<rscale>  0 0.17456693E+04</rscale>
<asrwt>0</asrwt>
<pdfrwt beam="1">  1        2 0.14825320E+00 0.17456693E+04</pdfrwt>
<pdfrwt beam="2">  1       -2 0.12162788E+00 0.17456693E+04</pdfrwt>
<totfact> 0.12947974E+01</totfact>
</mgrwt>
</event>
<event>
12    1  0.4247462E-008  0.2136181E+04  0.7818608E-02  0.8545471E-01
         -1   -1    0    0    0  501 -0.00000000000E+00  0.00000000000E+00  0.10782950091E+04  0.10782950091E+04  0.00000000000E+00 0.  1.
          1   -1    0    0  501    0  0.00000000000E+00 -0.00000000000E+00 -0.10579821783E+04  0.10579821783E+04  0.00000000000E+00 0. -1.
         23    2    1    2    0    0 -0.35236680133E+03 -0.58094600760E+03 -0.53908969873E+03  0.87218455850E+03  0.91801821190E+02 0.  0.
        254    2    1    2    0    0  0.35236680133E+03  0.58094600760E+03  0.55940252953E+03  0.12640926289E+04  0.90737994133E+03 0.  0.
         23    2    4    4    0    0  0.52386188123E+03  0.55182104496E+03  0.11099117458E+03  0.77448940082E+03  0.92612390500E+02 0.  0.
         23    2    4    4    0    0 -0.17149507990E+03  0.29124962649E+02  0.44841135494E+03  0.48960322807E+03  0.91540984361E+02 0.  0.
         11    1    3    3    0    0 -0.25272957033E+02 -0.10026197017E+03 -0.97061628769E+02  0.14181729372E+03  0.00000000000E+00 0. -1.
        -11    1    3    3    0    0 -0.32709384430E+03 -0.48068403744E+03 -0.44202806996E+03  0.73036726478E+03  0.00000000000E+00 0.  1.
          2    1    5    5  502    0  0.52442863337E+03  0.54572313291E+03  0.10213446784E+03  0.76372153224E+03  0.00000000000E+00 0.  1.
          4    1    6    6  503    0 -0.26821323727E+02  0.10956143848E+02  0.19578650681E+03  0.19791861141E+03  0.00000000000E+00 0. -1.
         -2    1    5    5    0  502 -0.56675213205E+00  0.60979120450E+01  0.88567067438E+01  0.10767868574E+02  0.00000000000E+00 0. -1.
         -4    1    6    6    0  503 -0.14467375617E+03  0.18168818801E+02  0.25262484813E+03  0.29168461666E+03  0.00000000000E+00 0.  1.
<mgrwt>
<rscale>  0 0.21361806E+04</rscale>
<asrwt>0</asrwt>
<pdfrwt beam="1">  1        1 0.16276649E+00 0.21361806E+04</pdfrwt>
<pdfrwt beam="2">  1       -1 0.16589154E+00 0.21361806E+04</pdfrwt>
<totfact> 0.33018169E+00</totfact>
</mgrwt>
</event>
<event>
12    1  0.4247462E-008  0.1661447E+04  0.7818608E-02  0.8783663E-01
         -1   -1    0    0    0  501 -0.00000000000E+00  0.00000000000E+00  0.64633542517E+03  0.64633542517E+03  0.00000000000E+00 0.  1.
          1   -1    0    0  501    0  0.00000000000E+00 -0.00000000000E+00 -0.10677147108E+04  0.10677147108E+04  0.00000000000E+00 0. -1.
         23    2    1    2    0    0  0.52097174734E+03  0.14465376660E+03 -0.38709125807E+03  0.67160681684E+03  0.94232694055E+02 0.  0.
        254    2    1    2    0    0 -0.52097174734E+03 -0.14465376660E+03 -0.34288027564E+02  0.10424433191E+04  0.89060436280E+03 0.  0.
         23    2    4    4    0    0 -0.14407947563E+03  0.23477440594E+03  0.28968825558E+03  0.41051896431E+03  0.93427071330E+02 0.  0.
         23    2    4    4    0    0 -0.37689227171E+03 -0.37942817254E+03 -0.32397628314E+03  0.63192435481E+03  0.91401507497E+02 0.  0.
         11    1    3    3    0    0  0.62906181817E+02  0.51417646008E+02 -0.52243240071E+02  0.96593572069E+02  0.00000000000E+00 0.  1.
        -11    1    3    3    0    0  0.45806556553E+03  0.93236120595E+02 -0.33484801800E+03  0.57501324477E+03  0.00000000000E+00 0. -1.
          2    1    5    5  502    0 -0.13875582567E+03  0.18141178097E+03  0.18905374850E+03  0.29648732393E+03  0.00000000000E+00 0. -1.
          1    1    6    6  503    0 -0.27125209935E+03 -0.32241534254E+03 -0.23449370058E+03  0.48219980311E+03  0.00000000000E+00 0. -1.
         -2    1    5    5    0  502 -0.53236499693E+01  0.53362624968E+02  0.10063450708E+03  0.11403164038E+03  0.00000000000E+00 0.  1.
         -1    1    6    6    0  503 -0.10564017236E+03 -0.57012830005E+02 -0.89482582561E+02  0.14972455170E+03  0.00000000000E+00 0.  1.
<mgrwt>
<rscale>  0 0.16614474E+04</rscale>
<asrwt>0</asrwt>
<pdfrwt beam="1">  1        1 0.16426380E+00 0.16614474E+04</pdfrwt>
<pdfrwt beam="2">  1       -1 0.99436221E-01 0.16614474E+04</pdfrwt>
<totfact> 0.12366951E+01</totfact>
</mgrwt>
</event>
<event>
12    1  0.4247462E-008  0.1779979E+04  0.7818608E-02  0.8717019E-01
          2   -1    0    0  501    0  0.00000000000E+00  0.00000000000E+00  0.19086512842E+04  0.19086512842E+04  0.00000000000E+00 0. -1.
         -2   -1    0    0    0  501 -0.00000000000E+00 -0.00000000000E+00 -0.41499525480E+03  0.41499525480E+03  0.00000000000E+00 0.  1.
         23    2    1    2    0    0 -0.26691731382E+02 -0.43319153115E+03  0.11797797577E+04  0.12603330999E+04  0.90509087097E+02 0.  0.
        254    2    1    2    0    0  0.26691731382E+02  0.43319153115E+03  0.31387627172E+03  0.10633134391E+04  0.91855854721E+03 0.  0.
         23    2    4    4    0    0  0.23523712477E+03 -0.19699878501E+03 -0.63932135056E+01  0.32048605833E+03  0.92333169787E+02 0.  0.
         23    2    4    4    0    0 -0.20854539338E+03  0.63019031616E+03  0.32026948522E+03  0.74282738078E+03  0.92676635593E+02 0.  0.
         11    1    3    3    0    0 -0.17715408710E+02 -0.27526751193E+03  0.61912553401E+03  0.67779234703E+03  0.00000000000E+00 0. -1.
        -11    1    3    3    0    0 -0.89763226716E+01 -0.15792401922E+03  0.56065422370E+03  0.58254075288E+03  0.00000000000E+00 0.  1.
          4    1    5    5  502    0  0.21127356428E+03 -0.13251455880E+03 -0.20598681819E+02  0.25024174902E+03  0.00000000000E+00 0. -1.
          1    1    6    6  503    0 -0.11727629935E+03  0.29583521596E+03  0.20050097284E+03  0.37612876187E+03  0.00000000000E+00 0. -1.
         -4    1    5    5    0  502  0.23963560482E+02 -0.64484226211E+02  0.14205468313E+02  0.70244309314E+02  0.00000000000E+00 0.  1.
         -1    1    6    6    0  503 -0.91269094034E+02  0.33435510020E+03  0.11976851238E+03  0.36669861891E+03  0.00000000000E+00 0.  1.
<mgrwt>
<rscale>  0 0.17799789E+04</rscale>
<asrwt>0</asrwt>
<pdfrwt beam="1">  1        2 0.29363865E+00 0.17799789E+04</pdfrwt>
<pdfrwt beam="2">  1       -2 0.63845425E-01 0.17799789E+04</pdfrwt>
<totfact> 0.16110545E+01</totfact>
</mgrwt>
</event>
<event>
12    1  0.4247462E-008  0.2808653E+04  0.7818608E-02  0.8300587E-01
          1   -1    0    0  501    0  0.00000000000E+00  0.00000000000E+00  0.26461095536E+04  0.26461095536E+04  0.00000000000E+00 0. -1.
         -1   -1    0    0    0  501 -0.00000000000E+00 -0.00000000000E+00 -0.74529504103E+03  0.74529504103E+03  0.00000000000E+00 0.  1.
         23    2    1    2    0    0 -0.10875698553E+04 -0.61251401162E+03  0.71537571484E+03  0.14414583590E+04  0.89767381210E+02 0.  0.
        254    2    1    2    0    0  0.10875698553E+04  0.61251401162E+03  0.11854387977E+04  0.19499462356E+04  0.91599321732E+03 0.  0.
         23    2    4    4    0    0  0.74002803929E+03  0.47632532198E+03  0.12787227844E+04  0.15546987653E+04  0.86191531514E+02 0.  0.
         23    2    4    4    0    0  0.34754181600E+03  0.13618868964E+03 -0.93283986742E+02  0.39524747032E+03  0.90476447528E+02 0.  0.
         13    1    3    3    0    0 -0.45277018832E+03 -0.24461535988E+03  0.24540045052E+03  0.57013936791E+03  0.00000000000E+00 0.  1.
        -13    1    3    3    0    0 -0.63479966697E+03 -0.36789865174E+03  0.46997526432E+03  0.87131899107E+03  0.00000000000E+00 0. -1.
          2    1    5    5  502    0  0.46188235979E+03  0.31980104985E+03  0.74931402067E+03  0.93652524117E+03  0.00000000000E+00 0. -1.
          4    1    6    6  503    0  0.12612122331E+02  0.19138479258E+02 -0.25046734996E+02  0.33951229020E+02  0.00000000000E+00 0. -1.
         -2    1    5    5    0  502  0.27814567950E+03  0.15652427213E+03  0.52940876376E+03  0.61817352413E+03  0.00000000000E+00 0.  1.
         -4    1    6    6    0  503  0.33492969366E+03  0.11705021039E+03 -0.68237251746E+02  0.36129624130E+03  0.00000000000E+00 0.  1.
<mgrwt>
<rscale>  0 0.28086526E+04</rscale>
<asrwt>0</asrwt>
<pdfrwt beam="1">  1        1 0.40709377E+00 0.28086526E+04</pdfrwt>
<pdfrwt beam="2">  1       -1 0.11466078E+00 0.28086526E+04</pdfrwt>
<totfact> 0.64018301E-01</totfact>
</mgrwt>
</event>
<event>
12    1  0.4247462E-008  0.2019652E+04  0.7818608E-02  0.8597487E-01
         -4   -1    0    0    0  501 -0.00000000000E+00  0.00000000000E+00  0.19237295635E+04  0.19237295635E+04  0.00000000000E+00 0.  1.
          4   -1    0    0  501    0  0.00000000000E+00 -0.00000000000E+00 -0.53008934269E+03  0.53008934269E+03  0.00000000000E+00 0. -1.
         23    2    1    2    0    0  0.34076030345E+03  0.12930276639E+03 -0.31121403044E+03  0.48927488503E+03  0.98483250244E+02 0.  0.
        254    2    1    2    0    0 -0.34076030345E+03 -0.12930276639E+03  0.17048542513E+04  0.19645440212E+04  0.90557628243E+03 0.  0.
         23    2    4    4    0    0  0.55264705079E+02  0.22769770643E+03  0.11926773376E+04  0.12188828477E+04  0.91080907328E+02 0.  0.
         23    2    4    4    0    0 -0.39602500853E+03 -0.35700047281E+03  0.51217691373E+03  0.74566117353E+03  0.96954885296E+02 0.  0.
         11    1    3    3    0    0  0.18408932337E+02  0.17262400376E+01 -0.55474264482E+02  0.58474462069E+02  0.00000000000E+00 0.  1.
        -11    1    3    3    0    0  0.32235137111E+03  0.12757652635E+03 -0.25573976596E+03  0.43080042296E+03  0.00000000000E+00 0. -1.
          2    1    5    5  502    0  0.54406452235E+02  0.61873436160E+02  0.30989785305E+03  0.32066347386E+03  0.00000000000E+00 0. -1.
          3    1    6    6  503    0 -0.25932194806E+03 -0.26357436056E+03  0.29769026025E+03  0.47469864897E+03  0.00000000000E+00 0.  1.
         -2    1    5    5    0  502  0.85825284355E+00  0.16582427027E+03  0.88277948452E+03  0.89821937381E+03  0.00000000000E+00 0.  1.
         -3    1    6    6    0  503 -0.13670306047E+03 -0.93426112254E+02  0.21448665348E+03  0.27096252456E+03  0.00000000000E+00 0. -1.
<mgrwt>
<rscale>  0 0.20196520E+04</rscale>
<asrwt>0</asrwt>
<pdfrwt beam="1">  1        4 0.81552208E-01 0.20196520E+04</pdfrwt>
<pdfrwt beam="2">  1       -4 0.29595839E+00 0.20196520E+04</pdfrwt>
<totfact> 0.80786979E-02</totfact>
</mgrwt>
</event>
<event>
12    1  0.4247462E-008  0.1762089E+04  0.7818608E-02  0.8726724E-01
          2   -1    0    0  501    0  0.00000000000E+00  0.00000000000E+00  0.30474955846E+04  0.30474955846E+04  0.00000000000E+00 0. -1.
         -2   -1    0    0    0  501 -0.00000000000E+00 -0.00000000000E+00 -0.25471377102E+03  0.25471377102E+03  0.00000000000E+00 0.  1.
         23    2    1    2    0    0 -0.11207222921E+03 -0.57568301918E+03  0.14441200879E+04  0.15611655267E+04  0.88226132035E+02 0.  0.
        254    2    1    2    0    0  0.11207222921E+03  0.57568301918E+03  0.13486617257E+04  0.17410438289E+04  0.93186589205E+03 0.  0.
         23    2    4    4    0    0 -0.98141946799E+02 -0.19676882297E+03  0.10909107799E+03  0.26222368483E+03  0.92252838288E+02 0.  0.
         23    2    4    4    0    0  0.21021417601E+03  0.77245184215E+03  0.12395706477E+04  0.14788201441E+04  0.97477072879E+02 0.  0.
         13    1    3    3    0    0 -0.10899769976E+03 -0.38888606315E+03  0.10504560291E+04  0.11254202494E+04  0.00000000000E+00 0. -1.
        -13    1    3    3    0    0 -0.30745294492E+01 -0.18679695603E+03  0.39366405879E+03  0.43574527730E+03  0.00000000000E+00 0.  1.
          4    1    5    5  502    0 -0.96131180868E+02 -0.17996244282E+03  0.12476686255E+03  0.23915362166E+03  0.00000000000E+00 0.  1.
          1    1    6    6  503    0  0.13004164406E+03  0.40904677163E+03  0.58060952342E+03  0.72203705533E+03  0.00000000000E+00 0. -1.
         -4    1    5    5    0  502 -0.20107659310E+01 -0.16806380149E+02 -0.15675784554E+02  0.23070063172E+02  0.00000000000E+00 0. -1.
         -1    1    6    6    0  503  0.80172531949E+02  0.36340507051E+03  0.65896112425E+03  0.75678308875E+03  0.00000000000E+00 0.  1.
<mgrwt>
<rscale>  0 0.17620886E+04</rscale>
<asrwt>0</asrwt>
<pdfrwt beam="1">  1        2 0.46884545E+00 0.17620886E+04</pdfrwt>
<pdfrwt beam="2">  1       -2 0.39186736E-01 0.17620886E+04</pdfrwt>
<totfact> 0.95184293E+00</totfact>
</mgrwt>
</event>
<event>
12    1  0.4247462E-008  0.2167867E+04  0.7818608E-02  0.8531923E-01
         -1   -1    0    0    0  501 -0.00000000000E+00  0.00000000000E+00  0.18011681541E+04  0.18011681541E+04  0.00000000000E+00 0.  1.
          1   -1    0    0  501    0  0.00000000000E+00 -0.00000000000E+00 -0.65230542151E+03  0.65230542151E+03  0.00000000000E+00 0. -1.
         23    2    1    2    0    0 -0.17539296780E+03  0.52361070219E+03 -0.32575504238E+03  0.64815450750E+03  0.95168573354E+02 0.  0.
        254    2    1    2    0    0  0.17539296780E+03 -0.52361070219E+03  0.14746177750E+04  0.18053190681E+04  0.88303368836E+03 0.  0.
         23    2    4    4    0    0  0.17504989267E+03 -0.76157951516E+03  0.11311152903E+04  0.13775867428E+04  0.87621978860E+02 0.  0.
         23    2    4    4    0    0  0.34307512903E+00  0.23796881297E+03  0.34350248466E+03  0.42773232528E+03  0.91278209202E+02 0.  0.
         13    1    3    3    0    0  0.77929785792E+00  0.97033703632E+02 -0.76901084179E+02  0.12381406905E+03  0.00000000000E+00 0.  1.
        -13    1    3    3    0    0 -0.17617226566E+03  0.42657699856E+03 -0.24885395821E+03  0.52434043845E+03  0.00000000000E+00 0. -1.
          2    1    5    5  502    0  0.14457549413E+03 -0.55994590235E+03  0.89521726775E+03  0.10657651916E+04  0.00000000000E+00 0. -1.
          3    1    6    6  503    0 -0.43898731208E+01  0.11706201524E+03  0.93123892860E+02  0.14964907557E+03  0.00000000000E+00 0. -1.
         -2    1    5    5    0  502  0.30474398547E+02 -0.20163361281E+03  0.23589802255E+03  0.31182155125E+03  0.00000000000E+00 0.  1.
         -3    1    6    6    0  503  0.47329482498E+01  0.12090679773E+03  0.25037859180E+03  0.27808324971E+03  0.00000000000E+00 0.  1.
<mgrwt>
<rscale>  0 0.21678669E+04</rscale>
<asrwt>0</asrwt>
<pdfrwt beam="1">  1        1 0.10035468E+00 0.21678669E+04</pdfrwt>
<pdfrwt beam="2">  1       -1 0.27710279E+00 0.21678669E+04</pdfrwt>
<totfact> 0.12874477E+00</totfact>
</mgrwt>
</event>
<event>
12    1  0.4247462E-008  0.3580431E+04  0.7818608E-02  0.8094989E-01
         -2   -1    0    0    0  501 -0.00000000000E+00  0.00000000000E+00  0.10340638139E+04  0.10340638139E+04  0.00000000000E+00 0.  1.
          2   -1    0    0  501    0  0.00000000000E+00 -0.00000000000E+00 -0.30992977638E+04  0.30992977638E+04  0.00000000000E+00 0. -1.
         23    2    1    2    0    0 -0.54889071634E+03 -0.10817227324E+04 -0.22990278566E+04  0.26009002526E+04  0.88022440830E+02 0.  0.
        254    2    1    2    0    0  0.54889071634E+03  0.10817227324E+04  0.23379390670E+03  0.15324613252E+04  0.90684785607E+03 0.  0.
         23    2    4    4    0    0  0.34866584506E+03  0.37174938823E+03 -0.31675800308E+03  0.60699705646E+03  0.91347221518E+02 0.  0.
         23    2    4    4    0    0  0.20022487128E+03  0.70997334419E+03  0.55055190977E+03  0.92546426872E+03  0.96044566693E+02 0.  0.
         13    1    3    3    0    0 -0.52408110642E+03 -0.10597262979E+04 -0.22192891908E+04  0.25145427705E+04  0.00000000000E+00 0. -1.
        -13    1    3    3    0    0 -0.24809609918E+02 -0.21996434521E+02 -0.79738665838E+02  0.86357482047E+02  0.00000000000E+00 0.  1.
          4    1    5    5  502    0  0.32945591786E+03  0.33915861498E+03 -0.31682839034E+03  0.56916605385E+03  0.00000000000E+00 0. -1.
          1    1    6    6  503    0  0.10536121789E+03  0.47615186426E+03  0.40674559107E+03  0.63503036143E+03  0.00000000000E+00 0. -1.
         -4    1    5    5    0  502  0.19209927192E+02  0.32590773252E+02  0.70387267754E-01  0.37831002607E+02  0.00000000000E+00 0.  1.
         -1    1    6    6    0  503  0.94863653392E+02  0.23382147993E+03  0.14380631870E+03  0.29043390729E+03  0.00000000000E+00 0.  1.
<mgrwt>
<rscale>  0 0.35804311E+04</rscale>
<asrwt>0</asrwt>
<pdfrwt beam="1">  1        2 0.47681503E+00 0.35804311E+04</pdfrwt>
<pdfrwt beam="2">  1       -2 0.15908674E+00 0.35804311E+04</pdfrwt>
<totfact> 0.31435458E-01</totfact>
</mgrwt>
</event>
<event>
12    1  0.4247462E-008  0.2481623E+04  0.7818608E-02  0.8409562E-01
          2   -1    0    0  501    0  0.00000000000E+00  0.00000000000E+00  0.91208540951E+03  0.91208540951E+03  0.00000000000E+00 0.  1.
         -2   -1    0    0    0  501 -0.00000000000E+00 -0.00000000000E+00 -0.16880143658E+04  0.16880143658E+04  0.00000000000E+00 0. -1.
         23    2    1    2    0    0  0.85408032841E+03 -0.47442895106E+03 -0.71723648303E+03  0.12154081419E+04  0.90844602620E+02 0.  0.
        254    2    1    2    0    0 -0.85408032841E+03  0.47442895106E+03 -0.58692473259E+02  0.13846916334E+04  0.97948459724E+03 0.  0.
         23    2    4    4    0    0 -0.22175636530E+03  0.63814607545E+03  0.13846195495E+03  0.69638349488E+03  0.96808882858E+02 0.  0.
         23    2    4    4    0    0 -0.63232396311E+03 -0.16371712439E+03 -0.19715442821E+03  0.68830813854E+03  0.90891880091E+02 0.  0.
         11    1    3    3    0    0  0.14562591983E+03 -0.89896964097E+02 -0.16926682376E+03  0.24070652319E+03  0.00000000000E+00 0. -1.
        -11    1    3    3    0    0  0.70845440858E+03 -0.38453198696E+03 -0.54796965926E+03  0.97470161871E+03  0.00000000000E+00 0.  1.
          1    1    5    5  502    0 -0.16194552415E+03  0.56092017562E+03  0.10544996000E+03  0.59327690859E+03  0.00000000000E+00 0.  1.
          1    1    6    6  503    0 -0.10235674995E+03 -0.47441950732E+02 -0.63722013570E+02  0.12956904709E+03  0.00000000000E+00 0. -1.
         -1    1    5    5    0  502 -0.59810841148E+02  0.77225899837E+02  0.33011994946E+02  0.10310658628E+03  0.00000000000E+00 0. -1.
         -1    1    6    6    0  503 -0.52996721316E+03 -0.11627517366E+03 -0.13343241464E+03  0.55873909145E+03  0.00000000000E+00 0.  1.
<mgrwt>
<rscale>  0 0.24816231E+04</rscale>
<asrwt>0</asrwt>
<pdfrwt beam="1">  1        2 0.14032083E+00 0.24816231E+04</pdfrwt>
<pdfrwt beam="2">  1       -2 0.25969452E+00 0.24816231E+04</pdfrwt>
<totfact> 0.14401107E+00</totfact>
</mgrwt>
</event>
<event>
12    1  0.4247462E-008  0.1305706E+04  0.7818608E-02  0.9025052E-01
          1   -1    0    0  501    0  0.00000000000E+00  0.00000000000E+00  0.19225121237E+04  0.19225121237E+04  0.00000000000E+00 0. -1.
         -1   -1    0    0    0  501 -0.00000000000E+00 -0.00000000000E+00 -0.22169802813E+03  0.22169802813E+03  0.00000000000E+00 0.  1.
         23    2    1    2    0    0 -0.79257379441E+02  0.95656624582E+02 -0.58107447419E+02  0.16471463153E+03  0.91227804810E+02 0.  0.
        254    2    1    2    0    0  0.79257379441E+02 -0.95656624582E+02  0.17589215430E+04  0.19794955203E+04  0.89953632415E+03 0.  0.
         23    2    4    4    0    0 -0.64329171838E+02 -0.47590590998E+03  0.88020963592E+03  0.10071125026E+04  0.94243897121E+02 0.  0.
         23    2    4    4    0    0  0.14358655128E+03  0.38024928540E+03  0.87871190706E+03  0.97238301773E+03  0.90484809795E+02 0.  0.
         11    1    3    3    0    0 -0.43923393619E+02  0.17000637322E+02  0.17289925536E+02  0.50171981239E+02  0.00000000000E+00 0.  1.
        -11    1    3    3    0    0 -0.35333985822E+02  0.78655987261E+02 -0.75397372956E+02  0.11454265029E+03  0.00000000000E+00 0. -1.
          1    1    5    5  502    0 -0.88792995874E+02 -0.38117351164E+03  0.69321119273E+03  0.79606482136E+03  0.00000000000E+00 0. -1.
          3    1    6    6  503    0  0.12291949512E+03  0.29624168275E+03  0.59717977123E+03  0.67785840413E+03  0.00000000000E+00 0. -1.
         -1    1    5    5    0  502  0.24463824036E+02 -0.94732398340E+02  0.18699844319E+03  0.21104768120E+03  0.00000000000E+00 0.  1.
         -3    1    6    6    0  503  0.20667056162E+02  0.84007602654E+02  0.28153213583E+03  0.29452461360E+03  0.00000000000E+00 0.  1.
<mgrwt>
<rscale>  0 0.13057062E+04</rscale>
<asrwt>0</asrwt>
<pdfrwt beam="1">  1        1 0.29577108E+00 0.13057062E+04</pdfrwt>
<pdfrwt beam="2">  1       -1 0.34107390E-01 0.13057062E+04</pdfrwt>
<totfact> 0.26873651E+01</totfact>
</mgrwt>
</event>
<event>
12    1  0.4247462E-008  0.1819166E+04  0.7818608E-02  0.8696173E-01
          2   -1    0    0  501    0  0.00000000000E+00  0.00000000000E+00  0.11697081275E+04  0.11697081275E+04  0.00000000000E+00 0. -1.
         -2   -1    0    0    0  501 -0.00000000000E+00 -0.00000000000E+00 -0.70730553207E+03  0.70730553207E+03  0.00000000000E+00 0.  1.
         23    2    1    2    0    0  0.37644925208E+03 -0.43612764761E+03 -0.21382763515E+03  0.62090575203E+03  0.88771228170E+02 0.  0.
        254    2    1    2    0    0 -0.37644925208E+03  0.43612764761E+03  0.67623023054E+03  0.12561079075E+04  0.88803062235E+03 0.  0.
         23    2    4    4    0    0 -0.49012299838E+03  0.11291268027E+03  0.22029791457E+02  0.51206848408E+03  0.93589496055E+02 0.  0.
         23    2    4    4    0    0  0.11367374630E+03  0.32321496734E+03  0.65420043909E+03  0.74403942344E+03  0.90701782894E+02 0.  0.
         13    1    3    3    0    0  0.88657928960E+01 -0.39140253280E+02 -0.27653087332E+02  0.48736587380E+02  0.00000000000E+00 0. -1.
        -13    1    3    3    0    0  0.36758345918E+03 -0.39698739433E+03 -0.18617454781E+03  0.57216916465E+03  0.00000000000E+00 0.  1.
          2    1    5    5  502    0 -0.33625660006E+03  0.51949085680E+02  0.51005391853E+02  0.34404761093E+03  0.00000000000E+00 0. -1.
          4    1    6    6  503    0 -0.13862575437E+02  0.59522604762E+02  0.12666786129E+03  0.14064088509E+03  0.00000000000E+00 0.  1.
         -2    1    5    5    0  502 -0.15386639831E+03  0.60963594587E+02 -0.28975600396E+02  0.16802087315E+03  0.00000000000E+00 0.  1.
         -4    1    6    6    0  503  0.12753632174E+03  0.26369236258E+03  0.52753257780E+03  0.60339853835E+03  0.00000000000E+00 0. -1.
<mgrwt>
<rscale>  0 0.18191658E+04</rscale>
<asrwt>0</asrwt>
<pdfrwt beam="1">  1        2 0.17995510E+00 0.18191658E+04</pdfrwt>
<pdfrwt beam="2">  1       -2 0.10881624E+00 0.18191658E+04</pdfrwt>
<totfact> 0.12559758E+01</totfact>
</mgrwt>
</event>
<event>
12    1  0.4247462E-008  0.1347349E+04  0.7818608E-02  0.8992838E-01
         -1   -1    0    0    0  501 -0.00000000000E+00  0.00000000000E+00  0.25653362934E+03  0.25653362934E+03  0.00000000000E+00 0.  1.
          1   -1    0    0  501    0  0.00000000000E+00 -0.00000000000E+00 -0.17691131641E+04  0.17691131641E+04  0.00000000000E+00 0. -1.
         23    2    1    2    0    0 -0.28579791433E+03  0.14014523606E+03 -0.15837432368E+03  0.36689481566E+03  0.90599361655E+02 0.  0.
        254    2    1    2    0    0  0.28579791433E+03 -0.14014523606E+03 -0.13542052111E+04  0.16587519778E+04  0.90347398139E+03 0.  0.
         23    2    4    4    0    0  0.53421635693E+02  0.28353294057E+03 -0.10778856078E+03  0.31892585084E+03  0.82767898062E+02 0.  0.
         23    2    4    4    0    0  0.23237627864E+03 -0.42367817663E+03 -0.12464166504E+04  0.13398261270E+04  0.89875758941E+02 0.  0.
         13    1    3    3    0    0 -0.22207955290E+03  0.80149872128E+02 -0.79634105522E+02  0.24916845824E+03  0.00000000000E+00 0.  1.
        -13    1    3    3    0    0 -0.63718361429E+02  0.59995363933E+02 -0.78740218153E+02  0.11772635742E+03  0.00000000000E+00 0. -1.
          4    1    5    5  502    0  0.43528979037E+02  0.26235913378E+03 -0.70861126631E+02  0.27522424741E+03  0.00000000000E+00 0. -1.
          3    1    6    6  503    0  0.23161644996E+03 -0.39796254162E+03 -0.12143347020E+04  0.12987028655E+04  0.00000000000E+00 0. -1.
         -4    1    5    5    0  502  0.98926566561E+01  0.21173806789E+02 -0.36927434146E+02  0.43701603429E+02  0.00000000000E+00 0.  1.
         -3    1    6    6    0  503  0.75982867588E+00 -0.25715635011E+02 -0.32081948371E+02  0.41123261482E+02  0.00000000000E+00 0.  1.
<mgrwt>
<rscale>  0 0.13473485E+04</rscale>
<asrwt>0</asrwt>
<pdfrwt beam="1">  1        1 0.27217128E+00 0.13473485E+04</pdfrwt>
<pdfrwt beam="2">  1       -1 0.39466709E-01 0.13473485E+04</pdfrwt>
<totfact> 0.26141743E+01</totfact>
</mgrwt>
</event>
<event>
12    1  0.4247462E-008  0.2547479E+04  0.7818608E-02  0.8386264E-01
          2   -1    0    0  501    0  0.00000000000E+00  0.00000000000E+00  0.27274544278E+04  0.27274544278E+04  0.00000000000E+00 0. -1.
         -2   -1    0    0    0  501 -0.00000000000E+00 -0.00000000000E+00 -0.59484483547E+03  0.59484483547E+03  0.00000000000E+00 0.  1.
         23    2    1    2    0    0 -0.61867736235E+03 -0.36287385218E+03 -0.17409372878E+03  0.74367264358E+03  0.91111267803E+02 0.  0.
        254    2    1    2    0    0  0.61867736235E+03  0.36287385218E+03  0.23067033211E+04  0.25786266197E+04  0.90221722491E+03 0.  0.
         23    2    4    4    0    0  0.10034831936E+03  0.33722283593E+03  0.18364827795E+04  0.18720751375E+04  0.90594120258E+02 0.  0.
         23    2    4    4    0    0  0.51832904299E+03  0.25651016248E+02  0.47022054161E+03  0.70655148224E+03  0.93726558960E+02 0.  0.
         11    1    3    3    0    0 -0.11771606505E+03 -0.53340001819E+02  0.12631279953E+01  0.12924327161E+03  0.00000000000E+00 0. -1.
        -11    1    3    3    0    0 -0.50096129731E+03 -0.30953385036E+03 -0.17535685677E+03  0.61442937196E+03  0.00000000000E+00 0.  1.
          4    1    6    6  502    0  0.26162009104E+03 -0.25661825573E+02  0.27127170431E+03  0.37774586548E+03  0.00000000000E+00 0. -1.
          4    1    5    5  503    0  0.11485951855E+03  0.32145237741E+03  0.17495053740E+04  0.17824963937E+04  0.00000000000E+00 0. -1.
         -4    1    5    5    0  503 -0.14511199190E+02  0.15770458526E+02  0.86977405515E+02  0.89578743763E+02  0.00000000000E+00 0.  1.
         -4    1    6    6    0  502  0.25670895195E+03  0.51312841821E+02  0.19894883730E+03  0.32880561676E+03  0.00000000000E+00 0.  1.
<mgrwt>
<rscale>  0 0.25474789E+04</rscale>
<asrwt>0</asrwt>
<pdfrwt beam="1">  1        2 0.41960837E+00 0.25474789E+04</pdfrwt>
<pdfrwt beam="2">  1       -2 0.91514591E-01 0.25474789E+04</pdfrwt>
<totfact> 0.23094568E+00</totfact>
</mgrwt>
</event>
<event>
12    1  0.4247462E-008  0.1558878E+04  0.7818608E-02  0.8846217E-01
          1   -1    0    0  501    0  0.00000000000E+00  0.00000000000E+00  0.22943883514E+03  0.22943883514E+03  0.00000000000E+00 0. -1.
         -1   -1    0    0    0  501 -0.00000000000E+00 -0.00000000000E+00 -0.26478745941E+04  0.26478745941E+04  0.00000000000E+00 0.  1.
         23    2    1    2    0    0 -0.32705441267E+03  0.28126418012E+02 -0.14377196279E+04  0.14777999437E+04  0.95390045014E+02 0.  0.
        254    2    1    2    0    0  0.32705441267E+03 -0.28126418012E+02 -0.98071613105E+03  0.13995134856E+04  0.94290942431E+03 0.  0.
         23    2    4    4    0    0  0.39299405689E+03  0.31259812380E+03 -0.21507196617E+03  0.55381608624E+03  0.91073547147E+02 0.  0.
         23    2    4    4    0    0 -0.65939644221E+02 -0.34072454182E+03 -0.76564416489E+03  0.84569739937E+03  0.92476234792E+02 0.  0.
         11    1    3    3    0    0 -0.11141667057E+02  0.38540415068E+01 -0.10352903632E+02  0.15689901031E+02  0.00000000000E+00 0. -1.
        -11    1    3    3    0    0 -0.31591274561E+03  0.24272376505E+02 -0.14273667243E+04  0.14621100426E+04  0.00000000000E+00 0.  1.
          2    1    5    5  502    0  0.11823588417E+03  0.85045982234E+02 -0.10807711496E+03  0.18136484272E+03  0.00000000000E+00 0. -1.
          3    1    6    6  503    0  0.13291467875E+01 -0.30546061591E+02 -0.23594639085E+02  0.38620402684E+02  0.00000000000E+00 0. -1.
         -2    1    5    5    0  502  0.27475817272E+03  0.22755214157E+03 -0.10699485121E+03  0.37245124352E+03  0.00000000000E+00 0.  1.
         -3    1    6    6    0  503 -0.67268791008E+02 -0.31017848022E+03 -0.74204952580E+03  0.80707699669E+03  0.00000000000E+00 0.  1.
<mgrwt>
<rscale>  0 0.15588781E+04</rscale>
<asrwt>0</asrwt>
<pdfrwt beam="1">  1        1 0.35298283E-01 0.15588781E+04</pdfrwt>
<pdfrwt beam="2">  1       -1 0.40736531E+00 0.15588781E+04</pdfrwt>
<totfact> 0.76719628E-01</totfact>
</mgrwt>
</event>
<event>
12    1  0.4247462E-008  0.1819037E+04  0.7818608E-02  0.8696241E-01
          2   -1    0    0  501    0  0.00000000000E+00  0.00000000000E+00  0.78917076125E+03  0.78917076125E+03  0.00000000000E+00 0. -1.
         -2   -1    0    0    0  501 -0.00000000000E+00 -0.00000000000E+00 -0.10482195757E+04  0.10482195757E+04  0.00000000000E+00 0.  1.
         23    2    1    2    0    0  0.32904054850E+03  0.16347020893E+03 -0.65110093056E+03  0.75344263960E+03  0.93558525150E+02 0.  0.
        254    2    1    2    0    0 -0.32904054850E+03 -0.16347020893E+03  0.39205211611E+03  0.10839476974E+04  0.94140722172E+03 0.  0.
         23    2    4    4    0    0 -0.59851681077E+03 -0.26588684155E+03  0.10987641426E+03  0.67058747633E+03  0.93255303948E+02 0.  0.
         23    2    4    4    0    0  0.26947626227E+03  0.10241663262E+03  0.28217570185E+03  0.41336022103E+03  0.90204894834E+02 0.  0.
         13    1    3    3    0    0  0.11280739418E+03  0.65278250723E+02 -0.32392747509E+03  0.34916438438E+03  0.00000000000E+00 0. -1.
        -13    1    3    3    0    0  0.21623315431E+03  0.98191958206E+02 -0.32717345547E+03  0.40427825522E+03  0.00000000000E+00 0.  1.
          1    1    6    6  502    0  0.25959370159E+03  0.11586464001E+03  0.25744305077E+03  0.38352370083E+03  0.00000000000E+00 0. -1.
          1    1    5    5  503    0 -0.50928518387E+03 -0.20905699558E+03  0.12266971571E+03  0.56402489756E+03  0.00000000000E+00 0. -1.
         -1    1    5    5    0  503 -0.89231626896E+02 -0.56829845973E+02 -0.12793301455E+02  0.10656257877E+03  0.00000000000E+00 0.  1.
         -1    1    6    6    0  502  0.98825606813E+01 -0.13448007388E+02  0.24732651072E+02  0.29836520195E+02  0.00000000000E+00 0.  1.
<mgrwt>
<rscale>  0 0.18190374E+04</rscale>
<asrwt>0</asrwt>
<pdfrwt beam="1">  1        2 0.12141089E+00 0.18190374E+04</pdfrwt>
<pdfrwt beam="2">  1       -2 0.16126455E+00 0.18190374E+04</pdfrwt>
<totfact> 0.81475558E+00</totfact>
</mgrwt>
</event>
<event>
12    1  0.4247462E-008  0.1656419E+04  0.7818608E-02  0.8786618E-01
         -1   -1    0    0    0  501 -0.00000000000E+00  0.00000000000E+00  0.13038238447E+04  0.13038238447E+04  0.00000000000E+00 0.  1.
          1   -1    0    0  501    0  0.00000000000E+00 -0.00000000000E+00 -0.52609151695E+03  0.52609151695E+03  0.00000000000E+00 0. -1.
         23    2    1    2    0    0  0.29228262370E+03 -0.36904429640E+03 -0.97676317140E+02  0.48916550782E+03  0.90107748193E+02 0.  0.
        254    2    1    2    0    0 -0.29228262370E+03  0.36904429640E+03  0.87540864484E+03  0.13407498538E+04  0.89980389537E+03 0.  0.
         23    2    4    4    0    0  0.32054104331E+02 -0.27327301708E+03  0.24212332440E+03  0.37767831882E+03  0.91167981318E+02 0.  0.
         23    2    4    4    0    0 -0.32433672804E+03  0.64231731349E+03  0.63328532044E+03  0.96307153496E+03  0.93223602236E+02 0.  0.
         11    1    3    3    0    0  0.25622037138E+03 -0.35806820472E+03 -0.99595439780E+02  0.45142105574E+03  0.00000000000E+00 0. -1.
        -11    1    3    3    0    0  0.36062252321E+02 -0.10976091687E+02  0.19191226394E+01  0.37744452080E+02  0.00000000000E+00 0.  1.
          2    1    5    5  502    0 -0.32198177126E+02 -0.83647096637E+02  0.76420906659E+02  0.11778673253E+03  0.00000000000E+00 0. -1.
          1    1    6    6  503    0 -0.77586227202E+02  0.20751105275E+03  0.14868465771E+03  0.26681002062E+03  0.00000000000E+00 0. -1.
         -2    1    5    5    0  502  0.64252281458E+02 -0.18962592045E+03  0.16570241774E+03  0.25989158629E+03  0.00000000000E+00 0.  1.
         -1    1    6    6    0  503 -0.24675050083E+03  0.43480626074E+03  0.48460066273E+03  0.69626151434E+03  0.00000000000E+00 0.  1.
<mgrwt>
<rscale>  0 0.16564186E+04</rscale>
<asrwt>0</asrwt>
<pdfrwt beam="1">  1        1 0.80937157E-01 0.16564186E+04</pdfrwt>
<pdfrwt beam="2">  1       -1 0.20058828E+00 0.16564186E+04</pdfrwt>
<totfact> 0.58794080E+00</totfact>
</mgrwt>
</event>
<event>
12    1  0.4247462E-008  0.2609178E+04  0.7818608E-02  0.8365090E-01
         -2   -1    0    0    0  501 -0.00000000000E+00  0.00000000000E+00  0.15877153665E+04  0.15877153665E+04  0.00000000000E+00 0.  1.
          2   -1    0    0  501    0  0.00000000000E+00 -0.00000000000E+00 -0.10719502357E+04  0.10719502357E+04  0.00000000000E+00 0. -1.
         23    2    1    2    0    0 -0.75908995158E+02  0.60617749041E+03 -0.76035863477E+03  0.97934932932E+03  0.88127918107E+02 0.  0.
        254    2    1    2    0    0  0.75908995158E+02 -0.60617749041E+03  0.12761237655E+04  0.16803162729E+04  0.90650845923E+03 0.  0.
         23    2    4    4    0    0 -0.93246981393E+02 -0.14805098829E+03  0.11517833907E+04  0.11683939252E+04  0.89024102327E+02 0.  0.
         23    2    4    4    0    0  0.16915597655E+03 -0.45812650212E+03  0.12434037484E+03  0.51192234769E+03  0.90057342273E+02 0.  0.
         13    1    3    3    0    0 -0.35727974356E+02  0.46086090970E+03 -0.62008078939E+03  0.77341415271E+03  0.00000000000E+00 0.  1.
        -13    1    3    3    0    0 -0.40181020803E+02  0.14531658071E+03 -0.14027784538E+03  0.20593517661E+03  0.00000000000E+00 0. -1.
          2    1    5    5  502    0 -0.98656965376E+01  0.10309226679E+02  0.15635261242E+03  0.15700239340E+03  0.00000000000E+00 0. -1.
          3    1    6    6  503    0  0.13059746436E+03 -0.42349106435E+03  0.98402154603E+02  0.45396405509E+03  0.00000000000E+00 0. -1.
         -2    1    5    5    0  502 -0.83381284856E+02 -0.15836021496E+03  0.99543077823E+03  0.10113915318E+04  0.00000000000E+00 0.  1.
         -3    1    6    6    0  503  0.38558512186E+02 -0.34635437771E+02  0.25938220241E+02  0.57958292598E+02  0.00000000000E+00 0.  1.
<mgrwt>
<rscale>  0 0.26091775E+04</rscale>
<asrwt>0</asrwt>
<pdfrwt beam="1">  1        2 0.16491542E+00 0.26091775E+04</pdfrwt>
<pdfrwt beam="2">  1       -2 0.24426390E+00 0.26091775E+04</pdfrwt>
<totfact> 0.13972541E+00</totfact>
</mgrwt>
</event>
<event>
12    1  0.4247462E-008  0.1816252E+04  0.7818608E-02  0.8697704E-01
         -1   -1    0    0    0  501 -0.00000000000E+00  0.00000000000E+00  0.47325426916E+03  0.47325426916E+03  0.00000000000E+00 0.  1.
          1   -1    0    0  501    0  0.00000000000E+00 -0.00000000000E+00 -0.17425995848E+04  0.17425995848E+04  0.00000000000E+00 0. -1.
         23    2    1    2    0    0  0.14274932844E+03  0.67903166631E+03 -0.50503693449E+03  0.86312016976E+03  0.91938825419E+02 0.  0.
        254    2    1    2    0    0 -0.14274932844E+03 -0.67903166631E+03 -0.76430838115E+03  0.13527336842E+04  0.87421950577E+03 0.  0.
         23    2    4    4    0    0  0.11692341921E+03  0.12422744654E+03 -0.36888536309E+03  0.41600927767E+03  0.88790560189E+02 0.  0.
         23    2    4    4    0    0 -0.25967274764E+03 -0.80325911285E+03 -0.39542301807E+03  0.93672440654E+03  0.91859198419E+02 0.  0.
         13    1    3    3    0    0  0.11815790083E+02  0.11149995047E+03 -0.44611553265E+02  0.12067328840E+03  0.00000000000E+00 0.  1.
        -13    1    3    3    0    0  0.13093353835E+03  0.56753171584E+03 -0.46042538122E+03  0.74244688135E+03  0.00000000000E+00 0. -1.
          2    1    5    5  502    0  0.46039051767E+02  0.23909599850E+01 -0.13800469548E+03  0.14550122663E+03  0.00000000000E+00 0. -1.
          1    1    6    6  503    0 -0.18350149636E+02 -0.21982759297E+02 -0.46745221615E+00  0.28638928219E+02  0.00000000000E+00 0. -1.
         -2    1    5    5    0  502  0.70884367440E+02  0.12183648656E+03 -0.23088066761E+03  0.27050805104E+03  0.00000000000E+00 0.  1.
         -1    1    6    6    0  503 -0.24132259801E+03 -0.78127635356E+03 -0.39495556585E+03  0.90808547832E+03  0.00000000000E+00 0.  1.
<mgrwt>
<rscale>  0 0.18162518E+04</rscale>
<asrwt>0</asrwt>
<pdfrwt beam="1">  1        1 0.26809224E+00 0.18162518E+04</pdfrwt>
<pdfrwt beam="2">  1       -1 0.72808349E-01 0.18162518E+04</pdfrwt>
<totfact> 0.79887582E+00</totfact>
</mgrwt>
</event>
<event>
12    1  0.4247462E-008  0.1737179E+04  0.7818608E-02  0.8740439E-01
         -1   -1    0    0    0  501 -0.00000000000E+00  0.00000000000E+00  0.18139151277E+04  0.18139151277E+04  0.00000000000E+00 0.  1.
          1   -1    0    0  501    0  0.00000000000E+00 -0.00000000000E+00 -0.41592215997E+03  0.41592215997E+03  0.00000000000E+00 0. -1.
         23    2    1    2    0    0 -0.59921861418E+03 -0.16849999481E+03  0.42026165429E+03  0.75663948177E+03  0.91805509014E+02 0.  0.
        254    2    1    2    0    0  0.59921861418E+03  0.16849999481E+03  0.97773131340E+03  0.14731978059E+04  0.90933935258E+03 0.  0.
         23    2    4    4    0    0  0.27095861033E+03  0.50651562270E+03  0.72840856545E+03  0.93217107025E+03  0.91581774630E+02 0.  0.
         23    2    4    4    0    0  0.32826000385E+03 -0.33801562789E+03  0.24932274795E+03  0.54102673561E+03  0.92406174953E+02 0.  0.
         13    1    3    3    0    0 -0.12903292579E+03 -0.15110416354E+02  0.51625784866E+02  0.13979643158E+03  0.00000000000E+00 0. -1.
        -13    1    3    3    0    0 -0.47018568839E+03 -0.15338957846E+03  0.36863586942E+03  0.61684305019E+03  0.00000000000E+00 0.  1.
          3    1    6    6  502    0  0.45932372163E+02 -0.13031826770E+02  0.11105586138E+02  0.49019846643E+02  0.00000000000E+00 0. -1.
          3    1    5    5  503    0  0.17293191128E+03  0.25493472839E+03  0.43977532365E+03  0.53693528192E+03  0.00000000000E+00 0. -1.
         -3    1    5    5    0  503  0.98026699056E+02  0.25158089431E+03  0.28863324180E+03  0.39523578834E+03  0.00000000000E+00 0.  1.
         -3    1    6    6    0  502  0.28232763169E+03 -0.32498380112E+03  0.23821716182E+03  0.49200688896E+03  0.00000000000E+00 0.  1.
<mgrwt>
<rscale>  0 0.17371787E+04</rscale>
<asrwt>0</asrwt>
<pdfrwt beam="1">  1        1 0.63988026E-01 0.17371787E+04</pdfrwt>
<pdfrwt beam="2">  1       -1 0.27906386E+00 0.17371787E+04</pdfrwt>
<totfact> 0.24399427E+00</totfact>
</mgrwt>
</event>
<event>
12    1  0.4247462E-008  0.2122447E+04  0.7818608E-02  0.8551419E-01
          2   -1    0    0  501    0  0.00000000000E+00  0.00000000000E+00  0.97185853881E+03  0.97185853881E+03  0.00000000000E+00 0.  1.
         -2   -1    0    0    0  501 -0.00000000000E+00 -0.00000000000E+00 -0.11588059542E+04  0.11588059542E+04  0.00000000000E+00 0. -1.
         23    2    1    2    0    0  0.61843894469E+03 -0.78916453735E+02 -0.68291061201E+03  0.92889318868E+03  0.88210639951E+02 0.  0.
        254    2    1    2    0    0 -0.61843894469E+03  0.78916453735E+02  0.49596319666E+03  0.12017713043E+04  0.89976677001E+03 0.  0.
         23    2    4    4    0    0 -0.82625982013E+03  0.94615121330E+02  0.26532633564E+03  0.87826709371E+03  0.96424644015E+02 0.  0.
         23    2    4    4    0    0  0.20782087543E+03 -0.15698667594E+02  0.23063686102E+03  0.32350421058E+03  0.89585982022E+02 0.  0.
         11    1    3    3    0    0  0.52331418377E+03 -0.76203386491E+02 -0.61958355488E+03  0.81458484674E+03  0.00000000000E+00 0. -1.
        -11    1    3    3    0    0  0.95124760921E+02 -0.27130672439E+01 -0.63327057127E+02  0.11430834195E+03  0.00000000000E+00 0.  1.
          4    1    5    5  502    0 -0.35556839547E+03  0.88236309842E+02  0.10807617358E+03  0.38196202629E+03  0.00000000000E+00 0. -1.
          1    1    6    6  503    0  0.14976080232E+03 -0.50519883394E+02  0.14644750474E+03  0.21547024893E+03  0.00000000000E+00 0. -1.
         -4    1    5    5    0  502 -0.47069142465E+03  0.63788114875E+01  0.15725016206E+03  0.49630506742E+03  0.00000000000E+00 0.  1.
         -1    1    6    6    0  503  0.58060073112E+02  0.34821215800E+02  0.84189356284E+02  0.10803396166E+03  0.00000000000E+00 0.  1.
<mgrwt>
<rscale>  0 0.21224471E+04</rscale>
<asrwt>0</asrwt>
<pdfrwt beam="1">  1        2 0.14951670E+00 0.21224471E+04</pdfrwt>
<pdfrwt beam="2">  1       -2 0.17827784E+00 0.21224471E+04</pdfrwt>
<totfact> 0.45025312E+00</totfact>
</mgrwt>
</event>
<event>
12    1  0.4247462E-008  0.1533914E+04  0.7818608E-02  0.8862208E-01
          1   -1    0    0  501    0  0.00000000000E+00  0.00000000000E+00  0.14767285362E+04  0.14767285362E+04  0.00000000000E+00 0. -1.
         -1   -1    0    0    0  501 -0.00000000000E+00 -0.00000000000E+00 -0.39832865658E+03  0.39832865658E+03  0.00000000000E+00 0.  1.
         23    2    1    2    0    0  0.25242640326E+03  0.21592997457E+03  0.82574191156E+03  0.89321596545E+03  0.75101354461E+02 0.  0.
        254    2    1    2    0    0 -0.25242640326E+03 -0.21592997457E+03  0.25265796811E+03  0.98184122737E+03  0.88872453772E+03 0.  0.
         23    2    4    4    0    0  0.22716855497E+03 -0.31513778148E+03  0.27299811975E+03  0.48301190880E+03  0.88629323443E+02 0.  0.
         23    2    4    4    0    0 -0.47959495823E+03  0.99207806903E+02 -0.20340151649E+02  0.49882931857E+03  0.92538934462E+02 0.  0.
         13    1    3    3    0    0  0.15696711319E+03  0.15142905630E+03  0.62235633457E+03  0.65946708856E+03  0.00000000000E+00 0. -1.
        -13    1    3    3    0    0  0.95459290067E+02  0.64500918271E+02  0.20338557699E+03  0.23374887689E+03  0.00000000000E+00 0.  1.
          3    1    5    5  502    0  0.17424004854E+03 -0.25539656135E+03  0.17038660115E+03  0.35301358602E+03  0.00000000000E+00 0. -1.
          3    1    6    6  503    0 -0.47171457639E+03  0.10179434294E+03 -0.32993888756E+02  0.48369962428E+03  0.00000000000E+00 0. -1.
         -3    1    5    5    0  502  0.52928506429E+02 -0.59741220126E+02  0.10261151861E+03  0.12999832278E+03  0.00000000000E+00 0.  1.
         -3    1    6    6    0  503 -0.78803818369E+01 -0.25865360415E+01  0.12653737107E+02  0.15129694292E+02  0.00000000000E+00 0.  1.
<mgrwt>
<rscale>  0 0.15339143E+04</rscale>
<asrwt>0</asrwt>
<pdfrwt beam="1">  1        1 0.22718900E+00 0.15339143E+04</pdfrwt>
<pdfrwt beam="2">  1       -1 0.61281333E-01 0.15339143E+04</pdfrwt>
<totfact> 0.17688951E+01</totfact>
</mgrwt>
</event>
<event>
12    1  0.4247462E-008  0.2135625E+04  0.7818608E-02  0.8545711E-01
         -1   -1    0    0    0  501 -0.00000000000E+00  0.00000000000E+00  0.14999031131E+04  0.14999031131E+04  0.00000000000E+00 0.  1.
          1   -1    0    0  501    0  0.00000000000E+00 -0.00000000000E+00 -0.76019793816E+03  0.76019793816E+03  0.00000000000E+00 0. -1.
         23    2    1    2    0    0 -0.54733549314E+03 -0.62869302215E+03  0.17578950822E+02  0.83864273889E+03  0.90452008420E+02 0.  0.
        254    2    1    2    0    0  0.54733549314E+03  0.62869302215E+03  0.72212622411E+03  0.14214583124E+04  0.89679785463E+03 0.  0.
         23    2    4    4    0    0 -0.14470695535E+02 -0.18469247873E+03  0.24396712463E+03  0.31965189362E+03  0.91305325494E+02 0.  0.
         23    2    4    4    0    0  0.56180618867E+03  0.81338550089E+03  0.47815909948E+03  0.11018064187E+04  0.90106011328E+02 0.  0.
         11    1    3    3    0    0 -0.65739167509E+02 -0.91056497059E+02  0.31748760069E+02  0.11670864393E+03  0.00000000000E+00 0.  1.
        -11    1    3    3    0    0 -0.48159632563E+03 -0.53763652510E+03 -0.14169809247E+02  0.72193409496E+03  0.00000000000E+00 0. -1.
          3    1    5    5  502    0  0.16871518874E+02  0.16666232008E+01  0.27457500723E+02  0.32269802106E+02  0.00000000000E+00 0. -1.
          3    1    6    6  503    0  0.11630551388E+03  0.15887499642E+03  0.13596801176E+03  0.23928129319E+03  0.00000000000E+00 0. -1.
         -3    1    5    5    0  502 -0.31342214409E+02 -0.18635910193E+03  0.21650962391E+03  0.28738209151E+03  0.00000000000E+00 0.  1.
         -3    1    6    6    0  503  0.44550067479E+03  0.65451050447E+03  0.34219108772E+03  0.86252512555E+03  0.00000000000E+00 0.  1.
<mgrwt>
<rscale>  0 0.21356247E+04</rscale>
<asrwt>0</asrwt>
<pdfrwt beam="1">  1        1 0.11695353E+00 0.21356247E+04</pdfrwt>
<pdfrwt beam="2">  1       -1 0.23075432E+00 0.21356247E+04</pdfrwt>
<totfact> 0.20512537E+00</totfact>
</mgrwt>
</event>
<event>
12    1  0.4247462E-008  0.2310098E+04  0.7818608E-02  0.8473950E-01
          2   -1    0    0  501    0  0.00000000000E+00  0.00000000000E+00  0.87494508326E+03  0.87494508326E+03  0.00000000000E+00 0. -1.
         -2   -1    0    0    0  501 -0.00000000000E+00 -0.00000000000E+00 -0.15248256523E+04  0.15248256523E+04  0.00000000000E+00 0.  1.
         23    2    1    2    0    0  0.37409113513E+03  0.45160318726E+03 -0.10902064456E+04  0.12411600026E+04  0.89657358736E+02 0.  0.
        254    2    1    2    0    0 -0.37409113513E+03 -0.45160318726E+03  0.44032587653E+03  0.11586107330E+04  0.89699628588E+03 0.  0.
         23    2    4    4    0    0 -0.36420791126E+03 -0.36088519046E+03  0.69798443865E+03  0.87100739578E+03  0.92661122339E+02 0.  0.
         23    2    4    4    0    0 -0.98832238658E+01 -0.90717996806E+02 -0.25765856212E+03  0.28760333718E+03  0.89444462460E+02 0.  0.
         13    1    3    3    0    0  0.97199110058E+02  0.17995115306E+03 -0.34592728818E+03  0.40186536700E+03  0.00000000000E+00 0. -1.
        -13    1    3    3    0    0  0.27689202507E+03  0.27165203420E+03 -0.74427915742E+03  0.83929463564E+03  0.00000000000E+00 0.  1.
          1    1    5    5  502    0 -0.34789937986E+03 -0.36438272724E+03  0.68205621045E+03  0.84794423439E+03  0.00000000000E+00 0. -1.
          3    1    6    6  503    0  0.12735785303E+02 -0.21238206606E+02 -0.17718123608E+03  0.17890347136E+03  0.00000000000E+00 0. -1.
         -1    1    5    5    0  502 -0.16308531401E+02  0.34975367801E+01  0.15928228202E+02  0.23063161397E+02  0.00000000000E+00 0.  1.
         -3    1    6    6    0  503 -0.22619009169E+02 -0.69479790200E+02 -0.80477326043E+02  0.10869986582E+03  0.00000000000E+00 0.  1.
<mgrwt>
<rscale>  0 0.23100984E+04</rscale>
<asrwt>0</asrwt>
<pdfrwt beam="1">  1        2 0.13460694E+00 0.23100984E+04</pdfrwt>
<pdfrwt beam="2">  1       -2 0.23458856E+00 0.23100984E+04</pdfrwt>
<totfact> 0.22107698E+00</totfact>
</mgrwt>
</event>
<event>
12    1  0.4247462E-008  0.1992910E+04  0.7818608E-02  0.8609943E-01
         -1   -1    0    0    0  501 -0.00000000000E+00  0.00000000000E+00  0.41341379880E+03  0.41341379880E+03  0.00000000000E+00 0.  1.
          1   -1    0    0  501    0  0.00000000000E+00 -0.00000000000E+00 -0.24017641548E+04  0.24017641548E+04  0.00000000000E+00 0. -1.
         23    2    1    2    0    0  0.23250895225E+02  0.57203907544E+03 -0.15590961290E+04  0.16634258699E+04  0.91845398452E+02 0.  0.
        254    2    1    2    0    0 -0.23250895225E+02 -0.57203907544E+03 -0.42925422700E+03  0.11517520837E+04  0.90249895453E+03 0.  0.
         23    2    4    4    0    0  0.97045687799E+01 -0.41841632908E+03 -0.70300609186E+03  0.82349767279E+03  0.93618634847E+02 0.  0.
         23    2    4    4    0    0 -0.32955464005E+02 -0.15362274636E+03  0.27375186486E+03  0.32825441091E+03  0.90138027273E+02 0.  0.
         13    1    3    3    0    0  0.16799003398E+02  0.41020972041E+03 -0.12285703330E+04  0.12953529574E+04  0.00000000000E+00 0. -1.
        -13    1    3    3    0    0  0.64518918267E+01  0.16182935503E+03 -0.33052579596E+03  0.36807291241E+03  0.00000000000E+00 0.  1.
          2    1    5    5  502    0  0.20694270087E+02 -0.15912898799E+03 -0.35311463835E+03  0.38786625974E+03  0.00000000000E+00 0. -1.
          4    1    6    6  503    0 -0.20468329001E+02 -0.34235507010E+01  0.70597950085E+01  0.21920627205E+02  0.00000000000E+00 0. -1.
         -2    1    5    5    0  502 -0.10989701307E+02 -0.25928734109E+03 -0.34989145352E+03  0.43563141304E+03  0.00000000000E+00 0.  1.
         -4    1    6    6    0  503 -0.12487135004E+02 -0.15019919566E+03  0.26669206985E+03  0.30633378370E+03  0.00000000000E+00 0.  1.
<mgrwt>
<rscale>  0 0.19929099E+04</rscale>
<asrwt>0</asrwt>
<pdfrwt beam="1">  1        1 0.36950218E+00 0.19929099E+04</pdfrwt>
<pdfrwt beam="2">  1       -1 0.63602123E-01 0.19929099E+04</pdfrwt>
<totfact> 0.36880153E+00</totfact>
</mgrwt>
</event>
<event>
12    1  0.4247462E-008  0.2705992E+04  0.7818608E-02  0.8333063E-01
          2   -1    0    0  501    0  0.00000000000E+00  0.00000000000E+00  0.30912114845E+04  0.30912114845E+04  0.00000000000E+00 0. -1.
         -2   -1    0    0    0  501 -0.00000000000E+00 -0.00000000000E+00 -0.59219460207E+03  0.59219460207E+03  0.00000000000E+00 0.  1.
         23    2    1    2    0    0  0.67276718667E+03 -0.98877810411E+03  0.12082082479E+04  0.17023488830E+04  0.89032142196E+02 0.  0.
        254    2    1    2    0    0 -0.67276718667E+03  0.98877810411E+03  0.12908086344E+04  0.19810572036E+04  0.91000158591E+03 0.  0.
         23    2    4    4    0    0 -0.71679401034E+03  0.56287007816E+03  0.12374115256E+04  0.15398900374E+04  0.97250530554E+02 0.  0.
         23    2    4    4    0    0  0.44026823665E+02  0.42590802595E+03  0.53397108888E+02  0.44116716611E+03  0.91876054795E+02 0.  0.
         13    1    3    3    0    0  0.13542000465E+03 -0.23724838503E+03  0.23352885912E+03  0.35938990234E+03  0.00000000000E+00 0. -1.
        -13    1    3    3    0    0  0.53734718203E+03 -0.75152971907E+03  0.97467938882E+03  0.13429589806E+04  0.00000000000E+00 0.  1.
          4    1    5    5  502    0 -0.51129988834E+02  0.63568260560E+02  0.14856246993E+03  0.16948748326E+03  0.00000000000E+00 0. -1.
          3    1    6    6  503    0 -0.64514784760E+00  0.32486125566E+03  0.18839710354E+02  0.32540772321E+03  0.00000000000E+00 0. -1.
         -4    1    5    5    0  502 -0.66566402151E+03  0.49930181760E+03  0.10888490556E+04  0.13704025542E+04  0.00000000000E+00 0.  1.
         -3    1    6    6    0  503  0.44671971513E+02  0.10104677030E+03  0.34557398534E+02  0.11575944289E+03  0.00000000000E+00 0.  1.
<mgrwt>
<rscale>  0 0.27059924E+04</rscale>
<asrwt>0</asrwt>
<pdfrwt beam="1">  1        2 0.47557099E+00 0.27059924E+04</pdfrwt>
<pdfrwt beam="2">  1       -2 0.91106864E-01 0.27059924E+04</pdfrwt>
<totfact> 0.13729461E+00</totfact>
</mgrwt>
</event>
<event>
12    1  0.4247462E-008  0.1672154E+04  0.7818608E-02  0.8777407E-01
          3   -1    0    0  501    0  0.00000000000E+00  0.00000000000E+00  0.14377562931E+04  0.14377562931E+04  0.00000000000E+00 0. -1.
         -3   -1    0    0    0  501 -0.00000000000E+00 -0.00000000000E+00 -0.48619165540E+03  0.48619165540E+03  0.00000000000E+00 0.  1.
         23    2    1    2    0    0  0.54675709101E+03  0.17829981639E+03  0.18140993223E+03  0.60987406424E+03  0.91118986070E+02 0.  0.
        254    2    1    2    0    0 -0.54675709101E+03 -0.17829981639E+03  0.77015470549E+03  0.13140738843E+04  0.89605678495E+03 0.  0.
         23    2    4    4    0    0 -0.74841956467E+03 -0.29035238763E+03  0.65712450593E+03  0.10414910893E+04  0.91949546411E+02 0.  0.
         23    2    4    4    0    0  0.20166247366E+03  0.11205257124E+03  0.11303019957E+03  0.27258279494E+03  0.91115432739E+02 0.  0.
         11    1    3    3    0    0  0.30112250763E+03  0.12359223268E+03  0.14211710240E+03  0.35517189553E+03  0.00000000000E+00 0. -1.
        -11    1    3    3    0    0  0.24563458339E+03  0.54707583709E+02  0.39292829834E+02  0.25470216871E+03  0.00000000000E+00 0.  1.
          1    1    6    6  502    0  0.18477509215E+03  0.12620836724E+03  0.91419392113E+02  0.24171862133E+03  0.00000000000E+00 0. -1.
          1    1    5    5  503    0 -0.58458935902E+03 -0.24881187219E+03  0.55778550599E+03  0.84544469784E+03  0.00000000000E+00 0. -1.
         -1    1    5    5    0  503 -0.16383020565E+03 -0.41540515446E+02  0.99338999932E+02  0.19604639149E+03  0.00000000000E+00 0.  1.
         -1    1    6    6    0  502  0.16887381504E+02 -0.14155796000E+02  0.21610807452E+02  0.30864173619E+02  0.00000000000E+00 0.  1.
<mgrwt>
<rscale>  0 0.16721544E+04</rscale>
<asrwt>0</asrwt>
<pdfrwt beam="1">  1        3 0.22119327E+00 0.16721544E+04</pdfrwt>
<pdfrwt beam="2">  1       -3 0.74798717E-01 0.16721544E+04</pdfrwt>
<totfact> 0.45977840E-01</totfact>
</mgrwt>
</event>
<event>
12    1  0.4247462E-008  0.1573957E+04  0.7818608E-02  0.8836709E-01
          1   -1    0    0  501    0  0.00000000000E+00  0.00000000000E+00  0.16329303915E+04  0.16329303915E+04  0.00000000000E+00 0. -1.
         -1   -1    0    0    0  501 -0.00000000000E+00 -0.00000000000E+00 -0.37927816519E+03  0.37927816519E+03  0.00000000000E+00 0.  1.
         23    2    1    2    0    0 -0.47967680815E+03  0.16931881563E+03  0.21798198481E+03  0.56065337687E+03  0.89762807975E+02 0.  0.
        254    2    1    2    0    0  0.47967680815E+03 -0.16931881563E+03  0.10356702415E+04  0.14515551798E+04  0.88070476852E+03 0.  0.
         23    2    4    4    0    0 -0.39090444244E+02 -0.34880301612E+03  0.73400686163E+03  0.81874539433E+03  0.91576967231E+02 0.  0.
         23    2    4    4    0    0  0.51876725239E+03  0.17948420049E+03  0.30166337984E+03  0.63280978546E+03  0.90074355183E+02 0.  0.
         13    1    3    3    0    0 -0.67607845413E+02  0.53648943794E+02  0.56759738964E+02  0.10329907017E+03  0.00000000000E+00 0. -1.
        -13    1    3    3    0    0 -0.41206896273E+03  0.11566987184E+03  0.16122224584E+03  0.45735430670E+03  0.00000000000E+00 0.  1.
          1    1    5    5  502    0 -0.65894191164E+02 -0.19724747031E+03  0.39360533206E+03  0.44516712188E+03  0.00000000000E+00 0. -1.
          3    1    6    6  503    0  0.22339222093E+03  0.53157487731E+02  0.16958868028E+03  0.28546474976E+03  0.00000000000E+00 0. -1.
         -1    1    5    5    0  502  0.26803746920E+02 -0.15155554581E+03  0.34040152957E+03  0.37357827245E+03  0.00000000000E+00 0.  1.
         -3    1    6    6    0  503  0.29537503146E+03  0.12632671275E+03  0.13207469956E+03  0.34734503570E+03  0.00000000000E+00 0.  1.
<mgrwt>
<rscale>  0 0.15739566E+04</rscale>
<asrwt>0</asrwt>
<pdfrwt beam="1">  1        1 0.25122006E+00 0.15739566E+04</pdfrwt>
<pdfrwt beam="2">  1       -1 0.58350488E-01 0.15739566E+04</pdfrwt>
<totfact> 0.15158525E+01</totfact>
</mgrwt>
</event>
<event>
12    1  0.4247462E-008  0.1856194E+04  0.7818608E-02  0.8676974E-01
          2   -1    0    0  501    0  0.00000000000E+00  0.00000000000E+00  0.41107218191E+04  0.41107218191E+04  0.00000000000E+00 0. -1.
         -2   -1    0    0    0  501 -0.00000000000E+00 -0.00000000000E+00 -0.20954082670E+03  0.20954082670E+03  0.00000000000E+00 0.  1.
         23    2    1    2    0    0 -0.59889849313E+03 -0.17880805258E+03  0.72773055089E+03  0.96389499246E+03  0.94074848145E+02 0.  0.
        254    2    1    2    0    0  0.59889849313E+03  0.17880805258E+03  0.31734504415E+04  0.33563676534E+04  0.89652908201E+03 0.  0.
         23    2    4    4    0    0  0.49461703907E+03  0.36605448208E+03  0.10517690885E+04  0.12219725271E+04  0.91415219475E+02 0.  0.
         23    2    4    4    0    0  0.10428145406E+03 -0.18724642950E+03  0.21216813530E+04  0.21343951262E+04  0.90415397005E+02 0.  0.
         11    1    3    3    0    0 -0.36986906683E+03 -0.92940687874E+02  0.37664355236E+03  0.53600509661E+03  0.00000000000E+00 0. -1.
        -11    1    3    3    0    0 -0.22902942630E+03 -0.85867364707E+02  0.35108699854E+03  0.42788989586E+03  0.00000000000E+00 0.  1.
          4    1    5    5  502    0  0.45589717002E+02  0.70683554452E+02  0.15999228508E+03  0.18075430410E+03  0.00000000000E+00 0. -1.
          3    1    6    6  503    0  0.23828002333E+02  0.37983483557E+01  0.29638750101E+03  0.29736804116E+03  0.00000000000E+00 0. -1.
         -4    1    5    5    0  502  0.44902732207E+03  0.29537092763E+03  0.89177680342E+03  0.10412182230E+04  0.00000000000E+00 0.  1.
         -3    1    6    6    0  503  0.80453451724E+02 -0.19104477786E+03  0.18252938520E+04  0.18370270851E+04  0.00000000000E+00 0.  1.
<mgrwt>
<rscale>  0 0.18561940E+04</rscale>
<asrwt>0</asrwt>
<pdfrwt beam="1">  1        2 0.63241868E+00 0.18561940E+04</pdfrwt>
<pdfrwt beam="2">  1       -2 0.32237053E-01 0.18561940E+04</pdfrwt>
<totfact> 0.23687196E+00</totfact>
</mgrwt>
</event>
<event>
12    1  0.4247462E-008  0.1702997E+04  0.7818608E-02  0.8759657E-01
         -2   -1    0    0    0  501 -0.00000000000E+00  0.00000000000E+00  0.49251157897E+03  0.49251157897E+03  0.00000000000E+00 0.  1.
          2   -1    0    0  501    0  0.00000000000E+00 -0.00000000000E+00 -0.14721477354E+04  0.14721477354E+04  0.00000000000E+00 0. -1.
         23    2    1    2    0    0  0.24377760300E+03  0.50062246979E+03 -0.64578412504E+03  0.85743686177E+03  0.90058085610E+02 0.  0.
        254    2    1    2    0    0 -0.24377760300E+03 -0.50062246979E+03 -0.33385203138E+03  0.11072224526E+04  0.89690244937E+03 0.  0.
         23    2    4    4    0    0  0.11353011692E+03 -0.27780951933E+03  0.23662391774E+03  0.39306937927E+03  0.91899085930E+02 0.  0.
         23    2    4    4    0    0 -0.35730771992E+03 -0.22281295046E+03 -0.57047594912E+03  0.71415307332E+03  0.85190292882E+02 0.  0.
         13    1    3    3    0    0  0.18245116554E+03  0.34328599147E+03 -0.38788052017E+03  0.54916754973E+03  0.00000000000E+00 0. -1.
        -13    1    3    3    0    0  0.61326437460E+02  0.15733647832E+03 -0.25790360487E+03  0.30826931204E+03  0.00000000000E+00 0.  1.
          2    1    5    5  502    0  0.60252074185E+02 -0.11969215441E+03  0.50745560984E+02  0.14328864655E+03  0.00000000000E+00 0. -1.
          3    1    6    6  503    0 -0.22702488758E+03 -0.10204207164E+03 -0.29021650349E+03  0.38233297381E+03  0.00000000000E+00 0. -1.
         -2    1    5    5    0  502  0.53278042730E+02 -0.15811736492E+03  0.18587835676E+03  0.24978073272E+03  0.00000000000E+00 0.  1.
         -3    1    6    6    0  503 -0.13028283234E+03 -0.12077087882E+03 -0.28025944563E+03  0.33182009951E+03  0.00000000000E+00 0.  1.
<mgrwt>
<rscale>  0 0.17029971E+04</rscale>
<asrwt>0</asrwt>
<pdfrwt beam="1">  1        2 0.22648426E+00 0.17029971E+04</pdfrwt>
<pdfrwt beam="2">  1       -2 0.75771013E-01 0.17029971E+04</pdfrwt>
<totfact> 0.19546328E+01</totfact>
</mgrwt>
</event>
<event>
12    1  0.4247462E-008  0.2360408E+04  0.7818608E-02  0.8454477E-01
          2   -1    0    0  501    0  0.00000000000E+00  0.00000000000E+00  0.14679774927E+04  0.14679774927E+04  0.00000000000E+00 0. -1.
         -2   -1    0    0    0  501 -0.00000000000E+00 -0.00000000000E+00 -0.94884425853E+03  0.94884425853E+03  0.00000000000E+00 0.  1.
         23    2    1    2    0    0 -0.41092919456E+03 -0.83617225438E+03  0.62026101020E+03  0.11229274051E+04  0.90528418168E+02 0.  0.
        254    2    1    2    0    0  0.41092919456E+03  0.83617225438E+03 -0.10112777607E+03  0.12938943461E+04  0.89212606156E+03 0.  0.
         23    2    4    4    0    0 -0.57222115447E+02  0.71399240920E+03  0.15513645683E+03  0.73856915581E+03  0.91419619258E+02 0.  0.
         23    2    4    4    0    0  0.46815131001E+03  0.12217984518E+03 -0.25626423290E+03  0.55532519024E+03  0.92850127718E+02 0.  0.
         13    1    3    3    0    0 -0.56280027464E+02 -0.16186560597E+03  0.81261623777E+02  0.18966119104E+03  0.00000000000E+00 0.  1.
        -13    1    3    3    0    0 -0.35464916710E+03 -0.67430664841E+03  0.53899938642E+03  0.93326621410E+03  0.00000000000E+00 0. -1.
          4    1    5    5  502    0 -0.37032278394E+02  0.68853884517E+03  0.15026723609E+03  0.70571762993E+03  0.00000000000E+00 0.  1.
          3    1    6    6  503    0  0.87728080432E+02  0.51343854221E+02 -0.25570727319E+02  0.10481540707E+03  0.00000000000E+00 0. -1.
         -4    1    5    5    0  502 -0.20189837054E+02  0.25453564030E+02  0.48692207381E+01  0.32851525880E+02  0.00000000000E+00 0. -1.
         -3    1    6    6    0  503  0.38042322958E+03  0.70835990956E+02 -0.23069350558E+03  0.45050978317E+03  0.00000000000E+00 0.  1.
<mgrwt>
<rscale>  0 0.23604085E+04</rscale>
<asrwt>0</asrwt>
<pdfrwt beam="1">  1        2 0.22584269E+00 0.23604085E+04</pdfrwt>
<pdfrwt beam="2">  1       -2 0.14597604E+00 0.23604085E+04</pdfrwt>
<totfact> 0.38447217E+00</totfact>
</mgrwt>
</event>
<event>
12    1  0.4247462E-008  0.1999143E+04  0.7818608E-02  0.8607021E-01
         -2   -1    0    0    0  501 -0.00000000000E+00  0.00000000000E+00  0.50240198807E+03  0.50240198807E+03  0.00000000000E+00 0.  1.
          2   -1    0    0  501    0  0.00000000000E+00 -0.00000000000E+00 -0.19887331806E+04  0.19887331806E+04  0.00000000000E+00 0. -1.
         23    2    1    2    0    0  0.32251658619E+02 -0.73545154647E+03 -0.24972346990E+03  0.78298454079E+03  0.93668740806E+02 0.  0.
        254    2    1    2    0    0 -0.32251658619E+02  0.73545154647E+03 -0.12366077226E+04  0.17081506279E+04  0.92013627315E+03 0.  0.
         23    2    4    4    0    0  0.22101940575E+03  0.83747702360E+03 -0.78196942655E+03  0.11703700262E+04  0.89846933759E+02 0.  0.
         23    2    4    4    0    0 -0.25327106437E+03 -0.10202547712E+03 -0.45463829608E+03  0.53778060163E+03  0.89199580746E+02 0.  0.
         11    1    3    3    0    0 -0.11142337481E+02 -0.43431571253E+03 -0.10987997233E+03  0.44813825785E+03  0.00000000000E+00 0. -1.
        -11    1    3    3    0    0  0.43393996100E+02 -0.30113583395E+03 -0.13984349757E+03  0.33484628294E+03  0.00000000000E+00 0.  1.
          1    1    5    5  502    0  0.10679987288E+03  0.55694784837E+03 -0.53358170334E+03  0.77865689028E+03  0.00000000000E+00 0. -1.
          3    1    6    6  503    0 -0.26061333307E+03 -0.96424857257E+02 -0.43689838004E+03  0.51778108980E+03  0.00000000000E+00 0. -1.
         -1    1    5    5    0  502  0.11421953287E+03  0.28052917523E+03 -0.24838772321E+03  0.39171313596E+03  0.00000000000E+00 0.  1.
         -3    1    6    6    0  503  0.73422687046E+01 -0.56006198641E+01 -0.17739916037E+02  0.19999511834E+02  0.00000000000E+00 0.  1.
<mgrwt>
<rscale>  0 0.19991433E+04</rscale>
<asrwt>0</asrwt>
<pdfrwt beam="1">  1        2 0.30595895E+00 0.19991433E+04</pdfrwt>
<pdfrwt beam="2">  1       -2 0.77292613E-01 0.19991433E+04</pdfrwt>
<totfact> 0.94036496E+00</totfact>
</mgrwt>
</event>
<event>
12    1  0.4247462E-008  0.2162883E+04  0.7818608E-02  0.8534038E-01
         -1   -1    0    0    0  501 -0.00000000000E+00  0.00000000000E+00  0.12351827286E+04  0.12351827286E+04  0.00000000000E+00 0.  1.
          1   -1    0    0  501    0  0.00000000000E+00 -0.00000000000E+00 -0.94683618302E+03  0.94683618302E+03  0.00000000000E+00 0. -1.
         23    2    1    2    0    0 -0.27619008321E+03 -0.40996965843E+02  0.97692615469E+03  0.10203362752E+04  0.93486306026E+02 0.  0.
        254    2    1    2    0    0  0.27619008321E+03  0.40996965843E+02 -0.68857960916E+03  0.11616826364E+04  0.89297421929E+03 0.  0.
         23    2    4    4    0    0  0.35223053900E+02 -0.30410028018E+03 -0.65567362430E+03  0.72960050987E+03  0.93227455496E+02 0.  0.
         23    2    4    4    0    0  0.24096702931E+03  0.34509724602E+03 -0.32905984856E+02  0.43208212654E+03  0.91950757517E+02 0.  0.
         13    1    3    3    0    0 -0.25671743352E+03 -0.18946781138E+02  0.78394438800E+03  0.82512521757E+03  0.00000000000E+00 0.  1.
        -13    1    3    3    0    0 -0.19472649696E+02 -0.22050184704E+02  0.19298176669E+03  0.19521105759E+03  0.00000000000E+00 0. -1.
          4    1    5    5  502    0  0.23648192020E+01 -0.19988574474E+03 -0.50783418474E+03  0.54576136040E+03  0.00000000000E+00 0. -1.
          3    1    6    6  503    0  0.22807714528E+03  0.28211442595E+03 -0.72121336537E+01  0.36284948450E+03  0.00000000000E+00 0. -1.
         -4    1    5    5    0  502  0.32858234698E+02 -0.10421453544E+03 -0.14783943956E+03  0.18383914946E+03  0.00000000000E+00 0.  1.
         -3    1    6    6    0  503  0.12889884034E+02  0.62982820071E+02 -0.25693851203E+02  0.69232642042E+02  0.00000000000E+00 0.  1.
<mgrwt>
<rscale>  0 0.21628830E+04</rscale>
<asrwt>0</asrwt>
<pdfrwt beam="1">  1        1 0.14566710E+00 0.21628830E+04</pdfrwt>
<pdfrwt beam="2">  1       -1 0.19002811E+00 0.21628830E+04</pdfrwt>
<totfact> 0.26932278E+00</totfact>
</mgrwt>
</event>
<event>
12    1  0.4247462E-008  0.2083153E+04  0.7818608E-02  0.8568701E-01
          3   -1    0    0  501    0  0.00000000000E+00  0.00000000000E+00  0.72198464839E+03  0.72198464839E+03  0.00000000000E+00 0. -1.
         -3   -1    0    0    0  501 -0.00000000000E+00 -0.00000000000E+00 -0.15026378663E+04  0.15026378663E+04  0.00000000000E+00 0.  1.
         23    2    1    2    0    0 -0.58959969678E+03 -0.84027732036E+02  0.33165368642E+03  0.68772103380E+03  0.90981264152E+02 0.  0.
        254    2    1    2    0    0  0.58959969678E+03  0.84027732036E+02 -0.11123069044E+04  0.15369014809E+04  0.87758250343E+03 0.  0.
         23    2    4    4    0    0  0.53155531460E+03 -0.10165586625E+03 -0.17674201179E+03  0.57683624292E+03  0.92829654718E+02 0.  0.
         23    2    4    4    0    0  0.58044382176E+02  0.18568359828E+03 -0.93556489256E+03  0.96006523798E+03  0.92714853200E+02 0.  0.
         11    1    3    3    0    0 -0.56326040425E+03 -0.59981524343E+02  0.30623847817E+03  0.64392707022E+03  0.00000000000E+00 0. -1.
        -11    1    3    3    0    0 -0.26339292529E+02 -0.24046207693E+02  0.25415208258E+02  0.43793963581E+02  0.00000000000E+00 0.  1.
          4    1    5    5  502    0  0.35342765326E+03 -0.11173219469E+03 -0.11758206567E+03  0.38887109894E+03  0.00000000000E+00 0.  1.
          4    1    6    6  503    0 -0.53970933045E+01  0.34627043525E+02 -0.35802106920E+03  0.35973218753E+03  0.00000000000E+00 0. -1.
         -4    1    5    5    0  502  0.17812766134E+03  0.10076328444E+02 -0.59159946121E+02  0.18796514398E+03  0.00000000000E+00 0. -1.
         -4    1    6    6    0  503  0.63441475480E+02  0.15105655476E+03 -0.57754382337E+03  0.60033305044E+03  0.00000000000E+00 0.  1.
<mgrwt>
<rscale>  0 0.20831529E+04</rscale>
<asrwt>0</asrwt>
<pdfrwt beam="1">  1        3 0.11107456E+00 0.20831529E+04</pdfrwt>
<pdfrwt beam="2">  1       -3 0.23117505E+00 0.20831529E+04</pdfrwt>
<totfact> 0.15511551E-01</totfact>
</mgrwt>
</event>
<event>
12    1  0.4247462E-008  0.1618664E+04  0.7818608E-02  0.8809163E-01
          2   -1    0    0  501    0  0.00000000000E+00  0.00000000000E+00  0.11925986740E+04  0.11925986740E+04  0.00000000000E+00 0.  1.
         -2   -1    0    0    0  501 -0.00000000000E+00 -0.00000000000E+00 -0.54923646831E+03  0.54923646831E+03  0.00000000000E+00 0. -1.
         23    2    1    2    0    0  0.43327964353E+03  0.18289031077E+03 -0.95927656225E+02  0.48885272748E+03  0.92707921273E+02 0.  0.
        254    2    1    2    0    0 -0.43327964353E+03 -0.18289031077E+03  0.73928986189E+03  0.12529824148E+04  0.89567589935E+03 0.  0.
         23    2    4    4    0    0  0.84453338048E+02 -0.30904649929E+03  0.61341314062E+03  0.69798513547E+03  0.90914593011E+02 0.  0.
         23    2    4    4    0    0 -0.51773298157E+03  0.12615618852E+03  0.12587672127E+03  0.55499727934E+03  0.90632262508E+02 0.  0.
         11    1    3    3    0    0  0.46265623210E+02  0.50417748495E+02 -0.29153633036E+02  0.74380048222E+02  0.00000000000E+00 0.  1.
        -11    1    3    3    0    0  0.38701402032E+03  0.13247256227E+03 -0.66774023189E+02  0.41447267926E+03  0.00000000000E+00 0. -1.
          2    1    5    5  502    0  0.32770498527E+02 -0.96153040251E+02  0.11435503301E+03  0.15295877320E+03  0.00000000000E+00 0. -1.
          3    1    6    6  503    0 -0.54109656801E+02 -0.90933891219E+01  0.30312349404E+02  0.62684792504E+02  0.00000000000E+00 0. -1.
         -2    1    5    5    0  502  0.51682839521E+02 -0.21289345904E+03  0.49905810761E+03  0.54502636228E+03  0.00000000000E+00 0.  1.
         -3    1    6    6    0  503 -0.46362332477E+03  0.13524957764E+03  0.95564371863E+02  0.49231248684E+03  0.00000000000E+00 0.  1.
<mgrwt>
<rscale>  0 0.16186645E+04</rscale>
<asrwt>0</asrwt>
<pdfrwt beam="1">  1        2 0.18347672E+00 0.16186645E+04</pdfrwt>
<pdfrwt beam="2">  1       -2 0.84497918E-01 0.16186645E+04</pdfrwt>
<totfact> 0.22381107E+01</totfact>
</mgrwt>
</event>
<event>
12    1  0.4247462E-008  0.1450948E+04  0.7818608E-02  0.8917744E-01
          2   -1    0    0  501    0  0.00000000000E+00  0.00000000000E+00  0.24865299341E+04  0.24865299341E+04  0.00000000000E+00 0.  1.
         -2   -1    0    0    0  501 -0.00000000000E+00 -0.00000000000E+00 -0.21166535136E+03  0.21166535136E+03  0.00000000000E+00 0. -1.
         23    2    1    2    0    0 -0.24821379119E+03 -0.15469134780E+02  0.13926974251E+04  0.14176670807E+04  0.91238442348E+02 0.  0.
        254    2    1    2    0    0  0.24821379119E+03  0.15469134780E+02  0.88216715765E+03  0.12805282048E+04  0.89425064108E+03 0.  0.
         23    2    4    4    0    0  0.32668259480E+03  0.32886833474E+03  0.80859114470E+03  0.93691840506E+03  0.95501618340E+02 0.  0.
         23    2    4    4    0    0 -0.78468803609E+02 -0.31339919996E+03  0.73576012941E+02  0.34360979977E+03  0.90982707959E+02 0.  0.
         13    1    3    3    0    0  0.61902983641E+01  0.69904376102E+01  0.40489102294E+02  0.41551816042E+02  0.00000000000E+00 0. -1.
        -13    1    3    3    0    0 -0.25440408956E+03 -0.22459572391E+02  0.13522083228E+04  0.13761152646E+04  0.00000000000E+00 0.  1.
          2    1    5    5  502    0  0.94964442090E+02  0.89459833329E+02  0.31963771169E+03  0.34523843032E+03  0.00000000000E+00 0.  1.
          1    1    6    6  503    0 -0.60944265964E+02 -0.20346516145E+03  0.41970018841E+01  0.21243796813E+03  0.00000000000E+00 0. -1.
         -2    1    5    5    0  502  0.23171815271E+03  0.23940850141E+03  0.48895343302E+03  0.59167997474E+03  0.00000000000E+00 0. -1.
         -1    1    6    6    0  503 -0.17524537645E+02 -0.10993403850E+03  0.69379011057E+02  0.13117183164E+03  0.00000000000E+00 0.  1.
<mgrwt>
<rscale>  0 0.14509476E+04</rscale>
<asrwt>0</asrwt>
<pdfrwt beam="1">  1        2 0.38254305E+00 0.14509476E+04</pdfrwt>
<pdfrwt beam="2">  1       -2 0.32563902E-01 0.14509476E+04</pdfrwt>
<totfact> 0.30300846E+01</totfact>
</mgrwt>
</event>
<event>
12    1  0.4247462E-008  0.1351986E+04  0.7818608E-02  0.8989326E-01
         -2   -1    0    0    0  501 -0.00000000000E+00  0.00000000000E+00  0.22293329586E+03  0.22293329586E+03  0.00000000000E+00 0.  1.
          2   -1    0    0  501    0  0.00000000000E+00 -0.00000000000E+00 -0.20497913898E+04  0.20497913898E+04  0.00000000000E+00 0. -1.
         23    2    1    2    0    0  0.99562703143E+02  0.91395899586E+02 -0.10859571169E+04  0.10981413647E+04  0.91354555659E+02 0.  0.
        254    2    1    2    0    0 -0.99562703143E+02 -0.91395899586E+02 -0.74090097702E+03  0.11745833209E+04  0.90135774125E+03 0.  0.
         23    2    4    4    0    0 -0.16169290788E+03  0.35791226586E+02 -0.91356845155E+03  0.93294334539E+03  0.91380313363E+02 0.  0.
         23    2    4    4    0    0  0.62130204741E+02 -0.12718712617E+03  0.17266747453E+03  0.24163997553E+03  0.92407216213E+02 0.  0.
         13    1    3    3    0    0 -0.15254332572E+02  0.13889923718E+02 -0.76884577161E+02  0.79604414754E+02  0.00000000000E+00 0.  1.
        -13    1    3    3    0    0  0.11481703571E+03  0.77505975869E+02 -0.10090725397E+04  0.10185369500E+04  0.00000000000E+00 0. -1.
          3    1    6    6  502    0  0.47793026180E+01 -0.80961116668E+02  0.41257809886E+02  0.90993137226E+02  0.00000000000E+00 0. -1.
          3    1    5    5  503    0 -0.16894850717E+03  0.18448752499E+02 -0.83913817593E+03  0.85617570208E+03  0.00000000000E+00 0. -1.
         -3    1    5    5    0  503  0.72555992857E+01  0.17342474087E+02 -0.74430275625E+02  0.76767643301E+02  0.00000000000E+00 0.  1.
         -3    1    6    6    0  502  0.57350902123E+02 -0.46226009504E+02  0.13140966464E+03  0.15064683830E+03  0.00000000000E+00 0.  1.
<mgrwt>
<rscale>  0 0.13519863E+04</rscale>
<asrwt>0</asrwt>
<pdfrwt beam="1">  1        2 0.31535253E+00 0.13519863E+04</pdfrwt>
<pdfrwt beam="2">  1       -2 0.34297430E-01 0.13519863E+04</pdfrwt>
<totfact> 0.48795783E+01</totfact>
</mgrwt>
</event>
<event>
12    1  0.4247462E-008  0.1384939E+04  0.7818608E-02  0.8964793E-01
          1   -1    0    0  501    0  0.00000000000E+00  0.00000000000E+00  0.22690731673E+04  0.22690731673E+04  0.00000000000E+00 0. -1.
         -1   -1    0    0    0  501 -0.00000000000E+00 -0.00000000000E+00 -0.21132604389E+03  0.21132604389E+03  0.00000000000E+00 0.  1.
         23    2    1    2    0    0 -0.82144808762E+02  0.37691656019E+03  0.67045889159E+03  0.78036303006E+03  0.10313811332E+03 0.  0.
        254    2    1    2    0    0  0.82144808762E+02 -0.37691656019E+03  0.13872882318E+04  0.17000361811E+04  0.90373697283E+03 0.  0.
         23    2    4    4    0    0 -0.14607851280E+03  0.23381532867E+03  0.23520988027E+03  0.37316553677E+03  0.88996012416E+02 0.  0.
         23    2    4    4    0    0  0.22822332156E+03 -0.61073188886E+03  0.11520783516E+04  0.13268706444E+04  0.90674440757E+02 0.  0.
         13    1    3    3    0    0 -0.95557865094E+02  0.31363308129E+03  0.60618703094E+03  0.68917322332E+03  0.00000000000E+00 0. -1.
        -13    1    3    3    0    0  0.13413056331E+02  0.63283478902E+02  0.64271860651E+02  0.91189806742E+02  0.00000000000E+00 0.  1.
          4    1    5    5  502    0 -0.14840708255E+03  0.17489195647E+03  0.20107218571E+03  0.30502767490E+03  0.00000000000E+00 0. -1.
          3    1    6    6  503    0  0.20854815025E+03 -0.58847047591E+03  0.11252120636E+04  0.12868146797E+04  0.00000000000E+00 0. -1.
         -4    1    5    5    0  502  0.23285697523E+01  0.58923372208E+02  0.34137694562E+02  0.68137861865E+02  0.00000000000E+00 0.  1.
         -3    1    6    6    0  503  0.19675171317E+02 -0.22261412959E+02  0.26866287993E+02  0.40055964647E+02  0.00000000000E+00 0.  1.
<mgrwt>
<rscale>  0 0.13849394E+04</rscale>
<asrwt>0</asrwt>
<pdfrwt beam="1">  1        1 0.34908816E+00 0.13849394E+04</pdfrwt>
<pdfrwt beam="2">  1       -1 0.32511701E-01 0.13849394E+04</pdfrwt>
<totfact> 0.16924586E+01</totfact>
</mgrwt>
</event>
<event>
12    1  0.4247462E-008  0.1249104E+04  0.7818608E-02  0.9070930E-01
         -2   -1    0    0    0  501 -0.00000000000E+00  0.00000000000E+00  0.70024867854E+03  0.70024867854E+03  0.00000000000E+00 0.  1.
          2   -1    0    0  501    0  0.00000000000E+00 -0.00000000000E+00 -0.55703770365E+03  0.55703770365E+03  0.00000000000E+00 0. -1.
         23    2    1    2    0    0  0.98093951546E+02 -0.11182768025E+03  0.29277516207E+03  0.34078454389E+03  0.91043706135E+02 0.  0.
        254    2    1    2    0    0 -0.98093951546E+02  0.11182768025E+03 -0.14956418717E+03  0.91650183830E+03  0.89189591328E+03 0.  0.
         23    2    4    4    0    0 -0.48121326495E+03 -0.92944748086E+01 -0.77328528154E+02  0.49602788199E+03  0.91713493129E+02 0.  0.
         23    2    4    4    0    0  0.38311931340E+03  0.12112215506E+03 -0.72235659021E+02  0.42047395631E+03  0.10064478503E+03 0.  0.
         13    1    3    3    0    0  0.51770696727E+02 -0.63545666851E+02  0.24559880763E+03  0.25891510409E+03  0.00000000000E+00 0.  1.
        -13    1    3    3    0    0  0.46323254819E+02 -0.48282013399E+02  0.47176354441E+02  0.81869439800E+02  0.00000000000E+00 0. -1.
          3    1    6    6  502    0  0.20467336331E+03  0.41976123847E+02 -0.83355159540E+02  0.22494724547E+03  0.00000000000E+00 0. -1.
          3    1    5    5  503    0 -0.37068057234E+03 -0.32284587845E+02 -0.28974072130E+02  0.37321023322E+03  0.00000000000E+00 0. -1.
         -3    1    5    5    0  503 -0.11053269260E+03  0.22990113037E+02 -0.48354456024E+02  0.12281764877E+03  0.00000000000E+00 0.  1.
         -3    1    6    6    0  502  0.17844595009E+03  0.79146031211E+02  0.11119500519E+02  0.19552671084E+03  0.00000000000E+00 0.  1.
<mgrwt>
<rscale>  0 0.12491035E+04</rscale>
<asrwt>0</asrwt>
<pdfrwt beam="1">  1        2 0.85698109E-01 0.12491035E+04</pdfrwt>
<pdfrwt beam="2">  1       -2 0.10773057E+00 0.12491035E+04</pdfrwt>
<totfact> 0.36856640E+01</totfact>
</mgrwt>
</event>
<event>
12    1  0.4247462E-008  0.1774013E+04  0.7818608E-02  0.8720243E-01
          3   -1    0    0  501    0  0.00000000000E+00  0.00000000000E+00  0.10105273898E+04  0.10105273898E+04  0.00000000000E+00 0. -1.
         -3   -1    0    0    0  501 -0.00000000000E+00 -0.00000000000E+00 -0.77858391377E+03  0.77858391377E+03  0.00000000000E+00 0.  1.
         23    2    1    2    0    0  0.57551887010E+03 -0.28096701157E+03 -0.47411273975E+02  0.65252883993E+03  0.11567898081E+03 0.  0.
        254    2    1    2    0    0 -0.57551887010E+03  0.28096701157E+03  0.27935475004E+03  0.11365824637E+04  0.89644642279E+03 0.  0.
         23    2    4    4    0    0  0.48950755888E+02  0.32677988774E+03 -0.14747834522E+03  0.37322462608E+03  0.91463039901E+02 0.  0.
         23    2    4    4    0    0 -0.62446962599E+03 -0.45812876173E+02  0.42683309527E+03  0.76335783760E+03  0.92019365364E+02 0.  0.
         11    1    3    3    0    0  0.21927356412E+03 -0.16921701834E+03 -0.79700027511E+01  0.27708990628E+03  0.00000000000E+00 0. -1.
        -11    1    3    3    0    0  0.35624530598E+03 -0.11174999322E+03 -0.39441271224E+02  0.37543893364E+03  0.00000000000E+00 0.  1.
          1    1    5    5  502    0  0.13330014603E+02  0.23450083596E+03 -0.14132334423E+03  0.27411789248E+03  0.00000000000E+00 0. -1.
          3    1    6    6  503    0 -0.26880953377E+03  0.20531731637E+02  0.20825620313E+03  0.34066224269E+03  0.00000000000E+00 0. -1.
         -1    1    5    5    0  502  0.35620741285E+02  0.92279051777E+02 -0.61550009990E+01  0.99106733595E+02  0.00000000000E+00 0.  1.
         -3    1    6    6    0  503 -0.35566009222E+03 -0.66344607810E+02  0.21857689214E+03  0.42269559492E+03  0.00000000000E+00 0.  1.
<mgrwt>
<rscale>  0 0.17740128E+04</rscale>
<asrwt>0</asrwt>
<pdfrwt beam="1">  1        3 0.15546575E+00 0.17740128E+04</pdfrwt>
<pdfrwt beam="2">  1       -3 0.11978214E+00 0.17740128E+04</pdfrwt>
<totfact> 0.41432092E-01</totfact>
</mgrwt>
</event>
<event>
12    1  0.4247462E-008  0.2064910E+04  0.7818608E-02  0.8576860E-01
         -4   -1    0    0    0  501 -0.00000000000E+00  0.00000000000E+00  0.21432039976E+04  0.21432039976E+04  0.00000000000E+00 0.  1.
          4   -1    0    0  501    0  0.00000000000E+00 -0.00000000000E+00 -0.49736926615E+03  0.49736926615E+03  0.00000000000E+00 0. -1.
         23    2    1    2    0    0 -0.80159675544E+03  0.14303126243E+03  0.44766540293E+03  0.93304318481E+03  0.84557503352E+02 0.  0.
        254    2    1    2    0    0  0.80159675544E+03 -0.14303126243E+03  0.11981693285E+04  0.17075300790E+04  0.90389929215E+03 0.  0.
         23    2    4    4    0    0  0.30882979546E+03 -0.47844260185E+03  0.37596371956E+03  0.68777344826E+03  0.86025762916E+02 0.  0.
         23    2    4    4    0    0  0.49276695998E+03  0.33541133942E+03  0.82220560896E+03  0.10197566307E+04  0.92528260393E+02 0.  0.
         13    1    3    3    0    0 -0.37274424054E+03  0.57701104306E+02  0.16046091261E+03  0.40989680503E+03  0.00000000000E+00 0. -1.
        -13    1    3    3    0    0 -0.42885251490E+03  0.85330158124E+02  0.28720449032E+03  0.52314637978E+03  0.00000000000E+00 0.  1.
          1    1    5    5  502    0  0.47160689191E+02 -0.96645616229E+02  0.11049982719E+03  0.15419052354E+03  0.00000000000E+00 0.  1.
          1    1    6    6  503    0  0.85006647148E+02  0.89872230342E+02  0.12766450617E+03  0.17776775293E+03  0.00000000000E+00 0.  1.
         -1    1    5    5    0  502  0.26166910626E+03 -0.38179698562E+03  0.26546389237E+03  0.53358292472E+03  0.00000000000E+00 0. -1.
         -1    1    6    6    0  503  0.40776031284E+03  0.24553910907E+03  0.69454110279E+03  0.84198887776E+03  0.00000000000E+00 0. -1.
<mgrwt>
<rscale>  0 0.20649105E+04</rscale>
<asrwt>0</asrwt>
<pdfrwt beam="1">  1        4 0.76518349E-01 0.20649105E+04</pdfrwt>
<pdfrwt beam="2">  1       -4 0.32972369E+00 0.20649105E+04</pdfrwt>
<totfact> 0.56993184E-02</totfact>
</mgrwt>
</event>
<event>
12    1  0.4247462E-008  0.1210167E+04  0.7818608E-02  0.9104003E-01
          2   -1    0    0  501    0  0.00000000000E+00  0.00000000000E+00  0.80530053978E+03  0.80530053978E+03  0.00000000000E+00 0.  1.
         -2   -1    0    0    0  501 -0.00000000000E+00 -0.00000000000E+00 -0.45464544122E+03  0.45464544122E+03  0.00000000000E+00 0. -1.
         23    2    1    2    0    0  0.56863366054E+02 -0.12057973147E+03 -0.15181643585E+03  0.22181211478E+03  0.91539445197E+02 0.  0.
        254    2    1    2    0    0 -0.56863366054E+02  0.12057973147E+03  0.50247153442E+03  0.10381338662E+04  0.89859410595E+03 0.  0.
         23    2    4    4    0    0 -0.64089126375E+02  0.45064984898E+03  0.44802218437E+02  0.46623542348E+03  0.90418630953E+02 0.  0.
         23    2    4    4    0    0  0.72257603217E+01 -0.33007011751E+03  0.45766931599E+03  0.57189844275E+03  0.92780019059E+02 0.  0.
         11    1    3    3    0    0  0.63769668326E+01 -0.55369882199E+02 -0.12198170238E+03  0.13411198781E+03  0.00000000000E+00 0. -1.
        -11    1    3    3    0    0  0.50486399221E+02 -0.65209849268E+02 -0.29834733478E+02  0.87700126965E+02  0.00000000000E+00 0.  1.
          2    1    6    6  502    0 -0.12119684031E+02 -0.23056074825E+02  0.83324909716E+01  0.27347755541E+02  0.00000000000E+00 0. -1.
          2    1    5    5  503    0 -0.31332337366E+01  0.22360519584E+02 -0.18284976544E+02  0.29054265727E+02  0.00000000000E+00 0. -1.
         -2    1    5    5    0  503 -0.60955892639E+02  0.42828932939E+03  0.63087194981E+02  0.43718115775E+03  0.00000000000E+00 0.  1.
         -2    1    6    6    0  502  0.19345444353E+02 -0.30701404269E+03  0.44933682501E+03  0.54455068721E+03  0.00000000000E+00 0.  1.
<mgrwt>
<rscale>  0 0.12101673E+04</rscale>
<asrwt>0</asrwt>
<pdfrwt beam="1">  1        2 0.12389239E+00 0.12101673E+04</pdfrwt>
<pdfrwt beam="2">  1       -2 0.69945452E-01 0.12101673E+04</pdfrwt>
<totfact> 0.62721894E+01</totfact>
</mgrwt>
</event>
<event>
12    1  0.4247462E-008  0.1795580E+04  0.7818608E-02  0.8708653E-01
         -2   -1    0    0    0  501 -0.00000000000E+00  0.00000000000E+00  0.16130888583E+04  0.16130888583E+04  0.00000000000E+00 0.  1.
          2   -1    0    0  501    0  0.00000000000E+00 -0.00000000000E+00 -0.49967916639E+03  0.49967916639E+03  0.00000000000E+00 0. -1.
         23    2    1    2    0    0  0.23418290523E+03  0.32632069616E+03 -0.20307036450E+03  0.45936861028E+03  0.91951711962E+02 0.  0.
        254    2    1    2    0    0 -0.23418290523E+03 -0.32632069616E+03  0.13164800564E+04  0.16533994144E+04  0.91612392983E+03 0.  0.
         23    2    4    4    0    0 -0.27788516559E+03  0.25358187069E+02  0.73842221670E+01  0.29407911903E+03  0.92546197143E+02 0.  0.
         23    2    4    4    0    0  0.43702260357E+02 -0.35167888322E+03  0.13090958342E+04  0.13593202954E+04  0.91825038733E+02 0.  0.
         11    1    3    3    0    0  0.20328889094E+03  0.23607463347E+03 -0.12341376530E+03  0.33509485704E+03  0.00000000000E+00 0. -1.
        -11    1    3    3    0    0  0.30894014290E+02  0.90246062687E+02 -0.79656599200E+02  0.12427375324E+03  0.00000000000E+00 0.  1.
          3    1    5    5  502    0 -0.18337641828E+02  0.69182789660E+01 -0.25113066853E+02  0.31855891424E+02  0.00000000000E+00 0. -1.
          3    1    6    6  503    0  0.48083365215E+02 -0.10065415302E+03  0.32110057466E+03  0.33992476753E+03  0.00000000000E+00 0. -1.
         -3    1    5    5    0  502 -0.25954752376E+03  0.18439908103E+02  0.32497289020E+02  0.26222322760E+03  0.00000000000E+00 0.  1.
         -3    1    6    6    0  503 -0.43811048582E+01 -0.25102473020E+03  0.98799525958E+03  0.10193955279E+04  0.00000000000E+00 0.  1.
<mgrwt>
<rscale>  0 0.17955800E+04</rscale>
<asrwt>0</asrwt>
<pdfrwt beam="1">  1        2 0.76873719E-01 0.17955800E+04</pdfrwt>
<pdfrwt beam="2">  1       -2 0.24816751E+00 0.17955800E+04</pdfrwt>
<totfact> 0.38380276E+00</totfact>
</mgrwt>
</event>
<event>
12    1  0.4247462E-008  0.2246850E+04  0.7818608E-02  0.8499177E-01
         -1   -1    0    0    0  501 -0.00000000000E+00  0.00000000000E+00  0.12233931682E+04  0.12233931682E+04  0.00000000000E+00 0.  1.
          1   -1    0    0  501    0  0.00000000000E+00 -0.00000000000E+00 -0.10316258171E+04  0.10316258171E+04  0.00000000000E+00 0. -1.
         23    2    1    2    0    0 -0.41695866629E+02  0.65314059042E+03  0.75498032879E+03  0.10028000847E+04  0.85331921476E+02 0.  0.
        254    2    1    2    0    0  0.41695866629E+02 -0.65314059042E+03 -0.56321297772E+03  0.12522189007E+04  0.90692455077E+03 0.  0.
         23    2    4    4    0    0 -0.55111514995E+01 -0.13082984224E+03 -0.68779265593E+03  0.70516000322E+03  0.83934928246E+02 0.  0.
         23    2    4    4    0    0  0.47207018128E+02 -0.52231074818E+03  0.12457967821E+03  0.54705889746E+03  0.93361238412E+02 0.  0.
         11    1    3    3    0    0  0.25889109189E+02  0.14441670601E+03  0.16076431426E+03  0.21765016813E+03  0.00000000000E+00 0. -1.
        -11    1    3    3    0    0 -0.67584975817E+02  0.50872388441E+03  0.59421601452E+03  0.78514991654E+03  0.00000000000E+00 0.  1.
          1    1    5    5  502    0 -0.31379455171E+02 -0.12358304415E+03 -0.53185171247E+03  0.54692200821E+03  0.00000000000E+00 0. -1.
          3    1    6    6  503    0  0.34878481340E+01  0.19306955813E+01  0.69416482198E+01  0.80049453491E+01  0.00000000000E+00 0. -1.
         -1    1    5    5    0  502  0.25868303672E+02 -0.72467980876E+01 -0.15594094346E+03  0.15823799501E+03  0.00000000000E+00 0.  1.
         -3    1    6    6    0  503  0.43719169994E+02 -0.52424144376E+03  0.11763802999E+03  0.53905395211E+03  0.00000000000E+00 0.  1.
<mgrwt>
<rscale>  0 0.22468502E+04</rscale>
<asrwt>0</asrwt>
<pdfrwt beam="1">  1        1 0.15871166E+00 0.22468502E+04</pdfrwt>
<pdfrwt beam="2">  1       -1 0.18821433E+00 0.22468502E+04</pdfrwt>
<totfact> 0.23614196E+00</totfact>
</mgrwt>
</event>
<event>
12    1  0.4247462E-008  0.1941701E+04  0.7818608E-02  0.8634373E-01
         -1   -1    0    0    0  501 -0.00000000000E+00  0.00000000000E+00  0.95426793561E+03  0.95426793561E+03  0.00000000000E+00 0. -1.
          1   -1    0    0  501    0  0.00000000000E+00 -0.00000000000E+00 -0.98772077042E+03  0.98772077042E+03  0.00000000000E+00 0.  1.
         23    2    1    2    0    0  0.63501798770E+03  0.28962598608E+03 -0.33361362607E+03  0.77931634578E+03  0.94365559293E+02 0.  0.
        254    2    1    2    0    0 -0.63501798770E+03 -0.28962598608E+03  0.30016079127E+03  0.11626723603E+04  0.88010196010E+03 0.  0.
         23    2    4    4    0    0  0.11062908635E+03 -0.32722864938E+03  0.14691081054E+02  0.35777285636E+03  0.92022851312E+02 0.  0.
         23    2    4    4    0    0 -0.74564707405E+03  0.37602663302E+02  0.28546971021E+03  0.80489950389E+03  0.94692853961E+02 0.  0.
         11    1    3    3    0    0  0.62028113446E+03  0.29597595146E+03 -0.31935904842E+03  0.75785265812E+03  0.00000000000E+00 0.  1.
        -11    1    3    3    0    0  0.14736853241E+02 -0.63499653846E+01 -0.14254577655E+02  0.21463687660E+02  0.00000000000E+00 0. -1.
          4    1    5    5  502    0  0.38345392233E+02 -0.26850798951E+02 -0.98857373391E+01  0.47844146064E+02  0.00000000000E+00 0. -1.
          1    1    6    6  503    0 -0.20490168713E+02  0.10054575885E+01 -0.76370904165E+01  0.21890251458E+02  0.00000000000E+00 0. -1.
         -4    1    5    5    0  502  0.72283694119E+02 -0.30037785043E+03  0.24576818393E+02  0.30992871030E+03  0.00000000000E+00 0.  1.
         -1    1    6    6    0  503 -0.72515690534E+03  0.36597205713E+02  0.29310680063E+03  0.78300925244E+03  0.00000000000E+00 0.  1.
<mgrwt>
<rscale>  0 0.19417006E+04</rscale>
<asrwt>0</asrwt>
<pdfrwt beam="1">  1        1 0.15195704E+00 0.19417006E+04</pdfrwt>
<pdfrwt beam="2">  1       -1 0.14681045E+00 0.19417006E+04</pdfrwt>
<totfact> 0.53319101E+00</totfact>
</mgrwt>
</event>
<event>
12    1  0.4247462E-008  0.2616298E+04  0.7818608E-02  0.8362686E-01
         -1   -1    0    0    0  501 -0.00000000000E+00  0.00000000000E+00  0.99858204985E+03  0.99858204985E+03  0.00000000000E+00 0.  1.
          1   -1    0    0  501    0  0.00000000000E+00 -0.00000000000E+00 -0.17136839641E+04  0.17136839641E+04  0.00000000000E+00 0. -1.
         23    2    1    2    0    0  0.65609441229E+02  0.43889293728E+02 -0.15253530806E+04  0.15301648165E+04  0.92040623440E+02 0.  0.
        254    2    1    2    0    0 -0.65609441229E+02 -0.43889293728E+02  0.81025116626E+03  0.11821011975E+04  0.85710292253E+03 0.  0.
         23    2    4    4    0    0 -0.68611460046E+02 -0.43648086071E+03  0.50905214581E+03  0.67968787905E+03  0.87283741648E+02 0.  0.
         23    2    4    4    0    0  0.30020188172E+01  0.39259156698E+03  0.30119902046E+03  0.50241331845E+03  0.86954827652E+02 0.  0.
         13    1    3    3    0    0 -0.74338179072E+01  0.32822070047E+02 -0.87183589663E+03  0.87248517500E+03  0.00000000000E+00 0.  1.
        -13    1    3    3    0    0  0.73043259136E+02  0.11067223681E+02 -0.65351718393E+03  0.65767964150E+03  0.00000000000E+00 0. -1.
          2    1    5    5  502    0 -0.78517385029E+02 -0.31653687221E+03  0.33012959140E+03  0.46405400369E+03  0.00000000000E+00 0. -1.
          3    1    6    6  503    0  0.24784696743E+01  0.33130708258E+02  0.62907447116E+02  0.71141644233E+02  0.00000000000E+00 0. -1.
         -2    1    5    5    0  502  0.99059249833E+01 -0.11994398850E+03  0.17892255441E+03  0.21563387536E+03  0.00000000000E+00 0.  1.
         -3    1    6    6    0  503  0.52354914287E+00  0.35946085872E+03  0.23829157334E+03  0.43127167422E+03  0.00000000000E+00 0.  1.
<mgrwt>
<rscale>  0 0.26162982E+04</rscale>
<asrwt>0</asrwt>
<pdfrwt beam="1">  1        1 0.26364368E+00 0.26162982E+04</pdfrwt>
<pdfrwt beam="2">  1       -1 0.15362801E+00 0.26162982E+04</pdfrwt>
<totfact> 0.13414425E+00</totfact>
</mgrwt>
</event>
<event>
12    1  0.4247462E-008  0.2031348E+04  0.7818608E-02  0.8592103E-01
         -1   -1    0    0    0  501 -0.00000000000E+00  0.00000000000E+00  0.11535666165E+04  0.11535666165E+04  0.00000000000E+00 0. -1.
          1   -1    0    0  501    0  0.00000000000E+00 -0.00000000000E+00 -0.89426481379E+03  0.89426481379E+03  0.00000000000E+00 0.  1.
         23    2    1    2    0    0 -0.51725706890E+03 -0.43645873585E+01 -0.50312839423E+03  0.72728920280E+03  0.90760555709E+02 0.  0.
        254    2    1    2    0    0  0.51725706890E+03  0.43645873585E+01  0.76243019693E+03  0.13205422275E+04  0.94602222193E+03 0.  0.
         23    2    4    4    0    0  0.38071443910E+03 -0.43376608628E+03  0.56392830561E+03  0.81235549909E+03  0.93860648250E+02 0.  0.
         23    2    4    4    0    0  0.13654262980E+03  0.43813067364E+03  0.19850189132E+03  0.50818672838E+03  0.90820554444E+02 0.  0.
         13    1    3    3    0    0 -0.37101716252E+03 -0.24472965983E+02 -0.30931004139E+03  0.48365831188E+03  0.00000000000E+00 0.  1.
        -13    1    3    3    0    0 -0.14623990638E+03  0.20108378625E+02 -0.19381835285E+03  0.24363089092E+03  0.00000000000E+00 0. -1.
          4    1    5    5  502    0  0.93737806125E+02 -0.56118175347E+02  0.12626644709E+03  0.16697078057E+03  0.00000000000E+00 0. -1.
          3    1    6    6  503    0 -0.11274598455E+02  0.14722231642E+02  0.14058663500E+02  0.23270296394E+02  0.00000000000E+00 0. -1.
         -4    1    5    5    0  502  0.28697663298E+03 -0.37764791093E+03  0.43766185852E+03  0.64538471853E+03  0.00000000000E+00 0.  1.
         -3    1    6    6    0  503  0.14781722825E+03  0.42340844199E+03  0.18444322782E+03  0.48491643198E+03  0.00000000000E+00 0.  1.
<mgrwt>
<rscale>  0 0.20313484E+04</rscale>
<asrwt>0</asrwt>
<pdfrwt beam="1">  1        1 0.13757920E+00 0.20313484E+04</pdfrwt>
<pdfrwt beam="2">  1       -1 0.17747179E+00 0.20313484E+04</pdfrwt>
<totfact> 0.36935359E+00</totfact>
</mgrwt>
</event>
<event>
12    1  0.4247462E-008  0.3090753E+04  0.7818608E-02  0.8218280E-01
          1   -1    0    0  501    0  0.00000000000E+00  0.00000000000E+00  0.16846350898E+04  0.16846350898E+04  0.00000000000E+00 0. -1.
         -1   -1    0    0    0  501 -0.00000000000E+00 -0.00000000000E+00 -0.14176291251E+04  0.14176291251E+04  0.00000000000E+00 0.  1.
         23    2    1    2    0    0  0.70127882260E+03  0.42189548484E+03  0.12777876278E+04  0.15197931086E+04  0.85100435146E+02 0.  0.
        254    2    1    2    0    0 -0.70127882260E+03 -0.42189548484E+03 -0.10107816631E+04  0.15824711064E+04  0.90152506608E+03 0.  0.
         23    2    4    4    0    0 -0.62761103881E+03 -0.65459880857E+03 -0.58432197628E+03  0.10826671523E+04  0.91327840980E+02 0.  0.
         23    2    4    4    0    0 -0.73667783793E+02  0.23270332373E+03 -0.42645968685E+03  0.49980395404E+03  0.91424005132E+02 0.  0.
         11    1    3    3    0    0  0.49482835280E+03  0.34143182763E+03  0.94110368564E+03  0.11167394230E+04  0.00000000000E+00 0. -1.
        -11    1    3    3    0    0  0.20645046979E+03  0.80463657206E+02  0.33668394217E+03  0.40305368566E+03  0.00000000000E+00 0.  1.
          4    1    5    5  502    0 -0.32137983903E+03 -0.34764957341E+03 -0.25165961695E+03  0.53616955306E+03  0.00000000000E+00 0. -1.
          3    1    6    6  503    0 -0.76963019545E+02  0.97140782613E+02 -0.18071926134E+03  0.21913258417E+03  0.00000000000E+00 0. -1.
         -4    1    5    5    0  502 -0.30623119978E+03 -0.30694923516E+03 -0.33266235933E+03  0.54649759926E+03  0.00000000000E+00 0.  1.
         -3    1    6    6    0  503  0.32952357524E+01  0.13556254112E+03 -0.24574042551E+03  0.28067136987E+03  0.00000000000E+00 0.  1.
<mgrwt>
<rscale>  0 0.30907525E+04</rscale>
<asrwt>0</asrwt>
<pdfrwt beam="1">  1        1 0.25917463E+00 0.30907525E+04</pdfrwt>
<pdfrwt beam="2">  1       -1 0.21809679E+00 0.30907525E+04</pdfrwt>
<totfact> 0.46734473E-01</totfact>
</mgrwt>
</event>
<event>
12    1  0.4247462E-008  0.1971501E+04  0.7818608E-02  0.8620062E-01
          2   -1    0    0  501    0  0.00000000000E+00  0.00000000000E+00  0.62770917497E+03  0.62770917497E+03  0.00000000000E+00 0.  1.
         -2   -1    0    0    0  501 -0.00000000000E+00 -0.00000000000E+00 -0.15480157961E+04  0.15480157961E+04  0.00000000000E+00 0. -1.
         23    2    1    2    0    0 -0.68010733963E+03  0.61896557790E+02  0.33282380691E+02  0.69512167763E+03  0.12533655717E+03 0.  0.
        254    2    1    2    0    0  0.68010733963E+03 -0.61896557790E+02 -0.95358900186E+03  0.14806032935E+04  0.90359114145E+03 0.  0.
         23    2    4    4    0    0  0.36501668402E+03 -0.37380692496E+03 -0.13826944878E+03  0.54801230171E+03  0.90720701027E+02 0.  0.
         23    2    4    4    0    0  0.31509065561E+03  0.31191036717E+03 -0.81531955309E+03  0.93259099177E+03  0.91704884784E+02 0.  0.
         11    1    3    3    0    0 -0.58555103383E+03  0.95043962025E+02  0.15902844306E+02  0.59342755952E+03  0.00000000000E+00 0.  1.
        -11    1    3    3    0    0 -0.94556305797E+02 -0.33147404235E+02  0.17379536385E+02  0.10169411811E+03  0.00000000000E+00 0. -1.
          2    1    6    6  502    0  0.11912606636E+03  0.12985473171E+03 -0.41797158206E+03  0.45360061116E+03  0.00000000000E+00 0. -1.
          2    1    5    5  503    0  0.26913928426E+03 -0.22075689386E+03 -0.70809633950E+02  0.35522326047E+03  0.00000000000E+00 0. -1.
         -2    1    5    5    0  503  0.95877399761E+02 -0.15305003110E+03 -0.67459814827E+02  0.19278904124E+03  0.00000000000E+00 0.  1.
         -2    1    6    6    0  502  0.19596458925E+03  0.18205563546E+03 -0.39734797102E+03  0.47899038061E+03  0.00000000000E+00 0.  1.
<mgrwt>
<rscale>  0 0.19715007E+04</rscale>
<asrwt>0</asrwt>
<pdfrwt beam="1">  1        2 0.96570643E-01 0.19715007E+04</pdfrwt>
<pdfrwt beam="2">  1       -2 0.23815628E+00 0.19715007E+04</pdfrwt>
<totfact> 0.33229788E+00</totfact>
</mgrwt>
</event>
<event>
12    1  0.4247462E-008  0.1382006E+04  0.7818608E-02  0.8966948E-01
         -2   -1    0    0    0  501 -0.00000000000E+00  0.00000000000E+00  0.43483644034E+03  0.43483644034E+03  0.00000000000E+00 0. -1.
          2   -1    0    0  501    0  0.00000000000E+00 -0.00000000000E+00 -0.10980792184E+04  0.10980792184E+04  0.00000000000E+00 0.  1.
         23    2    1    2    0    0 -0.43716957121E+02 -0.28653922031E+03  0.10443725932E+03  0.32115110754E+03  0.90636613066E+02 0.  0.
        254    2    1    2    0    0  0.43716957121E+02  0.28653922031E+03 -0.76768003733E+03  0.12117645511E+04  0.89164162676E+03 0.  0.
         23    2    4    4    0    0 -0.32322780235E+03  0.76636834955E+02 -0.69143063967E+03  0.77260963578E+03  0.92194919283E+02 0.  0.
         23    2    4    4    0    0  0.36694475948E+03  0.20990238535E+03 -0.76249397658E+02  0.43915491536E+03  0.91299513460E+02 0.  0.
         11    1    3    3    0    0 -0.67476808472E+02 -0.20662050628E+03  0.54961225366E+02  0.22420055662E+03  0.00000000000E+00 0. -1.
        -11    1    3    3    0    0  0.23759851350E+02 -0.79918714032E+02  0.49476033950E+02  0.96950550922E+02  0.00000000000E+00 0.  1.
          4    1    5    5  502    0 -0.30440315591E+03  0.91917981284E+02 -0.66253082176E+03  0.73488590025E+03  0.00000000000E+00 0. -1.
          3    1    6    6  503    0  0.34597367927E+03  0.21831497641E+03 -0.66166974703E+02  0.41441197402E+03  0.00000000000E+00 0. -1.
         -4    1    5    5    0  502 -0.18824646449E+02 -0.15281146329E+02 -0.28899817914E+02  0.37723735532E+02  0.00000000000E+00 0.  1.
         -3    1    6    6    0  503  0.20971080210E+02 -0.84125910584E+01 -0.10082422955E+02  0.24742941340E+02  0.00000000000E+00 0.  1.
<mgrwt>
<rscale>  0 0.13820056E+04</rscale>
<asrwt>0</asrwt>
<pdfrwt beam="1">  1        2 0.16893526E+00 0.13820056E+04</pdfrwt>
<pdfrwt beam="2">  1       -2 0.66897915E-01 0.13820056E+04</pdfrwt>
<totfact> 0.43685238E+01</totfact>
</mgrwt>
</event>
<event>
12    1  0.4247462E-008  0.2880925E+04  0.7818608E-02  0.8278576E-01
          2   -1    0    0  501    0  0.00000000000E+00  0.00000000000E+00  0.13708836887E+04  0.13708836887E+04  0.00000000000E+00 0.  1.
         -2   -1    0    0    0  501 -0.00000000000E+00 -0.00000000000E+00 -0.15135725889E+04  0.15135725889E+04  0.00000000000E+00 0. -1.
         23    2    1    2    0    0 -0.45110257163E+02  0.21472931465E+03 -0.13469676219E+04  0.13675798472E+04  0.88369962637E+02 0.  0.
        254    2    1    2    0    0  0.45110257163E+02 -0.21472931465E+03  0.12042787217E+04  0.15168764304E+04  0.89581429535E+03 0.  0.
         23    2    4    4    0    0 -0.38840555723E+03 -0.25705609088E+03  0.67587307836E+03  0.82590574153E+03  0.91537779621E+02 0.  0.
         23    2    4    4    0    0  0.43351581439E+03  0.42326776235E+02  0.52840564332E+03  0.69097068887E+03  0.92197894061E+02 0.  0.
         13    1    3    3    0    0 -0.57842833026E+02  0.21028979297E+03 -0.11739650884E+04  0.11940526031E+04  0.00000000000E+00 0. -1.
        -13    1    3    3    0    0  0.12732575864E+02  0.44395216736E+01 -0.17300253350E+03  0.17352724408E+03  0.00000000000E+00 0.  1.
          2    1    5    5  502    0 -0.10551498011E+03 -0.42224930717E+02  0.11262792911E+03  0.16000439437E+03  0.00000000000E+00 0. -1.
          1    1    6    6  503    0  0.30658424004E+03  0.16668885878E+02  0.42979809179E+03  0.52820275246E+03  0.00000000000E+00 0. -1.
         -2    1    5    5    0  502 -0.28289057712E+03 -0.21483116016E+03  0.56324514925E+03  0.66590134716E+03  0.00000000000E+00 0.  1.
         -1    1    6    6    0  503  0.12693157435E+03  0.25657890357E+02  0.98607551529E+02  0.16276793641E+03  0.00000000000E+00 0.  1.
<mgrwt>
<rscale>  0 0.28809248E+04</rscale>
<asrwt>0</asrwt>
<pdfrwt beam="1">  1        2 0.21090518E+00 0.28809248E+04</pdfrwt>
<pdfrwt beam="2">  1       -2 0.23285732E+00 0.28809248E+04</pdfrwt>
<totfact> 0.10666970E+00</totfact>
</mgrwt>
</event>
<event>
12    1  0.4247462E-008  0.1132066E+04  0.7818608E-02  0.9174489E-01
         -3   -1    0    0    0  501 -0.00000000000E+00  0.00000000000E+00  0.79876718927E+03  0.79876718927E+03  0.00000000000E+00 0.  1.
          3   -1    0    0  501    0  0.00000000000E+00 -0.00000000000E+00 -0.40111009885E+03  0.40111009885E+03  0.00000000000E+00 0. -1.
         23    2    1    2    0    0  0.12366245519E+03  0.47591298103E+02 -0.65219316620E+02  0.17558092990E+03  0.94961935569E+02 0.  0.
        254    2    1    2    0    0 -0.12366245519E+03 -0.47591298103E+02  0.46287640704E+03  0.10242963582E+04  0.90408579614E+03 0.  0.
         23    2    4    4    0    0 -0.19613796178E+03 -0.26108636440E+03  0.63885464625E+03  0.72360045246E+03  0.93947677112E+02 0.  0.
         23    2    4    4    0    0  0.72475506596E+02  0.21349506629E+03 -0.17597823921E+03  0.30069590576E+03  0.92826960930E+02 0.  0.
         13    1    3    3    0    0  0.44945355488E+02  0.65127901653E+02 -0.49729782287E+02  0.93460043869E+02  0.00000000000E+00 0. -1.
        -13    1    3    3    0    0  0.78717099698E+02 -0.17536603550E+02 -0.15489534333E+02  0.82120886033E+02  0.00000000000E+00 0.  1.
          1    1    5    5  502    0 -0.17170557372E+02 -0.88611222437E+02  0.14666042066E+03  0.17220933706E+03  0.00000000000E+00 0. -1.
          3    1    6    6  503    0  0.55110302652E+02  0.19877074600E+03 -0.11624228934E+03  0.23676829338E+03  0.00000000000E+00 0. -1.
         -1    1    5    5    0  502 -0.17896740441E+03 -0.17247514196E+03  0.49219422559E+03  0.55139111540E+03  0.00000000000E+00 0.  1.
         -3    1    6    6    0  503  0.17365203944E+02  0.14724320297E+02 -0.59735949874E+02  0.63927612372E+02  0.00000000000E+00 0.  1.
<mgrwt>
<rscale>  0 0.11320664E+04</rscale>
<asrwt>0</asrwt>
<pdfrwt beam="1">  1        3 0.61709246E-01 0.11320664E+04</pdfrwt>
<pdfrwt beam="2">  1       -3 0.12288726E+00 0.11320664E+04</pdfrwt>
<totfact> 0.35444750E+00</totfact>
</mgrwt>
</event>
<event>
12    1  0.4247462E-008  0.1772505E+04  0.7818608E-02  0.8721059E-01
         -2   -1    0    0    0  501 -0.00000000000E+00  0.00000000000E+00  0.23027616611E+03  0.23027616611E+03  0.00000000000E+00 0.  1.
          2   -1    0    0  501    0  0.00000000000E+00 -0.00000000000E+00 -0.34108763784E+04  0.34108763784E+04  0.00000000000E+00 0. -1.
         23    2    1    2    0    0  0.39091526551E+03 -0.49135095819E+03 -0.15184887369E+04  0.16457289567E+04  0.91516368712E+02 0.  0.
        254    2    1    2    0    0 -0.39091526551E+03  0.49135095819E+03 -0.16621114753E+04  0.19954235878E+04  0.90821816179E+03 0.  0.
         23    2    4    4    0    0 -0.54462145619E+03  0.60871313338E+03 -0.97481452653E+03  0.12757105470E+04  0.10014903545E+03 0.  0.
         23    2    4    4    0    0  0.15370619068E+03 -0.11736217519E+03 -0.68729694881E+03  0.71971304080E+03  0.90610661883E+02 0.  0.
         11    1    3    3    0    0  0.35674124806E+03 -0.48089301287E+03 -0.14354779469E+04  0.15553518393E+04  0.00000000000E+00 0. -1.
        -11    1    3    3    0    0  0.34174017452E+02 -0.10457945323E+02 -0.83010789995E+02  0.90377117373E+02  0.00000000000E+00 0.  1.
          4    1    5    5  502    0 -0.24505215678E+03  0.34706742556E+03 -0.48620648702E+03  0.64568034309E+03  0.00000000000E+00 0. -1.
          1    1    6    6  503    0  0.15146831112E+03 -0.80159409724E+02 -0.61424565268E+03  0.63770361617E+03  0.00000000000E+00 0. -1.
         -4    1    5    5    0  502 -0.29956929941E+03  0.26164570781E+03 -0.48860803951E+03  0.63003020391E+03  0.00000000000E+00 0.  1.
         -1    1    6    6    0  503  0.22378795623E+01 -0.37202765463E+02 -0.73051296127E+02  0.82009424634E+02  0.00000000000E+00 0.  1.
<mgrwt>
<rscale>  0 0.17725050E+04</rscale>
<asrwt>0</asrwt>
<pdfrwt beam="1">  1        2 0.52475019E+00 0.17725050E+04</pdfrwt>
<pdfrwt beam="2">  1       -2 0.35427104E-01 0.17725050E+04</pdfrwt>
<totfact> 0.66883763E+00</totfact>
</mgrwt>
</event>
<event>
12    1  0.4247462E-008  0.1496125E+04  0.7818608E-02  0.8887034E-01
          2   -1    0    0  501    0  0.00000000000E+00  0.00000000000E+00  0.45799086549E+03  0.45799086549E+03  0.00000000000E+00 0. -1.
         -2   -1    0    0    0  501 -0.00000000000E+00 -0.00000000000E+00 -0.12218524491E+04  0.12218524491E+04  0.00000000000E+00 0.  1.
         23    2    1    2    0    0 -0.44264225316E+03 -0.17518807603E+03 -0.24859882188E+03  0.54460838717E+03  0.90409595013E+02 0.  0.
        254    2    1    2    0    0  0.44264225316E+03  0.17518807603E+03 -0.51526276174E+03  0.11352349274E+04  0.89254669376E+03 0.  0.
         23    2    4    4    0    0  0.56343129007E+03 -0.12636142117E+03 -0.54276034201E+03  0.79772738257E+03  0.91422976619E+02 0.  0.
         23    2    4    4    0    0 -0.12078903691E+03  0.30154949720E+03  0.27497580273E+02  0.33750754485E+03  0.87367815665E+02 0.  0.
         13    1    3    3    0    0 -0.39733231666E+03 -0.17610980029E+03 -0.24556147063E+03  0.49918740717E+03  0.00000000000E+00 0.  1.
        -13    1    3    3    0    0 -0.45309936499E+02  0.92172426566E+00 -0.30373512494E+01  0.45420979995E+02  0.00000000000E+00 0. -1.
          1    1    5    5  502    0  0.11967896798E+03 -0.63546429959E+02 -0.14557565360E+03  0.19888055475E+03  0.00000000000E+00 0. -1.
          1    1    6    6  503    0 -0.10745172782E+03  0.24021061942E+03  0.55230929837E+02  0.26888189062E+03  0.00000000000E+00 0.  1.
         -1    1    5    5    0  502  0.44375232209E+03 -0.62814991210E+02 -0.39718468841E+03  0.59884682782E+03  0.00000000000E+00 0.  1.
         -1    1    6    6    0  503 -0.13337309094E+02  0.61338877774E+02 -0.27733349564E+02  0.68625654230E+02  0.00000000000E+00 0. -1.
<mgrwt>
<rscale>  0 0.14961247E+04</rscale>
<asrwt>0</asrwt>
<pdfrwt beam="1">  1        2 0.70460134E-01 0.14961247E+04</pdfrwt>
<pdfrwt beam="2">  1       -2 0.18797730E+00 0.14961247E+04</pdfrwt>
<totfact> 0.10523976E+01</totfact>
</mgrwt>
</event>
<event>
12    1  0.4247462E-008  0.1585565E+04  0.7818608E-02  0.8829465E-01
          2   -1    0    0  501    0  0.00000000000E+00  0.00000000000E+00  0.24387434870E+04  0.24387434870E+04  0.00000000000E+00 0.  1.
         -2   -1    0    0    0  501 -0.00000000000E+00 -0.00000000000E+00 -0.25771634299E+03  0.25771634299E+03  0.00000000000E+00 0. -1.
         23    2    1    2    0    0  0.11609963114E+03  0.45586273106E+03  0.32186767969E+03  0.57724737658E+03  0.91245693691E+02 0.  0.
        254    2    1    2    0    0 -0.11609963114E+03 -0.45586273106E+03  0.18591594643E+04  0.21192124534E+04  0.90183011425E+03 0.  0.
         23    2    4    4    0    0 -0.29893382382E+03 -0.56502188349E+03  0.76746336482E+03  0.10028358005E+04  0.89824643822E+02 0.  0.
         23    2    4    4    0    0  0.18283419268E+03  0.10915915243E+03  0.10916960995E+04  0.11163766529E+04  0.95668149550E+02 0.  0.
         11    1    3    3    0    0  0.61210006610E+02  0.14371318823E+03  0.15065993937E+03  0.21702203278E+03  0.00000000000E+00 0.  1.
        -11    1    3    3    0    0  0.54889624535E+02  0.31214954283E+03  0.17120774031E+03  0.36022534379E+03  0.00000000000E+00 0. -1.
          4    1    5    5  502    0 -0.27386612758E+03 -0.46283261829E+03  0.67260460849E+03  0.86116992966E+03  0.00000000000E+00 0. -1.
          3    1    6    6  503    0  0.15637602387E+03  0.12263145366E+03  0.10120521141E+04  0.10313784058E+04  0.00000000000E+00 0. -1.
         -4    1    5    5    0  502 -0.25067696242E+02 -0.10218926521E+03  0.94858756337E+02  0.14166587088E+03  0.00000000000E+00 0.  1.
         -3    1    6    6    0  503  0.26458168808E+02 -0.13472301222E+02  0.79643985380E+02  0.84998247065E+02  0.00000000000E+00 0.  1.
<mgrwt>
<rscale>  0 0.15855650E+04</rscale>
<asrwt>0</asrwt>
<pdfrwt beam="1">  1        2 0.37519129E+00 0.15855650E+04</pdfrwt>
<pdfrwt beam="2">  1       -2 0.39648670E-01 0.15855650E+04</pdfrwt>
<totfact> 0.21858311E+01</totfact>
</mgrwt>
</event>
<event>
12    1  0.4247462E-008  0.1485165E+04  0.7818608E-02  0.8894378E-01
         -1   -1    0    0    0  501 -0.00000000000E+00  0.00000000000E+00  0.60534440178E+03  0.60534440178E+03  0.00000000000E+00 0.  1.
          1   -1    0    0  501    0  0.00000000000E+00 -0.00000000000E+00 -0.91093404462E+03  0.91093404462E+03  0.00000000000E+00 0. -1.
         23    2    1    2    0    0 -0.11239667842E+03  0.38391534285E+03  0.13890342241E+03  0.43435731571E+03  0.96685640928E+02 0.  0.
        254    2    1    2    0    0  0.11239667842E+03 -0.38391534285E+03 -0.44449306524E+03  0.10819211307E+04  0.90164030755E+03 0.  0.
         23    2    4    4    0    0  0.90299342221E+02 -0.61033579737E+03 -0.53342626893E+03  0.82081204928E+03  0.92331354860E+02 0.  0.
         23    2    4    4    0    0  0.22097336195E+02  0.22642045453E+03  0.88933203686E+02  0.26110908141E+03  0.92273090245E+02 0.  0.
         11    1    3    3    0    0 -0.41098530600E+02  0.15068244866E+03  0.10482044751E+03  0.18810001533E+03  0.00000000000E+00 0.  1.
        -11    1    3    3    0    0 -0.71298147816E+02  0.23323289418E+03  0.34082974905E+02  0.24625730038E+03  0.00000000000E+00 0. -1.
          4    1    5    5  502    0  0.88680323253E+02 -0.28578721148E+03 -0.24985637873E+03  0.38982911637E+03  0.00000000000E+00 0. -1.
          1    1    6    6  503    0 -0.55815346992E+01  0.19744454782E+03  0.97277335608E+02  0.22017807115E+03  0.00000000000E+00 0. -1.
         -4    1    5    5    0  502  0.16190189686E+01 -0.32454858590E+03 -0.28356989020E+03  0.43098293291E+03  0.00000000000E+00 0.  1.
         -1    1    6    6    0  503  0.27678870894E+02  0.28975906711E+02 -0.83441319218E+01  0.40931010264E+02  0.00000000000E+00 0.  1.
<mgrwt>
<rscale>  0 0.14851651E+04</rscale>
<asrwt>0</asrwt>
<pdfrwt beam="1">  1        1 0.14014370E+00 0.14851651E+04</pdfrwt>
<pdfrwt beam="2">  1       -1 0.93129908E-01 0.14851651E+04</pdfrwt>
<totfact> 0.19334185E+01</totfact>
</mgrwt>
</event>
<event>
12    1  0.5994919E-008  0.1697140E+04  0.7818608E-02  0.8762997E-01
         -1   -1    0    0    0  501 -0.00000000000E+00  0.00000000000E+00  0.67036589679E+03  0.67036589679E+03  0.00000000000E+00 0.  1.
          1   -1    0    0  501    0  0.00000000000E+00 -0.00000000000E+00 -0.10741467219E+04  0.10741467219E+04  0.00000000000E+00 0. -1.
         23    2    1    2    0    0  0.92928796744E+02  0.32293872141E+03  0.36589414000E+03  0.50512193877E+03  0.91348083139E+02 0.  0.
        254    2    1    2    0    0 -0.92928796744E+02 -0.32293872141E+03 -0.76967496515E+03  0.12393906800E+04  0.91146284980E+03 0.  0.
         23    2    4    4    0    0  0.21473553963E+03 -0.33954035958E+03 -0.75624385401E+01  0.41250120818E+03  0.93279410964E+02 0.  0.
         23    2    4    4    0    0 -0.30766433638E+03  0.16601638166E+02 -0.76211252661E+03  0.82688947179E+03  0.89430068050E+02 0.  0.
         13    1    3    3    0    0  0.10299709161E+03  0.27331842310E+03  0.27548846864E+03  0.40150374549E+03  0.00000000000E+00 0.  1.
        -13    1    3    3    0    0 -0.10068294868E+02  0.49620298312E+02  0.90405671358E+02  0.10361819329E+03  0.00000000000E+00 0. -1.
          1    1    5    5  502    0  0.27470368124E+02 -0.14999123346E+02 -0.20790114121E+02  0.37574242124E+02  0.00000000000E+00 0. -1.
          1    1    6    6  503    0 -0.51827743992E+02 -0.20878818159E+02 -0.81483032301E+02  0.98800428380E+02  0.00000000000E+00 0. -1.
         -1    1    5    5    0  502  0.18726517151E+03 -0.32454123623E+03  0.13227675581E+02  0.37492696605E+03  0.00000000000E+00 0.  1.
         -1    1    6    6    0  503 -0.25583659238E+03  0.37480456325E+02 -0.68062949431E+03  0.72808904341E+03  0.00000000000E+00 0.  1.
<mgrwt>
<rscale>  0 0.16971403E+04</rscale>
<asrwt>0</asrwt>
<pdfrwt beam="1">  1        1 0.16525334E+00 0.16971403E+04</pdfrwt>
<pdfrwt beam="2">  1       -1 0.10313322E+00 0.16971403E+04</pdfrwt>
<totfact> 0.11208210E+01</totfact>
</mgrwt>
</event>
<event>
12    1  0.4247462E-008  0.1327161E+04  0.7818608E-02  0.9008299E-01
         -1   -1    0    0    0  501 -0.00000000000E+00  0.00000000000E+00  0.14637687763E+04  0.14637687763E+04  0.00000000000E+00 0.  1.
          1   -1    0    0  501    0  0.00000000000E+00 -0.00000000000E+00 -0.30082568926E+03  0.30082568926E+03  0.00000000000E+00 0. -1.
         23    2    1    2    0    0 -0.20487032841E+03  0.24393255673E+03  0.25529664753E+03  0.41870705643E+03  0.93082099080E+02 0.  0.
        254    2    1    2    0    0  0.20487032841E+03 -0.24393255673E+03  0.90764643948E+03  0.13458874091E+04  0.94133730147E+03 0.  0.
         23    2    4    4    0    0 -0.25526609123E+02  0.28063003523E+03  0.64217339332E+03  0.70673297598E+03  0.87635653677E+02 0.  0.
         23    2    4    4    0    0  0.23039693753E+03 -0.52456259196E+03  0.26547304616E+03  0.63915443311E+03  0.98963576192E+02 0.  0.
         11    1    3    3    0    0 -0.15229812260E+03  0.20002031806E+03  0.14896440245E+03  0.29222121584E+03  0.00000000000E+00 0.  1.
        -11    1    3    3    0    0 -0.52572205806E+02  0.43912238668E+02  0.10633224507E+03  0.12648584059E+03  0.00000000000E+00 0. -1.
          4    1    5    5  502    0 -0.22708110045E+02  0.28640146339E+03  0.63573246236E+03  0.69763688277E+03  0.00000000000E+00 0. -1.
          3    1    6    6  503    0  0.11630071983E+03 -0.32257469094E+03  0.20465628781E+03  0.39933004496E+03  0.00000000000E+00 0. -1.
         -4    1    5    5    0  502 -0.28184990784E+01 -0.57714281608E+01  0.64409309608E+01  0.90960932115E+01  0.00000000000E+00 0.  1.
         -3    1    6    6    0  503  0.11409621770E+03 -0.20198790102E+03  0.60816758347E+02  0.23982438815E+03  0.00000000000E+00 0.  1.
<mgrwt>
<rscale>  0 0.13271613E+04</rscale>
<asrwt>0</asrwt>
<pdfrwt beam="1">  1        1 0.46280876E-01 0.13271613E+04</pdfrwt>
<pdfrwt beam="2">  1       -1 0.22519519E+00 0.13271613E+04</pdfrwt>
<totfact> 0.87069242E+00</totfact>
</mgrwt>
</event>
<event>
12    1  0.4247462E-008  0.1555340E+04  0.7818608E-02  0.8848464E-01
          1   -1    0    0  501    0  0.00000000000E+00  0.00000000000E+00  0.66687427900E+03  0.66687427900E+03  0.00000000000E+00 0. -1.
         -1   -1    0    0    0  501 -0.00000000000E+00 -0.00000000000E+00 -0.90687321928E+03  0.90687321928E+03  0.00000000000E+00 0.  1.
         23    2    1    2    0    0 -0.23248678634E+03 -0.84997844633E+02 -0.53235756948E+03  0.59409853442E+03  0.90960141832E+02 0.  0.
        254    2    1    2    0    0  0.23248678634E+03  0.84997844633E+02  0.29235862920E+03  0.97964896386E+03  0.90164504375E+03 0.  0.
         23    2    4    4    0    0 -0.20580968759E+03 -0.27464435241E+03  0.59884612763E+02  0.36010125858E+03  0.91102150217E+02 0.  0.
         23    2    4    4    0    0  0.43829647392E+03  0.35964219704E+03  0.23247401643E+03  0.61954770528E+03  0.91372215976E+02 0.  0.
         11    1    3    3    0    0 -0.18612039422E+03 -0.24889135282E+02 -0.38309757649E+03  0.42664273498E+03  0.00000000000E+00 0.  1.
        -11    1    3    3    0    0 -0.46366392117E+02 -0.60108709351E+02 -0.14925999299E+03  0.16745579944E+03  0.00000000000E+00 0. -1.
          3    1    6    6  502    0  0.41355661342E+03  0.35213899034E+03  0.23814549976E+03  0.59308028131E+03  0.00000000000E+00 0. -1.
          3    1    5    5  503    0 -0.17040493286E+03 -0.21115890057E+03  0.92219800026E+01  0.27149763783E+03  0.00000000000E+00 0. -1.
         -3    1    5    5    0  503 -0.35404754727E+02 -0.63485451835E+02  0.50662632760E+02  0.88603620751E+02  0.00000000000E+00 0.  1.
         -3    1    6    6    0  502  0.24739860504E+02  0.75032066992E+01 -0.56714833233E+01  0.26467423970E+02  0.00000000000E+00 0.  1.
<mgrwt>
<rscale>  0 0.15553397E+04</rscale>
<asrwt>0</asrwt>
<pdfrwt beam="1">  1        1 0.10259604E+00 0.15553397E+04</pdfrwt>
<pdfrwt beam="2">  1       -1 0.13951896E+00 0.15553397E+04</pdfrwt>
<totfact> 0.11942056E+01</totfact>
</mgrwt>
</event>
<event>
12    1  0.4247462E-008  0.1272876E+04  0.7818608E-02  0.9051356E-01
         -1   -1    0    0    0  501 -0.00000000000E+00  0.00000000000E+00  0.34142615226E+03  0.34142615226E+03  0.00000000000E+00 0.  1.
          1   -1    0    0  501    0  0.00000000000E+00 -0.00000000000E+00 -0.11863570973E+04  0.11863570973E+04  0.00000000000E+00 0. -1.
         23    2    1    2    0    0  0.12321490336E+03 -0.13931605033E+03 -0.50908462432E+03  0.55038087500E+03  0.95713523414E+02 0.  0.
        254    2    1    2    0    0 -0.12321490336E+03  0.13931605033E+03 -0.33584632073E+03  0.97740237456E+03  0.89885025247E+03 0.  0.
         23    2    4    4    0    0 -0.12209435625E+03  0.50804403086E+03 -0.25860883688E+03  0.58968969917E+03  0.88541751032E+02 0.  0.
         23    2    4    4    0    0 -0.11205471109E+01 -0.36872798053E+03 -0.77237483844E+02  0.38771267539E+03  0.91618286910E+02 0.  0.
         13    1    3    3    0    0  0.36894018091E+02 -0.49797763709E+02 -0.67574038599E+02  0.91690983929E+02  0.00000000000E+00 0.  1.
        -13    1    3    3    0    0  0.86320885266E+02 -0.89518286623E+02 -0.44151058572E+03  0.45868989107E+03  0.00000000000E+00 0. -1.
          1    1    5    5  502    0 -0.11980880519E+03  0.43244770252E+03 -0.18904662884E+03  0.48693304785E+03  0.00000000000E+00 0. -1.
          3    1    6    6  503    0 -0.57517707440E+01 -0.42703820525E+02 -0.41292037082E+02  0.59680243636E+02  0.00000000000E+00 0. -1.
         -1    1    5    5    0  502 -0.22855510564E+01  0.75596328340E+02 -0.69562208048E+02  0.10275665132E+03  0.00000000000E+00 0.  1.
         -3    1    6    6    0  503  0.46312236331E+01 -0.32602416000E+03 -0.35945446762E+02  0.32803243175E+03  0.00000000000E+00 0.  1.
<mgrwt>
<rscale>  0 0.12728760E+04</rscale>
<asrwt>0</asrwt>
<pdfrwt beam="1">  1        1 0.18251648E+00 0.12728760E+04</pdfrwt>
<pdfrwt beam="2">  1       -1 0.52527100E-01 0.12728760E+04</pdfrwt>
<totfact> 0.39307741E+01</totfact>
</mgrwt>
</event>
<event>
12    1  0.4247462E-008  0.1253538E+04  0.7818608E-02  0.9067244E-01
         -1   -1    0    0    0  501 -0.00000000000E+00  0.00000000000E+00  0.34496299976E+03  0.34496299976E+03  0.00000000000E+00 0.  1.
          1   -1    0    0  501    0  0.00000000000E+00 -0.00000000000E+00 -0.11387863364E+04  0.11387863364E+04  0.00000000000E+00 0. -1.
         23    2    1    2    0    0 -0.13801301487E+03  0.12835246515E+03  0.10474648237E+03  0.23663713373E+03  0.97485177876E+02 0.  0.
        254    2    1    2    0    0  0.13801301487E+03 -0.12835246515E+03 -0.89856981900E+03  0.12471122024E+04  0.84400188284E+03 0.  0.
         23    2    4    4    0    0  0.28785168686E+03 -0.39312151945E+03 -0.74283564134E+03  0.89332660425E+03  0.93938858496E+02 0.  0.
         23    2    4    4    0    0 -0.14983867199E+03  0.26476905430E+03 -0.15573417767E+03  0.35378559818E+03  0.91415729779E+02 0.  0.
         13    1    3    3    0    0 -0.66534604151E+02  0.12033453577E+03  0.50253827930E+02  0.14639911636E+03  0.00000000000E+00 0. -1.
        -13    1    3    3    0    0 -0.71478410723E+02  0.80179293801E+01  0.54492654438E+02  0.90238017369E+02  0.00000000000E+00 0.  1.
          2    1    5    5  502    0  0.92503699552E+02 -0.10015576200E+03 -0.28325087274E+03  0.31435516220E+03  0.00000000000E+00 0.  1.
          1    1    6    6  503    0 -0.10306018641E+03  0.21405209385E+03 -0.15703033745E+03  0.28477750576E+03  0.00000000000E+00 0. -1.
         -2    1    5    5    0  502  0.19534798731E+03 -0.29296575745E+03 -0.45958476860E+03  0.57897144205E+03  0.00000000000E+00 0. -1.
         -1    1    6    6    0  503 -0.46778485573E+02  0.50716960447E+02  0.12961597893E+01  0.69008092422E+02  0.00000000000E+00 0.  1.
<mgrwt>
<rscale>  0 0.12535376E+04</rscale>
<asrwt>0</asrwt>
<pdfrwt beam="1">  1        1 0.17519790E+00 0.12535376E+04</pdfrwt>
<pdfrwt beam="2">  1       -1 0.53071230E-01 0.12535376E+04</pdfrwt>
<totfact> 0.41847337E+01</totfact>
</mgrwt>
</event>
<event>
12    1  0.4247462E-008  0.2373990E+04  0.7818608E-02  0.8449306E-01
          1   -1    0    0  501    0  0.00000000000E+00  0.00000000000E+00  0.72171483533E+03  0.72171483533E+03  0.00000000000E+00 0. -1.
         -1   -1    0    0    0  501 -0.00000000000E+00 -0.00000000000E+00 -0.19522352070E+04  0.19522352070E+04  0.00000000000E+00 0.  1.
         23    2    1    2    0    0  0.18771398031E+03  0.10069067843E+04 -0.35992636604E+03  0.10917374422E+04  0.11509058633E+03 0.  0.
        254    2    1    2    0    0 -0.18771398031E+03 -0.10069067843E+04 -0.87059400564E+03  0.15822126002E+04  0.83448485836E+03 0.  0.
         23    2    4    4    0    0 -0.42425673732E+03 -0.61876811306E+03 -0.22851079206E+03  0.78952161781E+03  0.90881494287E+02 0.  0.
         23    2    4    4    0    0  0.23654275701E+03 -0.38813867122E+03 -0.64208321358E+03  0.79269098235E+03  0.97386017195E+02 0.  0.
         13    1    3    3    0    0  0.43417831673E+02  0.78536325727E+02 -0.15449908745E+02  0.91059114020E+02  0.00000000000E+00 0. -1.
        -13    1    3    3    0    0  0.14429614864E+03  0.92837045855E+03 -0.34447645730E+03  0.10006783282E+04  0.00000000000E+00 0.  1.
          1    1    5    5  502    0 -0.37707160993E+03 -0.58638389950E+03 -0.22334342901E+03  0.73205967235E+03  0.00000000000E+00 0. -1.
          3    1    6    6  503    0  0.23632754496E+03 -0.38800365629E+03 -0.64545500069E+03  0.78930963741E+03  0.00000000000E+00 0. -1.
         -1    1    5    5    0  502 -0.47185127393E+02 -0.32384213560E+02 -0.51673630533E+01  0.57461945459E+02  0.00000000000E+00 0.  1.
         -3    1    6    6    0  503  0.21521205658E+00 -0.13501492625E+00  0.33717871086E+01  0.33813449343E+01  0.00000000000E+00 0.  1.
<mgrwt>
<rscale>  0 0.23739900E+04</rscale>
<asrwt>0</asrwt>
<pdfrwt beam="1">  1        1 0.11103305E+00 0.23739900E+04</pdfrwt>
<pdfrwt beam="2">  1       -1 0.30034387E+00 0.23739900E+04</pdfrwt>
<totfact> 0.76733997E-01</totfact>
</mgrwt>
</event>
<event>
12    1  0.4247462E-008  0.1373352E+04  0.7818608E-02  0.8973337E-01
         -2   -1    0    0    0  501 -0.00000000000E+00  0.00000000000E+00  0.51741553017E+03  0.51741553017E+03  0.00000000000E+00 0.  1.
          2   -1    0    0  501    0  0.00000000000E+00 -0.00000000000E+00 -0.91130608745E+03  0.91130608745E+03  0.00000000000E+00 0. -1.
         23    2    1    2    0    0  0.27657400829E+03  0.44606511594E+02  0.14673327404E+03  0.32911698723E+03  0.91128561029E+02 0.  0.
        254    2    1    2    0    0 -0.27657400829E+03 -0.44606511594E+02 -0.54062383132E+03  0.10996046304E+04  0.91562726764E+03 0.  0.
         23    2    4    4    0    0 -0.24758161895E+03  0.41228004406E+03 -0.30337511995E+03  0.57595797843E+03  0.91758578578E+02 0.  0.
         23    2    4    4    0    0 -0.28992389340E+02 -0.45688655566E+03 -0.23724871137E+03  0.52364665196E+03  0.91285166802E+02 0.  0.
         11    1    3    3    0    0  0.20019951437E+03  0.14544846015E+02  0.14392065768E+03  0.24699099945E+03  0.00000000000E+00 0.  1.
        -11    1    3    3    0    0  0.76374493914E+02  0.30061665580E+02  0.28126163575E+01  0.82125987780E+02  0.00000000000E+00 0. -1.
          4    1    5    5  502    0 -0.19973890488E+03  0.28345708646E+03 -0.17727085570E+03  0.38944641001E+03  0.00000000000E+00 0. -1.
          4    1    6    6  503    0 -0.19603695729E+02 -0.32209316997E+03 -0.21224308172E+03  0.38623236628E+03  0.00000000000E+00 0. -1.
         -4    1    5    5    0  502 -0.47842714070E+02  0.12882295760E+03 -0.12610426425E+03  0.18651156842E+03  0.00000000000E+00 0.  1.
         -4    1    6    6    0  503 -0.93886936111E+01 -0.13479338569E+03 -0.25005629656E+02  0.13741428568E+03  0.00000000000E+00 0.  1.
<mgrwt>
<rscale>  0 0.13733520E+04</rscale>
<asrwt>0</asrwt>
<pdfrwt beam="1">  1        2 0.14020094E+00 0.13733520E+04</pdfrwt>
<pdfrwt beam="2">  1       -2 0.79602389E-01 0.13733520E+04</pdfrwt>
<totfact> 0.39286047E+01</totfact>
</mgrwt>
</event>
<event>
12    1  0.4247462E-008  0.1949095E+04  0.7818608E-02  0.8630797E-01
          1   -1    0    0  501    0  0.00000000000E+00  0.00000000000E+00  0.13192144877E+04  0.13192144877E+04  0.00000000000E+00 0.  1.
         -1   -1    0    0    0  501 -0.00000000000E+00 -0.00000000000E+00 -0.71993088952E+03  0.71993088952E+03  0.00000000000E+00 0. -1.
         23    2    1    2    0    0  0.38557789307E+01 -0.16752682080E+03 -0.54121216419E+03  0.57393984932E+03  0.91740074410E+02 0.  0.
        254    2    1    2    0    0 -0.38557789307E+01  0.16752682080E+03  0.11404957624E+04  0.14652055279E+04  0.90444267495E+03 0.  0.
         23    2    4    4    0    0  0.80024662422E+02 -0.35751147653E+03  0.52122772701E+03  0.64373697276E+03  0.92198396114E+02 0.  0.
         23    2    4    4    0    0 -0.83880441353E+02  0.52503829733E+03  0.61926803535E+03  0.82146855513E+03  0.92825348644E+02 0.  0.
         13    1    3    3    0    0  0.87042833742E+01 -0.46330592116E+02 -0.30279444685E+03  0.30644210768E+03  0.00000000000E+00 0. -1.
        -13    1    3    3    0    0 -0.48485044435E+01 -0.12119622868E+03 -0.23841771734E+03  0.26749774164E+03  0.00000000000E+00 0.  1.
          2    1    5    5  502    0  0.34415882924E+02 -0.86242321333E+02  0.74223664462E+02  0.11887532693E+03  0.00000000000E+00 0. -1.
          3    1    6    6  503    0 -0.34402785218E+02  0.32778529157E+03  0.31799293225E+03  0.45798062619E+03  0.00000000000E+00 0. -1.
         -2    1    5    5    0  502  0.45608779499E+02 -0.27126915520E+03  0.44700406255E+03  0.52486164584E+03  0.00000000000E+00 0.  1.
         -3    1    6    6    0  503 -0.49477656135E+02  0.19725300576E+03  0.30127510310E+03  0.36348792894E+03  0.00000000000E+00 0.  1.
<mgrwt>
<rscale>  0 0.19490954E+04</rscale>
<asrwt>0</asrwt>
<pdfrwt beam="1">  1        1 0.20295607E+00 0.19490954E+04</pdfrwt>
<pdfrwt beam="2">  1       -1 0.11075860E+00 0.19490954E+04</pdfrwt>
<totfact> 0.61314638E+00</totfact>
</mgrwt>
</event>
<event>
12    1  0.4247462E-008  0.1493837E+04  0.7818608E-02  0.8888562E-01
         -2   -1    0    0    0  501 -0.00000000000E+00  0.00000000000E+00  0.34230398773E+03  0.34230398773E+03  0.00000000000E+00 0. -1.
          2   -1    0    0  501    0  0.00000000000E+00 -0.00000000000E+00 -0.16297997300E+04  0.16297997300E+04  0.00000000000E+00 0.  1.
         23    2    1    2    0    0  0.41241060629E+02 -0.24697983662E+02 -0.10300579235E+04  0.10352663384E+04  0.91903483079E+02 0.  0.
        254    2    1    2    0    0 -0.41241060629E+02  0.24697983662E+02 -0.25743781880E+03  0.93683737935E+03  0.89948831527E+03 0.  0.
         23    2    4    4    0    0  0.12585095475E+03 -0.12554969819E+03  0.28177574164E+03  0.34559374001E+03  0.91849197210E+02 0.  0.
         23    2    4    4    0    0 -0.16709201538E+03  0.15024768185E+03 -0.53921356045E+03  0.59124363933E+03  0.91234148094E+02 0.  0.
         11    1    3    3    0    0  0.47886719890E+02 -0.31993351684E+02 -0.32007791988E+03  0.32521775365E+03  0.00000000000E+00 0. -1.
        -11    1    3    3    0    0 -0.66456592611E+01  0.72953680220E+01 -0.70998000363E+03  0.71004858477E+03  0.00000000000E+00 0.  1.
          2    1    5    5  502    0  0.43671760279E+02 -0.64845697798E+02  0.51357523079E+02  0.93540271250E+02  0.00000000000E+00 0. -1.
          3    1    6    6  503    0 -0.14199765733E+03  0.13903984566E+03 -0.37172350519E+03  0.42151367437E+03  0.00000000000E+00 0. -1.
         -2    1    5    5    0  502  0.82179194472E+02 -0.60704000395E+02  0.23041821856E+03  0.25205346876E+03  0.00000000000E+00 0.  1.
         -3    1    6    6    0  503 -0.25094358047E+02  0.11207836197E+02 -0.16749005525E+03  0.16972996496E+03  0.00000000000E+00 0.  1.
<mgrwt>
<rscale>  0 0.14938366E+04</rscale>
<asrwt>0</asrwt>
<pdfrwt beam="1">  1        2 0.25073842E+00 0.14938366E+04</pdfrwt>
<pdfrwt beam="2">  1       -2 0.52662153E-01 0.14938366E+04</pdfrwt>
<totfact> 0.35285233E+01</totfact>
</mgrwt>
</event>
<event>
12    1  0.4247462E-008  0.1816986E+04  0.7818608E-02  0.8697319E-01
          2   -1    0    0  501    0  0.00000000000E+00  0.00000000000E+00  0.12834607500E+04  0.12834607500E+04  0.00000000000E+00 0.  1.
         -2   -1    0    0    0  501 -0.00000000000E+00 -0.00000000000E+00 -0.64307313696E+03  0.64307313696E+03  0.00000000000E+00 0. -1.
         23    2    1    2    0    0 -0.20558263985E+03  0.90089320326E+02 -0.43565840290E+03  0.50085539784E+03  0.10333236705E+03 0.  0.
        254    2    1    2    0    0  0.20558263985E+03 -0.90089320326E+02  0.10760460160E+04  0.14256784891E+04  0.90791179004E+03 0.  0.
         23    2    4    4    0    0  0.54451210547E+03  0.53007180432E+01  0.78376181952E+03  0.95878118420E+03  0.91963247211E+02 0.  0.
         23    2    4    4    0    0 -0.33892946561E+03 -0.95390038369E+02  0.29228419644E+03  0.46689730494E+03  0.92685488549E+02 0.  0.
         11    1    3    3    0    0 -0.19446906223E+03  0.63754859992E+02 -0.42235910652E+03  0.46932942929E+03  0.00000000000E+00 0. -1.
        -11    1    3    3    0    0 -0.11113577621E+02  0.26334460334E+02 -0.13299296380E+02  0.31525968547E+02  0.00000000000E+00 0.  1.
          2    1    5    5  502    0  0.19860377820E+03 -0.41934675871E+02  0.27752191505E+03  0.34383192273E+03  0.00000000000E+00 0.  1.
          3    1    6    6  503    0 -0.55421931843E+02 -0.47790504640E+02  0.35074957346E+02  0.81152791053E+02  0.00000000000E+00 0. -1.
         -2    1    5    5    0  502  0.34590832727E+03  0.47235393914E+02  0.50623990446E+03  0.61494926147E+03  0.00000000000E+00 0. -1.
         -3    1    6    6    0  503 -0.28350753377E+03 -0.47599533729E+02  0.25720923909E+03  0.38574451388E+03  0.00000000000E+00 0.  1.
<mgrwt>
<rscale>  0 0.18169856E+04</rscale>
<asrwt>0</asrwt>
<pdfrwt beam="1">  1        2 0.19745550E+00 0.18169856E+04</pdfrwt>
<pdfrwt beam="2">  1       -2 0.98934329E-01 0.18169856E+04</pdfrwt>
<totfact> 0.13504045E+01</totfact>
</mgrwt>
</event>
<event>
12    1  0.4247462E-008  0.1444670E+04  0.7818608E-02  0.8922104E-01
         -1   -1    0    0    0  501 -0.00000000000E+00  0.00000000000E+00  0.41421781689E+03  0.41421781689E+03  0.00000000000E+00 0.  1.
          1   -1    0    0  501    0  0.00000000000E+00 -0.00000000000E+00 -0.12596468830E+04  0.12596468830E+04  0.00000000000E+00 0. -1.
         23    2    1    2    0    0 -0.39635493736E+03 -0.55274397958E+02 -0.41626324790E+03  0.58439493606E+03  0.89943617322E+02 0.  0.
        254    2    1    2    0    0  0.39635493736E+03  0.55274397958E+02 -0.42916581827E+03  0.10894697639E+04  0.91793712824E+03 0.  0.
         23    2    4    4    0    0  0.39391598125E+03  0.35379234081E+03  0.26359401784E+02  0.53677639772E+03  0.84233380534E+02 0.  0.
         23    2    4    4    0    0  0.24389561162E+01 -0.29851794285E+03 -0.45552522005E+03  0.55269336616E+03  0.94062852302E+02 0.  0.
         13    1    3    3    0    0 -0.17539318155E+03  0.10525775694E+02 -0.22047628865E+03  0.28192792332E+03  0.00000000000E+00 0.  1.
        -13    1    3    3    0    0 -0.22096175582E+03 -0.65800173652E+02 -0.19578695924E+03  0.30246701274E+03  0.00000000000E+00 0. -1.
          2    1    5    5  502    0  0.53757898435E+02  0.18208408984E+02 -0.97173274759E+01  0.57583715191E+02  0.00000000000E+00 0.  1.
          1    1    6    6  503    0  0.28173023475E+02 -0.24262439773E+03 -0.40553993548E+03  0.47341626175E+03  0.00000000000E+00 0. -1.
         -2    1    5    5    0  502  0.34015808281E+03  0.33558393182E+03  0.36076729260E+02  0.47919268253E+03  0.00000000000E+00 0. -1.
         -1    1    6    6    0  503 -0.25734067358E+02 -0.55893545119E+02 -0.49985284570E+02  0.79277104402E+02  0.00000000000E+00 0.  1.
<mgrwt>
<rscale>  0 0.14446705E+04</rscale>
<asrwt>0</asrwt>
<pdfrwt beam="1">  1        1 0.19379183E+00 0.14446705E+04</pdfrwt>
<pdfrwt beam="2">  1       -1 0.63725817E-01 0.14446705E+04</pdfrwt>
<totfact> 0.23465090E+01</totfact>
</mgrwt>
</event>
<event>
12    1  0.4247462E-008  0.1585839E+04  0.7818608E-02  0.8829295E-01
         -2   -1    0    0    0  501 -0.00000000000E+00  0.00000000000E+00  0.32458857283E+03  0.32458857283E+03  0.00000000000E+00 0.  1.
          2   -1    0    0  501    0  0.00000000000E+00 -0.00000000000E+00 -0.19369784107E+04  0.19369784107E+04  0.00000000000E+00 0. -1.
         23    2    1    2    0    0 -0.46295077604E+03 -0.24790747004E+03 -0.64326382459E+03  0.83850892524E+03  0.11630707176E+03 0.  0.
        254    2    1    2    0    0  0.46295077604E+03  0.24790747004E+03 -0.96912601327E+03  0.14230580583E+04  0.90005970519E+03 0.  0.
         23    2    4    4    0    0  0.34978648748E+03 -0.10021483594E+03 -0.97724848138E+03  0.10467294069E+04  0.90742805147E+02 0.  0.
         23    2    4    4    0    0  0.11316428856E+03  0.34812230598E+03  0.81224681101E+01  0.37632865141E+03  0.86959664546E+02 0.  0.
         11    1    3    3    0    0 -0.28074094747E+03 -0.17309540034E+03 -0.48150320874E+03  0.58362902363E+03  0.00000000000E+00 0.  1.
        -11    1    3    3    0    0 -0.18220982857E+03 -0.74812069696E+02 -0.16176061585E+03  0.25487990160E+03  0.00000000000E+00 0. -1.
          4    1    5    5  502    0  0.29766056080E+03 -0.11340773209E+03 -0.78671298142E+03  0.84875228323E+03  0.00000000000E+00 0. -1.
          1    1    6    6  503    0  0.46442753814E+01  0.12790184563E+03 -0.18762371033E+02  0.12935407986E+03  0.00000000000E+00 0. -1.
         -4    1    5    5    0  502  0.52125926682E+02  0.13192896146E+02 -0.19053549996E+03  0.19797712365E+03  0.00000000000E+00 0.  1.
         -1    1    6    6    0  503  0.10852001318E+03  0.22022046035E+03  0.26884839143E+02  0.24697457155E+03  0.00000000000E+00 0.  1.
<mgrwt>
<rscale>  0 0.15858387E+04</rscale>
<asrwt>0</asrwt>
<pdfrwt beam="1">  1        2 0.29799667E+00 0.15858387E+04</pdfrwt>
<pdfrwt beam="2">  1       -2 0.49936704E-01 0.15858387E+04</pdfrwt>
<totfact> 0.26382394E+01</totfact>
</mgrwt>
</event>
<event>
12    1  0.4247462E-008  0.1209062E+04  0.7818608E-02  0.9104962E-01
          2   -1    0    0  501    0  0.00000000000E+00  0.00000000000E+00  0.13260345606E+04  0.13260345606E+04  0.00000000000E+00 0. -1.
         -2   -1    0    0    0  501 -0.00000000000E+00 -0.00000000000E+00 -0.27560182644E+03  0.27560182644E+03  0.00000000000E+00 0.  1.
         23    2    1    2    0    0 -0.17378658043E+02 -0.85871561050E+02  0.56163016928E+03  0.57574658046E+03  0.91540893109E+02 0.  0.
        254    2    1    2    0    0  0.17378658043E+02  0.85871561050E+02  0.48880256486E+03  0.10258898065E+04  0.89768925861E+03 0.  0.
         23    2    4    4    0    0  0.65492863465E+02  0.23438091027E+03 -0.19061523128E+03  0.32275793562E+03  0.92815905693E+02 0.  0.
         23    2    4    4    0    0 -0.48114205422E+02 -0.14850934922E+03  0.67941779613E+03  0.70313187093E+03  0.91738119907E+02 0.  0.
         13    1    3    3    0    0 -0.14311662637E+02 -0.91972743461E+02  0.56124071552E+03  0.56890680254E+03  0.00000000000E+00 0. -1.
        -13    1    3    3    0    0 -0.30669954054E+01  0.61011824112E+01  0.38945375951E+00  0.68397779103E+01  0.00000000000E+00 0.  1.
          2    1    5    5  502    0  0.19629569298E+02  0.15663262708E+03 -0.71479750877E+02  0.17328720277E+03  0.00000000000E+00 0. -1.
          4    1    6    6  503    0 -0.15592589432E+02 -0.13129033257E+03  0.39958965706E+03  0.42089449308E+03  0.00000000000E+00 0. -1.
         -2    1    5    5    0  502  0.45863294168E+02  0.77748283187E+02 -0.11913548040E+03  0.14947073286E+03  0.00000000000E+00 0.  1.
         -4    1    6    6    0  503 -0.32521615990E+02 -0.17219016652E+02  0.27982813907E+03  0.28223737785E+03  0.00000000000E+00 0.  1.
<mgrwt>
<rscale>  0 0.12090617E+04</rscale>
<asrwt>0</asrwt>
<pdfrwt beam="1">  1        2 0.20400531E+00 0.12090617E+04</pdfrwt>
<pdfrwt beam="2">  1       -2 0.42400282E-01 0.12090617E+04</pdfrwt>
<totfact> 0.82962356E+01</totfact>
</mgrwt>
</event>
<event>
12    1  0.4247462E-008  0.1992736E+04  0.7818608E-02  0.8610024E-01
          1   -1    0    0  501    0  0.00000000000E+00  0.00000000000E+00  0.95121655951E+03  0.95121655951E+03  0.00000000000E+00 0. -1.
         -1   -1    0    0    0  501 -0.00000000000E+00 -0.00000000000E+00 -0.10436627616E+04  0.10436627616E+04  0.00000000000E+00 0.  1.
         23    2    1    2    0    0 -0.36955057816E+03  0.69620464993E+03  0.70126172944E+02  0.79748897856E+03  0.99007304731E+02 0.  0.
        254    2    1    2    0    0  0.36955057816E+03 -0.69620464993E+03 -0.16257237508E+03  0.11973903426E+04  0.88659196422E+03 0.  0.
         23    2    4    4    0    0 -0.19308672645E+03 -0.29982287309E+03 -0.31734630322E+03  0.48604871214E+03  0.91424478359E+02 0.  0.
         23    2    4    4    0    0  0.56263730461E+03 -0.39638177683E+03  0.15477392815E+03  0.71134163046E+03  0.91502441771E+02 0.  0.
         11    1    3    3    0    0 -0.30091244402E+03  0.49615274150E+03  0.22580864590E+02  0.58071140621E+03  0.00000000000E+00 0. -1.
        -11    1    3    3    0    0 -0.68638134140E+02  0.20005190843E+03  0.47545308355E+02  0.21677757234E+03  0.00000000000E+00 0.  1.
          4    1    5    5  502    0 -0.71079337070E+01 -0.56469421848E+02 -0.23414240345E+02  0.61543033532E+02  0.00000000000E+00 0. -1.
          3    1    6    6  503    0  0.15521304336E+03 -0.62902495399E+02  0.28087496724E+02  0.16981378103E+03  0.00000000000E+00 0. -1.
         -4    1    5    5    0  502 -0.18597879274E+03 -0.24335345125E+03 -0.29393206288E+03  0.42450567861E+03  0.00000000000E+00 0.  1.
         -3    1    6    6    0  503  0.40742426125E+03 -0.33347928143E+03  0.12668643142E+03  0.54152784943E+03  0.00000000000E+00 0.  1.
<mgrwt>
<rscale>  0 0.19927361E+04</rscale>
<asrwt>0</asrwt>
<pdfrwt beam="1">  1        1 0.14634101E+00 0.19927361E+04</pdfrwt>
<pdfrwt beam="2">  1       -1 0.16056350E+00 0.19927361E+04</pdfrwt>
<totfact> 0.44424030E+00</totfact>
</mgrwt>
</event>
<event>
12    1  0.4247462E-008  0.3248244E+04  0.7818608E-02  0.8176191E-01
         -2   -1    0    0    0  501 -0.00000000000E+00  0.00000000000E+00  0.67448326911E+03  0.67448326911E+03  0.00000000000E+00 0.  1.
          2   -1    0    0  501    0  0.00000000000E+00 -0.00000000000E+00 -0.39108047288E+04  0.39108047288E+04  0.00000000000E+00 0. -1.
         23    2    1    2    0    0 -0.10786529368E+04 -0.35910211254E+02 -0.29618666427E+04  0.31540751401E+04  0.10370284022E+03 0.  0.
        254    2    1    2    0    0  0.10786529368E+04  0.35910211254E+02 -0.27445481708E+03  0.14312128579E+04  0.89903453588E+03 0.  0.
         23    2    4    4    0    0  0.49961149498E+03 -0.21445167442E+03 -0.51058048966E+03  0.75136471184E+03  0.90858831130E+02 0.  0.
         23    2    4    4    0    0  0.57904144178E+03  0.25036188567E+03  0.23612567258E+03  0.67984814605E+03  0.92022298050E+02 0.  0.
         11    1    3    3    0    0 -0.10018578719E+04 -0.56316717041E+02 -0.27821849369E+04  0.29576077819E+04  0.00000000000E+00 0. -1.
        -11    1    3    3    0    0 -0.76795064816E+02  0.20406505787E+02 -0.17968170571E+03  0.19646735817E+03  0.00000000000E+00 0.  1.
          2    1    5    5  502    0  0.33368430046E+03 -0.15338801510E+03 -0.28564742068E+03  0.46526072743E+03  0.00000000000E+00 0. -1.
          3    1    6    6  503    0  0.26886998316E+03  0.15627340343E+03  0.14516553302E+03  0.34319888759E+03  0.00000000000E+00 0. -1.
         -2    1    5    5    0  502  0.16592719452E+03 -0.61063659318E+02 -0.22493306898E+03  0.28610398441E+03  0.00000000000E+00 0.  1.
         -3    1    6    6    0  503  0.31017145862E+03  0.94088482240E+02  0.90960139557E+02  0.33664925846E+03  0.00000000000E+00 0.  1.
<mgrwt>
<rscale>  0 0.32482441E+04</rscale>
<asrwt>0</asrwt>
<pdfrwt beam="1">  1        2 0.60166226E+00 0.32482441E+04</pdfrwt>
<pdfrwt beam="2">  1       -2 0.10376666E+00 0.32482441E+04</pdfrwt>
<totfact> 0.25522018E-01</totfact>
</mgrwt>
</event>
<event>
12    1  0.4247462E-008  0.1849630E+04  0.7818608E-02  0.8680343E-01
         -2   -1    0    0    0  501 -0.00000000000E+00  0.00000000000E+00  0.83245365970E+03  0.83245365970E+03  0.00000000000E+00 0.  1.
          2   -1    0    0  501    0  0.00000000000E+00 -0.00000000000E+00 -0.10274233781E+04  0.10274233781E+04  0.00000000000E+00 0. -1.
         23    2    1    2    0    0 -0.36108521038E+03 -0.24663555608E+03 -0.54910396215E+03  0.70793338241E+03  0.91885178357E+02 0.  0.
        254    2    1    2    0    0  0.36108521038E+03  0.24663555608E+03  0.35413424372E+03  0.11519436554E+04  0.10051624227E+04 0.  0.
         23    2    4    4    0    0 -0.70356023386E+02  0.49988591564E+03  0.38675895346E+03  0.64244268438E+03  0.91182322531E+02 0.  0.
         23    2    4    4    0    0  0.43144123377E+03 -0.25325035956E+03 -0.32624709739E+02  0.50950097105E+03  0.90827226091E+02 0.  0.
         11    1    3    3    0    0 -0.81239889551E+02 -0.69622344640E+02 -0.79363068242E+02  0.13321293904E+03  0.00000000000E+00 0.  1.
        -11    1    3    3    0    0 -0.27984532083E+03 -0.17701321144E+03 -0.46974089391E+03  0.57472044337E+03  0.00000000000E+00 0. -1.
          2    1    5    5  502    0 -0.47232079345E+02  0.38912457985E+03  0.34387531312E+03  0.52143939143E+03  0.00000000000E+00 0. -1.
          1    1    6    6  503    0  0.34944783062E+03 -0.17644046678E+03 -0.53884896520E+02  0.39515643322E+03  0.00000000000E+00 0. -1.
         -2    1    5    5    0  502 -0.23123944041E+02  0.11076133579E+03  0.42883640339E+02  0.12100329294E+03  0.00000000000E+00 0.  1.
         -1    1    6    6    0  503  0.81993403151E+02 -0.76809892783E+02  0.21260186781E+02  0.11434453783E+03  0.00000000000E+00 0.  1.
<mgrwt>
<rscale>  0 0.18496295E+04</rscale>
<asrwt>0</asrwt>
<pdfrwt beam="1">  1        2 0.15806513E+00 0.18496295E+04</pdfrwt>
<pdfrwt beam="2">  1       -2 0.12806979E+00 0.18496295E+04</pdfrwt>
<totfact> 0.10260979E+01</totfact>
</mgrwt>
</event>
<event>
12    1  0.4247462E-008  0.1401521E+04  0.7818608E-02  0.8952719E-01
         -2   -1    0    0    0  501 -0.00000000000E+00  0.00000000000E+00  0.52815430890E+03  0.52815430890E+03  0.00000000000E+00 0.  1.
          2   -1    0    0  501    0  0.00000000000E+00 -0.00000000000E+00 -0.92977576281E+03  0.92977576281E+03  0.00000000000E+00 0. -1.
         23    2    1    2    0    0 -0.34756164099E+03  0.19983586383E+03 -0.14975298012E+03  0.43798759402E+03  0.93132758489E+02 0.  0.
        254    2    1    2    0    0  0.34756164099E+03 -0.19983586383E+03 -0.25186847380E+03  0.10199424777E+04  0.90338887692E+03 0.  0.
         23    2    4    4    0    0  0.47800852404E+03 -0.46270849038E+03 -0.23512264420E+03  0.71140849395E+03  0.90708827133E+02 0.  0.
         23    2    4    4    0    0 -0.13044688306E+03  0.26287262655E+03 -0.16745829601E+02  0.30853398374E+03  0.93778404870E+02 0.  0.
         13    1    3    3    0    0 -0.87585506246E+02  0.45078691296E+02  0.40468646974E+01  0.98588470052E+02  0.00000000000E+00 0.  1.
        -13    1    3    3    0    0 -0.25997613474E+03  0.15475717253E+03 -0.15379984481E+03  0.33939912397E+03  0.00000000000E+00 0. -1.
          3    1    6    6  502    0 -0.35892668551E+02  0.17558862659E+03 -0.14916221920E+02  0.17983921463E+03  0.00000000000E+00 0. -1.
          3    1    5    5  503    0  0.10209638297E+03 -0.59799144686E+02 -0.20688205741E+02  0.12011499064E+03  0.00000000000E+00 0. -1.
         -3    1    5    5    0  503  0.37591214108E+03 -0.40290934570E+03 -0.21443443845E+03  0.59129350331E+03  0.00000000000E+00 0.  1.
         -3    1    6    6    0  502 -0.94554214504E+02  0.87283999968E+02 -0.18296076818E+01  0.12869476911E+03  0.00000000000E+00 0.  1.
<mgrwt>
<rscale>  0 0.14015207E+04</rscale>
<asrwt>0</asrwt>
<pdfrwt beam="1">  1        2 0.14304242E+00 0.14015207E+04</pdfrwt>
<pdfrwt beam="2">  1       -2 0.81254509E-01 0.14015207E+04</pdfrwt>
<totfact> 0.36381012E+01</totfact>
</mgrwt>
</event>
<event>
12    1  0.4247462E-008  0.1396140E+04  0.7818608E-02  0.8956617E-01
          2   -1    0    0  501    0  0.00000000000E+00  0.00000000000E+00  0.20480181724E+04  0.20480181724E+04  0.00000000000E+00 0.  1.
         -2   -1    0    0    0  501 -0.00000000000E+00 -0.00000000000E+00 -0.23793821428E+03  0.23793821428E+03  0.00000000000E+00 0. -1.
         23    2    1    2    0    0 -0.23257335991E+03 -0.12002864048E+03  0.90406623934E+03  0.94591309570E+03  0.94438219063E+02 0.  0.
        254    2    1    2    0    0  0.23257335991E+03  0.12002864048E+03  0.90601371879E+03  0.13400432910E+04  0.95202831933E+03 0.  0.
         23    2    4    4    0    0 -0.12634503910E+03  0.52520797881E+02 -0.14773055100E+03  0.22150734158E+03  0.92302131946E+02 0.  0.
         23    2    4    4    0    0  0.35891839901E+03  0.67507842604E+02  0.10537442698E+04  0.11185359494E+04  0.85825159757E+02 0.  0.
         11    1    3    3    0    0 -0.19447385524E+03 -0.69584443807E+02  0.57852406301E+03  0.61428996954E+03  0.00000000000E+00 0.  1.
        -11    1    3    3    0    0 -0.38099504669E+02 -0.50444196678E+02  0.32554217633E+03  0.33162312616E+03  0.00000000000E+00 0. -1.
          2    1    5    5  502    0 -0.13281088471E+03  0.66395115462E+02 -0.12494391021E+03  0.19405675241E+03  0.00000000000E+00 0. -1.
          3    1    6    6  503    0  0.32856453180E+03  0.60517711266E+02  0.10164362313E+04  0.10699344173E+04  0.00000000000E+00 0. -1.
         -2    1    5    5    0  502  0.64658456139E+01 -0.13874317581E+02 -0.22786640782E+02  0.27450589174E+02  0.00000000000E+00 0.  1.
         -3    1    6    6    0  503  0.30353867211E+02  0.69901313382E+01  0.37308038443E+02  0.48601532108E+02  0.00000000000E+00 0.  1.
<mgrwt>
<rscale>  0 0.13961401E+04</rscale>
<asrwt>0</asrwt>
<pdfrwt beam="1">  1        2 0.31507971E+00 0.13961401E+04</pdfrwt>
<pdfrwt beam="2">  1       -2 0.36605881E-01 0.13961401E+04</pdfrwt>
<totfact> 0.43016464E+01</totfact>
</mgrwt>
</event>
<event>
12    1  0.4247462E-008  0.1938892E+04  0.7818608E-02  0.8635736E-01
         -2   -1    0    0    0  501 -0.00000000000E+00  0.00000000000E+00  0.77876616308E+03  0.77876616308E+03  0.00000000000E+00 0.  1.
          2   -1    0    0  501    0  0.00000000000E+00 -0.00000000000E+00 -0.12068135493E+04  0.12068135493E+04  0.00000000000E+00 0. -1.
         23    2    1    2    0    0  0.28648122609E+03  0.47206196260E+03  0.36557730230E+03  0.66824036690E+03  0.89355663296E+02 0.  0.
        254    2    1    2    0    0 -0.28648122609E+03 -0.47206196260E+03 -0.79362468856E+03  0.13173393455E+04  0.89477864052E+03 0.  0.
         23    2    4    4    0    0  0.29784703680E+03 -0.71197755447E+02 -0.13940607115E+03  0.34884348140E+03  0.92063804671E+02 0.  0.
         23    2    4    4    0    0 -0.58432826289E+03 -0.40086420715E+03 -0.65421861741E+03  0.96849586412E+03  0.88603657209E+02 0.  0.
         13    1    3    3    0    0  0.11567179084E+03  0.11784908692E+03  0.12657298636E+03  0.20806030703E+03  0.00000000000E+00 0. -1.
        -13    1    3    3    0    0  0.17080943525E+03  0.35421287568E+03  0.23900431594E+03  0.46018005987E+03  0.00000000000E+00 0.  1.
          3    1    5    5  502    0  0.25971875443E+03 -0.58879389930E+02 -0.81641928458E+02  0.27854266898E+03  0.00000000000E+00 0. -1.
          3    1    6    6  503    0 -0.53199276592E+03 -0.33918458082E+03 -0.60309538129E+03  0.87280382778E+03  0.00000000000E+00 0. -1.
         -3    1    5    5    0  502  0.38128282372E+02 -0.12318365518E+02 -0.57764142697E+02  0.70300812422E+02  0.00000000000E+00 0.  1.
         -3    1    6    6    0  503 -0.52335496969E+02 -0.61679626334E+02 -0.51123236114E+02  0.95692036337E+02  0.00000000000E+00 0.  1.
<mgrwt>
<rscale>  0 0.19388920E+04</rscale>
<asrwt>0</asrwt>
<pdfrwt beam="1">  1        2 0.18566362E+00 0.19388920E+04</pdfrwt>
<pdfrwt beam="2">  1       -2 0.11981018E+00 0.19388920E+04</pdfrwt>
<totfact> 0.93408054E+00</totfact>
</mgrwt>
</event>
<event>
12    1  0.4247462E-008  0.1600537E+04  0.7818608E-02  0.8820218E-01
          2   -1    0    0  501    0  0.00000000000E+00  0.00000000000E+00  0.27386549837E+04  0.27386549837E+04  0.00000000000E+00 0. -1.
         -2   -1    0    0    0  501 -0.00000000000E+00 -0.00000000000E+00 -0.23384812877E+03  0.23384812877E+03  0.00000000000E+00 0.  1.
         23    2    1    2    0    0 -0.45013205178E+03 -0.21687439884E+03  0.42355908368E+03  0.66054115536E+03  0.85199481446E+02 0.  0.
        254    2    1    2    0    0  0.45013205178E+03  0.21687439884E+03  0.20812477713E+04  0.23119619571E+04  0.87402656532E+03 0.  0.
         23    2    4    4    0    0  0.18337916909E+03  0.99329858412E+02  0.19781733900E+04  0.19912171099E+04  0.91001525448E+02 0.  0.
         23    2    4    4    0    0  0.26675288269E+03  0.11754454043E+03  0.10307438129E+03  0.32074484719E+03  0.85317697545E+02 0.  0.
         13    1    3    3    0    0 -0.32607788755E+03 -0.17286124853E+03  0.35517116903E+03  0.51220538781E+03  0.00000000000E+00 0.  1.
        -13    1    3    3    0    0 -0.12405416423E+03 -0.44013150316E+02  0.68387914647E+02  0.14833576754E+03  0.00000000000E+00 0. -1.
          4    1    5    5  502    0  0.97704709180E+02  0.80838704053E+02  0.14773138860E+04  0.14827465812E+04  0.00000000000E+00 0.  1.
          3    1    6    6  503    0  0.10423707132E+03  0.99404827504E+01  0.11327765598E+02  0.10532093101E+03  0.00000000000E+00 0.  1.
         -4    1    5    5    0  502  0.85674459907E+02  0.18491154359E+02  0.50085950399E+03  0.50847052875E+03  0.00000000000E+00 0. -1.
         -3    1    6    6    0  503  0.16251581137E+03  0.10760405768E+03  0.91746615689E+02  0.21542391619E+03  0.00000000000E+00 0. -1.
<mgrwt>
<rscale>  0 0.16005366E+04</rscale>
<asrwt>0</asrwt>
<pdfrwt beam="1">  1        2 0.42133151E+00 0.16005366E+04</pdfrwt>
<pdfrwt beam="2">  1       -2 0.35976637E-01 0.16005366E+04</pdfrwt>
<totfact> 0.17609543E+01</totfact>
</mgrwt>
</event>
<event>
12    1  0.4247462E-008  0.2740245E+04  0.7818608E-02  0.8322064E-01
          2   -1    0    0  501    0  0.00000000000E+00  0.00000000000E+00  0.33134970387E+04  0.33134970387E+04  0.00000000000E+00 0. -1.
         -2   -1    0    0    0  501 -0.00000000000E+00 -0.00000000000E+00 -0.56654209647E+03  0.56654209647E+03  0.00000000000E+00 0.  1.
         23    2    1    2    0    0 -0.24643217313E+02 -0.12087324804E+04  0.14650755617E+04  0.19015892361E+04  0.89183653921E+02 0.  0.
        254    2    1    2    0    0  0.24643217313E+02  0.12087324804E+04  0.12818793805E+04  0.19784498991E+04  0.89967091742E+03 0.  0.
         23    2    4    4    0    0 -0.28077077714E+03  0.76588184974E+02  0.42362821666E+03  0.52241757353E+03  0.93601686986E+02 0.  0.
         23    2    4    4    0    0  0.30541399445E+03  0.11321442954E+04  0.85825116387E+03  0.14560323255E+04  0.91687835294E+02 0.  0.
         13    1    3    3    0    0 -0.11877327239E+02 -0.49625151122E+02  0.86543333505E+02  0.10046628838E+03  0.00000000000E+00 0.  1.
        -13    1    3    3    0    0 -0.12765890074E+02 -0.11591073292E+04  0.13785322282E+04  0.18011229477E+04  0.00000000000E+00 0. -1.
          4    1    5    5  502    0 -0.21478467641E+02  0.30770466520E+02  0.26544228127E+02  0.45964575805E+02  0.00000000000E+00 0.  1.
          1    1    6    6  503    0  0.51545495471E+02  0.33523259496E+03  0.22587372270E+03  0.40750063734E+03  0.00000000000E+00 0.  1.
         -4    1    5    5    0  502 -0.25929230950E+03  0.45817718454E+02  0.39708398854E+03  0.47645299772E+03  0.00000000000E+00 0. -1.
         -1    1    6    6    0  503  0.25386849898E+03  0.79691170044E+03  0.63237744116E+03  0.10485316882E+04  0.00000000000E+00 0. -1.
<mgrwt>
<rscale>  0 0.27402449E+04</rscale>
<asrwt>0</asrwt>
<pdfrwt beam="1">  1        2 0.50976877E+00 0.27402449E+04</pdfrwt>
<pdfrwt beam="2">  1       -2 0.87160324E-01 0.27402449E+04</pdfrwt>
<totfact> 0.10851387E+00</totfact>
</mgrwt>
</event>
<event>
12    1  0.4247462E-008  0.1731862E+04  0.7818608E-02  0.8743398E-01
         -3   -1    0    0    0  501 -0.00000000000E+00  0.00000000000E+00  0.83299006300E+03  0.83299006300E+03  0.00000000000E+00 0.  1.
          3   -1    0    0  501    0  0.00000000000E+00 -0.00000000000E+00 -0.90017465620E+03  0.90017465620E+03  0.00000000000E+00 0. -1.
         23    2    1    2    0    0  0.46790673410E+03 -0.13127204921E+03 -0.41765643412E+03  0.64718970499E+03  0.90821553376E+02 0.  0.
        254    2    1    2    0    0 -0.46790673410E+03  0.13127204921E+03  0.35047184092E+03  0.10859750142E+04  0.90572741898E+03 0.  0.
         23    2    4    4    0    0 -0.35527303355E+03 -0.10399630093E+03  0.60138917382E+03  0.71197009842E+03  0.90544594951E+02 0.  0.
         23    2    4    4    0    0 -0.11263370055E+03  0.23526835014E+03 -0.25091733290E+03  0.37400491580E+03  0.94247663177E+02 0.  0.
         11    1    3    3    0    0  0.30495155759E+03 -0.11848009085E+03 -0.23980905014E+03  0.40563698665E+03  0.00000000000E+00 0. -1.
        -11    1    3    3    0    0  0.16295517651E+03 -0.12791958358E+02 -0.17784738397E+03  0.24155271834E+03  0.00000000000E+00 0.  1.
          2    1    5    5  502    0 -0.10279179703E+03 -0.56509995284E+02  0.12985268268E+03  0.17498929197E+03  0.00000000000E+00 0. -1.
          3    1    6    6  503    0  0.42148223386E+01 -0.15574845633E+01  0.46787562715E+01  0.64870059164E+01  0.00000000000E+00 0. -1.
         -2    1    5    5    0  502 -0.25248123652E+03 -0.47486305646E+02  0.47153649114E+03  0.53698080645E+03  0.00000000000E+00 0.  1.
         -3    1    6    6    0  503 -0.11684852289E+03  0.23682583470E+03 -0.25559608917E+03  0.36751790988E+03  0.00000000000E+00 0.  1.
<mgrwt>
<rscale>  0 0.17318621E+04</rscale>
<asrwt>0</asrwt>
<pdfrwt beam="1">  1        3 0.13848841E+00 0.17318621E+04</pdfrwt>
<pdfrwt beam="2">  1       -3 0.12815232E+00 0.17318621E+04</pdfrwt>
<totfact> 0.47414325E-01</totfact>
</mgrwt>
</event>
<event>
12    1  0.4247462E-008  0.2143952E+04  0.7818608E-02  0.8542126E-01
         -1   -1    0    0    0  501 -0.00000000000E+00  0.00000000000E+00  0.11313590645E+04  0.11313590645E+04  0.00000000000E+00 0.  1.
          1   -1    0    0  501    0  0.00000000000E+00 -0.00000000000E+00 -0.10157097149E+04  0.10157097149E+04  0.00000000000E+00 0. -1.
         23    2    1    2    0    0  0.31116512891E+03  0.26961907616E+03  0.79409024198E+03  0.89904042874E+03  0.90422322577E+02 0.  0.
        254    2    1    2    0    0 -0.31116512891E+03 -0.26961907616E+03 -0.67844089244E+03  0.12480283507E+04  0.96321053560E+03 0.  0.
         23    2    4    4    0    0 -0.15978758324E+03  0.34326225587E+03 -0.38297798759E+03  0.54504929122E+03  0.83937731798E+02 0.  0.
         23    2    4    4    0    0 -0.15137754567E+03 -0.61288133202E+03 -0.29546290485E+03  0.70297905946E+03  0.91337513764E+02 0.  0.
         13    1    3    3    0    0  0.19220971829E+02  0.37913570270E+02  0.13885261650E+03  0.14521340737E+03  0.00000000000E+00 0. -1.
        -13    1    3    3    0    0  0.29194415708E+03  0.23170550589E+03  0.65523762548E+03  0.75382702138E+03  0.00000000000E+00 0.  1.
          2    1    5    5  502    0 -0.18164568063E+02  0.69642840985E+02 -0.34223245976E+02  0.79695090178E+02  0.00000000000E+00 0.  1.
          3    1    6    6  503    0 -0.14312245627E+03 -0.60231467922E+03 -0.30111079449E+03  0.68842916909E+03  0.00000000000E+00 0. -1.
         -2    1    5    5    0  502 -0.14162301518E+03  0.27361941488E+03 -0.34875474162E+03  0.46535420104E+03  0.00000000000E+00 0. -1.
         -3    1    6    6    0  503 -0.82550893990E+01 -0.10566652803E+02  0.56478896394E+01  0.14549890371E+02  0.00000000000E+00 0.  1.
<mgrwt>
<rscale>  0 0.21439519E+04</rscale>
<asrwt>0</asrwt>
<pdfrwt beam="1">  1        1 0.15626303E+00 0.21439519E+04</pdfrwt>
<pdfrwt beam="2">  1       -1 0.17405524E+00 0.21439519E+04</pdfrwt>
<totfact> 0.30971084E+00</totfact>
</mgrwt>
</event>
<event>
12    1  0.4247462E-008  0.1211875E+04  0.7818608E-02  0.9102526E-01
          1   -1    0    0  501    0  0.00000000000E+00  0.00000000000E+00  0.15675355493E+04  0.15675355493E+04  0.00000000000E+00 0.  1.
         -1   -1    0    0    0  501 -0.00000000000E+00 -0.00000000000E+00 -0.23422758337E+03  0.23422758337E+03  0.00000000000E+00 0. -1.
         23    2    1    2    0    0 -0.10031105250E+03 -0.18021009446E+03  0.11303389171E+03  0.25285130472E+03  0.92839303250E+02 0.  0.
        254    2    1    2    0    0  0.10031105250E+03  0.18021009446E+03  0.12202740742E+04  0.15489118279E+04  0.93140810021E+03 0.  0.
         23    2    4    4    0    0  0.47566207185E+03  0.21150448373E+03  0.91021989430E+03  0.10524515461E+04  0.90362866401E+02 0.  0.
         23    2    4    4    0    0 -0.37535101935E+03 -0.31294389276E+02  0.31005417989E+03  0.49646028185E+03  0.92040699977E+02 0.  0.
         11    1    3    3    0    0 -0.90998877333E+02 -0.14895259647E+03  0.49496870454E+02  0.18143211363E+03  0.00000000000E+00 0. -1.
        -11    1    3    3    0    0 -0.93121751675E+01 -0.31257497987E+02  0.63537021256E+02  0.71419191096E+02  0.00000000000E+00 0.  1.
          2    1    5    5  502    0  0.43060830513E+03  0.19498485359E+03  0.86876813780E+03  0.98904028373E+03  0.00000000000E+00 0. -1.
          1    1    6    6  503    0 -0.28632508680E+03  0.14425576421E+02  0.21408501491E+03  0.35780238428E+03  0.00000000000E+00 0. -1.
         -2    1    5    5    0  502  0.45053766727E+02  0.16519630138E+02  0.41451756497E+02  0.63411262351E+02  0.00000000000E+00 0.  1.
         -1    1    6    6    0  503 -0.89025932550E+02 -0.45719965697E+02  0.95969164987E+02  0.13865789757E+03  0.00000000000E+00 0.  1.
<mgrwt>
<rscale>  0 0.12118747E+04</rscale>
<asrwt>0</asrwt>
<pdfrwt beam="1">  1        1 0.24115931E+00 0.12118747E+04</pdfrwt>
<pdfrwt beam="2">  1       -1 0.36035014E-01 0.12118747E+04</pdfrwt>
<totfact> 0.42773878E+01</totfact>
</mgrwt>
</event>
<event>
12    1  0.4247462E-008  0.2206715E+04  0.7818608E-02  0.8515639E-01
          1   -1    0    0  501    0  0.00000000000E+00  0.00000000000E+00  0.16396217429E+04  0.16396217429E+04  0.00000000000E+00 0. -1.
         -1   -1    0    0    0  501 -0.00000000000E+00 -0.00000000000E+00 -0.74248671415E+03  0.74248671415E+03  0.00000000000E+00 0.  1.
         23    2    1    2    0    0  0.91522829137E+02 -0.51229901210E+03 -0.43779374813E+03  0.68829008478E+03  0.10608095427E+03 0.  0.
        254    2    1    2    0    0 -0.91522829137E+02  0.51229901210E+03  0.13349287769E+04  0.16938183723E+04  0.90341526046E+03 0.  0.
         23    2    4    4    0    0 -0.37751087505E+03  0.50092636364E+03  0.12134690140E+04  0.13689284854E+04  0.89534728785E+02 0.  0.
         23    2    4    4    0    0  0.28598804591E+03  0.11372648457E+02  0.12145976286E+03  0.32488988684E+03  0.94246830372E+02 0.  0.
         13    1    3    3    0    0  0.98000686074E+01 -0.14802922526E+03 -0.69324597407E+02  0.16375161887E+03  0.00000000000E+00 0. -1.
        -13    1    3    3    0    0  0.81722760530E+02 -0.36426978684E+03 -0.36846915072E+03  0.52453846592E+03  0.00000000000E+00 0.  1.
          4    1    5    5  502    0 -0.31557147557E+03  0.39103017342E+03  0.10331413365E+04  0.11488563766E+04  0.00000000000E+00 0. -1.
          3    1    6    6  503    0  0.21791602903E+03  0.46733909871E+02  0.74717882330E+02  0.23506215344E+03  0.00000000000E+00 0. -1.
         -4    1    5    5    0  502 -0.61939399477E+02  0.10989619022E+03  0.18032767752E+03  0.22007210890E+03  0.00000000000E+00 0.  1.
         -3    1    6    6    0  503  0.68072016885E+02 -0.35361261413E+02  0.46741880532E+02  0.89827733397E+02  0.00000000000E+00 0.  1.
<mgrwt>
<rscale>  0 0.22067146E+04</rscale>
<asrwt>0</asrwt>
<pdfrwt beam="1">  1        1 0.25224950E+00 0.22067146E+04</pdfrwt>
<pdfrwt beam="2">  1       -1 0.11422873E+00 0.22067146E+04</pdfrwt>
<totfact> 0.33313945E+00</totfact>
</mgrwt>
</event>
<event>
12    1  0.4247462E-008  0.1035127E+04  0.7818608E-02  0.9270836E-01
          2   -1    0    0  501    0  0.00000000000E+00  0.00000000000E+00  0.13284919246E+04  0.13284919246E+04  0.00000000000E+00 0. -1.
         -2   -1    0    0    0  501 -0.00000000000E+00 -0.00000000000E+00 -0.20163596737E+03  0.20163596737E+03  0.00000000000E+00 0.  1.
         23    2    1    2    0    0 -0.14968076569E+02 -0.77322848324E+02  0.76773365451E+02  0.14290600218E+03  0.91242038704E+02 0.  0.
        254    2    1    2    0    0  0.14968076569E+02  0.77322848324E+02  0.10500825918E+04  0.13872218898E+04  0.90305495723E+03 0.  0.
         23    2    4    4    0    0  0.72088559765E+01  0.47383263843E+03  0.43326223664E+03  0.64851031967E+03  0.90995231622E+02 0.  0.
         23    2    4    4    0    0  0.77592205921E+01 -0.39650979011E+03  0.61682035519E+03  0.73871157016E+03  0.89147148910E+02 0.  0.
         11    1    3    3    0    0  0.38696674907E+02 -0.33221662159E+02  0.34917774677E+02  0.61809080837E+02  0.00000000000E+00 0. -1.
        -11    1    3    3    0    0 -0.53664751475E+02 -0.44101186165E+02  0.41855590774E+02  0.81096921342E+02  0.00000000000E+00 0.  1.
          4    1    5    5  502    0 -0.27654316712E+02  0.15149595591E+03  0.10035014381E+03  0.18380951350E+03  0.00000000000E+00 0. -1.
          1    1    6    6  503    0  0.15468130276E+02 -0.21527749548E+02  0.17694699707E+02  0.31871765759E+02  0.00000000000E+00 0. -1.
         -4    1    5    5    0  502  0.34863172688E+02  0.32233668252E+03  0.33291209282E+03  0.46470080617E+03  0.00000000000E+00 0.  1.
         -1    1    6    6    0  503 -0.77089096842E+01 -0.37498204056E+03  0.59912565548E+03  0.70683980440E+03  0.00000000000E+00 0.  1.
<mgrwt>
<rscale>  0 0.10351266E+04</rscale>
<asrwt>0</asrwt>
<pdfrwt beam="1">  1        2 0.20438337E+00 0.10351266E+04</pdfrwt>
<pdfrwt beam="2">  1       -2 0.31020919E-01 0.10351266E+04</pdfrwt>
<totfact> 0.15253459E+02</totfact>
</mgrwt>
</event>
<event>
12    1  0.4247462E-008  0.1619317E+04  0.7818608E-02  0.8808768E-01
          1   -1    0    0  501    0  0.00000000000E+00  0.00000000000E+00  0.15931054263E+04  0.15931054263E+04  0.00000000000E+00 0. -1.
         -1   -1    0    0    0  501 -0.00000000000E+00 -0.00000000000E+00 -0.41148979122E+03  0.41148979122E+03  0.00000000000E+00 0.  1.
         23    2    1    2    0    0  0.41678572938E+03  0.11257175856E+03 -0.29536687302E+02  0.44202171808E+03  0.90155633911E+02 0.  0.
        254    2    1    2    0    0 -0.41678572938E+03 -0.11257175856E+03  0.12111523224E+04  0.15625734995E+04  0.88789821945E+03 0.  0.
         23    2    4    4    0    0 -0.61520651952E+03 -0.23686672124E+03  0.57866908309E+03  0.88192772636E+03  0.91398585995E+02 0.  0.
         23    2    4    4    0    0  0.19842079014E+03  0.12429496268E+03  0.63248323934E+03  0.68064577311E+03  0.91780023404E+02 0.  0.
         13    1    3    3    0    0  0.53951042398E+02 -0.14237039049E+02 -0.13096869117E+02  0.57314363273E+02  0.00000000000E+00 0. -1.
        -13    1    3    3    0    0  0.36283468698E+03  0.12680879761E+03 -0.16439818185E+02  0.38470735481E+03  0.00000000000E+00 0.  1.
          4    1    5    5  502    0 -0.54781370614E+03 -0.23879965926E+03  0.53014282243E+03  0.79885952837E+03  0.00000000000E+00 0.  1.
          3    1    6    6  503    0  0.88911592240E+01 -0.77065363561E+01  0.65667375907E+01  0.13474622723E+02  0.00000000000E+00 0. -1.
         -4    1    5    5    0  502 -0.67392813378E+02  0.19329380202E+01  0.48526260660E+02  0.83068197994E+02  0.00000000000E+00 0. -1.
         -3    1    6    6    0  503  0.18952963092E+03  0.13200149904E+03  0.62591650175E+03  0.66717115039E+03  0.00000000000E+00 0.  1.
<mgrwt>
<rscale>  0 0.16193167E+04</rscale>
<asrwt>0</asrwt>
<pdfrwt beam="1">  1        1 0.24509314E+00 0.16193167E+04</pdfrwt>
<pdfrwt beam="2">  1       -1 0.63306123E-01 0.16193167E+04</pdfrwt>
<totfact> 0.13676757E+01</totfact>
</mgrwt>
</event>
<event>
12    1  0.4247462E-008  0.1541956E+04  0.7818608E-02  0.8857022E-01
          1   -1    0    0  501    0  0.00000000000E+00  0.00000000000E+00  0.16040658676E+04  0.16040658676E+04  0.00000000000E+00 0. -1.
         -1   -1    0    0    0  501 -0.00000000000E+00 -0.00000000000E+00 -0.37056289201E+03  0.37056289201E+03  0.00000000000E+00 0.  1.
         23    2    1    2    0    0  0.86488011102E+02  0.95842225195E+01  0.10482486710E+04  0.10559381831E+04  0.92780045656E+02 0.  0.
        254    2    1    2    0    0 -0.86488011102E+02 -0.95842225195E+01  0.18525430454E+03  0.91869057647E+03  0.89560101863E+03 0.  0.
         23    2    4    4    0    0 -0.63228020382E+02  0.23803930595E+03 -0.27771076697E+03  0.38429233508E+03  0.99482837581E+02 0.  0.
         23    2    4    4    0    0 -0.23259990720E+02 -0.24762352847E+03  0.46296507151E+03  0.53439824139E+03  0.96883352233E+02 0.  0.
         13    1    3    3    0    0  0.91243410359E+02 -0.21543390724E+02  0.85723911240E+03  0.86235049338E+03  0.00000000000E+00 0. -1.
        -13    1    3    3    0    0 -0.47553992576E+01  0.31127613244E+02  0.19100955863E+03  0.19358768973E+03  0.00000000000E+00 0.  1.
          4    1    5    5  502    0 -0.24854414819E+02  0.20500719706E+03 -0.25674670478E+03  0.32949137045E+03  0.00000000000E+00 0. -1.
          1    1    6    6  503    0 -0.22454251865E+02 -0.22217976880E+03  0.45640843176E+03  0.50811091277E+03  0.00000000000E+00 0. -1.
         -4    1    5    5    0  502 -0.38373605563E+02  0.33032108888E+02 -0.20964062190E+02  0.54800964636E+02  0.00000000000E+00 0.  1.
         -1    1    6    6    0  503 -0.80573885481E+00 -0.25443759667E+02  0.65566397480E+01  0.26287328618E+02  0.00000000000E+00 0.  1.
<mgrwt>
<rscale>  0 0.15419563E+04</rscale>
<asrwt>0</asrwt>
<pdfrwt beam="1">  1        1 0.24677936E+00 0.15419563E+04</pdfrwt>
<pdfrwt beam="2">  1       -1 0.57009677E-01 0.15419563E+04</pdfrwt>
<totfact> 0.16650503E+01</totfact>
</mgrwt>
</event>
<event>
12    1  0.4247462E-008  0.1793244E+04  0.7818608E-02  0.8709901E-01
         -1   -1    0    0    0  501 -0.00000000000E+00  0.00000000000E+00  0.69153427868E+03  0.69153427868E+03  0.00000000000E+00 0.  1.
          1   -1    0    0  501    0  0.00000000000E+00 -0.00000000000E+00 -0.11625321361E+04  0.11625321361E+04  0.00000000000E+00 0. -1.
         23    2    1    2    0    0 -0.55080857306E+03  0.37445306839E+03 -0.19681660587E+03  0.70036527934E+03  0.90385638101E+02 0.  0.
        254    2    1    2    0    0  0.55080857306E+03 -0.37445306839E+03 -0.27418125155E+03  0.11537011354E+04  0.90124678452E+03 0.  0.
         23    2    4    4    0    0  0.37905462536E+03  0.20136357177E+03 -0.32137155917E+03  0.54399291941E+03  0.91754674431E+02 0.  0.
         23    2    4    4    0    0  0.17175394770E+03 -0.57581664016E+03  0.47190307612E+02  0.60970821603E+03  0.91939990878E+02 0.  0.
         13    1    3    3    0    0 -0.43389993103E+03  0.24944413351E+03 -0.13489850317E+03  0.51835232424E+03  0.00000000000E+00 0.  1.
        -13    1    3    3    0    0 -0.11690864203E+03  0.12500893488E+03 -0.61918102697E+02  0.18201295510E+03  0.00000000000E+00 0. -1.
          4    1    5    5  502    0  0.11799357794E+03  0.67083006804E+02 -0.51331146550E+02  0.14511202860E+03  0.00000000000E+00 0. -1.
          3    1    6    6  503    0  0.22844092625E+02 -0.14057214332E+03 -0.23351602777E+02  0.14431797323E+03  0.00000000000E+00 0. -1.
         -4    1    5    5    0  502  0.26106104742E+03  0.13428056496E+03 -0.27004041262E+03  0.39888089081E+03  0.00000000000E+00 0.  1.
         -3    1    6    6    0  503  0.14890985507E+03 -0.43524449684E+03  0.70541910388E+02  0.46539024279E+03  0.00000000000E+00 0.  1.
<mgrwt>
<rscale>  0 0.17932438E+04</rscale>
<asrwt>0</asrwt>
<pdfrwt beam="1">  1        1 0.17885110E+00 0.17932438E+04</pdfrwt>
<pdfrwt beam="2">  1       -1 0.10638989E+00 0.17932438E+04</pdfrwt>
<totfact> 0.88763997E+00</totfact>
</mgrwt>
</event>
<event>
12    1  0.4247462E-008  0.3013065E+04  0.7818608E-02  0.8240010E-01
         -2   -1    0    0    0  501 -0.00000000000E+00  0.00000000000E+00  0.99515350429E+03  0.99515350429E+03  0.00000000000E+00 0.  1.
          2   -1    0    0  501    0  0.00000000000E+00 -0.00000000000E+00 -0.22806937347E+04  0.22806937347E+04  0.00000000000E+00 0. -1.
         23    2    1    2    0    0  0.24867267024E+03 -0.57051645751E+02  0.87758495211E+03  0.91837864567E+03  0.90393591870E+02 0.  0.
        254    2    1    2    0    0 -0.24867267024E+03  0.57051645751E+02 -0.21631251825E+04  0.23574685933E+04  0.90191719464E+03 0.  0.
         23    2    4    4    0    0 -0.43235094550E+01  0.29018309232E+03 -0.18884011192E+04  0.19125950308E+04  0.87954788732E+02 0.  0.
         23    2    4    4    0    0 -0.24434916079E+03 -0.23313144657E+03 -0.27472406330E+03  0.44487356254E+03  0.91555403617E+02 0.  0.
         11    1    3    3    0    0  0.18537593458E+03 -0.29299293808E+02  0.49063698482E+03  0.52530689755E+03  0.00000000000E+00 0.  1.
        -11    1    3    3    0    0  0.63296735661E+02 -0.27752351943E+02  0.38694796729E+03  0.39307174812E+03  0.00000000000E+00 0. -1.
          1    1    6    6  502    0 -0.89573391462E+02 -0.58328144896E+02 -0.40919275018E+02  0.11445502179E+03  0.00000000000E+00 0. -1.
          1    1    5    5  503    0  0.28435165543E+02  0.20806922780E+03 -0.14726572163E+04  0.14875552557E+04  0.00000000000E+00 0. -1.
         -1    1    5    5    0  503 -0.32758674998E+02  0.82113864515E+02 -0.41574390295E+03  0.42503977505E+03  0.00000000000E+00 0.  1.
         -1    1    6    6    0  502 -0.15477576933E+03 -0.17480330167E+03 -0.23380478828E+03  0.33041854075E+03  0.00000000000E+00 0.  1.
<mgrwt>
<rscale>  0 0.30130651E+04</rscale>
<asrwt>0</asrwt>
<pdfrwt beam="1">  1        2 0.35087596E+00 0.30130651E+04</pdfrwt>
<pdfrwt beam="2">  1       -2 0.15310054E+00 0.30130651E+04</pdfrwt>
<totfact> 0.11279678E+00</totfact>
</mgrwt>
</event>
<event>
12    1  0.4247462E-008  0.1620731E+04  0.7818608E-02  0.8807912E-01
         -1   -1    0    0    0  501 -0.00000000000E+00  0.00000000000E+00  0.83820126895E+03  0.83820126895E+03  0.00000000000E+00 0.  1.
          1   -1    0    0  501    0  0.00000000000E+00 -0.00000000000E+00 -0.78345457420E+03  0.78345457420E+03  0.00000000000E+00 0. -1.
         23    2    1    2    0    0  0.31268961844E+02  0.51570595984E+03 -0.18638632737E+03  0.55679528031E+03  0.91382362403E+02 0.  0.
        254    2    1    2    0    0 -0.31268961844E+02 -0.51570595984E+03  0.24113302211E+03  0.10648605628E+04  0.89936227347E+03 0.  0.
         23    2    4    4    0    0  0.30255925726E+03  0.84040821581E+02  0.16951229304E+03  0.36833354676E+03  0.91270040690E+02 0.  0.
         23    2    4    4    0    0 -0.33382821911E+03 -0.59974678142E+03  0.71620729077E+02  0.69652701608E+03  0.94248997885E+02 0.  0.
         11    1    3    3    0    0 -0.14913086638E+01  0.46029111472E+03 -0.16428482665E+03  0.48873268620E+03  0.00000000000E+00 0. -1.
        -11    1    3    3    0    0  0.32760270508E+02  0.55414845122E+02 -0.22101500716E+02  0.68062594114E+02  0.00000000000E+00 0.  1.
          1    1    5    5  502    0  0.87213078855E+02  0.38066897626E+02  0.84816661678E+01  0.95536110865E+02  0.00000000000E+00 0. -1.
          1    1    6    6  503    0 -0.63560830597E+02 -0.19906435146E+03  0.34463397702E+02  0.21178838729E+03  0.00000000000E+00 0. -1.
         -1    1    5    5    0  502  0.21534617841E+03  0.45973923955E+02  0.16103062687E+03  0.27279743589E+03  0.00000000000E+00 0.  1.
         -1    1    6    6    0  503 -0.27026738851E+03 -0.40068242996E+03  0.37157331375E+02  0.48473862879E+03  0.00000000000E+00 0.  1.
<mgrwt>
<rscale>  0 0.16207315E+04</rscale>
<asrwt>0</asrwt>
<pdfrwt beam="1">  1        1 0.12053147E+00 0.16207315E+04</pdfrwt>
<pdfrwt beam="2">  1       -1 0.12895404E+00 0.16207315E+04</pdfrwt>
<totfact> 0.11337606E+01</totfact>
</mgrwt>
</event>
<event>
12    1  0.4247462E-008  0.1734778E+04  0.7818608E-02  0.8741774E-01
         -2   -1    0    0    0  501 -0.00000000000E+00  0.00000000000E+00  0.10688282560E+04  0.10688282560E+04  0.00000000000E+00 0.  1.
          2   -1    0    0  501    0  0.00000000000E+00 -0.00000000000E+00 -0.70391420208E+03  0.70391420208E+03  0.00000000000E+00 0. -1.
         23    2    1    2    0    0 -0.24446886483E+03  0.53141847670E+03 -0.64758401281E+02  0.59543577687E+03  0.90440536254E+02 0.  0.
        254    2    1    2    0    0  0.24446886483E+03 -0.53141847670E+03  0.42967245523E+03  0.11773066812E+04  0.92696385025E+03 0.  0.
         23    2    4    4    0    0  0.51742786112E+02 -0.20737510904E+02 -0.26604985693E+03  0.28829116283E+03  0.96030765470E+02 0.  0.
         23    2    4    4    0    0  0.19272607872E+03 -0.51068096579E+03  0.69572231216E+03  0.88901551842E+03  0.91545978122E+02 0.  0.
         13    1    3    3    0    0 -0.21938255442E+03  0.38705221759E+03 -0.58952132461E+02  0.44879112987E+03  0.00000000000E+00 0. -1.
        -13    1    3    3    0    0 -0.25086310415E+02  0.14436625911E+03 -0.58062688194E+01  0.14664464701E+03  0.00000000000E+00 0.  1.
          4    1    5    5  502    0 -0.26539969558E+02 -0.93461040020E+00 -0.10262841811E+03  0.10600865853E+03  0.00000000000E+00 0. -1.
          3    1    6    6  503    0  0.13874370064E+03 -0.32594221367E+03  0.38209567607E+03  0.52104246160E+03  0.00000000000E+00 0. -1.
         -4    1    5    5    0  502  0.78282755671E+02 -0.19802900504E+02 -0.16342143882E+03  0.18228250429E+03  0.00000000000E+00 0.  1.
         -3    1    6    6    0  503  0.53982378081E+02 -0.18473875212E+03  0.31362663609E+03  0.36797305682E+03  0.00000000000E+00 0.  1.
<mgrwt>
<rscale>  0 0.17347777E+04</rscale>
<asrwt>0</asrwt>
<pdfrwt beam="1">  1        2 0.10829449E+00 0.17347777E+04</pdfrwt>
<pdfrwt beam="2">  1       -2 0.16443512E+00 0.17347777E+04</pdfrwt>
<totfact> 0.90171499E+00</totfact>
</mgrwt>
</event>
<event>
12    1  0.4247462E-008  0.1168256E+04  0.7818608E-02  0.9141105E-01
          2   -1    0    0  501    0  0.00000000000E+00  0.00000000000E+00  0.16727579648E+04  0.16727579648E+04  0.00000000000E+00 0. -1.
         -2   -1    0    0    0  501 -0.00000000000E+00 -0.00000000000E+00 -0.20397791809E+03  0.20397791809E+03  0.00000000000E+00 0.  1.
         23    2    1    2    0    0  0.15901656455E+03 -0.12056749355E+03  0.13485570578E+03  0.25839084045E+03  0.93578719516E+02 0.  0.
        254    2    1    2    0    0 -0.15901656455E+03  0.12056749355E+03  0.13339243409E+04  0.16183450424E+04  0.89435101651E+03 0.  0.
         23    2    4    4    0    0 -0.63192281944E+02 -0.12418191034E+03 -0.74870038561E+02  0.18243204627E+03  0.90892890144E+02 0.  0.
         23    2    4    4    0    0 -0.95824282603E+02  0.24474940388E+03  0.14087943795E+04  0.14359129961E+04  0.89777308075E+02 0.  0.
         11    1    3    3    0    0 -0.13505358778E+01 -0.40408037104E+02  0.33029732843E+02  0.52207247211E+02  0.00000000000E+00 0. -1.
        -11    1    3    3    0    0  0.16036710042E+03 -0.80159456443E+02  0.10182597294E+03  0.20618359324E+03  0.00000000000E+00 0.  1.
          1    1    5    5  502    0  0.18085505411E+02 -0.54924512627E+02 -0.39153290687E+02  0.69833858299E+02  0.00000000000E+00 0. -1.
          3    1    6    6  503    0 -0.10442537178E+03  0.15521237510E+03  0.99875879147E+03  0.10161272869E+04  0.00000000000E+00 0. -1.
         -1    1    5    5    0  502 -0.81277787355E+02 -0.69257397709E+02 -0.35716747874E+02  0.11259818797E+03  0.00000000000E+00 0.  1.
         -3    1    6    6    0  503  0.86010891780E+01  0.89537028780E+02  0.41003558800E+03  0.41978570925E+03  0.00000000000E+00 0.  1.
<mgrwt>
<rscale>  0 0.11682563E+04</rscale>
<asrwt>0</asrwt>
<pdfrwt beam="1">  1        2 0.25734737E+00 0.11682563E+04</pdfrwt>
<pdfrwt beam="2">  1       -2 0.31381219E-01 0.11682563E+04</pdfrwt>
<totfact> 0.94613598E+01</totfact>
</mgrwt>
</event>
<event>
12    1  0.4247462E-008  0.1505273E+04  0.7818608E-02  0.8880954E-01
          2   -1    0    0  501    0  0.00000000000E+00  0.00000000000E+00  0.23871701435E+04  0.23871701435E+04  0.00000000000E+00 0. -1.
         -2   -1    0    0    0  501 -0.00000000000E+00 -0.00000000000E+00 -0.23729437575E+03  0.23729437575E+03  0.00000000000E+00 0.  1.
         23    2    1    2    0    0 -0.22700102281E+03  0.27181006675E+03  0.12608397905E+04  0.13127472780E+04  0.90433742411E+02 0.  0.
        254    2    1    2    0    0  0.22700102281E+03 -0.27181006675E+03  0.88903597723E+03  0.13117172413E+04  0.89711034743E+03 0.  0.
         23    2    4    4    0    0  0.24616943246E+03  0.16399018066E+03  0.79998179434E+03  0.85761464342E+03  0.89665135353E+02 0.  0.
         23    2    4    4    0    0 -0.19168409648E+02 -0.43580024741E+03  0.89054182887E+02  0.45410259784E+03  0.89382539145E+02 0.  0.
         11    1    3    3    0    0 -0.14740717745E+03  0.22489135461E+03  0.10183188241E+04  0.10532227802E+04  0.00000000000E+00 0. -1.
        -11    1    3    3    0    0 -0.79593845362E+02  0.46918712136E+02  0.24252096641E+03  0.25952449772E+03  0.00000000000E+00 0.  1.
          2    1    5    5  502    0  0.21216716365E+03  0.16535282263E+03  0.75300092524E+03  0.79960418627E+03  0.00000000000E+00 0. -1.
          2    1    6    6  503    0  0.23847960069E+02 -0.13275190763E+03  0.56703696122E+02  0.14631166506E+03  0.00000000000E+00 0. -1.
         -2    1    5    5    0  502  0.34002268814E+02 -0.13626419674E+01  0.46980869100E+02  0.58010457152E+02  0.00000000000E+00 0.  1.
         -2    1    6    6    0  503 -0.43016369717E+02 -0.30304833978E+03  0.32350486765E+02  0.30779093278E+03  0.00000000000E+00 0.  1.
<mgrwt>
<rscale>  0 0.15052735E+04</rscale>
<asrwt>0</asrwt>
<pdfrwt beam="1">  1        2 0.36725693E+00 0.15052735E+04</pdfrwt>
<pdfrwt beam="2">  1       -2 0.36506829E-01 0.15052735E+04</pdfrwt>
<totfact> 0.27643836E+01</totfact>
</mgrwt>
</event>
<event>
12    1  0.4247462E-008  0.1847232E+04  0.7818608E-02  0.8681578E-01
          2   -1    0    0  501    0  0.00000000000E+00  0.00000000000E+00  0.27994035096E+04  0.27994035096E+04  0.00000000000E+00 0.  1.
         -2   -1    0    0    0  501 -0.00000000000E+00 -0.00000000000E+00 -0.30473145887E+03  0.30473145887E+03  0.00000000000E+00 0. -1.
         23    2    1    2    0    0 -0.85891032843E+02 -0.68807611355E+03  0.10835962143E+04  0.12896729822E+04  0.90827517142E+02 0.  0.
        254    2    1    2    0    0  0.85891032843E+02  0.68807611355E+03  0.14110758365E+04  0.18144619863E+04  0.90571037084E+03 0.  0.
         23    2    4    4    0    0  0.13772146453E+03 -0.14788593871E+03  0.62214901734E+03  0.66045106038E+03  0.91042576411E+02 0.  0.
         23    2    4    4    0    0 -0.51830431692E+02  0.83596205226E+03  0.78892681915E+03  0.11540109259E+04  0.88412355999E+02 0.  0.
         11    1    3    3    0    0  0.98051966365E+01 -0.18091816583E+02  0.51608246017E+02  0.55559578520E+02  0.00000000000E+00 0. -1.
        -11    1    3    3    0    0 -0.95696229479E+02 -0.66998429696E+03  0.10319879683E+04  0.12341134037E+04  0.00000000000E+00 0.  1.
          4    1    6    6  502    0 -0.62138122246E+02  0.49074637068E+03  0.50509801696E+03  0.70697747723E+03  0.00000000000E+00 0. -1.
          4    1    5    5  503    0 -0.12338297777E+02 -0.38247466044E+01  0.50649483999E+02  0.52270761501E+02  0.00000000000E+00 0.  1.
         -4    1    5    5    0  503  0.15005976231E+03 -0.14406119211E+03  0.57149953334E+03  0.60818029888E+03  0.00000000000E+00 0. -1.
         -4    1    6    6    0  502  0.10307690554E+02  0.34521568158E+03  0.28382880219E+03  0.44703344869E+03  0.00000000000E+00 0.  1.
<mgrwt>
<rscale>  0 0.18472318E+04</rscale>
<asrwt>0</asrwt>
<pdfrwt beam="1">  1        2 0.43067745E+00 0.18472318E+04</pdfrwt>
<pdfrwt beam="2">  1       -2 0.46881765E-01 0.18472318E+04</pdfrwt>
<totfact> 0.94091642E+00</totfact>
</mgrwt>
</event>
<event>
12    1  0.4247462E-008  0.1197842E+04  0.7818608E-02  0.9114747E-01
         -2   -1    0    0    0  501 -0.00000000000E+00  0.00000000000E+00  0.18599720912E+03  0.18599720912E+03  0.00000000000E+00 0.  1.
          2   -1    0    0  501    0  0.00000000000E+00 -0.00000000000E+00 -0.19285592813E+04  0.19285592813E+04  0.00000000000E+00 0. -1.
         23    2    1    2    0    0 -0.55757693057E+02 -0.96755997492E+02 -0.76919974289E+03  0.78260147968E+03  0.91247948752E+02 0.  0.
        254    2    1    2    0    0  0.55757693057E+02  0.96755997492E+02 -0.97336232931E+03  0.13319550108E+04  0.90232991924E+03 0.  0.
         23    2    4    4    0    0 -0.16600770231E+03  0.28416875415E+03 -0.96917144742E+03  0.10278385702E+04  0.94065901568E+02 0.  0.
         23    2    4    4    0    0  0.22176539536E+03 -0.18741275666E+03 -0.41908818923E+01  0.30411644055E+03  0.90364893541E+02 0.  0.
         11    1    3    3    0    0  0.19588752392E+02 -0.33336343031E+02 -0.34292815064E+03  0.34510106851E+03  0.00000000000E+00 0. -1.
        -11    1    3    3    0    0 -0.75346445448E+02 -0.63419654460E+02 -0.42627159225E+03  0.43750041117E+03  0.00000000000E+00 0.  1.
          1    1    5    5  502    0 -0.92124428362E+02  0.19754851964E+03 -0.74760324173E+03  0.77873161934E+03  0.00000000000E+00 0. -1.
          3    1    6    6  503    0  0.22374961515E+03 -0.18628698201E+03 -0.16483902537E+02  0.29161352676E+03  0.00000000000E+00 0. -1.
         -1    1    5    5    0  502 -0.73883273943E+02  0.86620234507E+02 -0.22156820569E+03  0.24910695086E+03  0.00000000000E+00 0.  1.
         -3    1    6    6    0  503 -0.19842197873E+01 -0.11257746462E+01  0.12293020645E+02  0.12502913792E+02  0.00000000000E+00 0.  1.
<mgrwt>
<rscale>  0 0.11978425E+04</rscale>
<asrwt>0</asrwt>
<pdfrwt beam="1">  1        2 0.29670141E+00 0.11978425E+04</pdfrwt>
<pdfrwt beam="2">  1       -2 0.28614957E-01 0.11978425E+04</pdfrwt>
<totfact> 0.80976775E+01</totfact>
</mgrwt>
</event>
<event>
12    1  0.4247462E-008  0.1596237E+04  0.7818608E-02  0.8822863E-01
          2   -1    0    0  501    0  0.00000000000E+00  0.00000000000E+00  0.12274786181E+04  0.12274786181E+04  0.00000000000E+00 0. -1.
         -2   -1    0    0    0  501 -0.00000000000E+00 -0.00000000000E+00 -0.51894411179E+03  0.51894411179E+03  0.00000000000E+00 0.  1.
         23    2    1    2    0    0  0.41617916667E+03  0.15229779462E+03  0.53933879619E+03  0.70551109050E+03  0.10227338228E+03 0.  0.
        254    2    1    2    0    0 -0.41617916667E+03 -0.15229779462E+03  0.16919571009E+03  0.10409116394E+04  0.92653663479E+03 0.  0.
         23    2    4    4    0    0 -0.16133362533E+03  0.19233903876E+02 -0.36949510561E+03  0.41396112540E+03  0.91862389210E+02 0.  0.
         23    2    4    4    0    0 -0.25484554133E+03 -0.17153169849E+03  0.53869081569E+03  0.62695051395E+03  0.92248460713E+02 0.  0.
         13    1    3    3    0    0  0.36593045903E+03  0.10542723736E+03  0.41355248694E+03  0.56217938657E+03  0.00000000000E+00 0. -1.
        -13    1    3    3    0    0  0.50248707633E+02  0.46870557254E+02  0.12578630926E+03  0.14333170393E+03  0.00000000000E+00 0.  1.
          4    1    5    5  502    0 -0.12695518913E+03  0.53797033159E+02 -0.27526613399E+03  0.30786877943E+03  0.00000000000E+00 0. -1.
          1    1    6    6  503    0 -0.76396677390E+02 -0.62234804811E+02  0.97365913026E+02  0.13852705247E+03  0.00000000000E+00 0. -1.
         -4    1    5    5    0  502 -0.34378436200E+02 -0.34563129283E+02 -0.94228971616E+02  0.10609234597E+03  0.00000000000E+00 0.  1.
         -1    1    6    6    0  503 -0.17844886394E+03 -0.10929689368E+03  0.44132490267E+03  0.48842346148E+03  0.00000000000E+00 0.  1.
<mgrwt>
<rscale>  0 0.15962366E+04</rscale>
<asrwt>0</asrwt>
<pdfrwt beam="1">  1        2 0.18884286E+00 0.15962366E+04</pdfrwt>
<pdfrwt beam="2">  1       -2 0.79837556E-01 0.15962366E+04</pdfrwt>
<totfact> 0.24297659E+01</totfact>
</mgrwt>
</event>
<event>
12    1  0.4247462E-008  0.1392392E+04  0.7818608E-02  0.8959344E-01
         -1   -1    0    0    0  501 -0.00000000000E+00  0.00000000000E+00  0.14708488981E+03  0.14708488981E+03  0.00000000000E+00 0.  1.
          1   -1    0    0  501    0  0.00000000000E+00 -0.00000000000E+00 -0.32953014610E+04  0.32953014610E+04  0.00000000000E+00 0. -1.
         23    2    1    2    0    0 -0.11361404291E+03  0.24676769316E+03 -0.20264576549E+03  0.35057637834E+03  0.89643993909E+02 0.  0.
        254    2    1    2    0    0  0.11361404291E+03 -0.24676769316E+03 -0.29455708057E+04  0.30918099725E+04  0.89949935487E+03 0.  0.
         23    2    4    4    0    0 -0.37973168282E+03 -0.15188298558E+03 -0.11071114451E+04  0.11837376560E+04  0.90964246215E+02 0.  0.
         23    2    4    4    0    0  0.49334572573E+03 -0.94884707584E+02 -0.18384593606E+04  0.19080723165E+04  0.91728030355E+02 0.  0.
         11    1    3    3    0    0 -0.10036620797E+03  0.16032393968E+03 -0.17796155907E+03  0.25970648402E+03  0.00000000000E+00 0.  1.
        -11    1    3    3    0    0 -0.13247834937E+02  0.86443753483E+02 -0.24684206423E+02  0.90869894318E+02  0.00000000000E+00 0. -1.
          4    1    5    5  502    0 -0.20132524293E+03 -0.34093707551E+02 -0.58175479261E+03  0.61654916516E+03  0.00000000000E+00 0. -1.
          1    1    6    6  503    0  0.43191376701E+03 -0.60543079102E+02 -0.16571805106E+04  0.17136108693E+04  0.00000000000E+00 0. -1.
         -4    1    5    5    0  502 -0.17840643989E+03 -0.11778927803E+03 -0.52535665245E+03  0.56718849079E+03  0.00000000000E+00 0.  1.
         -1    1    6    6    0  503  0.61431958716E+02 -0.34341628481E+02 -0.18127885000E+03  0.19446144722E+03  0.00000000000E+00 0.  1.
<mgrwt>
<rscale>  0 0.13923923E+04</rscale>
<asrwt>0</asrwt>
<pdfrwt beam="1">  1        1 0.50696947E+00 0.13923923E+04</pdfrwt>
<pdfrwt beam="2">  1       -1 0.22628444E-01 0.13923923E+04</pdfrwt>
<totfact> 0.59030387E+00</totfact>
</mgrwt>
</event>
<event>
12    1  0.4247462E-008  0.1479453E+04  0.7818608E-02  0.8898233E-01
         -2   -1    0    0    0  501 -0.00000000000E+00  0.00000000000E+00  0.35448797730E+03  0.35448797730E+03  0.00000000000E+00 0.  1.
          2   -1    0    0  501    0  0.00000000000E+00 -0.00000000000E+00 -0.15436212449E+04  0.15436212449E+04  0.00000000000E+00 0. -1.
         23    2    1    2    0    0  0.58109246798E+02 -0.34456576175E+02  0.20650240872E+03  0.23628631046E+03  0.92865685244E+02 0.  0.
        254    2    1    2    0    0 -0.58109246798E+02  0.34456576175E+02 -0.13956356763E+04  0.16618229117E+04  0.89960686346E+03 0.  0.
         23    2    4    4    0    0  0.45084665704E+02 -0.36470957267E+03 -0.10495093767E+04  0.11157835151E+04  0.91963152514E+02 0.  0.
         23    2    4    4    0    0 -0.10319391250E+03  0.39916614885E+03 -0.34612629964E+03  0.54603939661E+03  0.91504149577E+02 0.  0.
         13    1    3    3    0    0 -0.44254855756E+00  0.26608895808E+01 -0.92679612361E+01  0.96525275478E+01  0.00000000000E+00 0. -1.
        -13    1    3    3    0    0  0.58551795356E+02 -0.37117465756E+02  0.21577036996E+03  0.22663378291E+03  0.00000000000E+00 0.  1.
          4    1    5    5  502    0  0.32237356198E+02 -0.13753528577E+03 -0.53250543461E+03  0.55092398737E+03  0.00000000000E+00 0. -1.
          1    1    6    6  503    0 -0.22856888659E+01 -0.23605107593E+01 -0.16524626669E+02  0.16848135541E+02  0.00000000000E+00 0. -1.
         -4    1    5    5    0  502  0.12847309507E+02 -0.22717428690E+03 -0.51700394207E+03  0.56485952777E+03  0.00000000000E+00 0.  1.
         -1    1    6    6    0  503 -0.10090822364E+03  0.40152665960E+03 -0.32960167297E+03  0.52919126107E+03  0.00000000000E+00 0.  1.
<mgrwt>
<rscale>  0 0.14794528E+04</rscale>
<asrwt>0</asrwt>
<pdfrwt beam="1">  1        2 0.23748019E+00 0.14794528E+04</pdfrwt>
<pdfrwt beam="2">  1       -2 0.54536612E-01 0.14794528E+04</pdfrwt>
<totfact> 0.36720374E+01</totfact>
</mgrwt>
</event>
<event>
12    1  0.4247462E-008  0.1807661E+04  0.7818608E-02  0.8702236E-01
          1   -1    0    0  501    0  0.00000000000E+00  0.00000000000E+00  0.17119043059E+04  0.17119043059E+04  0.00000000000E+00 0. -1.
         -1   -1    0    0    0  501 -0.00000000000E+00 -0.00000000000E+00 -0.47719364835E+03  0.47719364835E+03  0.00000000000E+00 0.  1.
         23    2    1    2    0    0  0.13314710266E+03 -0.24200290499E+03 -0.28095085817E+03  0.40432661083E+03  0.90846389846E+02 0.  0.
        254    2    1    2    0    0 -0.13314710266E+03  0.24200290499E+03  0.15156615157E+04  0.17847713434E+04  0.90104681403E+03 0.  0.
         23    2    4    4    0    0 -0.95719813504E+01  0.15022121460E+03  0.15848300848E+04  0.15945089721E+04  0.90080121121E+02 0.  0.
         23    2    4    4    0    0 -0.12357512131E+03  0.91781690386E+02 -0.69168569170E+02  0.19026237125E+03  0.87868024082E+02 0.  0.
         11    1    3    3    0    0  0.11434753469E+03 -0.20622611245E+03 -0.18338641051E+03  0.29872251958E+03  0.00000000000E+00 0.  1.
        -11    1    3    3    0    0  0.18799567964E+02 -0.35776792538E+02 -0.97564447665E+02  0.10560409125E+03  0.00000000000E+00 0. -1.
          2    1    5    5  502    0  0.24798792562E+02  0.53557864207E+01  0.30325136483E+03  0.30431078658E+03  0.00000000000E+00 0. -1.
          3    1    6    6  503    0 -0.10760426441E+03  0.48695541329E+02 -0.14732770379E+02  0.11902515695E+03  0.00000000000E+00 0. -1.
         -2    1    5    5    0  502 -0.34370773912E+02  0.14486542818E+03  0.12815787200E+04  0.12901981855E+04  0.00000000000E+00 0.  1.
         -3    1    6    6    0  503 -0.15970856895E+02  0.43086149056E+02 -0.54435798791E+02  0.71237214295E+02  0.00000000000E+00 0.  1.
<mgrwt>
<rscale>  0 0.18076613E+04</rscale>
<asrwt>0</asrwt>
<pdfrwt beam="1">  1        1 0.26336989E+00 0.18076613E+04</pdfrwt>
<pdfrwt beam="2">  1       -1 0.73414408E-01 0.18076613E+04</pdfrwt>
<totfact> 0.82458744E+00</totfact>
</mgrwt>
</event>
<event>
12    1  0.4247462E-008  0.1905201E+04  0.7818608E-02  0.8652272E-01
          2   -1    0    0  501    0  0.00000000000E+00  0.00000000000E+00  0.11266577337E+04  0.11266577337E+04  0.00000000000E+00 0. -1.
         -2   -1    0    0    0  501 -0.00000000000E+00 -0.00000000000E+00 -0.80543346241E+03  0.80543346241E+03  0.00000000000E+00 0.  1.
         23    2    1    2    0    0  0.54890754933E+03 -0.82328340067E+02  0.62093409607E+03  0.83834499978E+03  0.95842233435E+02 0.  0.
        254    2    1    2    0    0 -0.54890754933E+03  0.82328340067E+02 -0.29970982474E+03  0.10937461964E+04  0.89351961911E+03 0.  0.
         23    2    4    4    0    0 -0.59726016525E+03 -0.77847227998E+02 -0.52061242046E+03  0.80133301230E+03  0.91199826626E+02 0.  0.
         23    2    4    4    0    0  0.48352615918E+02  0.16017556807E+03  0.22090259571E+03  0.29241318407E+03  0.93345194586E+02 0.  0.
         11    1    3    3    0    0  0.36379034987E+03 -0.96544064046E+02  0.44126665333E+03  0.57998313277E+03  0.00000000000E+00 0. -1.
        -11    1    3    3    0    0  0.18511719946E+03  0.14215723979E+02  0.17966744275E+03  0.25836186701E+03  0.00000000000E+00 0.  1.
          1    1    6    6  502    0  0.47831932097E+02  0.64458313817E+02  0.44658766217E+02  0.91854087271E+02  0.00000000000E+00 0. -1.
          1    1    5    5  503    0 -0.20079417782E+03  0.12734779301E+02 -0.14808058578E+03  0.24981660541E+03  0.00000000000E+00 0. -1.
         -1    1    5    5    0  503 -0.39646598742E+03 -0.90582007299E+02 -0.37253183467E+03  0.55151640690E+03  0.00000000000E+00 0.  1.
         -1    1    6    6    0  502  0.52068382070E+00  0.95717254248E+02  0.17624382950E+03  0.20055909680E+03  0.00000000000E+00 0.  1.
<mgrwt>
<rscale>  0 0.19052011E+04</rscale>
<asrwt>0</asrwt>
<pdfrwt beam="1">  1        2 0.17333196E+00 0.19052011E+04</pdfrwt>
<pdfrwt beam="2">  1       -2 0.12391284E+00 0.19052011E+04</pdfrwt>
<totfact> 0.96268705E+00</totfact>
</mgrwt>
</event>
<event>
12    1  0.4247462E-008  0.2407165E+04  0.7818608E-02  0.8436826E-01
          2   -1    0    0  501    0  0.00000000000E+00  0.00000000000E+00  0.14193087907E+04  0.14193087907E+04  0.00000000000E+00 0. -1.
         -2   -1    0    0    0  501 -0.00000000000E+00 -0.00000000000E+00 -0.10206454231E+04  0.10206454231E+04  0.00000000000E+00 0.  1.
         23    2    1    2    0    0 -0.63110227411E+03  0.26405169267E+02  0.99977630853E+03  0.11860178319E+04  0.89990650954E+02 0.  0.
        254    2    1    2    0    0  0.63110227411E+03 -0.26405169267E+02 -0.60111294094E+03  0.12539363819E+04  0.90112838642E+03 0.  0.
         23    2    4    4    0    0 -0.11581067909E+03 -0.12948356765E+03 -0.43435253945E+03  0.47638280484E+03  0.90001891841E+02 0.  0.
         23    2    4    4    0    0  0.74691295320E+03  0.10307839839E+03 -0.16676040149E+03  0.77755357709E+03  0.90974820017E+02 0.  0.
         13    1    3    3    0    0 -0.54521311697E+03  0.84164551650E+00  0.89661679817E+03  0.10493711136E+04  0.00000000000E+00 0. -1.
        -13    1    3    3    0    0 -0.85889157132E+02  0.25563523750E+02  0.10315951036E+03  0.13664671836E+03  0.00000000000E+00 0.  1.
          1    1    6    6  502    0  0.46588469944E+03  0.87378957395E+02 -0.65927184583E+02  0.47857081925E+03  0.00000000000E+00 0. -1.
          1    1    5    5  503    0 -0.58476253081E+02 -0.39727430057E+02 -0.28043913121E+03  0.28921246029E+03  0.00000000000E+00 0. -1.
         -1    1    5    5    0  503 -0.57334426009E+02 -0.89756137596E+02 -0.15391340824E+03  0.18717034455E+03  0.00000000000E+00 0.  1.
         -1    1    6    6    0  502  0.28102825375E+03  0.15699440991E+02 -0.10083321691E+03  0.29898275784E+03  0.00000000000E+00 0.  1.
<mgrwt>
<rscale>  0 0.24071652E+04</rscale>
<asrwt>0</asrwt>
<pdfrwt beam="1">  1        2 0.21835520E+00 0.24071652E+04</pdfrwt>
<pdfrwt beam="2">  1       -2 0.15702237E+00 0.24071652E+04</pdfrwt>
<totfact> 0.33612337E+00</totfact>
</mgrwt>
</event>
<event>
12    1  0.4247462E-008  0.1650571E+04  0.7818608E-02  0.8790069E-01
          1   -1    0    0  501    0  0.00000000000E+00  0.00000000000E+00  0.21735372656E+04  0.21735372656E+04  0.00000000000E+00 0. -1.
         -1   -1    0    0    0  501 -0.00000000000E+00 -0.00000000000E+00 -0.31335845323E+03  0.31335845323E+03  0.00000000000E+00 0.  1.
         23    2    1    2    0    0  0.31404566252E+03 -0.27283970517E+02 -0.68783530687E+02  0.33441479814E+03  0.87937420521E+02 0.  0.
        254    2    1    2    0    0 -0.31404566252E+03  0.27283970517E+02  0.19289623430E+04  0.21524809206E+04  0.90161482896E+03 0.  0.
         23    2    4    4    0    0  0.18163425427E+02 -0.79256005720E+02 -0.52950335183E+02  0.13804958500E+03  0.98196361735E+02 0.  0.
         23    2    4    4    0    0 -0.33220908795E+03  0.10653997624E+03  0.19819126782E+04  0.20144313356E+04  0.90785997753E+02 0.  0.
         11    1    3    3    0    0  0.49302951070E+02  0.39091396129E+01 -0.44855801203E+02  0.66769044161E+02  0.00000000000E+00 0.  1.
        -11    1    3    3    0    0  0.26474271145E+03 -0.31193110130E+02 -0.23927729485E+02  0.26764575398E+03  0.00000000000E+00 0. -1.
          2    1    5    5  502    0 -0.13605678485E+02 -0.32309571262E+02 -0.70478281038E+02  0.78716014763E+02  0.00000000000E+00 0. -1.
          1    1    6    6  503    0 -0.20509677239E+03  0.45098833258E+02  0.13985272026E+04  0.14142054049E+04  0.00000000000E+00 0. -1.
         -2    1    5    5    0  502  0.31769103912E+02 -0.46946434458E+02  0.17527945855E+02  0.59333570241E+02  0.00000000000E+00 0.  1.
         -1    1    6    6    0  503 -0.12711231555E+03  0.61441142979E+02  0.58338547559E+03  0.60022593075E+03  0.00000000000E+00 0.  1.
<mgrwt>
<rscale>  0 0.16505711E+04</rscale>
<asrwt>0</asrwt>
<pdfrwt beam="1">  1        1 0.33439034E+00 0.16505711E+04</pdfrwt>
<pdfrwt beam="2">  1       -1 0.48208994E-01 0.16505711E+04</pdfrwt>
<totfact> 0.93419769E+00</totfact>
</mgrwt>
</event>
<event>
12    1  0.4247462E-008  0.2006945E+04  0.7818608E-02  0.8603380E-01
         -2   -1    0    0    0  501 -0.00000000000E+00  0.00000000000E+00  0.74802821927E+03  0.74802821927E+03  0.00000000000E+00 0.  1.
          2   -1    0    0  501    0  0.00000000000E+00 -0.00000000000E+00 -0.13461490221E+04  0.13461490221E+04  0.00000000000E+00 0. -1.
         23    2    1    2    0    0  0.42411989726E+03  0.46284392601E+03 -0.75951133421E+03  0.98954521999E+03  0.90774933315E+02 0.  0.
        254    2    1    2    0    0 -0.42411989726E+03 -0.46284392601E+03  0.16139053140E+03  0.11046320214E+04  0.89446230322E+03 0.  0.
         23    2    4    4    0    0  0.12014076224E+02 -0.51353819769E+03  0.33903897404E+03  0.62204937163E+03  0.90178580091E+02 0.  0.
         23    2    4    4    0    0 -0.43613397348E+03  0.50694271684E+02 -0.17764844264E+03  0.48258264972E+03  0.92435342992E+02 0.  0.
         13    1    3    3    0    0  0.11725972401E+02  0.13207534805E+01 -0.33511633335E+02  0.35528472910E+02  0.00000000000E+00 0.  1.
        -13    1    3    3    0    0  0.41239392485E+03  0.46152317253E+03 -0.72599970088E+03  0.95401674708E+03  0.00000000000E+00 0. -1.
          1    1    5    5  502    0  0.12703715203E+02 -0.50835938731E+03  0.31662433817E+03  0.59903390769E+03  0.00000000000E+00 0. -1.
          3    1    6    6  503    0 -0.33950142118E+03  0.29436320281E+00 -0.14072422401E+03  0.36751137241E+03  0.00000000000E+00 0. -1.
         -1    1    5    5    0  502 -0.68963897840E+00 -0.51788103867E+01  0.22414635874E+02  0.23015463939E+02  0.00000000000E+00 0.  1.
         -3    1    6    6    0  503 -0.96632552303E+02  0.50399908481E+02 -0.36924218637E+02  0.11507127731E+03  0.00000000000E+00 0.  1.
<mgrwt>
<rscale>  0 0.20069454E+04</rscale>
<asrwt>0</asrwt>
<pdfrwt beam="1">  1        2 0.20709985E+00 0.20069454E+04</pdfrwt>
<pdfrwt beam="2">  1       -2 0.11508126E+00 0.20069454E+04</pdfrwt>
<totfact> 0.84959379E+00</totfact>
</mgrwt>
</event>
<event>
12    1  0.4247462E-008  0.1229947E+04  0.7818608E-02  0.9087040E-01
          1   -1    0    0  501    0  0.00000000000E+00  0.00000000000E+00  0.89037864261E+03  0.89037864261E+03  0.00000000000E+00 0. -1.
         -1   -1    0    0    0  501 -0.00000000000E+00 -0.00000000000E+00 -0.42475490141E+03  0.42475490141E+03  0.00000000000E+00 0.  1.
         23    2    1    2    0    0 -0.11051457184E+03  0.25836252070E+03  0.55796800680E+02  0.30084868394E+03  0.91825840435E+02 0.  0.
        254    2    1    2    0    0  0.11051457184E+03 -0.25836252070E+03  0.40982694052E+03  0.10142848601E+04  0.88422338440E+03 0.  0.
         23    2    4    4    0    0 -0.83042253799E+02 -0.42262829446E+03  0.55545873980E+03  0.70898471597E+03  0.92812847488E+02 0.  0.
         23    2    4    4    0    0  0.19355682564E+03  0.16426577376E+03 -0.14563179928E+03  0.30530014411E+03  0.86902634302E+02 0.  0.
         13    1    3    3    0    0 -0.11614336720E+03  0.18005180283E+03  0.22058425141E+02  0.21539384292E+03  0.00000000000E+00 0.  1.
        -13    1    3    3    0    0  0.56287953585E+01  0.78310717866E+02  0.33738375539E+02  0.85454841021E+02  0.00000000000E+00 0. -1.
          1    1    5    5  502    0 -0.72778697066E+02 -0.31593937652E+03  0.47439639198E+03  0.57460104864E+03  0.00000000000E+00 0. -1.
          3    1    6    6  503    0  0.19916568161E+03  0.14006634120E+03 -0.13205211354E+03  0.27698972789E+03  0.00000000000E+00 0. -1.
         -1    1    5    5    0  502 -0.10263556733E+02 -0.10668891795E+03  0.81062347826E+02  0.13438366733E+03  0.00000000000E+00 0.  1.
         -3    1    6    6    0  503 -0.56088559653E+01  0.24199432560E+02 -0.13579685744E+02  0.28310416217E+02  0.00000000000E+00 0.  1.
<mgrwt>
<rscale>  0 0.12299475E+04</rscale>
<asrwt>0</asrwt>
<pdfrwt beam="1">  1        1 0.13698133E+00 0.12299475E+04</pdfrwt>
<pdfrwt beam="2">  1       -1 0.65346908E-01 0.12299475E+04</pdfrwt>
<totfact> 0.43456094E+01</totfact>
</mgrwt>
</event>
<event>
12    1  0.4247462E-008  0.1657670E+04  0.7818608E-02  0.8785882E-01
          2   -1    0    0  501    0  0.00000000000E+00  0.00000000000E+00  0.10846752273E+04  0.10846752273E+04  0.00000000000E+00 0. -1.
         -2   -1    0    0    0  501 -0.00000000000E+00 -0.00000000000E+00 -0.63333943260E+03  0.63333943260E+03  0.00000000000E+00 0.  1.
         23    2    1    2    0    0 -0.28956233142E+03  0.50731282725E+03  0.14482970343E+03  0.60839648566E+03  0.89207579870E+02 0.  0.
        254    2    1    2    0    0  0.28956233142E+03 -0.50731282725E+03  0.30650609126E+03  0.11096181742E+04  0.89224092044E+03 0.  0.
         23    2    4    4    0    0  0.12953872967E+02 -0.50597216879E+03 -0.17816713950E+03  0.54408737001E+03  0.90066076836E+02 0.  0.
         23    2    4    4    0    0  0.27660845846E+03 -0.13406584589E+01  0.48467323076E+03  0.56553080420E+03  0.91667405504E+02 0.  0.
         13    1    3    3    0    0 -0.57503258759E+02  0.14306454811E+03  0.72918947514E+02  0.17056160939E+03  0.00000000000E+00 0.  1.
        -13    1    3    3    0    0 -0.23205907266E+03  0.36424827914E+03  0.71910755913E+02  0.43783487627E+03  0.00000000000E+00 0. -1.
          1    1    5    5  502    0 -0.24644119349E+01 -0.17028992104E+01  0.62517213905E+01  0.69323309392E+01  0.00000000000E+00 0. -1.
          1    1    6    6  503    0  0.12238398330E+02  0.77273253344E+01  0.85158238798E+02  0.86379485908E+02  0.00000000000E+00 0. -1.
         -1    1    5    5    0  502  0.15418284902E+02 -0.50426926958E+03 -0.18441886089E+03  0.53715503907E+03  0.00000000000E+00 0.  1.
         -1    1    6    6    0  503  0.26437006013E+03 -0.90679837933E+01  0.39951499196E+03  0.47915131829E+03  0.00000000000E+00 0.  1.
<mgrwt>
<rscale>  0 0.16576702E+04</rscale>
<asrwt>0</asrwt>
<pdfrwt beam="1">  1        2 0.16687311E+00 0.16576702E+04</pdfrwt>
<pdfrwt beam="2">  1       -2 0.97436836E-01 0.16576702E+04</pdfrwt>
<totfact> 0.18673841E+01</totfact>
</mgrwt>
</event>
<event>
12    1  0.4247462E-008  0.1664460E+04  0.7818608E-02  0.8781898E-01
          1   -1    0    0  501    0  0.00000000000E+00  0.00000000000E+00  0.14116457371E+04  0.14116457371E+04  0.00000000000E+00 0. -1.
         -1   -1    0    0    0  501 -0.00000000000E+00 -0.00000000000E+00 -0.49063773158E+03  0.49063773158E+03  0.00000000000E+00 0.  1.
         23    2    1    2    0    0  0.33834312908E+02  0.39713309363E+03 -0.15673999385E+03  0.43769422325E+03  0.90273764781E+02 0.  0.
        254    2    1    2    0    0 -0.33834312908E+02 -0.39713309363E+03  0.10777479994E+04  0.14645892455E+04  0.90808669900E+03 0.  0.
         23    2    4    4    0    0  0.36294905236E+03 -0.21092333827E+03  0.87114909001E+03  0.97143835419E+03  0.92580071941E+02 0.  0.
         23    2    4    4    0    0 -0.39678336527E+03 -0.18620975536E+03  0.20659890939E+03  0.49315089127E+03  0.91671043685E+02 0.  0.
         11    1    3    3    0    0  0.24388365248E+02  0.11304718206E+03 -0.56398977486E+01  0.11578543163E+03  0.00000000000E+00 0.  1.
        -11    1    3    3    0    0  0.94459476608E+01  0.28408591157E+03 -0.15110009610E+03  0.32190879162E+03  0.00000000000E+00 0. -1.
          2    1    5    5  502    0  0.15078478794E+03 -0.89239956482E+02  0.47012184609E+03  0.50171144324E+03  0.00000000000E+00 0. -1.
          1    1    6    6  503    0 -0.36215055869E+03 -0.13694767382E+03  0.17161405346E+03  0.42350805880E+03  0.00000000000E+00 0. -1.
         -2    1    5    5    0  502  0.21216426442E+03 -0.12168338179E+03  0.40102724392E+03  0.46972691095E+03  0.00000000000E+00 0.  1.
         -1    1    6    6    0  503 -0.34632806584E+02 -0.49262081548E+02  0.34984855934E+02  0.69642832474E+02  0.00000000000E+00 0.  1.
<mgrwt>
<rscale>  0 0.16644599E+04</rscale>
<asrwt>0</asrwt>
<pdfrwt beam="1">  1        1 0.21717627E+00 0.16644599E+04</pdfrwt>
<pdfrwt beam="2">  1       -1 0.75482729E-01 0.16644599E+04</pdfrwt>
<totfact> 0.12693547E+01</totfact>
</mgrwt>
</event>
<event>
12    1  0.4247462E-008  0.1118930E+04  0.7818608E-02  0.9186935E-01
         -1   -1    0    0    0  501 -0.00000000000E+00  0.00000000000E+00  0.80929662768E+03  0.80929662768E+03  0.00000000000E+00 0.  1.
          1   -1    0    0  501    0  0.00000000000E+00 -0.00000000000E+00 -0.38675684168E+03  0.38675684168E+03  0.00000000000E+00 0. -1.
         23    2    1    2    0    0 -0.13255863194E+03  0.74670979368E+02 -0.23478808574E+02  0.17937035982E+03  0.92059358391E+02 0.  0.
        254    2    1    2    0    0  0.13255863194E+03 -0.74670979368E+02  0.44601859458E+03  0.10166831095E+04  0.90086869879E+03 0.  0.
         23    2    4    4    0    0  0.26569725234E+03 -0.42807492834E+03  0.16764014879E+03  0.53916685061E+03  0.93565480474E+02 0.  0.
         23    2    4    4    0    0 -0.13313862040E+03  0.35340394897E+03  0.27837844579E+03  0.47751625893E+03  0.88921173363E+02 0.  0.
         11    1    3    3    0    0  0.10549338465E+01  0.35364347963E+01  0.21220497388E+02  0.21539005685E+02  0.00000000000E+00 0.  1.
        -11    1    3    3    0    0 -0.13361356579E+03  0.71134544571E+02 -0.44699305963E+02  0.15783135413E+03  0.00000000000E+00 0. -1.
          4    1    5    5  502    0  0.95322817926E+02 -0.24199282432E+03  0.89047572123E+02  0.27491168898E+03  0.00000000000E+00 0. -1.
          1    1    6    6  503    0 -0.38537441536E+02  0.15688972692E+03  0.16801034080E+03  0.23308152099E+03  0.00000000000E+00 0. -1.
         -4    1    5    5    0  502  0.17037443441E+03 -0.18608210402E+03  0.78592576665E+02  0.26425516163E+03  0.00000000000E+00 0.  1.
         -1    1    6    6    0  503 -0.94601178861E+02  0.19651422206E+03  0.11036810499E+03  0.24443473794E+03  0.00000000000E+00 0.  1.
<mgrwt>
<rscale>  0 0.11189299E+04</rscale>
<asrwt>0</asrwt>
<pdfrwt beam="1">  1        1 0.59501053E-01 0.11189299E+04</pdfrwt>
<pdfrwt beam="2">  1       -1 0.12450717E+00 0.11189299E+04</pdfrwt>
<totfact> 0.35306603E+01</totfact>
</mgrwt>
</event>
<event>
12    1  0.4247462E-008  0.1270657E+04  0.7818608E-02  0.9053164E-01
         -2   -1    0    0    0  501 -0.00000000000E+00  0.00000000000E+00  0.11668643867E+03  0.11668643867E+03  0.00000000000E+00 0.  1.
          2   -1    0    0  501    0  0.00000000000E+00 -0.00000000000E+00 -0.34592033240E+04  0.34592033240E+04  0.00000000000E+00 0. -1.
         23    2    1    2    0    0  0.52648225842E+02  0.24721841578E+03 -0.12220936605E+04  0.12513535656E+04  0.92108905475E+02 0.  0.
        254    2    1    2    0    0 -0.52648225842E+02 -0.24721841578E+03 -0.21204232248E+04  0.23245361970E+04  0.91836000457E+03 0.  0.
         23    2    4    4    0    0 -0.20966041570E+03 -0.22648810753E+03 -0.16538516171E+03  0.36133319472E+03  0.89191216640E+02 0.  0.
         23    2    4    4    0    0  0.15701218986E+03 -0.20730308253E+02 -0.19550380631E+04  0.19632030023E+04  0.83124163165E+02 0.  0.
         11    1    3    3    0    0  0.13433226207E+02  0.19805641962E+03 -0.10380984138E+04  0.10569082807E+04  0.00000000000E+00 0. -1.
        -11    1    3    3    0    0  0.39214999635E+02  0.49161996163E+02 -0.18399524663E+03  0.19444528496E+03  0.00000000000E+00 0.  1.
          1    1    5    5  502    0 -0.74758452277E+02 -0.55349820215E+02 -0.93446881915E+02  0.13185123634E+03  0.00000000000E+00 0. -1.
          1    1    6    6  503    0  0.13871815788E+03 -0.33900350418E+02 -0.13079237362E+04  0.13156961886E+04  0.00000000000E+00 0. -1.
         -1    1    5    5    0  502 -0.13490196342E+03 -0.17113828732E+03 -0.71938279797E+02  0.22948195838E+03  0.00000000000E+00 0.  1.
         -1    1    6    6    0  503  0.18294031975E+02  0.13170042165E+02 -0.64711432696E+03  0.64750681369E+03  0.00000000000E+00 0.  1.
<mgrwt>
<rscale>  0 0.12706567E+04</rscale>
<asrwt>0</asrwt>
<pdfrwt beam="1">  1        2 0.53218519E+00 0.12706567E+04</pdfrwt>
<pdfrwt beam="2">  1       -2 0.17951758E-01 0.12706567E+04</pdfrwt>
<totfact> 0.22476920E+01</totfact>
</mgrwt>
</event>
<event>
12    1  0.4247462E-008  0.2418416E+04  0.7818608E-02  0.8432641E-01
          2   -1    0    0  501    0  0.00000000000E+00  0.00000000000E+00  0.56227943484E+03  0.56227943484E+03  0.00000000000E+00 0. -1.
         -2   -1    0    0    0  501 -0.00000000000E+00 -0.00000000000E+00 -0.26004578475E+04  0.26004578475E+04  0.00000000000E+00 0.  1.
         23    2    1    2    0    0 -0.59945193922E+03 -0.51344919796E+03 -0.17455399445E+04  0.19179171277E+04  0.92323911525E+02 0.  0.
        254    2    1    2    0    0  0.59945193922E+03  0.51344919796E+03 -0.29263846816E+03  0.12448201546E+04  0.91704265876E+03 0.  0.
         23    2    4    4    0    0 -0.89936082881E+02  0.26448535830E+03 -0.40253388659E+03  0.49825157650E+03  0.90443904570E+02 0.  0.
         23    2    4    4    0    0  0.68938802210E+03  0.24896383966E+03  0.10989541843E+03  0.74656857812E+03  0.89715106700E+02 0.  0.
         13    1    3    3    0    0 -0.20898763773E+03 -0.19101533276E+03 -0.52453225233E+03  0.59606775941E+03  0.00000000000E+00 0. -1.
        -13    1    3    3    0    0 -0.39046430149E+03 -0.32243386520E+03 -0.12210076922E+04  0.13218493683E+04  0.00000000000E+00 0.  1.
          1    1    5    5  502    0 -0.10114713619E+03  0.20676391720E+03 -0.35275371353E+03  0.42120926274E+03  0.00000000000E+00 0. -1.
          1    1    6    6  503    0  0.53475278569E+03  0.20009477738E+03  0.12232519991E+03  0.58391944330E+03  0.00000000000E+00 0. -1.
         -1    1    5    5    0  502  0.11211053305E+02  0.57721441101E+02 -0.49780173065E+02  0.77042313759E+02  0.00000000000E+00 0.  1.
         -1    1    6    6    0  503  0.15463523641E+03  0.48869062276E+02 -0.12429781481E+02  0.16264913482E+03  0.00000000000E+00 0.  1.
<mgrwt>
<rscale>  0 0.24184160E+04</rscale>
<asrwt>0</asrwt>
<pdfrwt beam="1">  1        2 0.86504528E-01 0.24184160E+04</pdfrwt>
<pdfrwt beam="2">  1       -2 0.40007044E+00 0.24184160E+04</pdfrwt>
<totfact> 0.35721145E-01</totfact>
</mgrwt>
</event>
<event>
12    1  0.4669142E-008  0.1682018E+04  0.7818608E-02  0.8771687E-01
          1   -1    0    0  501    0  0.00000000000E+00  0.00000000000E+00  0.20424779389E+04  0.20424779389E+04  0.00000000000E+00 0. -1.
         -1   -1    0    0    0  501 -0.00000000000E+00 -0.00000000000E+00 -0.34629316819E+03  0.34629316819E+03  0.00000000000E+00 0.  1.
         23    2    1    2    0    0 -0.11457572086E+03  0.46210870651E+03  0.10901342546E+04  0.11929642441E+04  0.89994123104E+02 0.  0.
        254    2    1    2    0    0  0.11457572086E+03 -0.46210870651E+03  0.60605051613E+03  0.11958068630E+04  0.91432202920E+03 0.  0.
         23    2    4    4    0    0 -0.29926803550E+03 -0.37979711822E+03  0.58406093788E+03  0.76369946559E+03  0.91117981255E+02 0.  0.
         23    2    4    4    0    0  0.41384375636E+03 -0.82311588295E+02  0.21989578252E+02  0.43210739742E+03  0.90506403692E+02 0.  0.
         11    1    3    3    0    0 -0.10210129378E+03  0.44744648362E+03  0.10736172974E+04  0.11675988743E+04  0.00000000000E+00 0. -1.
        -11    1    3    3    0    0 -0.12474427078E+02  0.14662222899E+02  0.16516957153E+02  0.25365369795E+02  0.00000000000E+00 0.  1.
          4    1    5    5  502    0 -0.26310321635E+03 -0.36733659546E+03  0.51809864563E+03  0.68744867694E+03  0.00000000000E+00 0. -1.
          3    1    6    6  503    0  0.34255872828E+03 -0.97464606594E+02  0.59707466491E+00  0.35615472530E+03  0.00000000000E+00 0. -1.
         -4    1    5    5    0  502 -0.36164819154E+02 -0.12460522758E+02  0.65962292249E+02  0.76250788656E+02  0.00000000000E+00 0.  1.
         -3    1    6    6    0  503  0.71285028086E+02  0.15153018299E+02  0.21392503587E+02  0.75952672122E+02  0.00000000000E+00 0.  1.
<mgrwt>
<rscale>  0 0.16820180E+04</rscale>
<asrwt>0</asrwt>
<pdfrwt beam="1">  1        1 0.31422737E+00 0.16820180E+04</pdfrwt>
<pdfrwt beam="2">  1       -1 0.53275873E-01 0.16820180E+04</pdfrwt>
<totfact> 0.94476902E+00</totfact>
</mgrwt>
</event>
<event>
12    1  0.4247462E-008  0.1484228E+04  0.7818608E-02  0.8895010E-01
          1   -1    0    0  501    0  0.00000000000E+00  0.00000000000E+00  0.80282322849E+03  0.80282322849E+03  0.00000000000E+00 0. -1.
         -1   -1    0    0    0  501 -0.00000000000E+00 -0.00000000000E+00 -0.68599520219E+03  0.68599520219E+03  0.00000000000E+00 0.  1.
         23    2    1    2    0    0 -0.18912826109E+03  0.11691548727E+03  0.43912857138E+03  0.50047847590E+03  0.90587374003E+02 0.  0.
        254    2    1    2    0    0  0.18912826109E+03 -0.11691548727E+03 -0.32230054508E+03  0.98833995478E+03  0.90746872924E+03 0.  0.
         23    2    4    4    0    0  0.32971011316E+03 -0.44584249688E+03 -0.22829780874E+03  0.60692138039E+03  0.93538129928E+02 0.  0.
         23    2    4    4    0    0 -0.14058185207E+03  0.32892700962E+03 -0.94002736337E+02  0.38141857439E+03  0.93206113872E+02 0.  0.
         13    1    3    3    0    0  0.56462342032E+01  0.22823135828E+02  0.50533382072E+02  0.55735071484E+02  0.00000000000E+00 0.  1.
        -13    1    3    3    0    0 -0.19477449530E+03  0.94092351438E+02  0.38859518931E+03  0.44474340441E+03  0.00000000000E+00 0. -1.
          4    1    5    5  502    0  0.25874515450E+03 -0.35500195580E+03 -0.22013181273E+03  0.49135878803E+03  0.00000000000E+00 0. -1.
          1    1    6    6  503    0 -0.86857026543E+02  0.27637944331E+03 -0.48991822669E+02  0.29381956782E+03  0.00000000000E+00 0. -1.
         -4    1    5    5    0  502  0.70964958664E+02 -0.90840541086E+02 -0.81659960143E+01  0.11556259236E+03  0.00000000000E+00 0.  1.
         -1    1    6    6    0  503 -0.53724825528E+02  0.52547566302E+02 -0.45010913668E+02  0.87599006567E+02  0.00000000000E+00 0.  1.
<mgrwt>
<rscale>  0 0.14842276E+04</rscale>
<asrwt>0</asrwt>
<pdfrwt beam="1">  1        1 0.12351127E+00 0.14842276E+04</pdfrwt>
<pdfrwt beam="2">  1       -1 0.10553772E+00 0.14842276E+04</pdfrwt>
<totfact> 0.17920234E+01</totfact>
</mgrwt>
</event>
<event>
12    1  0.4247462E-008  0.1779092E+04  0.7818608E-02  0.8717498E-01
         -2   -1    0    0    0  501 -0.00000000000E+00  0.00000000000E+00  0.55277080783E+03  0.55277080783E+03  0.00000000000E+00 0.  1.
          2   -1    0    0  501    0  0.00000000000E+00 -0.00000000000E+00 -0.14315005657E+04  0.14315005657E+04  0.00000000000E+00 0. -1.
         23    2    1    2    0    0 -0.19719935745E+03  0.23794795706E+03 -0.97710875239E+03  0.10291982772E+04  0.94872351245E+02 0.  0.
        254    2    1    2    0    0  0.19719935745E+03 -0.23794795706E+03  0.98378994510E+02  0.95507309629E+03  0.89832030805E+03 0.  0.
         23    2    4    4    0    0  0.14595305252E+03  0.33235266995E+02 -0.36683845384E+03  0.40654803893E+03  0.91126177520E+02 0.  0.
         23    2    4    4    0    0  0.51246304937E+02 -0.27118322405E+03  0.46521744835E+03  0.54852505737E+03  0.91027136272E+02 0.  0.
         13    1    3    3    0    0 -0.14250619419E+03  0.22562048577E+03 -0.78850805096E+03  0.83244072786E+03  0.00000000000E+00 0. -1.
        -13    1    3    3    0    0 -0.54693163266E+02  0.12327471290E+02 -0.18860070144E+03  0.19675754938E+03  0.00000000000E+00 0.  1.
          1    1    5    5  502    0  0.10209099896E+02  0.12387929466E+02 -0.14327251224E+03  0.14416899556E+03  0.00000000000E+00 0. -1.
          3    1    6    6  503    0  0.13952617131E+02 -0.89013853353E+02  0.78810528770E+02  0.11970480800E+03  0.00000000000E+00 0. -1.
         -1    1    5    5    0  502  0.13574395262E+03  0.20847337528E+02 -0.22356594160E+03  0.26237904337E+03  0.00000000000E+00 0.  1.
         -3    1    6    6    0  503  0.37293687806E+02 -0.18216937070E+03  0.38640691958E+03  0.42882024937E+03  0.00000000000E+00 0.  1.
<mgrwt>
<rscale>  0 0.17790916E+04</rscale>
<asrwt>0</asrwt>
<pdfrwt beam="1">  1        2 0.22023085E+00 0.17790916E+04</pdfrwt>
<pdfrwt beam="2">  1       -2 0.85041664E-01 0.17790916E+04</pdfrwt>
<totfact> 0.15801350E+01</totfact>
</mgrwt>
</event>
<event>
12    1  0.4247462E-008  0.1240609E+04  0.7818608E-02  0.9078035E-01
          2   -1    0    0  501    0  0.00000000000E+00  0.00000000000E+00  0.31680386923E+04  0.31680386923E+04  0.00000000000E+00 0. -1.
         -2   -1    0    0    0  501 -0.00000000000E+00 -0.00000000000E+00 -0.12145621106E+03  0.12145621106E+03  0.00000000000E+00 0.  1.
         23    2    1    2    0    0 -0.24277750115E+03 -0.12140397274E+03  0.47178536145E+03  0.55040255620E+03  0.81741708686E+02 0.  0.
        254    2    1    2    0    0  0.24277750115E+03  0.12140397274E+03  0.25747971198E+04  0.27390923472E+04  0.89407317293E+03 0.  0.
         23    2    4    4    0    0  0.23733233842E+03  0.10240124838E+03  0.26226353623E+04  0.26369054006E+04  0.90781021704E+02 0.  0.
         23    2    4    4    0    0  0.54451627256E+01  0.19002724358E+02 -0.47838242474E+02  0.10218694654E+03  0.88107441629E+02 0.  0.
         13    1    3    3    0    0 -0.21193270585E+03 -0.85711719340E+02  0.33382480522E+03  0.40459976670E+03  0.00000000000E+00 0.  1.
        -13    1    3    3    0    0 -0.30844795298E+02 -0.35692253396E+02  0.13796055623E+03  0.14580278950E+03  0.00000000000E+00 0. -1.
          2    1    5    5  502    0  0.22691514873E+02  0.46302544930E+02  0.56296847774E+03  0.56532498392E+03  0.00000000000E+00 0. -1.
          4    1    6    6  503    0 -0.28210012184E+02  0.21465712372E+02 -0.57086783201E+02  0.67197339317E+02  0.00000000000E+00 0.  1.
         -2    1    5    5    0  502  0.21464082355E+03  0.56098703448E+02  0.20596668845E+04  0.20715804167E+04  0.00000000000E+00 0.  1.
         -4    1    6    6    0  503  0.33655174910E+02 -0.24629880132E+01  0.92485407271E+01  0.34989607225E+02  0.00000000000E+00 0. -1.
<mgrwt>
<rscale>  0 0.12406095E+04</rscale>
<asrwt>0</asrwt>
<pdfrwt beam="1">  1        2 0.48739051E+00 0.12406095E+04</pdfrwt>
<pdfrwt beam="2">  1       -2 0.18685573E-01 0.12406095E+04</pdfrwt>
<totfact> 0.32764128E+01</totfact>
</mgrwt>
</event>
<event>
12    1  0.4247462E-008  0.1076992E+04  0.7818608E-02  0.9227912E-01
          1   -1    0    0  501    0  0.00000000000E+00  0.00000000000E+00  0.12788316743E+04  0.12788316743E+04  0.00000000000E+00 0. -1.
         -1   -1    0    0    0  501 -0.00000000000E+00 -0.00000000000E+00 -0.22675220663E+03  0.22675220663E+03  0.00000000000E+00 0.  1.
         23    2    1    2    0    0  0.11783013602E+03 -0.29049972818E+02  0.16084904927E+03  0.22094256253E+03  0.90638608844E+02 0.  0.
        254    2    1    2    0    0 -0.11783013602E+03  0.29049972818E+02  0.89123041839E+03  0.12846413184E+04  0.91721525083E+03 0.  0.
         23    2    4    4    0    0 -0.72821826128E+02 -0.23179124089E+03  0.96176226974E+03  0.99574061210E+03  0.86501476084E+02 0.  0.
         23    2    4    4    0    0 -0.45008309892E+02  0.26084121371E+03 -0.70531851351E+02  0.28890070629E+03  0.91787740513E+02 0.  0.
         13    1    3    3    0    0  0.92406054805E+02 -0.47109920564E+02  0.15882219892E+03  0.18969110272E+03  0.00000000000E+00 0. -1.
        -13    1    3    3    0    0  0.25424081215E+02  0.18059947746E+02  0.20268503460E+01  0.31251459815E+02  0.00000000000E+00 0.  1.
          4    1    6    6  502    0  0.16549405624E+02  0.56020606574E+02  0.12042597540E+02  0.59642395516E+02  0.00000000000E+00 0. -1.
          4    1    5    5  503    0 -0.17409299442E+02 -0.75089149535E+02  0.16909602427E+03  0.18583575950E+03  0.00000000000E+00 0. -1.
         -4    1    5    5    0  503 -0.55412526686E+02 -0.15670209136E+03  0.79266624547E+03  0.80990485259E+03  0.00000000000E+00 0.  1.
         -4    1    6    6    0  502 -0.61557715516E+02  0.20482060714E+03 -0.82574448891E+02  0.22925831077E+03  0.00000000000E+00 0.  1.
<mgrwt>
<rscale>  0 0.10769919E+04</rscale>
<asrwt>0</asrwt>
<pdfrwt beam="1">  1        1 0.19674333E+00 0.10769919E+04</pdfrwt>
<pdfrwt beam="2">  1       -1 0.34884956E-01 0.10769919E+04</pdfrwt>
<totfact> 0.72915068E+01</totfact>
</mgrwt>
</event>
<event>
12    1  0.4247462E-008  0.3132684E+04  0.7818608E-02  0.8206825E-01
         -1   -1    0    0    0  501 -0.00000000000E+00  0.00000000000E+00  0.10402397184E+04  0.10402397184E+04  0.00000000000E+00 0.  1.
          1   -1    0    0  501    0  0.00000000000E+00 -0.00000000000E+00 -0.23585203759E+04  0.23585203759E+04  0.00000000000E+00 0. -1.
         23    2    1    2    0    0 -0.30033185031E+03 -0.70996049889E+02 -0.21305522169E+04  0.21545343278E+04  0.86751145183E+02 0.  0.
        254    2    1    2    0    0  0.30033185031E+03  0.70996049889E+02  0.81227155950E+03  0.12442257665E+04  0.89054646831E+03 0.  0.
         23    2    4    4    0    0  0.37861039310E+03 -0.25396122382E+03  0.13604072379E+03  0.48439550275E+03  0.91048292657E+02 0.  0.
         23    2    4    4    0    0 -0.78278542785E+02  0.32495727371E+03  0.67623083571E+03  0.75983026374E+03  0.91264048433E+02 0.  0.
         11    1    3    3    0    0 -0.26655370289E+03 -0.72419962594E+02 -0.16649909998E+04  0.16877471839E+04  0.00000000000E+00 0. -1.
        -11    1    3    3    0    0 -0.33778147426E+02  0.14239127048E+01 -0.46556121715E+03  0.46678714387E+03  0.00000000000E+00 0.  1.
          1    1    5    5  502    0  0.11579284103E+03 -0.77798867755E+02  0.86505018072E+02  0.16414555739E+03  0.00000000000E+00 0. -1.
          3    1    6    6  503    0 -0.23296026906E+02  0.12866275114E+02  0.84416542534E+02  0.88512137915E+02  0.00000000000E+00 0. -1.
         -1    1    5    5    0  502  0.26281755207E+03 -0.17616235606E+03  0.49535705718E+02  0.32024994537E+03  0.00000000000E+00 0.  1.
         -3    1    6    6    0  503 -0.54982515879E+02  0.31209099859E+03  0.59181429318E+03  0.67131812583E+03  0.00000000000E+00 0.  1.
<mgrwt>
<rscale>  0 0.31326836E+04</rscale>
<asrwt>0</asrwt>
<pdfrwt beam="1">  1        1 0.36284929E+00 0.31326836E+04</pdfrwt>
<pdfrwt beam="2">  1       -1 0.16003688E+00 0.31326836E+04</pdfrwt>
<totfact> 0.41687640E-01</totfact>
</mgrwt>
</event>
<event>
12    1  0.4247462E-008  0.1369643E+04  0.7818608E-02  0.8976091E-01
         -2   -1    0    0    0  501 -0.00000000000E+00  0.00000000000E+00  0.23612346593E+03  0.23612346593E+03  0.00000000000E+00 0. -1.
          2   -1    0    0  501    0  0.00000000000E+00 -0.00000000000E+00 -0.19861653747E+04  0.19861653747E+04  0.00000000000E+00 0.  1.
         23    2    1    2    0    0 -0.50902497825E+02 -0.12503165483E+03  0.12730246108E+03  0.20784698221E+03  0.93650800451E+02 0.  0.
        254    2    1    2    0    0  0.50902497825E+02  0.12503165483E+03 -0.18773443698E+04  0.20144418584E+04  0.71786498656E+03 0.  0.
         23    2    4    4    0    0  0.17781659947E+03 -0.23520845929E+03 -0.55814109439E+03  0.63800802107E+03  0.92687600821E+02 0.  0.
         23    2    4    4    0    0 -0.12691410165E+03  0.36024011411E+03 -0.13192032754E+04  0.13764338373E+04  0.91611667217E+02 0.  0.
         11    1    3    3    0    0  0.65776635984E+01 -0.99820076387E+02  0.91591152120E+02  0.13563278533E+03  0.00000000000E+00 0. -1.
        -11    1    3    3    0    0 -0.57480161423E+02 -0.25211578438E+02  0.35711308958E+02  0.72214196887E+02  0.00000000000E+00 0.  1.
          4    1    5    5  502    0  0.16197275327E+03 -0.20255168211E+03 -0.53611223507E+03  0.59554906206E+03  0.00000000000E+00 0.  1.
          3    1    6    6  503    0  0.70923519678E+01  0.60003818906E+02 -0.14543187939E+03  0.15748393976E+03  0.00000000000E+00 0. -1.
         -4    1    5    5    0  502  0.15843846206E+02 -0.32656777175E+02 -0.22028859317E+02  0.42458959017E+02  0.00000000000E+00 0. -1.
         -3    1    6    6    0  503 -0.13400645361E+03  0.30023629520E+03 -0.11737713960E+04  0.12189498975E+04  0.00000000000E+00 0.  1.
<mgrwt>
<rscale>  0 0.13696427E+04</rscale>
<asrwt>0</asrwt>
<pdfrwt beam="1">  1        2 0.30556391E+00 0.13696427E+04</pdfrwt>
<pdfrwt beam="2">  1       -2 0.36326687E-01 0.13696427E+04</pdfrwt>
<totfact> 0.47341845E+01</totfact>
</mgrwt>
</event>
<event>
12    1  0.4247462E-008  0.1219784E+04  0.7818608E-02  0.9095714E-01
         -1   -1    0    0    0  501 -0.00000000000E+00  0.00000000000E+00  0.37308083371E+03  0.37308083371E+03  0.00000000000E+00 0.  1.
          1   -1    0    0  501    0  0.00000000000E+00 -0.00000000000E+00 -0.99701830221E+03  0.99701830221E+03  0.00000000000E+00 0. -1.
         23    2    1    2    0    0 -0.13296095680E+03  0.18734761352E+03 -0.29151373959E+03  0.38271124753E+03  0.93326814429E+02 0.  0.
        254    2    1    2    0    0  0.13296095680E+03 -0.18734761352E+03 -0.33242372891E+03  0.98738788839E+03  0.90091706737E+03 0.  0.
         23    2    4    4    0    0  0.43294154324E+03  0.15087259692E+03 -0.19332625324E+03  0.50588690589E+03  0.91354260955E+02 0.  0.
         23    2    4    4    0    0 -0.29998058644E+03 -0.33822021044E+03 -0.13909747568E+03  0.48150098250E+03  0.90076775174E+02 0.  0.
         13    1    3    3    0    0 -0.28242916297E+02  0.83067668905E+02 -0.17031137533E+03  0.19158252662E+03  0.00000000000E+00 0. -1.
        -13    1    3    3    0    0 -0.10471804050E+03  0.10427994461E+03 -0.12120236426E+03  0.19112872092E+03  0.00000000000E+00 0.  1.
          3    1    6    6  502    0 -0.18529303786E+03 -0.14456150541E+03 -0.56121223756E+02  0.24162187501E+03  0.00000000000E+00 0. -1.
          3    1    5    5  503    0  0.28937231547E+03  0.54376858338E+02 -0.11759750216E+03  0.31705260162E+03  0.00000000000E+00 0. -1.
         -3    1    5    5    0  503  0.14356922777E+03  0.96495738582E+02 -0.75728751078E+02  0.18883430426E+03  0.00000000000E+00 0.  1.
         -3    1    6    6    0  502 -0.11468754858E+03 -0.19365870503E+03 -0.82976251920E+02  0.23987910750E+03  0.00000000000E+00 0.  1.
<mgrwt>
<rscale>  0 0.12197843E+04</rscale>
<asrwt>0</asrwt>
<pdfrwt beam="1">  1        1 0.15338743E+00 0.12197843E+04</pdfrwt>
<pdfrwt beam="2">  1       -1 0.57397052E-01 0.12197843E+04</pdfrwt>
<totfact> 0.46215713E+01</totfact>
</mgrwt>
</event>
<event>
12    1  0.4247462E-008  0.1441330E+04  0.7818608E-02  0.8924433E-01
         -1   -1    0    0    0  501 -0.00000000000E+00  0.00000000000E+00  0.24970471947E+03  0.24970471947E+03  0.00000000000E+00 0.  1.
          1   -1    0    0  501    0  0.00000000000E+00 -0.00000000000E+00 -0.20798899658E+04  0.20798899658E+04  0.00000000000E+00 0. -1.
         23    2    1    2    0    0  0.20258151512E+03 -0.37874404667E+03 -0.53374593021E+03  0.69104163883E+03  0.90374251959E+02 0.  0.
        254    2    1    2    0    0 -0.20258151512E+03  0.37874404667E+03 -0.12964393161E+04  0.16385530464E+04  0.90532583222E+03 0.  0.
         23    2    4    4    0    0 -0.22434119048E+00  0.60596694410E+03 -0.11160775733E+04  0.12733221474E+04  0.92326343663E+02 0.  0.
         23    2    4    4    0    0 -0.20235717393E+03 -0.22722289742E+03 -0.18036174280E+03  0.36523089905E+03  0.91019670386E+02 0.  0.
         11    1    3    3    0    0  0.15943909206E+03 -0.31663609072E+03 -0.37992278595E+03  0.51963502702E+03  0.00000000000E+00 0.  1.
        -11    1    3    3    0    0  0.43142423064E+02 -0.62107955950E+02 -0.15382314426E+03  0.17140661180E+03  0.00000000000E+00 0. -1.
          2    1    5    5  502    0 -0.22177208533E+02  0.57124954890E+03 -0.10491709518E+04  0.11948127727E+04  0.00000000000E+00 0. -1.
          2    1    6    6  503    0 -0.94424937512E+02 -0.62721021202E+02 -0.29034892551E+02  0.11701717955E+03  0.00000000000E+00 0.  1.
         -2    1    5    5    0  502  0.21952867342E+02  0.34717395200E+02 -0.66906621520E+02  0.78509374710E+02  0.00000000000E+00 0.  1.
         -2    1    6    6    0  503 -0.10793223642E+03 -0.16450187622E+03 -0.15132685025E+03  0.24821371950E+03  0.00000000000E+00 0. -1.
<mgrwt>
<rscale>  0 0.14413304E+04</rscale>
<asrwt>0</asrwt>
<pdfrwt beam="1">  1        1 0.31998307E+00 0.14413304E+04</pdfrwt>
<pdfrwt beam="2">  1       -1 0.38416111E-01 0.14413304E+04</pdfrwt>
<totfact> 0.16779157E+01</totfact>
</mgrwt>
</event>
<event>
12    1  0.4247462E-008  0.2340978E+04  0.7818608E-02  0.8461937E-01
          1   -1    0    0  501    0  0.00000000000E+00  0.00000000000E+00  0.16962454655E+04  0.16962454655E+04  0.00000000000E+00 0. -1.
         -1   -1    0    0    0  501 -0.00000000000E+00 -0.00000000000E+00 -0.80769225614E+03  0.80769225614E+03  0.00000000000E+00 0.  1.
         23    2    1    2    0    0  0.15620776973E+03  0.31796031144E+01 -0.67428641821E+03  0.69829828211E+03  0.92451824278E+02 0.  0.
        254    2    1    2    0    0 -0.15620776973E+03 -0.31796031144E+01  0.15628396276E+04  0.18056394395E+04  0.89076097066E+03 0.  0.
         23    2    4    4    0    0 -0.41971869605E+03  0.20493978320E+03  0.12492316860E+04  0.13368878525E+04  0.92332152159E+02 0.  0.
         23    2    4    4    0    0  0.26351092632E+03 -0.20811938632E+03  0.31360794158E+03  0.46875158702E+03  0.92878533898E+02 0.  0.
         13    1    3    3    0    0  0.60816951542E+01 -0.27299915215E+02 -0.12157539245E+03  0.12475114603E+03  0.00000000000E+00 0. -1.
        -13    1    3    3    0    0  0.15012607457E+03  0.30479518330E+02 -0.55271102576E+03  0.57354713608E+03  0.00000000000E+00 0.  1.
          1    1    6    6  502    0  0.25715283379E+03 -0.16704264389E+03  0.27111470212E+03  0.40930918205E+03  0.00000000000E+00 0. -1.
          1    1    5    5  503    0 -0.35132828255E+03  0.20512875015E+03  0.10966634547E+04  0.11696923096E+04  0.00000000000E+00 0. -1.
         -1    1    5    5    0  503 -0.68390413501E+02 -0.18896694520E+00  0.15256823133E+03  0.16719554294E+03  0.00000000000E+00 0.  1.
         -1    1    6    6    0  502  0.63580925345E+01 -0.41076742426E+02  0.42493239457E+02  0.59442404969E+02  0.00000000000E+00 0.  1.
<mgrwt>
<rscale>  0 0.23409779E+04</rscale>
<asrwt>0</asrwt>
<pdfrwt beam="1">  1        1 0.26096084E+00 0.23409779E+04</pdfrwt>
<pdfrwt beam="2">  1       -1 0.12426035E+00 0.23409779E+04</pdfrwt>
<totfact> 0.24523781E+00</totfact>
</mgrwt>
</event>
<event>
12    1  0.4247462E-008  0.1051167E+04  0.7818608E-02  0.9254140E-01
         -3   -1    0    0    0  501 -0.00000000000E+00  0.00000000000E+00  0.10495630936E+03  0.10495630936E+03  0.00000000000E+00 0.  1.
          3   -1    0    0  501    0  0.00000000000E+00 -0.00000000000E+00 -0.26319347298E+04  0.26319347298E+04  0.00000000000E+00 0. -1.
         23    2    1    2    0    0  0.32642830886E+02  0.11594886378E+03 -0.46063970366E+03  0.48362546437E+03  0.84823108760E+02 0.  0.
        254    2    1    2    0    0 -0.32642830886E+02 -0.11594886378E+03 -0.20663387168E+04  0.22532655748E+04  0.89047198980E+03 0.  0.
         23    2    4    4    0    0  0.26184957204E+03 -0.25904760956E+03 -0.39396619761E+03  0.54686083148E+03  0.90424232092E+02 0.  0.
         23    2    4    4    0    0 -0.29449240293E+03  0.14309874578E+03 -0.16723725192E+04  0.17064047433E+04  0.88228559300E+02 0.  0.
         11    1    3    3    0    0  0.40343205867E+02  0.10125302032E+03 -0.25499344456E+03  0.27731102602E+03  0.00000000000E+00 0.  1.
        -11    1    3    3    0    0 -0.77003749813E+01  0.14695843459E+02 -0.20564625910E+03  0.20631443835E+03  0.00000000000E+00 0. -1.
          1    1    5    5  502    0  0.23121680597E+03 -0.21868706697E+03 -0.28720639047E+03  0.42868724654E+03  0.00000000000E+00 0. -1.
          1    1    6    6  503    0 -0.23509839676E+03  0.75051416136E+02 -0.13016052987E+04  0.13247944463E+04  0.00000000000E+00 0. -1.
         -1    1    5    5    0  502  0.30632766068E+02 -0.40360542593E+02 -0.10675980715E+03  0.11817358494E+03  0.00000000000E+00 0.  1.
         -1    1    6    6    0  503 -0.59394006166E+02  0.68047329641E+02 -0.37076722042E+03  0.38161029700E+03  0.00000000000E+00 0.  1.
<mgrwt>
<rscale>  0 0.10511673E+04</rscale>
<asrwt>0</asrwt>
<pdfrwt beam="1">  1        3 0.40491301E+00 0.10511673E+04</pdfrwt>
<pdfrwt beam="2">  1       -3 0.16147125E-01 0.10511673E+04</pdfrwt>
<totfact> 0.94430739E-01</totfact>
</mgrwt>
</event>
<event>
12    1  0.4247462E-008  0.1630904E+04  0.7818608E-02  0.8801784E-01
         -2   -1    0    0    0  501 -0.00000000000E+00  0.00000000000E+00  0.51635750596E+03  0.51635750596E+03  0.00000000000E+00 0.  1.
          2   -1    0    0  501    0  0.00000000000E+00 -0.00000000000E+00 -0.12877938802E+04  0.12877938802E+04  0.00000000000E+00 0. -1.
         23    2    1    2    0    0 -0.10225475064E+03  0.24384082458E+03 -0.82405936193E+03  0.87005060937E+03  0.89441875632E+02 0.  0.
        254    2    1    2    0    0  0.10225475064E+03 -0.24384082458E+03  0.52622987653E+02  0.93410077682E+03  0.89434931691E+03 0.  0.
         23    2    4    4    0    0 -0.35909450004E+03 -0.16135559530E+02 -0.11168769635E+03  0.38703088848E+03  0.90053044850E+02 0.  0.
         23    2    4    4    0    0  0.46134925068E+03 -0.22770526505E+03  0.16431068400E+03  0.54706988834E+03  0.87147249009E+02 0.  0.
         11    1    3    3    0    0 -0.12079362597E+02  0.11159541267E+03 -0.24900792563E+03  0.27313804963E+03  0.00000000000E+00 0.  1.
        -11    1    3    3    0    0 -0.90175388046E+02  0.13224541191E+03 -0.57505143630E+03  0.59691255973E+03  0.00000000000E+00 0. -1.
          3    1    6    6  502    0  0.37583198979E+03 -0.14816436373E+03  0.11288140642E+03  0.41945747716E+03  0.00000000000E+00 0. -1.
          3    1    5    5  503    0 -0.35157653867E+03  0.78246970174E+00 -0.10167897246E+03  0.36598536616E+03  0.00000000000E+00 0. -1.
         -3    1    5    5    0  503 -0.75179613707E+01 -0.16918029231E+02 -0.10008723883E+02  0.21045522327E+02  0.00000000000E+00 0.  1.
         -3    1    6    6    0  502  0.85517260888E+02 -0.79540901328E+02  0.51429277576E+02  0.12761241117E+03  0.00000000000E+00 0.  1.
<mgrwt>
<rscale>  0 0.16309041E+04</rscale>
<asrwt>0</asrwt>
<pdfrwt beam="1">  1        2 0.19812213E+00 0.16309041E+04</pdfrwt>
<pdfrwt beam="2">  1       -2 0.79439617E-01 0.16309041E+04</pdfrwt>
<totfact> 0.22579297E+01</totfact>
</mgrwt>
</event>
<event>
12    1  0.4247462E-008  0.2067990E+04  0.7818608E-02  0.8575477E-01
          1   -1    0    0  501    0  0.00000000000E+00  0.00000000000E+00  0.17705325410E+04  0.17705325410E+04  0.00000000000E+00 0. -1.
         -1   -1    0    0    0  501 -0.00000000000E+00 -0.00000000000E+00 -0.60385548674E+03  0.60385548674E+03  0.00000000000E+00 0.  1.
         23    2    1    2    0    0  0.49332391910E+03 -0.24607217220E+03  0.11973878641E+04  0.13212890451E+04  0.90260958609E+02 0.  0.
        254    2    1    2    0    0 -0.49332391910E+03  0.24607217220E+03 -0.30710809800E+02  0.10530989826E+04  0.89674651395E+03 0.  0.
         23    2    4    4    0    0  0.10640563112E+03  0.25848452736E+03 -0.27117360322E+03  0.40016954759E+03  0.92000731064E+02 0.  0.
         23    2    4    4    0    0 -0.59972955022E+03 -0.12412355160E+02  0.24046279342E+03  0.65292943504E+03  0.93085402448E+02 0.  0.
         13    1    3    3    0    0  0.42118544536E+03 -0.19228261816E+03  0.92469370835E+03  0.10341316352E+04  0.00000000000E+00 0. -1.
        -13    1    3    3    0    0  0.72138473740E+02 -0.53789554046E+02  0.27269415572E+03  0.28715740994E+03  0.00000000000E+00 0.  1.
          2    1    5    5  502    0  0.86043712608E+02  0.20941286359E+03 -0.26197826928E+03  0.34625118265E+03  0.00000000000E+00 0.  1.
          1    1    6    6  503    0 -0.42681417502E+02 -0.12531666205E+02 -0.38722758950E+01  0.44651322248E+02  0.00000000000E+00 0. -1.
         -2    1    5    5    0  502  0.20361918516E+02  0.49071663777E+02 -0.91953339417E+01  0.53918364940E+02  0.00000000000E+00 0. -1.
         -1    1    6    6    0  503 -0.55704813272E+03  0.11931104503E+00  0.24433506931E+03  0.60827811279E+03  0.00000000000E+00 0.  1.
<mgrwt>
<rscale>  0 0.20679901E+04</rscale>
<asrwt>0</asrwt>
<pdfrwt beam="1">  1        1 0.27238962E+00 0.20679901E+04</pdfrwt>
<pdfrwt beam="2">  1       -1 0.92900845E-01 0.20679901E+04</pdfrwt>
<totfact> 0.44289374E+00</totfact>
</mgrwt>
</event>
<event>
12    1  0.4247462E-008  0.2190332E+04  0.7818608E-02  0.8522463E-01
         -2   -1    0    0    0  501 -0.00000000000E+00  0.00000000000E+00  0.98375535926E+03  0.98375535926E+03  0.00000000000E+00 0.  1.
          2   -1    0    0  501    0  0.00000000000E+00 -0.00000000000E+00 -0.12191943672E+04  0.12191943672E+04  0.00000000000E+00 0. -1.
         23    2    1    2    0    0  0.87112842900E+03  0.24693533378E+03 -0.11179278575E+03  0.91675908273E+03  0.90043267047E+02 0.  0.
        254    2    1    2    0    0 -0.87112842900E+03 -0.24693533378E+03 -0.12364622216E+03  0.12861906437E+04  0.90507247490E+03 0.  0.
         23    2    4    4    0    0 -0.68013402135E+03 -0.26785947899E+03 -0.47384051698E+03  0.87607792514E+03  0.93041431077E+02 0.  0.
         23    2    4    4    0    0 -0.19099440765E+03  0.20924145215E+02  0.35019429482E+03  0.41011271857E+03  0.92950062970E+02 0.  0.
         13    1    3    3    0    0  0.19044530458E+03  0.93418662621E+02 -0.28189428994E+02  0.21398856154E+03  0.00000000000E+00 0.  1.
        -13    1    3    3    0    0  0.68068312442E+03  0.15351667116E+03 -0.83603356755E+02  0.70277052119E+03  0.00000000000E+00 0. -1.
          1    1    5    5  502    0 -0.64192571682E+03 -0.26137447122E+03 -0.46935174318E+03  0.83706409489E+03  0.00000000000E+00 0. -1.
          3    1    6    6  503    0 -0.13449166977E+03  0.57160952900E+02  0.24768923504E+03  0.28758536285E+03  0.00000000000E+00 0. -1.
         -1    1    5    5    0  502 -0.38208304525E+02 -0.64850077725E+01 -0.44887738031E+01  0.39013830250E+02  0.00000000000E+00 0.  1.
         -3    1    6    6    0  503 -0.56502737885E+02 -0.36236807686E+02  0.10250505978E+03  0.12252735572E+03  0.00000000000E+00 0.  1.
<mgrwt>
<rscale>  0 0.21903324E+04</rscale>
<asrwt>0</asrwt>
<pdfrwt beam="1">  1        2 0.18756836E+00 0.21903324E+04</pdfrwt>
<pdfrwt beam="2">  1       -2 0.15134698E+00 0.21903324E+04</pdfrwt>
<totfact> 0.49378824E+00</totfact>
</mgrwt>
</event>
<event>
12    1  0.4247462E-008  0.3549667E+04  0.7818608E-02  0.8102119E-01
         -2   -1    0    0    0  501 -0.00000000000E+00  0.00000000000E+00  0.11546761787E+04  0.11546761787E+04  0.00000000000E+00 0.  1.
          2   -1    0    0  501    0  0.00000000000E+00 -0.00000000000E+00 -0.27280667600E+04  0.27280667600E+04  0.00000000000E+00 0. -1.
         23    2    1    2    0    0  0.24069111717E+03  0.71400942135E+03 -0.23510954489E+04  0.24705810397E+04  0.91537949306E+02 0.  0.
        254    2    1    2    0    0 -0.24069111717E+03 -0.71400942135E+03  0.77770486762E+03  0.14121618990E+04  0.90644067655E+03 0.  0.
         23    2    4    4    0    0 -0.26585394092E+03 -0.75381540487E+03  0.20451347407E+03  0.83006135547E+03  0.90885148613E+02 0.  0.
         23    2    4    4    0    0  0.25162823744E+02  0.39805983520E+02  0.57319139355E+03  0.58210054350E+03  0.89860920753E+02 0.  0.
         13    1    3    3    0    0  0.14721284211E+03  0.55363264408E+03 -0.17353805713E+04  0.18274918475E+04  0.00000000000E+00 0. -1.
        -13    1    3    3    0    0  0.93478275063E+02  0.16037677727E+03 -0.61571487763E+03  0.64308919221E+03  0.00000000000E+00 0.  1.
          4    1    5    5  502    0 -0.19067473254E+03 -0.44789002369E+03  0.15694611756E+03  0.51146301016E+03  0.00000000000E+00 0. -1.
          3    1    6    6  503    0  0.30947460077E+02  0.57339123572E+01  0.60065467488E+02  0.67812118538E+02  0.00000000000E+00 0. -1.
         -4    1    5    5    0  502 -0.75179208382E+02 -0.30592538118E+03  0.47567356509E+02  0.31859834530E+03  0.00000000000E+00 0.  1.
         -3    1    6    6    0  503 -0.57846363326E+01  0.34072071162E+02  0.51312592607E+03  0.51428842496E+03  0.00000000000E+00 0.  1.
<mgrwt>
<rscale>  0 0.35496669E+04</rscale>
<asrwt>0</asrwt>
<pdfrwt beam="1">  1        2 0.41970257E+00 0.35496669E+04</pdfrwt>
<pdfrwt beam="2">  1       -2 0.17764249E+00 0.35496669E+04</pdfrwt>
<totfact> 0.39357477E-01</totfact>
</mgrwt>
</event>
<event>
12    1  0.4247462E-008  0.4080406E+04  0.7818608E-02  0.7988520E-01
         -2   -1    0    0    0  501 -0.00000000000E+00  0.00000000000E+00  0.11419707993E+04  0.11419707993E+04  0.00000000000E+00 0.  1.
          2   -1    0    0  501    0  0.00000000000E+00 -0.00000000000E+00 -0.36449509646E+04  0.36449509646E+04  0.00000000000E+00 0. -1.
         23    2    1    2    0    0  0.36668401565E+03 -0.62549427523E+03  0.91955306633E+03  0.11746347160E+04  0.92133699688E+02 0.  0.
        254    2    1    2    0    0 -0.36668401565E+03  0.62549427523E+03 -0.34225332317E+04  0.36122870479E+04  0.89954640712E+03 0.  0.
         23    2    4    4    0    0 -0.49695274616E+03  0.74223728222E+03 -0.22401986839E+04  0.24135264134E+04  0.93495398573E+02 0.  0.
         23    2    4    4    0    0  0.13026873051E+03 -0.11674300700E+03 -0.11823345477E+04  0.11987606345E+04  0.92267026445E+02 0.  0.
         13    1    3    3    0    0  0.37235897149E+02 -0.12675393921E+03  0.19148714903E+03  0.23263791906E+03  0.00000000000E+00 0. -1.
        -13    1    3    3    0    0  0.32944811850E+03 -0.49874033602E+03  0.72806591730E+03  0.94199679696E+03  0.00000000000E+00 0.  1.
          2    1    5    5  502    0 -0.49342024335E+03  0.70649403290E+03 -0.21647132081E+04  0.23299314643E+04  0.00000000000E+00 0. -1.
          1    1    6    6  503    0  0.56027960234E+02 -0.10715988588E+03 -0.80992503555E+03  0.81890227542E+03  0.00000000000E+00 0. -1.
         -2    1    5    5    0  502 -0.35325028183E+01  0.35743249320E+02 -0.75485475826E+02  0.83594949063E+02  0.00000000000E+00 0.  1.
         -1    1    6    6    0  503  0.74240770277E+02 -0.95831211119E+01 -0.37240951218E+03  0.37985835905E+03  0.00000000000E+00 0.  1.
<mgrwt>
<rscale>  0 0.40804056E+04</rscale>
<asrwt>0</asrwt>
<pdfrwt beam="1">  1        2 0.56076168E+00 0.40804056E+04</pdfrwt>
<pdfrwt beam="2">  1       -2 0.17568782E+00 0.40804056E+04</pdfrwt>
<totfact> 0.97331291E-02</totfact>
</mgrwt>
</event>
<event>
12    1  0.4247462E-008  0.2264600E+04  0.7818608E-02  0.8492011E-01
          1   -1    0    0  501    0  0.00000000000E+00  0.00000000000E+00  0.21812774281E+04  0.21812774281E+04  0.00000000000E+00 0. -1.
         -1   -1    0    0    0  501 -0.00000000000E+00 -0.00000000000E+00 -0.58777658486E+03  0.58777658486E+03  0.00000000000E+00 0.  1.
         23    2    1    2    0    0 -0.85425054292E+03 -0.24639161098E+03  0.23278188962E+03  0.92336732084E+03  0.89257968952E+02 0.  0.
        254    2    1    2    0    0  0.85425054292E+03  0.24639161098E+03  0.13607189537E+04  0.18456866921E+04  0.87438577224E+03 0.  0.
         23    2    4    4    0    0  0.72818796074E+03 -0.95391154331E+02  0.12524424603E+04  0.14546913403E+04  0.90319436315E+02 0.  0.
         23    2    4    4    0    0  0.12606258219E+03  0.34178276531E+03  0.10827649336E+03  0.39099535190E+03  0.91903933001E+02 0.  0.
         13    1    3    3    0    0 -0.43395877818E+03 -0.89062331317E+02  0.14465366239E+03  0.46602253386E+03  0.00000000000E+00 0. -1.
        -13    1    3    3    0    0 -0.42029176474E+03 -0.15732927966E+03  0.88128227230E+02  0.45734478699E+03  0.00000000000E+00 0.  1.
          1    1    5    5  502    0  0.25637322734E+03 -0.20050525344E+02  0.52128051375E+03  0.58125951973E+03  0.00000000000E+00 0. -1.
          3    1    6    6  503    0  0.37692586753E+02  0.16320043805E+03  0.73906029845E+01  0.16765958096E+03  0.00000000000E+00 0. -1.
         -1    1    5    5    0  502  0.47181473340E+03 -0.75340628987E+02  0.73116194654E+03  0.87343182053E+03  0.00000000000E+00 0.  1.
         -3    1    6    6    0  503  0.88369995434E+02  0.17858232726E+03  0.10088589038E+03  0.22333577094E+03  0.00000000000E+00 0.  1.
<mgrwt>
<rscale>  0 0.22646004E+04</rscale>
<asrwt>0</asrwt>
<pdfrwt beam="1">  1        1 0.33558114E+00 0.22646004E+04</pdfrwt>
<pdfrwt beam="2">  1       -1 0.90427168E-01 0.22646004E+04</pdfrwt>
<totfact> 0.24310016E+00</totfact>
</mgrwt>
</event>
<event>
12    1  0.4247462E-008  0.1061950E+04  0.7818608E-02  0.9243093E-01
         -1   -1    0    0    0  501 -0.00000000000E+00  0.00000000000E+00  0.94488880221E+03  0.94488880221E+03  0.00000000000E+00 0. -1.
          1   -1    0    0  501    0  0.00000000000E+00 -0.00000000000E+00 -0.29837830194E+03  0.29837830194E+03  0.00000000000E+00 0.  1.
         23    2    1    2    0    0 -0.79087276261E+02 -0.20071199610E+02 -0.15584885172E+02  0.12365592876E+03  0.91598306491E+02 0.  0.
        254    2    1    2    0    0  0.79087276261E+02  0.20071199610E+02  0.66209538545E+03  0.11196111754E+04  0.89916696687E+03 0.  0.
         23    2    4    4    0    0 -0.24715657841E+03 -0.32455655367E+03  0.34659190569E+03  0.54220199852E+03  0.86219065935E+02 0.  0.
         23    2    4    4    0    0  0.32624385467E+03  0.34462775328E+03  0.31550347975E+03  0.57740917687E+03  0.93035319937E+02 0.  0.
         13    1    3    3    0    0 -0.17729487692E+02 -0.47333345207E+02 -0.24064227458E+02  0.55980955203E+02  0.00000000000E+00 0. -1.
        -13    1    3    3    0    0 -0.61357788569E+02  0.27262145597E+02  0.84793422854E+01  0.67674973559E+02  0.00000000000E+00 0.  1.
          1    1    5    5  502    0 -0.43550152302E+02 -0.23531242850E+02  0.68883466138E+02  0.84824920057E+02  0.00000000000E+00 0. -1.
          3    1    6    6  503    0  0.75321323241E+02  0.57148097582E+02  0.24913384114E+02  0.97774656737E+02  0.00000000000E+00 0. -1.
         -1    1    5    5    0  502 -0.20360642611E+03 -0.30102531082E+03  0.27770843955E+03  0.45737707846E+03  0.00000000000E+00 0.  1.
         -3    1    6    6    0  503  0.25092253143E+03  0.28747965570E+03  0.29059009564E+03  0.47963452013E+03  0.00000000000E+00 0.  1.
<mgrwt>
<rscale>  0 0.10619497E+04</rscale>
<asrwt>0</asrwt>
<pdfrwt beam="1">  1        1 0.45904355E-01 0.10619497E+04</pdfrwt>
<pdfrwt beam="2">  1       -1 0.14536751E+00 0.10619497E+04</pdfrwt>
<totfact> 0.33479349E+01</totfact>
</mgrwt>
</event>
<event>
12    1  0.4247462E-008  0.3202438E+04  0.7818608E-02  0.8188174E-01
         -2   -1    0    0    0  501 -0.00000000000E+00  0.00000000000E+00  0.22707670347E+04  0.22707670347E+04  0.00000000000E+00 0. -1.
          2   -1    0    0  501    0  0.00000000000E+00 -0.00000000000E+00 -0.11290909542E+04  0.11290909542E+04  0.00000000000E+00 0.  1.
         23    2    1    2    0    0 -0.46230926117E+03 -0.12991056673E+04 -0.22541329155E+02  0.13821303266E+04  0.91491751337E+02 0.  0.
        254    2    1    2    0    0  0.46230926117E+03  0.12991056673E+04  0.11642174096E+04  0.20177276623E+04  0.90245074922E+03 0.  0.
         23    2    4    4    0    0  0.48030695582E+03  0.24070095065E+03  0.19483185061E+03  0.57953402446E+03  0.96273132540E+02 0.  0.
         23    2    4    4    0    0 -0.17997694653E+02  0.10584047166E+04  0.96938555899E+03  0.14381936378E+04  0.90266919749E+02 0.  0.
         11    1    3    3    0    0 -0.20921069816E+03 -0.54102663820E+03 -0.51838344295E+02  0.58237973299E+03  0.00000000000E+00 0.  1.
        -11    1    3    3    0    0 -0.25309856300E+03 -0.75807902906E+03  0.29297015140E+02  0.79975059362E+03  0.00000000000E+00 0. -1.
          3    1    6    6  502    0 -0.30025656798E+02  0.89557528065E+03  0.77864755443E+03  0.11871177858E+04  0.00000000000E+00 0. -1.
          3    1    5    5  503    0  0.38056580026E+03  0.16707737415E+03  0.11205092241E+03  0.43046554623E+03  0.00000000000E+00 0. -1.
         -3    1    5    5    0  503  0.99741155558E+02  0.73623576496E+02  0.82780928200E+02  0.14906847823E+03  0.00000000000E+00 0.  1.
         -3    1    6    6    0  502  0.12027962145E+02  0.16282943596E+03  0.19073800456E+03  0.25107585203E+03  0.00000000000E+00 0.  1.
<mgrwt>
<rscale>  0 0.32024381E+04</rscale>
<asrwt>0</asrwt>
<pdfrwt beam="1">  1        2 0.17370630E+00 0.32024381E+04</pdfrwt>
<pdfrwt beam="2">  1       -2 0.34934877E+00 0.32024381E+04</pdfrwt>
<totfact> 0.27634076E-01</totfact>
</mgrwt>
</event>
<event>
12    1  0.4247462E-008  0.1315662E+04  0.7818608E-02  0.9017237E-01
          1   -1    0    0  501    0  0.00000000000E+00  0.00000000000E+00  0.18239018947E+04  0.18239018947E+04  0.00000000000E+00 0. -1.
         -1   -1    0    0    0  501 -0.00000000000E+00 -0.00000000000E+00 -0.23726138115E+03  0.23726138115E+03  0.00000000000E+00 0.  1.
         23    2    1    2    0    0 -0.44355087193E+02  0.11303347746E+03  0.93436748978E+03  0.94672934350E+03  0.92249136073E+02 0.  0.
        254    2    1    2    0    0  0.44355087193E+02 -0.11303347746E+03  0.65227302378E+03  0.11144339324E+04  0.89540993474E+03 0.  0.
         23    2    4    4    0    0 -0.12916652457E+03 -0.36020244336E+03  0.69183444128E+03  0.79614034727E+03  0.93673727036E+02 0.  0.
         23    2    4    4    0    0  0.17352161176E+03  0.24716896590E+03 -0.39561417501E+02  0.31829358508E+03  0.92430801648E+02 0.  0.
         11    1    3    3    0    0  0.64242317415E+01  0.14141426779E+02  0.18570466567E+02  0.24209769377E+02  0.00000000000E+00 0.  1.
        -11    1    3    3    0    0 -0.50779318935E+02  0.98892050684E+02  0.91579702321E+03  0.92251957413E+03  0.00000000000E+00 0. -1.
          2    1    5    5  502    0 -0.46041181078E+01 -0.71738630272E+02  0.74991445466E+02  0.10388140291E+03  0.00000000000E+00 0. -1.
          3    1    6    6  503    0  0.21279658099E+02  0.45548725250E+02  0.26950481753E+02  0.57042428835E+02  0.00000000000E+00 0. -1.
         -2    1    5    5    0  502 -0.12456240646E+03 -0.28846381309E+03  0.61684299582E+03  0.69225894437E+03  0.00000000000E+00 0.  1.
         -3    1    6    6    0  503  0.15224195366E+03  0.20162024065E+03 -0.66511899254E+02  0.26125115624E+03  0.00000000000E+00 0.  1.
<mgrwt>
<rscale>  0 0.13156618E+04</rscale>
<asrwt>0</asrwt>
<pdfrwt beam="1">  1        1 0.28060028E+00 0.13156618E+04</pdfrwt>
<pdfrwt beam="2">  1       -1 0.36501752E-01 0.13156618E+04</pdfrwt>
<totfact> 0.27722643E+01</totfact>
</mgrwt>
</event>
<event>
12    1  0.4247462E-008  0.1422662E+04  0.7818608E-02  0.8937576E-01
         -1   -1    0    0    0  501 -0.00000000000E+00  0.00000000000E+00  0.30522936077E+03  0.30522936077E+03  0.00000000000E+00 0.  1.
          1   -1    0    0  501    0  0.00000000000E+00 -0.00000000000E+00 -0.16577433915E+04  0.16577433915E+04  0.00000000000E+00 0. -1.
         23    2    1    2    0    0  0.21691167890E+03  0.58146073482E+02 -0.91263112472E+03  0.94431249497E+03  0.91645381995E+02 0.  0.
        254    2    1    2    0    0 -0.21691167890E+03 -0.58146073482E+02 -0.43988290601E+03  0.10186602573E+04  0.89092093169E+03 0.  0.
         23    2    4    4    0    0 -0.26951310691E+03  0.19111003385E+03  0.14499364466E+03  0.37395924732E+03  0.98295482215E+02 0.  0.
         23    2    4    4    0    0  0.52601428016E+02 -0.24925610733E+03 -0.58487655067E+03  0.64470101000E+03  0.93076825747E+02 0.  0.
         11    1    3    3    0    0  0.19060338973E+03  0.61060412837E+02 -0.64409241400E+03  0.67447243380E+03  0.00000000000E+00 0. -1.
        -11    1    3    3    0    0  0.26308289172E+02 -0.29143393553E+01 -0.26853871072E+03  0.26984006116E+03  0.00000000000E+00 0.  1.
          2    1    5    5  502    0 -0.17519115942E+03  0.14863783294E+03  0.14276096353E+03  0.27049184910E+03  0.00000000000E+00 0. -1.
          1    1    6    6  503    0  0.18927954843E+02 -0.22913637003E+03 -0.46818233392E+03  0.52159030027E+03  0.00000000000E+00 0. -1.
         -2    1    5    5    0  502 -0.94321947490E+02  0.42472200908E+02  0.22326811319E+01  0.10346739822E+03  0.00000000000E+00 0.  1.
         -1    1    6    6    0  503  0.33673473173E+02 -0.20119737301E+02 -0.11669421675E+03  0.12311070972E+03  0.00000000000E+00 0.  1.
<mgrwt>
<rscale>  0 0.14226622E+04</rscale>
<asrwt>0</asrwt>
<pdfrwt beam="1">  1        1 0.25503745E+00 0.14226622E+04</pdfrwt>
<pdfrwt beam="2">  1       -1 0.46958363E-01 0.14226622E+04</pdfrwt>
<totfact> 0.22416270E+01</totfact>
</mgrwt>
</event>
<event>
12    1  0.4247462E-008  0.1252215E+04  0.7818608E-02  0.9068342E-01
         -1   -1    0    0    0  501 -0.00000000000E+00  0.00000000000E+00  0.72048046446E+03  0.72048046446E+03  0.00000000000E+00 0. -1.
          1   -1    0    0  501    0  0.00000000000E+00 -0.00000000000E+00 -0.54409630611E+03  0.54409630611E+03  0.00000000000E+00 0.  1.
         23    2    1    2    0    0 -0.83354500050E+02 -0.62874924695E+02 -0.23407410877E+03  0.26871326587E+03  0.80714943007E+02 0.  0.
        254    2    1    2    0    0  0.83354500050E+02  0.62874924695E+02  0.41045826712E+03  0.99586350470E+03  0.90131398642E+03 0.  0.
         23    2    4    4    0    0  0.30364471368E+03  0.17921144712E+03  0.57719812449E+03  0.68238995554E+03  0.90451763847E+02 0.  0.
         23    2    4    4    0    0 -0.22029021363E+03 -0.11633652243E+03 -0.16673985737E+03  0.31347354916E+03  0.91659812957E+02 0.  0.
         13    1    3    3    0    0 -0.17523803476E+02 -0.41626939294E+02 -0.32619004913E+02  0.55712523232E+02  0.00000000000E+00 0. -1.
        -13    1    3    3    0    0 -0.65830696573E+02 -0.21247985401E+02 -0.20145510386E+03  0.21300074264E+03  0.00000000000E+00 0.  1.
          2    1    5    5  502    0  0.15102044505E+03  0.13677010544E+03  0.35835450603E+03  0.41222710798E+03  0.00000000000E+00 0. -1.
          1    1    6    6  503    0 -0.11761982084E+03 -0.10184193166E+03 -0.13225815736E+03  0.20420191353E+03  0.00000000000E+00 0. -1.
         -2    1    5    5    0  502  0.15262426864E+03  0.42441341684E+02  0.21884361846E+03  0.27016284756E+03  0.00000000000E+00 0.  1.
         -1    1    6    6    0  503 -0.10267039279E+03 -0.14494590766E+02 -0.34481700009E+02  0.10927163563E+03  0.00000000000E+00 0.  1.
<mgrwt>
<rscale>  0 0.12522153E+04</rscale>
<asrwt>0</asrwt>
<pdfrwt beam="1">  1        1 0.83707123E-01 0.12522153E+04</pdfrwt>
<pdfrwt beam="2">  1       -1 0.11084315E+00 0.12522153E+04</pdfrwt>
<totfact> 0.29120914E+01</totfact>
</mgrwt>
</event>
<event>
12    1  0.5686158E-008  0.2121158E+04  0.7818608E-02  0.8551980E-01
         -1   -1    0    0    0  501 -0.00000000000E+00  0.00000000000E+00  0.57347877498E+03  0.57347877498E+03  0.00000000000E+00 0.  1.
          1   -1    0    0  501    0  0.00000000000E+00 -0.00000000000E+00 -0.19614112644E+04  0.19614112644E+04  0.00000000000E+00 0. -1.
         23    2    1    2    0    0 -0.54774426724E+03  0.66101929840E+03 -0.48026587133E+03  0.98794513085E+03  0.91705939010E+02 0.  0.
        254    2    1    2    0    0  0.54774426724E+03 -0.66101929840E+03 -0.90766661805E+03  0.15469449085E+04  0.91225520836E+03 0.  0.
         23    2    4    4    0    0  0.39137764211E+03 -0.61699227932E+03 -0.10698356164E+04  0.12987245479E+04  0.91001505084E+02 0.  0.
         23    2    4    4    0    0  0.15636662513E+03 -0.44027019084E+02  0.16216899831E+03  0.24822036053E+03  0.94475729736E+02 0.  0.
         11    1    3    3    0    0 -0.38448630699E+03  0.44295118001E+03 -0.37345148140E+03  0.69534270478E+03  0.00000000000E+00 0.  1.
        -11    1    3    3    0    0 -0.16325796025E+03  0.21806811839E+03 -0.10681438993E+03  0.29260242607E+03  0.00000000000E+00 0. -1.
          4    1    5    5  502    0  0.35416942642E+03 -0.59411909611E+03 -0.10207265162E+04  0.12330028807E+04  0.00000000000E+00 0. -1.
          1    1    6    6  503    0  0.16729445013E+03 -0.30325997207E+02  0.15133468673E+03  0.22761653402E+03  0.00000000000E+00 0. -1.
         -4    1    5    5    0  502  0.37208215697E+02 -0.22873183208E+02 -0.49109100123E+02  0.65721667206E+02  0.00000000000E+00 0.  1.
         -1    1    6    6    0  503 -0.10927825002E+02 -0.13701021877E+02  0.10834311574E+02  0.20603826515E+02  0.00000000000E+00 0.  1.
<mgrwt>
<rscale>  0 0.21211579E+04</rscale>
<asrwt>0</asrwt>
<pdfrwt beam="1">  1        1 0.30175558E+00 0.21211579E+04</pdfrwt>
<pdfrwt beam="2">  1       -1 0.88227505E-01 0.21211579E+04</pdfrwt>
<totfact> 0.36666404E+00</totfact>
</mgrwt>
</event>
<event>
12    1  0.4247462E-008  0.1811093E+04  0.7818608E-02  0.8700422E-01
         -1   -1    0    0    0  501 -0.00000000000E+00  0.00000000000E+00  0.22669847656E+04  0.22669847656E+04  0.00000000000E+00 0.  1.
          1   -1    0    0  501    0  0.00000000000E+00 -0.00000000000E+00 -0.36172047186E+03  0.36172047186E+03  0.00000000000E+00 0. -1.
         23    2    1    2    0    0 -0.24317815968E+03 -0.29975316449E+03 -0.11266250740E+03  0.41206802580E+03  0.90109046962E+02 0.  0.
        254    2    1    2    0    0  0.24317815968E+03  0.29975316449E+03  0.20179268012E+04  0.22166372117E+04  0.83214444442E+03 0.  0.
         23    2    4    4    0    0  0.22162966704E+03  0.44929741540E+03  0.19653162701E+04  0.20301739662E+04  0.90279647219E+02 0.  0.
         23    2    4    4    0    0  0.21548492640E+02 -0.14954425091E+03  0.52610531064E+02  0.18646324548E+03  0.95775014611E+02 0.  0.
         11    1    3    3    0    0 -0.18408841416E+03 -0.27452599779E+03 -0.10765193383E+03  0.34762336882E+03  0.00000000000E+00 0. -1.
        -11    1    3    3    0    0 -0.59089745527E+02 -0.25227166696E+02 -0.50105735684E+01  0.64444656981E+02  0.00000000000E+00 0.  1.
          2    1    6    6  502    0 -0.26804624639E+02 -0.15745871822E+02  0.28486072123E+02  0.42164875032E+02  0.00000000000E+00 0.  1.
          2    1    5    5  503    0  0.20369438749E+03  0.41117147503E+03  0.18776907789E+04  0.19329449156E+04  0.00000000000E+00 0. -1.
         -2    1    5    5    0  503  0.17935279552E+02  0.38125940371E+02  0.87625491178E+02  0.97229050628E+02  0.00000000000E+00 0.  1.
         -2    1    6    6    0  502  0.48353117278E+02 -0.13379837908E+03  0.24124458941E+02  0.14429837045E+03  0.00000000000E+00 0. -1.
<mgrwt>
<rscale>  0 0.18110934E+04</rscale>
<asrwt>0</asrwt>
<pdfrwt beam="1">  1        1 0.55649305E-01 0.18110934E+04</pdfrwt>
<pdfrwt beam="2">  1       -1 0.34876688E+00 0.18110934E+04</pdfrwt>
<totfact> 0.10259563E+00</totfact>
</mgrwt>
</event>
<event>
12    1  0.4247462E-008  0.1187739E+04  0.7818608E-02  0.9123657E-01
          2   -1    0    0  501    0  0.00000000000E+00  0.00000000000E+00  0.17540140803E+03  0.17540140803E+03  0.00000000000E+00 0.  1.
         -2   -1    0    0    0  501 -0.00000000000E+00 -0.00000000000E+00 -0.20107061518E+04  0.20107061518E+04  0.00000000000E+00 0. -1.
         23    2    1    2    0    0  0.20908404335E+03  0.40206003237E+02 -0.16843304439E+03  0.28600623109E+03  0.89984520319E+02 0.  0.
        254    2    1    2    0    0 -0.20908404335E+03 -0.40206003237E+02 -0.16668716994E+04  0.19001013287E+04  0.88689973357E+03 0.  0.
         23    2    4    4    0    0 -0.35578108595E+03  0.28814468947E+03 -0.12878115974E+04  0.13697948676E+04  0.90949028045E+02 0.  0.
         23    2    4    4    0    0  0.14669704260E+03 -0.32835069271E+03 -0.37906010198E+03  0.53030646115E+03  0.90576940275E+02 0.  0.
         11    1    3    3    0    0  0.18267164690E+02 -0.50412178529E+01 -0.57836537361E+02  0.60861878357E+02  0.00000000000E+00 0.  1.
        -11    1    3    3    0    0  0.19081687866E+03  0.45247221090E+02 -0.11059650703E+03  0.22514435273E+03  0.00000000000E+00 0. -1.
          4    1    5    5  502    0 -0.15071854151E+03  0.75437767689E+02 -0.54163105901E+03  0.56724874582E+03  0.00000000000E+00 0. -1.
          1    1    6    6  503    0  0.71678949500E+02 -0.64150223669E+02 -0.10098319362E+03  0.13946586820E+03  0.00000000000E+00 0. -1.
         -4    1    5    5    0  502 -0.20506254444E+03  0.21270692178E+03 -0.74618053839E+03  0.80254612178E+03  0.00000000000E+00 0.  1.
         -1    1    6    6    0  503  0.75018093097E+02 -0.26420046904E+03 -0.27807690836E+03  0.39084059295E+03  0.00000000000E+00 0.  1.
<mgrwt>
<rscale>  0 0.11877385E+04</rscale>
<asrwt>0</asrwt>
<pdfrwt beam="1">  1        2 0.26984832E-01 0.11877385E+04</pdfrwt>
<pdfrwt beam="2">  1       -2 0.30933941E+00 0.11877385E+04</pdfrwt>
<totfact> 0.55820532E+00</totfact>
</mgrwt>
</event>
<event>
12    1  0.4247462E-008  0.1912015E+04  0.7818608E-02  0.8648899E-01
          1   -1    0    0  501    0  0.00000000000E+00  0.00000000000E+00  0.10321580149E+04  0.10321580149E+04  0.00000000000E+00 0. -1.
         -1   -1    0    0    0  501 -0.00000000000E+00 -0.00000000000E+00 -0.88547482523E+03  0.88547482523E+03  0.00000000000E+00 0.  1.
         23    2    1    2    0    0 -0.52842026848E+03  0.52088181505E+01 -0.45968118202E+03  0.70608682617E+03  0.89424297936E+02 0.  0.
        254    2    1    2    0    0  0.52842026848E+03 -0.52088181505E+01  0.60636437168E+03  0.12115460139E+04  0.90604132397E+03 0.  0.
         23    2    4    4    0    0  0.10152810017E+03  0.84381242140E+02 -0.21829574527E+03  0.27424579627E+03  0.10064579087E+03 0.  0.
         23    2    4    4    0    0  0.42689216831E+03 -0.89590060291E+02  0.82466011694E+03  0.93730021768E+03  0.90576417022E+02 0.  0.
         11    1    3    3    0    0 -0.34166069357E+03 -0.21223147953E+02 -0.34131220076E+03  0.48340094118E+03  0.00000000000E+00 0.  1.
        -11    1    3    3    0    0 -0.18675957490E+03  0.26431966103E+02 -0.11836898126E+03  0.22268588499E+03  0.00000000000E+00 0. -1.
          1    1    5    5  502    0  0.10941722265E+03  0.72013688999E+02 -0.22318331795E+03  0.25878348755E+03  0.00000000000E+00 0. -1.
          1    1    6    6  503    0  0.35831611470E+03 -0.87705952049E+02  0.61996030964E+03  0.72141081057E+03  0.00000000000E+00 0. -1.
         -1    1    5    5    0  502 -0.78891224827E+01  0.12367553141E+02  0.48875726815E+01  0.15462308720E+02  0.00000000000E+00 0.  1.
         -1    1    6    6    0  503  0.68576053610E+02 -0.18841082423E+01  0.20469980731E+03  0.21588940711E+03  0.00000000000E+00 0.  1.
<mgrwt>
<rscale>  0 0.19120146E+04</rscale>
<asrwt>0</asrwt>
<pdfrwt beam="1">  1        1 0.15879354E+00 0.19120146E+04</pdfrwt>
<pdfrwt beam="2">  1       -1 0.13622690E+00 0.19120146E+04</pdfrwt>
<totfact> 0.60091834E+00</totfact>
</mgrwt>
</event>
<event>
12    1  0.4247462E-008  0.1900464E+04  0.7818608E-02  0.8654625E-01
          1   -1    0    0  501    0  0.00000000000E+00  0.00000000000E+00  0.59478337431E+03  0.59478337431E+03  0.00000000000E+00 0. -1.
         -1   -1    0    0    0  501 -0.00000000000E+00 -0.00000000000E+00 -0.15181003552E+04  0.15181003552E+04  0.00000000000E+00 0.  1.
         23    2    1    2    0    0  0.16497197495E+03 -0.51018226160E+03  0.19522815098E+03  0.57913383285E+03  0.98895261974E+02 0.  0.
        254    2    1    2    0    0 -0.16497197495E+03  0.51018226160E+03 -0.11185451319E+04  0.15337498967E+04  0.90207751378E+03 0.  0.
         23    2    4    4    0    0  0.25568409495E+03 -0.11052543315E+03 -0.33645527517E+03  0.44652217741E+03  0.92680499282E+02 0.  0.
         23    2    4    4    0    0 -0.42065606990E+03  0.62070769476E+03 -0.78208985671E+03  0.10872277192E+04  0.90388041519E+02 0.  0.
         11    1    3    3    0    0  0.12622006784E+03 -0.34212291410E+03  0.84968183495E+02  0.37443181767E+03  0.00000000000E+00 0.  1.
        -11    1    3    3    0    0  0.38751907117E+02 -0.16805934750E+03  0.11025996749E+03  0.20470201518E+03  0.00000000000E+00 0. -1.
          1    1    5    5  502    0  0.86886378776E+02 -0.76420766382E+01 -0.15667347859E+03  0.17931598659E+03  0.00000000000E+00 0. -1.
          3    1    6    6  503    0 -0.19904363376E+03  0.26284138419E+03 -0.28452097006E+03  0.43549528561E+03  0.00000000000E+00 0. -1.
         -1    1    5    5    0  502  0.16879771617E+03 -0.10288335651E+03 -0.17978179657E+03  0.26720619082E+03  0.00000000000E+00 0.  1.
         -3    1    6    6    0  503 -0.22161243614E+03  0.35786631057E+03 -0.49756888665E+03  0.65173243364E+03  0.00000000000E+00 0.  1.
<mgrwt>
<rscale>  0 0.19004640E+04</rscale>
<asrwt>0</asrwt>
<pdfrwt beam="1">  1        1 0.91505136E-01 0.19004640E+04</pdfrwt>
<pdfrwt beam="2">  1       -1 0.23355390E+00 0.19004640E+04</pdfrwt>
<totfact> 0.29010477E+00</totfact>
</mgrwt>
</event>
<event>
12    1  0.4247462E-008  0.1645055E+04  0.7818608E-02  0.8793337E-01
         -2   -1    0    0    0  501 -0.00000000000E+00  0.00000000000E+00  0.57609682928E+03  0.57609682928E+03  0.00000000000E+00 0.  1.
          2   -1    0    0  501    0  0.00000000000E+00 -0.00000000000E+00 -0.11743713474E+04  0.11743713474E+04  0.00000000000E+00 0. -1.
         23    2    1    2    0    0 -0.15926104618E+03  0.42138700961E+03  0.15111472770E+03  0.48400466572E+03  0.92161612492E+02 0.  0.
        254    2    1    2    0    0  0.15926104618E+03 -0.42138700961E+03 -0.74938924584E+03  0.12664635110E+04  0.91619566149E+03 0.  0.
         23    2    4    4    0    0  0.36204591799E+03  0.72603820752E+02 -0.53887682987E+02  0.38434210905E+03  0.92013112603E+02 0.  0.
         23    2    4    4    0    0 -0.20278487181E+03 -0.49399083036E+03 -0.69550156285E+03  0.88212140192E+03  0.96265773156E+02 0.  0.
         11    1    3    3    0    0 -0.53571474488E+02  0.91271486450E+02  0.73353267844E+02  0.12876757752E+03  0.00000000000E+00 0. -1.
        -11    1    3    3    0    0 -0.10568957169E+03  0.33011552316E+03  0.77761459856E+02  0.35523708820E+03  0.00000000000E+00 0.  1.
          1    1    5    5  502    0  0.19715523986E+02  0.19283394303E+02 -0.24067311100E+02  0.36603096119E+02  0.00000000000E+00 0. -1.
          1    1    6    6  503    0 -0.61038028149E+02 -0.15631462511E+03 -0.14991977222E+03  0.22502408983E+03  0.00000000000E+00 0. -1.
         -1    1    5    5    0  502  0.34233039400E+03  0.53320426449E+02 -0.29820371887E+02  0.34773901293E+03  0.00000000000E+00 0.  1.
         -1    1    6    6    0  503 -0.14174684366E+03 -0.33767620525E+03 -0.54558179064E+03  0.65709731209E+03  0.00000000000E+00 0.  1.
<mgrwt>
<rscale>  0 0.16450551E+04</rscale>
<asrwt>0</asrwt>
<pdfrwt beam="1">  1        2 0.18067251E+00 0.16450551E+04</pdfrwt>
<pdfrwt beam="2">  1       -2 0.88630282E-01 0.16450551E+04</pdfrwt>
<totfact> 0.20535546E+01</totfact>
</mgrwt>
</event>
<event>
12    1  0.4247462E-008  0.1556436E+04  0.7818608E-02  0.8847767E-01
         -3   -1    0    0    0  501 -0.00000000000E+00  0.00000000000E+00  0.17151077563E+04  0.17151077563E+04  0.00000000000E+00 0.  1.
          3   -1    0    0  501    0  0.00000000000E+00 -0.00000000000E+00 -0.35311093686E+03  0.35311093686E+03  0.00000000000E+00 0. -1.
         23    2    1    2    0    0  0.21410061087E+03 -0.38186007600E+03  0.79740575066E+03  0.91790998184E+03  0.12266464185E+03 0.  0.
        254    2    1    2    0    0 -0.21410061087E+03  0.38186007600E+03  0.56459106879E+03  0.11503087113E+04  0.90154914851E+03 0.  0.
         23    2    4    4    0    0  0.17278251064E+02  0.34612239101E+03 -0.15387156611E+03  0.38932042571E+03  0.88287527419E+02 0.  0.
         23    2    4    4    0    0 -0.23137886194E+03  0.35737684992E+02  0.71846263491E+03  0.76098828562E+03  0.90006962037E+02 0.  0.
         11    1    3    3    0    0 -0.47435570290E+01 -0.60708648234E+02  0.66908602616E+02  0.90469897799E+02  0.00000000000E+00 0. -1.
        -11    1    3    3    0    0  0.21884416790E+03 -0.32115142777E+03  0.73049714804E+03  0.82744008404E+03  0.00000000000E+00 0.  1.
          1    1    5    5  502    0 -0.38067699154E+01 -0.27344604984E+01  0.36770955076E+01  0.59573318506E+01  0.00000000000E+00 0. -1.
          3    1    6    6  503    0 -0.15260975622E+03  0.50735269778E+02  0.57003190605E+03  0.59228386708E+03  0.00000000000E+00 0.  1.
         -1    1    5    5    0  502  0.21085020979E+02  0.34885685151E+03 -0.15754866162E+03  0.38336309386E+03  0.00000000000E+00 0.  1.
         -3    1    6    6    0  503 -0.78769105720E+02 -0.14997584786E+02  0.14843072886E+03  0.16870441854E+03  0.00000000000E+00 0. -1.
<mgrwt>
<rscale>  0 0.15564361E+04</rscale>
<asrwt>0</asrwt>
<pdfrwt beam="1">  1        3 0.54324760E-01 0.15564361E+04</pdfrwt>
<pdfrwt beam="2">  1       -3 0.26386273E+00 0.15564361E+04</pdfrwt>
<totfact> 0.51364440E-01</totfact>
</mgrwt>
</event>
<event>
12    1  0.4247462E-008  0.1506644E+04  0.7818608E-02  0.8880047E-01
          2   -1    0    0  501    0  0.00000000000E+00  0.00000000000E+00  0.24061676220E+04  0.24061676220E+04  0.00000000000E+00 0. -1.
         -2   -1    0    0    0  501 -0.00000000000E+00 -0.00000000000E+00 -0.23584981516E+03  0.23584981516E+03  0.00000000000E+00 0.  1.
         23    2    1    2    0    0  0.94071759914E+02 -0.10388704941E+02 -0.11657685211E+03  0.17398757379E+03  0.87886814607E+02 0.  0.
        254    2    1    2    0    0 -0.94071759914E+02  0.10388704941E+02  0.22868946590E+04  0.24680298634E+04  0.92321547010E+03 0.  0.
         23    2    4    4    0    0 -0.19802412196E+03 -0.19256377216E+03  0.16928423775E+03  0.33636792177E+03  0.90508930044E+02 0.  0.
         23    2    4    4    0    0  0.10395236204E+03  0.20295247710E+03  0.21176104212E+04  0.21316619416E+04  0.87823321700E+02 0.  0.
         11    1    3    3    0    0 -0.90551177024E+01  0.18714190153E+02 -0.10835728857E+02  0.23444169628E+02  0.00000000000E+00 0. -1.
        -11    1    3    3    0    0  0.10312687762E+03 -0.29102895094E+02 -0.10574112325E+03  0.15054340416E+03  0.00000000000E+00 0.  1.
          1    1    5    5  502    0 -0.30940275097E+02  0.52530222634E+01  0.23552450914E+02  0.39237900174E+02  0.00000000000E+00 0. -1.
          1    1    6    6  503    0  0.74111852819E+00  0.74595335652E+02  0.87677757037E+03  0.87994540812E+03  0.00000000000E+00 0. -1.
         -1    1    5    5    0  502 -0.16708384686E+03 -0.19781679442E+03  0.14573178683E+03  0.29713002159E+03  0.00000000000E+00 0.  1.
         -1    1    6    6    0  503  0.10321124351E+03  0.12835714145E+03  0.12408328509E+04  0.12517165335E+04  0.00000000000E+00 0.  1.
<mgrwt>
<rscale>  0 0.15066442E+04</rscale>
<asrwt>0</asrwt>
<pdfrwt beam="1">  1        2 0.37017962E+00 0.15066442E+04</pdfrwt>
<pdfrwt beam="2">  1       -2 0.36284589E-01 0.15066442E+04</pdfrwt>
<totfact> 0.27278641E+01</totfact>
</mgrwt>
</event>
<event>
12    1  0.4247462E-008  0.1425204E+04  0.7818608E-02  0.8935774E-01
          2   -1    0    0  501    0  0.00000000000E+00  0.00000000000E+00  0.38148206223E+03  0.38148206223E+03  0.00000000000E+00 0. -1.
         -2   -1    0    0    0  501 -0.00000000000E+00 -0.00000000000E+00 -0.13311276190E+04  0.13311276190E+04  0.00000000000E+00 0.  1.
         23    2    1    2    0    0  0.21791233171E+03 -0.33716444372E+03 -0.44516664579E+03  0.60689338564E+03  0.94765988576E+02 0.  0.
        254    2    1    2    0    0 -0.21791233171E+03  0.33716444372E+03 -0.50447891094E+03  0.11057162955E+04  0.89830056675E+03 0.  0.
         23    2    4    4    0    0 -0.46235366986E+03 -0.64547453446E+02 -0.37889431141E+03  0.60852602846E+03  0.93838895511E+02 0.  0.
         23    2    4    4    0    0  0.24444133815E+03  0.40171189716E+03 -0.12558459954E+03  0.49719026709E+03  0.10150198976E+03 0.  0.
         13    1    3    3    0    0  0.82113137206E+02 -0.11508203202E+03 -0.22614623600E+03  0.26669938405E+03  0.00000000000E+00 0.  1.
        -13    1    3    3    0    0  0.13579919451E+03 -0.22208241170E+03 -0.21902040979E+03  0.34019400159E+03  0.00000000000E+00 0. -1.
          4    1    5    5  502    0 -0.37947521522E+03 -0.49954575511E+02 -0.25938475389E+03  0.46236062671E+03  0.00000000000E+00 0. -1.
          4    1    6    6  503    0  0.24630237678E+03  0.37741802326E+03 -0.13591590529E+03  0.47072535347E+03  0.00000000000E+00 0. -1.
         -4    1    5    5    0  502 -0.82878454647E+02 -0.14592877935E+02 -0.11950955752E+03  0.14616540175E+03  0.00000000000E+00 0.  1.
         -4    1    6    6    0  503 -0.18610386258E+01  0.24293873904E+02  0.10331305760E+02  0.26464913617E+02  0.00000000000E+00 0.  1.
<mgrwt>
<rscale>  0 0.14252036E+04</rscale>
<asrwt>0</asrwt>
<pdfrwt beam="1">  1        2 0.58689549E-01 0.14252036E+04</pdfrwt>
<pdfrwt beam="2">  1       -2 0.20478886E+00 0.14252036E+04</pdfrwt>
<totfact> 0.10076514E+01</totfact>
</mgrwt>
</event>
<event>
12    1  0.4247462E-008  0.1342069E+04  0.7818608E-02  0.8996854E-01
         -2   -1    0    0    0  501 -0.00000000000E+00  0.00000000000E+00  0.28751753445E+03  0.28751753445E+03  0.00000000000E+00 0.  1.
          2   -1    0    0  501    0  0.00000000000E+00 -0.00000000000E+00 -0.15661212977E+04  0.15661212977E+04  0.00000000000E+00 0. -1.
         23    2    1    2    0    0 -0.33956943730E+02  0.76127274129E+02  0.14233520184E+03  0.18869997498E+03  0.91651159179E+02 0.  0.
        254    2    1    2    0    0  0.33956943730E+02 -0.76127274129E+02 -0.14209389651E+04  0.16649388572E+04  0.86371605272E+03 0.  0.
         23    2    4    4    0    0 -0.29272207678E+03  0.22750790511E+03 -0.87474379832E+03  0.95448334465E+03  0.91737023066E+02 0.  0.
         23    2    4    4    0    0  0.32667902051E+03 -0.30363517924E+03 -0.54619516681E+03  0.71045551256E+03  0.86627770149E+02 0.  0.
         13    1    3    3    0    0 -0.40341519223E+02  0.86195269304E+02  0.14763713052E+03  0.17565245495E+03  0.00000000000E+00 0.  1.
        -13    1    3    3    0    0  0.63845754933E+01 -0.10067995175E+02 -0.53019286761E+01  0.13047520023E+02  0.00000000000E+00 0. -1.
          1    1    5    5  502    0 -0.11120790130E+03  0.71582054612E+02 -0.21207803290E+03  0.24993655173E+03  0.00000000000E+00 0. -1.
          1    1    6    6  503    0  0.11500006208E+03 -0.70332936716E+02 -0.21167254000E+03  0.25095218759E+03  0.00000000000E+00 0. -1.
         -1    1    5    5    0  502 -0.18151417548E+03  0.15592585050E+03 -0.66266576542E+03  0.70454679292E+03  0.00000000000E+00 0.  1.
         -1    1    6    6    0  503  0.21167895843E+03 -0.23330224252E+03 -0.33452262682E+03  0.45950332497E+03  0.00000000000E+00 0.  1.
<mgrwt>
<rscale>  0 0.13420691E+04</rscale>
<asrwt>0</asrwt>
<pdfrwt beam="1">  1        2 0.24094174E+00 0.13420691E+04</pdfrwt>
<pdfrwt beam="2">  1       -2 0.44233467E-01 0.13420691E+04</pdfrwt>
<totfact> 0.55172308E+01</totfact>
</mgrwt>
</event>
<event>
12    1  0.4247462E-008  0.1817985E+04  0.7818608E-02  0.8696794E-01
         -2   -1    0    0    0  501 -0.00000000000E+00  0.00000000000E+00  0.32265764647E+03  0.32265764647E+03  0.00000000000E+00 0.  1.
          2   -1    0    0  501    0  0.00000000000E+00 -0.00000000000E+00 -0.25608165563E+04  0.25608165563E+04  0.00000000000E+00 0. -1.
         23    2    1    2    0    0  0.35008685068E+03 -0.53186528515E+03 -0.45773388421E+03  0.78941069629E+03  0.90595000326E+02 0.  0.
        254    2    1    2    0    0 -0.35008685068E+03  0.53186528515E+03 -0.17804250257E+04  0.20940635065E+04  0.89985955171E+03 0.  0.
         23    2    4    4    0    0  0.51416153604E+02 -0.95252571970E+02 -0.10061940404E+04  0.10160066204E+04  0.90146172740E+02 0.  0.
         23    2    4    4    0    0 -0.40150300429E+03  0.62711785712E+03 -0.77423098530E+03  0.10780568862E+04  0.91058014593E+02 0.  0.
         13    1    3    3    0    0  0.91054818352E+02 -0.92356081303E+02 -0.12636010640E+03  0.18107319566E+03  0.00000000000E+00 0. -1.
        -13    1    3    3    0    0  0.25903203233E+03 -0.43950920385E+03 -0.33137377781E+03  0.60833750062E+03  0.00000000000E+00 0.  1.
          4    1    5    5  502    0 -0.89213363454E+01 -0.35354355144E+02 -0.11213670150E+03  0.11791590432E+03  0.00000000000E+00 0. -1.
          3    1    6    6  503    0 -0.10648811303E+03  0.12517698948E+03 -0.12860006230E+03  0.20867911476E+03  0.00000000000E+00 0. -1.
         -4    1    5    5    0  502  0.60337489949E+02 -0.59898216825E+02 -0.89405733886E+03  0.89809071604E+03  0.00000000000E+00 0.  1.
         -3    1    6    6    0  503 -0.29501489125E+03  0.50194086764E+03 -0.64563092300E+03  0.86937777140E+03  0.00000000000E+00 0.  1.
<mgrwt>
<rscale>  0 0.18179846E+04</rscale>
<asrwt>0</asrwt>
<pdfrwt beam="1">  1        2 0.39397177E+00 0.18179846E+04</pdfrwt>
<pdfrwt beam="2">  1       -2 0.49639639E-01 0.18179846E+04</pdfrwt>
<totfact> 0.11632105E+01</totfact>
</mgrwt>
</event>
<event>
12    1  0.4247462E-008  0.2029279E+04  0.7818608E-02  0.8593053E-01
          2   -1    0    0  501    0  0.00000000000E+00  0.00000000000E+00  0.19145241077E+04  0.19145241077E+04  0.00000000000E+00 0. -1.
         -2   -1    0    0    0  501 -0.00000000000E+00 -0.00000000000E+00 -0.53772824582E+03  0.53772824582E+03  0.00000000000E+00 0.  1.
         23    2    1    2    0    0 -0.23823450027E+03 -0.37014867897E+02 -0.38453049820E+03  0.46336594593E+03  0.93373005913E+02 0.  0.
        254    2    1    2    0    0  0.23823450027E+03  0.37014867897E+02  0.17613263600E+04  0.19888864076E+04  0.89178070065E+03 0.  0.
         23    2    4    4    0    0 -0.23278403412E+02 -0.67881222232E+02  0.16769799668E+04  0.16815222128E+04  0.10052561328E+03 0.  0.
         23    2    4    4    0    0  0.26151290368E+03  0.10489609013E+03  0.84346393263E+02  0.30736419472E+03  0.89253826927E+02 0.  0.
         11    1    3    3    0    0 -0.21157599115E+03 -0.37797522585E+02 -0.37963266950E+03  0.43624994727E+03  0.00000000000E+00 0.  1.
        -11    1    3    3    0    0 -0.26658509124E+02  0.78265468818E+00 -0.48978287017E+01  0.27115998656E+02  0.00000000000E+00 0. -1.
          2    1    5    5  502    0 -0.33341936378E+02 -0.18317257151E+02  0.19481189718E+03  0.19849151598E+03  0.00000000000E+00 0. -1.
          1    1    6    6  503    0  0.81885734527E+02 -0.97309707042E+01  0.25038200334E+02  0.86179329226E+02  0.00000000000E+00 0. -1.
         -2    1    5    5    0  502  0.10063532966E+02 -0.49563965082E+02  0.14821680696E+04  0.14830306969E+04  0.00000000000E+00 0.  1.
         -1    1    6    6    0  503  0.17962716916E+03  0.11462706083E+03  0.59308192930E+02  0.22118486549E+03  0.00000000000E+00 0.  1.
<mgrwt>
<rscale>  0 0.20292794E+04</rscale>
<asrwt>0</asrwt>
<pdfrwt beam="1">  1        2 0.29454217E+00 0.20292794E+04</pdfrwt>
<pdfrwt beam="2">  1       -2 0.82727423E-01 0.20292794E+04</pdfrwt>
<totfact> 0.88523443E+00</totfact>
</mgrwt>
</event>
<event>
12    1  0.4247462E-008  0.1341829E+04  0.7818608E-02  0.8997036E-01
          1   -1    0    0  501    0  0.00000000000E+00  0.00000000000E+00  0.36944225186E+03  0.36944225186E+03  0.00000000000E+00 0. -1.
         -1   -1    0    0    0  501 -0.00000000000E+00 -0.00000000000E+00 -0.12183947109E+04  0.12183947109E+04  0.00000000000E+00 0.  1.
         23    2    1    2    0    0  0.29600741367E+03 -0.23824848143E+03 -0.19932310497E+03  0.43837356397E+03  0.89771674599E+02 0.  0.
        254    2    1    2    0    0 -0.29600741367E+03  0.23824848143E+03 -0.64962935403E+03  0.11494633988E+04  0.86882971842E+03 0.  0.
         23    2    4    4    0    0 -0.30164558639E+03  0.31570653936E+03  0.41473764489E+02  0.44803295606E+03  0.91393532555E+02 0.  0.
         23    2    4    4    0    0  0.56381727177E+01 -0.77458057935E+02 -0.69110311852E+03  0.70143044269E+03  0.91376177262E+02 0.  0.
         13    1    3    3    0    0  0.47280705554E+01 -0.86939834210E+00 -0.22652095815E+02  0.23156596241E+02  0.00000000000E+00 0.  1.
        -13    1    3    3    0    0  0.29127934312E+03 -0.23737908309E+03 -0.17667100916E+03  0.41521696773E+03  0.00000000000E+00 0. -1.
          1    1    5    5  502    0 -0.25613603496E+02  0.68718119029E+02  0.24212011313E+02  0.77229903915E+02  0.00000000000E+00 0. -1.
          3    1    6    6  503    0 -0.13045415794E+02 -0.46870508106E+02 -0.12410689527E+03  0.13330247131E+03  0.00000000000E+00 0. -1.
         -1    1    5    5    0  502 -0.27603198290E+03  0.24698842033E+03  0.17261753176E+02  0.37080305215E+03  0.00000000000E+00 0.  1.
         -3    1    6    6    0  503  0.18683588512E+02 -0.30587549829E+02 -0.56699622325E+03  0.56812797138E+03  0.00000000000E+00 0.  1.
<mgrwt>
<rscale>  0 0.13418293E+04</rscale>
<asrwt>0</asrwt>
<pdfrwt beam="1">  1        1 0.56837271E-01 0.13418293E+04</pdfrwt>
<pdfrwt beam="2">  1       -1 0.18744533E+00 0.13418293E+04</pdfrwt>
<totfact> 0.12027501E+01</totfact>
</mgrwt>
</event>
<event>
12    1  0.4247462E-008  0.2815479E+04  0.7818608E-02  0.8298479E-01
         -2   -1    0    0    0  501 -0.00000000000E+00  0.00000000000E+00  0.11638466481E+04  0.11638466481E+04  0.00000000000E+00 0.  1.
          2   -1    0    0  501    0  0.00000000000E+00 -0.00000000000E+00 -0.17027416328E+04  0.17027416328E+04  0.00000000000E+00 0. -1.
         23    2    1    2    0    0  0.12657832767E+04  0.98182558442E+02 -0.22541368390E+03  0.12926145772E+04  0.90520704207E+02 0.  0.
        254    2    1    2    0    0 -0.12657832767E+04 -0.98182558442E+02 -0.31348130080E+03  0.15739737038E+04  0.87594267831E+03 0.  0.
         23    2    4    4    0    0 -0.66286550239E+03  0.27450657803E+03 -0.44154185426E+03  0.84803117309E+03  0.97227186726E+02 0.  0.
         23    2    4    4    0    0 -0.60291777436E+03 -0.37268913647E+03  0.12806055346E+03  0.72594253066E+03  0.90476612388E+02 0.  0.
         13    1    3    3    0    0  0.12796967514E+03 -0.13718783292E+02 -0.90658657142E+01  0.12902183029E+03  0.00000000000E+00 0. -1.
        -13    1    3    3    0    0  0.11378136016E+04  0.11190134173E+03 -0.21634781818E+03  0.11635927469E+04  0.00000000000E+00 0.  1.
          1    1    5    5  502    0 -0.39968936151E+03  0.11542061557E+03 -0.23870574898E+03  0.47963938412E+03  0.00000000000E+00 0. -1.
          3    1    6    6  503    0 -0.46182941989E+03 -0.32028552518E+03  0.12314933148E+03  0.57535640134E+03  0.00000000000E+00 0. -1.
         -1    1    5    5    0  502 -0.26317614088E+03  0.15908596246E+03 -0.20283610527E+03  0.36839178897E+03  0.00000000000E+00 0.  1.
         -3    1    6    6    0  503 -0.14108835447E+03 -0.52403611291E+02  0.49112219726E+01  0.15058612932E+03  0.00000000000E+00 0.  1.
<mgrwt>
<rscale>  0 0.28154787E+04</rscale>
<asrwt>0</asrwt>
<pdfrwt beam="1">  1        2 0.26196025E+00 0.28154787E+04</pdfrwt>
<pdfrwt beam="2">  1       -2 0.17905333E+00 0.28154787E+04</pdfrwt>
<totfact> 0.15636452E+00</totfact>
</mgrwt>
</event>
<event>
12    1  0.4247462E-008  0.1993134E+04  0.7818608E-02  0.8609838E-01
         -1   -1    0    0    0  501 -0.00000000000E+00  0.00000000000E+00  0.31249730662E+03  0.31249730662E+03  0.00000000000E+00 0.  1.
          1   -1    0    0  501    0  0.00000000000E+00 -0.00000000000E+00 -0.31780930472E+04  0.31780930472E+04  0.00000000000E+00 0. -1.
         23    2    1    2    0    0  0.18821553289E+03  0.73535090896E+03 -0.15140963531E+04  0.16960779517E+04  0.89591325980E+02 0.  0.
        254    2    1    2    0    0 -0.18821553289E+03 -0.73535090896E+03 -0.13514993875E+04  0.17945124021E+04  0.90418920631E+03 0.  0.
         23    2    4    4    0    0 -0.45525608268E+03 -0.60081069167E+03 -0.56125728245E+03  0.94431884336E+03  0.92177832378E+02 0.  0.
         23    2    4    4    0    0  0.26704054979E+03 -0.13454021729E+03 -0.79024210503E+03  0.85019355875E+03  0.94523951814E+02 0.  0.
         11    1    3    3    0    0  0.75010865808E+00  0.13745277269E+03 -0.25535671680E+03  0.29000151758E+03  0.00000000000E+00 0.  1.
        -11    1    3    3    0    0  0.18746542423E+03  0.59789813626E+03 -0.12587396363E+04  0.14060764341E+04  0.00000000000E+00 0. -1.
          1    1    5    5  502    0 -0.40853963438E+03 -0.53590593515E+03 -0.46284438128E+03  0.81751129990E+03  0.00000000000E+00 0.  1.
          3    1    6    6  503    0  0.15488140027E+03 -0.81864338798E+02 -0.33067016842E+03  0.37420953809E+03  0.00000000000E+00 0. -1.
         -1    1    5    5    0  502 -0.46716448303E+02 -0.64904756515E+02 -0.98412901175E+02  0.12680754346E+03  0.00000000000E+00 0. -1.
         -3    1    6    6    0  503  0.11215914952E+03 -0.52675878490E+02 -0.45957193661E+03  0.47598402065E+03  0.00000000000E+00 0.  1.
<mgrwt>
<rscale>  0 0.19931337E+04</rscale>
<asrwt>0</asrwt>
<pdfrwt beam="1">  1        1 0.48893740E+00 0.19931337E+04</pdfrwt>
<pdfrwt beam="2">  1       -1 0.48076508E-01 0.19931337E+04</pdfrwt>
<totfact> 0.17767807E+00</totfact>
</mgrwt>
</event>
<event>
12    1  0.4247462E-008  0.2451700E+04  0.7818608E-02  0.8420397E-01
          1   -1    0    0  501    0  0.00000000000E+00  0.00000000000E+00  0.15429247645E+04  0.15429247645E+04  0.00000000000E+00 0. -1.
         -1   -1    0    0    0  501 -0.00000000000E+00 -0.00000000000E+00 -0.97393512749E+03  0.97393512749E+03  0.00000000000E+00 0.  1.
         23    2    1    2    0    0  0.41367155575E+03 -0.10413062075E+03  0.12373455407E+04  0.13119315283E+04  0.90404676908E+02 0.  0.
        254    2    1    2    0    0 -0.41367155575E+03  0.10413062075E+03 -0.66835590376E+03  0.12049283636E+04  0.90729565480E+03 0.  0.
         23    2    4    4    0    0 -0.27285689431E+03  0.24391087020E+03 -0.84402787747E+03  0.92453220150E+03  0.91833198131E+02 0.  0.
         23    2    4    4    0    0 -0.14081466144E+03 -0.13978024945E+03  0.17567197371E+03  0.28039616215E+03  0.91619203155E+02 0.  0.
         11    1    3    3    0    0  0.33931456358E+03 -0.11110646874E+03  0.10855432178E+04  0.11427524221E+04  0.00000000000E+00 0. -1.
        -11    1    3    3    0    0  0.74356992172E+02  0.69758479863E+01  0.15180232291E+03  0.16917910622E+03  0.00000000000E+00 0.  1.
          1    1    5    5  502    0 -0.50743442771E+01  0.15045737183E+02 -0.10090217102E+03  0.10214387546E+03  0.00000000000E+00 0. -1.
          1    1    6    6  503    0 -0.15330768408E+03 -0.13303272535E+03  0.17111773522E+03  0.26548489848E+03  0.00000000000E+00 0.  1.
         -1    1    5    5    0  502 -0.26778255003E+03  0.22886513302E+03 -0.74312570645E+03  0.82238832604E+03  0.00000000000E+00 0.  1.
         -1    1    6    6    0  503  0.12493022637E+02 -0.67475241042E+01  0.45542384889E+01  0.14911263674E+02  0.00000000000E+00 0. -1.
<mgrwt>
<rscale>  0 0.24517003E+04</rscale>
<asrwt>0</asrwt>
<pdfrwt beam="1">  1        1 0.23737304E+00 0.24517003E+04</pdfrwt>
<pdfrwt beam="2">  1       -1 0.14983617E+00 0.24517003E+04</pdfrwt>
<totfact> 0.19071750E+00</totfact>
</mgrwt>
</event>
<event>
12    1  0.4247462E-008  0.1607685E+04  0.7818608E-02  0.8815841E-01
         -2   -1    0    0    0  501 -0.00000000000E+00  0.00000000000E+00  0.32862513300E+03  0.32862513300E+03  0.00000000000E+00 0. -1.
          2   -1    0    0  501    0  0.00000000000E+00 -0.00000000000E+00 -0.19662608209E+04  0.19662608209E+04  0.00000000000E+00 0.  1.
         23    2    1    2    0    0  0.58314343875E+02  0.11189653246E+03  0.19918058676E+03  0.25227800876E+03  0.89721184150E+02 0.  0.
        254    2    1    2    0    0 -0.58314343875E+02 -0.11189653246E+03 -0.18368162747E+04  0.20426079451E+04  0.88455174749E+03 0.  0.
         23    2    4    4    0    0  0.18742370965E+03 -0.29300106509E+03 -0.16134100045E+04  0.16529929698E+04  0.91195639786E+02 0.  0.
         23    2    4    4    0    0 -0.24573805353E+03  0.18110453263E+03 -0.22340627021E+03  0.38961497532E+03  0.93292147210E+02 0.  0.
         13    1    3    3    0    0  0.28495582949E+02  0.39027346349E+02  0.15421413374E+03  0.16160795481E+03  0.00000000000E+00 0. -1.
        -13    1    3    3    0    0  0.29818760925E+02  0.72869186109E+02  0.44966453017E+02  0.90670053956E+02  0.00000000000E+00 0.  1.
          4    1    5    5  502    0  0.19445059125E+03 -0.26862727587E+03 -0.15407102088E+04  0.15759947949E+04  0.00000000000E+00 0.  1.
          3    1    6    6  503    0 -0.83032489801E+01 -0.30272978764E+01  0.67566918176E+01  0.11124808330E+02  0.00000000000E+00 0. -1.
         -4    1    5    5    0  502 -0.70268815981E+01 -0.24373789216E+02 -0.72699795612E+02  0.76998174964E+02  0.00000000000E+00 0. -1.
         -3    1    6    6    0  503 -0.23743480455E+03  0.18413183051E+03 -0.23016296203E+03  0.37849016699E+03  0.00000000000E+00 0.  1.
<mgrwt>
<rscale>  0 0.16076849E+04</rscale>
<asrwt>0</asrwt>
<pdfrwt beam="1">  1        2 0.30250166E+00 0.16076849E+04</pdfrwt>
<pdfrwt beam="2">  1       -2 0.50557713E-01 0.16076849E+04</pdfrwt>
<totfact> 0.24737181E+01</totfact>
</mgrwt>
</event>
<event>
12    1  0.4247462E-008  0.2296911E+04  0.7818608E-02  0.8479140E-01
         -2   -1    0    0    0  501 -0.00000000000E+00  0.00000000000E+00  0.13321479376E+04  0.13321479376E+04  0.00000000000E+00 0.  1.
          2   -1    0    0  501    0  0.00000000000E+00 -0.00000000000E+00 -0.99009241315E+03  0.99009241315E+03  0.00000000000E+00 0. -1.
         23    2    1    2    0    0  0.79307506863E+03 -0.78868596946E+02  0.69627189573E+03  0.10621543835E+04  0.90493433224E+02 0.  0.
        254    2    1    2    0    0 -0.79307506863E+03  0.78868596946E+02 -0.35421637131E+03  0.12600859673E+04  0.90948286798E+03 0.  0.
         23    2    4    4    0    0  0.16231251708E+03 -0.12790988356E+03 -0.89453884510E+02  0.24324810484E+03  0.91985605081E+02 0.  0.
         23    2    4    4    0    0 -0.95538758571E+03  0.20677848051E+03 -0.26476248680E+03  0.10168378624E+04  0.91308735227E+02 0.  0.
         13    1    3    3    0    0  0.25142278195E+03  0.14226919134E+02  0.23943815564E+03  0.34748590027E+03  0.00000000000E+00 0. -1.
        -13    1    3    3    0    0  0.54165228668E+03 -0.93095516080E+02  0.45683374009E+03  0.71466848319E+03  0.00000000000E+00 0.  1.
          2    1    5    5  502    0 -0.54447277086E+01  0.27534040740E+01 -0.17870402305E+02  0.18883261698E+02  0.00000000000E+00 0. -1.
          3    1    6    6  503    0 -0.15518464137E+03  0.68412362508E+02 -0.40521788599E+02  0.17436897548E+03  0.00000000000E+00 0. -1.
         -2    1    5    5    0  502  0.16775724479E+03 -0.13066328764E+03 -0.71583482205E+02  0.22436484314E+03  0.00000000000E+00 0.  1.
         -3    1    6    6    0  503 -0.80020294434E+03  0.13836611800E+03 -0.22424069820E+03  0.84246888694E+03  0.00000000000E+00 0.  1.
<mgrwt>
<rscale>  0 0.22969106E+04</rscale>
<asrwt>0</asrwt>
<pdfrwt beam="1">  1        2 0.15232191E+00 0.22969106E+04</pdfrwt>
<pdfrwt beam="2">  1       -2 0.20494584E+00 0.22969106E+04</pdfrwt>
<totfact> 0.28611977E+00</totfact>
</mgrwt>
</event>
<event>
12    1  0.4247462E-008  0.2319647E+04  0.7818608E-02  0.8470215E-01
         -2   -1    0    0    0  501 -0.00000000000E+00  0.00000000000E+00  0.72801501822E+03  0.72801501822E+03  0.00000000000E+00 0.  1.
          2   -1    0    0  501    0  0.00000000000E+00 -0.00000000000E+00 -0.18477516264E+04  0.18477516264E+04  0.00000000000E+00 0. -1.
         23    2    1    2    0    0 -0.46878872391E+03  0.86191932665E+03 -0.51565128797E+03  0.11121453947E+04  0.91122636873E+02 0.  0.
        254    2    1    2    0    0  0.46878872391E+03 -0.86191932665E+03 -0.60408532023E+03  0.14636212499E+04  0.90255210139E+03 0.  0.
         23    2    4    4    0    0  0.18224447555E+03 -0.25999670870E+03  0.22221808541E+03  0.39867942484E+03  0.93557837189E+02 0.  0.
         23    2    4    4    0    0  0.28654424836E+03 -0.60192261795E+03 -0.82630340564E+03  0.10649418251E+04  0.83098305207E+02 0.  0.
         11    1    3    3    0    0 -0.14415347828E+03  0.28219169687E+03 -0.21448237909E+03  0.38264222195E+03  0.00000000000E+00 0.  1.
        -11    1    3    3    0    0 -0.32463524563E+03  0.57972762978E+03 -0.30116890888E+03  0.72950317279E+03  0.00000000000E+00 0. -1.
          1    1    5    5  502    0  0.18532354737E+03 -0.25720529429E+03  0.19726000701E+03  0.37337767874E+03  0.00000000000E+00 0. -1.
          3    1    6    6  503    0  0.24120853739E+03 -0.42130271225E+03 -0.58823854760E+03  0.76269399024E+03  0.00000000000E+00 0. -1.
         -1    1    5    5    0  502 -0.30790718190E+01 -0.27914144152E+01  0.24958078407E+02  0.25301746095E+02  0.00000000000E+00 0.  1.
         -3    1    6    6    0  503  0.45335710969E+02 -0.18061990570E+03 -0.23806485804E+03  0.30224783483E+03  0.00000000000E+00 0.  1.
<mgrwt>
<rscale>  0 0.23196473E+04</rscale>
<asrwt>0</asrwt>
<pdfrwt beam="1">  1        2 0.28426948E+00 0.23196473E+04</pdfrwt>
<pdfrwt beam="2">  1       -2 0.11200231E+00 0.23196473E+04</pdfrwt>
<totfact> 0.46210354E+00</totfact>
</mgrwt>
</event>
<event>
12    1  0.4247462E-008  0.1521061E+04  0.7818608E-02  0.8870567E-01
         -2   -1    0    0    0  501 -0.00000000000E+00  0.00000000000E+00  0.22541771243E+03  0.22541771243E+03  0.00000000000E+00 0.  1.
          2   -1    0    0  501    0  0.00000000000E+00 -0.00000000000E+00 -0.25659329237E+04  0.25659329237E+04  0.00000000000E+00 0. -1.
         23    2    1    2    0    0  0.42581610622E+03 -0.58863841089E+02 -0.11819163374E+04  0.12609684025E+04  0.91273081230E+02 0.  0.
        254    2    1    2    0    0 -0.42581610622E+03  0.58863841089E+02 -0.11585988739E+04  0.15303822337E+04  0.90273701732E+03 0.  0.
         23    2    4    4    0    0 -0.40922954338E+03  0.37917524599E+03 -0.37378727377E+03  0.67780383618E+03  0.91969712238E+02 0.  0.
         23    2    4    4    0    0 -0.16586562844E+02 -0.32031140490E+03 -0.78481160015E+03  0.85257839751E+03  0.89923111547E+02 0.  0.
         13    1    3    3    0    0  0.12455316666E+03 -0.33719437880E+02 -0.25149854513E+03  0.28266943595E+03  0.00000000000E+00 0.  1.
        -13    1    3    3    0    0  0.30126293956E+03 -0.25144403209E+02 -0.93041779225E+03  0.97829896653E+03  0.00000000000E+00 0. -1.
          2    1    5    5  502    0 -0.32115211072E+03  0.31195153916E+03 -0.25450380598E+03  0.51499963909E+03  0.00000000000E+00 0. -1.
          1    1    6    6  503    0  0.78821638953E+01 -0.15075591005E+03 -0.47684582184E+03  0.50017138136E+03  0.00000000000E+00 0. -1.
         -2    1    5    5    0  502 -0.88077432656E+02  0.67223706830E+02 -0.11928346779E+03  0.16280419709E+03  0.00000000000E+00 0.  1.
         -1    1    6    6    0  503 -0.24468726740E+02 -0.16955549484E+03 -0.30796577831E+03  0.35240701614E+03  0.00000000000E+00 0.  1.
<mgrwt>
<rscale>  0 0.15210611E+04</rscale>
<asrwt>0</asrwt>
<pdfrwt beam="1">  1        2 0.39475889E+00 0.15210611E+04</pdfrwt>
<pdfrwt beam="2">  1       -2 0.34679650E-01 0.15210611E+04</pdfrwt>
<totfact> 0.24040720E+01</totfact>
</mgrwt>
</event>
<event>
12    1  0.4247462E-008  0.2221102E+04  0.7818608E-02  0.8509696E-01
         -2   -1    0    0    0  501 -0.00000000000E+00  0.00000000000E+00  0.52338137705E+03  0.52338137705E+03  0.00000000000E+00 0. -1.
          2   -1    0    0  501    0  0.00000000000E+00 -0.00000000000E+00 -0.23564518550E+04  0.23564518550E+04  0.00000000000E+00 0.  1.
         23    2    1    2    0    0 -0.59740357586E+03  0.63954635583E+03 -0.38002297667E+03  0.95846310730E+03  0.91233171321E+02 0.  0.
        254    2    1    2    0    0  0.59740357586E+03 -0.63954635583E+03 -0.14530475013E+04  0.19213701247E+04  0.90244420412E+03 0.  0.
         23    2    4    4    0    0 -0.99654113248E+02  0.14034337129E+03 -0.33187471102E+03  0.38534092541E+03  0.93378802886E+02 0.  0.
         23    2    4    4    0    0  0.69705768911E+03 -0.77988972712E+03 -0.11211727903E+04  0.15360291993E+04  0.90773714026E+02 0.  0.
         11    1    3    3    0    0 -0.76049032639E+02  0.12914971006E+03 -0.76145106902E+02  0.16811061917E+03  0.00000000000E+00 0.  1.
        -11    1    3    3    0    0 -0.52135454322E+03  0.51039664577E+03 -0.30387786977E+03  0.79035248813E+03  0.00000000000E+00 0. -1.
          2    1    5    5  502    0 -0.36294104394E+02 -0.25423140824E+01 -0.93100041468E+02  0.99956706108E+02  0.00000000000E+00 0. -1.
          4    1    6    6  503    0  0.17413781369E+03 -0.23999496232E+03 -0.27753373214E+03  0.40613610104E+03  0.00000000000E+00 0. -1.
         -2    1    5    5    0  502 -0.63360008854E+02  0.14288568537E+03 -0.23877466955E+03  0.28538421930E+03  0.00000000000E+00 0.  1.
         -4    1    6    6    0  503  0.52291987542E+03 -0.53989476480E+03 -0.84363905811E+03  0.11298930983E+04  0.00000000000E+00 0.  1.
<mgrwt>
<rscale>  0 0.22211015E+04</rscale>
<asrwt>0</asrwt>
<pdfrwt beam="1">  1        2 0.36253106E+00 0.22211015E+04</pdfrwt>
<pdfrwt beam="2">  1       -2 0.80520211E-01 0.22211015E+04</pdfrwt>
<totfact> 0.52330049E+00</totfact>
</mgrwt>
</event>
<event>
12    1  0.4247462E-008  0.1865329E+04  0.7818608E-02  0.8672309E-01
          1   -1    0    0  501    0  0.00000000000E+00  0.00000000000E+00  0.27369825829E+04  0.27369825829E+04  0.00000000000E+00 0. -1.
         -1   -1    0    0    0  501 -0.00000000000E+00 -0.00000000000E+00 -0.31781843880E+03  0.31781843880E+03  0.00000000000E+00 0.  1.
         23    2    1    2    0    0  0.22738973954E+03  0.90637406754E+02 -0.15717190935E+03  0.30472092077E+03  0.90722639501E+02 0.  0.
        254    2    1    2    0    0 -0.22738973954E+03 -0.90637406754E+02  0.25763360534E+04  0.27500801009E+04  0.93032890316E+03 0.  0.
         23    2    4    4    0    0 -0.32398120877E+03 -0.42927472143E+03  0.10755990198E+04  0.12060007694E+04  0.91016451756E+02 0.  0.
         23    2    4    4    0    0  0.96591469228E+02  0.33863731467E+03  0.15007370337E+04  0.15440793315E+04  0.89242337609E+02 0.  0.
         13    1    3    3    0    0  0.21130797309E+03  0.98366779646E+02 -0.16465334039E+03  0.28537309848E+03  0.00000000000E+00 0.  1.
        -13    1    3    3    0    0  0.16081766445E+02 -0.77293728923E+01  0.74814310410E+01  0.19347822299E+02  0.00000000000E+00 0. -1.
          1    1    5    5  502    0 -0.25752613826E+03 -0.39261992410E+03  0.92215433908E+03  0.10348133850E+04  0.00000000000E+00 0. -1.
          3    1    6    6  503    0  0.11226581933E+03  0.27742483493E+03  0.12760827866E+04  0.13107079886E+04  0.00000000000E+00 0. -1.
         -1    1    5    5    0  502 -0.66455070509E+02 -0.36654797333E+02  0.15344468067E+03  0.17118738444E+03  0.00000000000E+00 0.  1.
         -3    1    6    6    0  503 -0.15674350099E+02  0.61212479743E+02  0.22465424707E+03  0.23337134283E+03  0.00000000000E+00 0.  1.
<mgrwt>
<rscale>  0 0.18653295E+04</rscale>
<asrwt>0</asrwt>
<pdfrwt beam="1">  1        1 0.42107423E+00 0.18653295E+04</pdfrwt>
<pdfrwt beam="2">  1       -1 0.48895146E-01 0.18653295E+04</pdfrwt>
<totfact> 0.36371465E+00</totfact>
</mgrwt>
</event>
<event>
12    1  0.4247462E-008  0.1177170E+04  0.7818608E-02  0.9133078E-01
         -2   -1    0    0    0  501 -0.00000000000E+00  0.00000000000E+00  0.25062920910E+04  0.25062920910E+04  0.00000000000E+00 0.  1.
          2   -1    0    0  501    0  0.00000000000E+00 -0.00000000000E+00 -0.13822499072E+03  0.13822499072E+03  0.00000000000E+00 0. -1.
         23    2    1    2    0    0 -0.15192370818E+03  0.16932326729E+03  0.66375995997E+03  0.70791193122E+03  0.93866053263E+02 0.  0.
        254    2    1    2    0    0  0.15192370818E+03 -0.16932326729E+03  0.17043071404E+04  0.19366051505E+04  0.89108108412E+03 0.  0.
         23    2    4    4    0    0 -0.49252881395E+02 -0.48473207981E+03  0.67153560702E+03  0.83476657071E+03  0.92109285907E+02 0.  0.
         23    2    4    4    0    0  0.20117658957E+03  0.31540881252E+03  0.10327715333E+04  0.11018385798E+04  0.86466622069E+02 0.  0.
         11    1    3    3    0    0 -0.10926693320E+03  0.72955934419E+02  0.26965000355E+03  0.29995492240E+03  0.00000000000E+00 0.  1.
        -11    1    3    3    0    0 -0.42656774973E+02  0.96367332866E+02  0.39410995643E+03  0.40795700883E+03  0.00000000000E+00 0. -1.
          2    1    5    5  502    0 -0.76816122054E+02 -0.35910196541E+03  0.49461247082E+03  0.61603281930E+03  0.00000000000E+00 0. -1.
          4    1    6    6  503    0  0.13785937849E+03  0.17455314370E+03  0.70998174591E+03  0.74400812344E+03  0.00000000000E+00 0. -1.
         -2    1    5    5    0  502  0.27563240658E+02 -0.12563011440E+03  0.17692313620E+03  0.21873375141E+03  0.00000000000E+00 0.  1.
         -4    1    6    6    0  503  0.63317211082E+02  0.14085566883E+03  0.32278978742E+03  0.35783045639E+03  0.00000000000E+00 0.  1.
<mgrwt>
<rscale>  0 0.11771698E+04</rscale>
<asrwt>0</asrwt>
<pdfrwt beam="1">  1        2 0.21265385E-01 0.11771698E+04</pdfrwt>
<pdfrwt beam="2">  1       -2 0.38558336E+00 0.11771698E+04</pdfrwt>
<totfact> 0.24570838E+00</totfact>
</mgrwt>
</event>
<event>
12    1  0.4247462E-008  0.2224680E+04  0.7818608E-02  0.8508226E-01
          2   -1    0    0  501    0  0.00000000000E+00  0.00000000000E+00  0.21564979156E+04  0.21564979156E+04  0.00000000000E+00 0. -1.
         -2   -1    0    0    0  501 -0.00000000000E+00 -0.00000000000E+00 -0.57375422823E+03  0.57375422823E+03  0.00000000000E+00 0.  1.
         23    2    1    2    0    0 -0.45061958347E+03 -0.43282034710E+03 -0.17890772236E+03  0.65568498512E+03  0.86737331751E+02 0.  0.
        254    2    1    2    0    0  0.45061958347E+03  0.43282034710E+03  0.17616514098E+04  0.20745671587E+04  0.90001208033E+03 0.  0.
         23    2    4    4    0    0 -0.17979906452E+03 -0.10342396169E+03  0.61821689365E+03  0.66003556223E+03  0.10213029107E+03 0.  0.
         23    2    4    4    0    0  0.63041864799E+03  0.53624430879E+03  0.11434345161E+04  0.14145315965E+04  0.92040830389E+02 0.  0.
         11    1    3    3    0    0 -0.13954211477E+03 -0.13186328317E+03 -0.13991601785E+02  0.19249855107E+03  0.00000000000E+00 0.  1.
        -11    1    3    3    0    0 -0.31107746870E+03 -0.30095706392E+03 -0.16491612058E+03  0.46318643405E+03  0.00000000000E+00 0. -1.
          1    1    5    5  502    0 -0.18717376320E+03 -0.11273359240E+03  0.57187475171E+03  0.61219573024E+03  0.00000000000E+00 0. -1.
          3    1    6    6  503    0  0.63058412417E+03  0.53524943848E+03  0.11451027202E+04  0.14125822238E+04  0.00000000000E+00 0. -1.
         -1    1    5    5    0  502  0.73746986734E+01  0.93096307114E+01  0.46342141944E+02  0.47839831986E+02  0.00000000000E+00 0.  1.
         -3    1    6    6    0  503 -0.16547618122E+00  0.99487030288E+00 -0.16682040869E+01  0.19493727611E+01  0.00000000000E+00 0.  1.
<mgrwt>
<rscale>  0 0.22246796E+04</rscale>
<asrwt>0</asrwt>
<pdfrwt beam="1">  1        2 0.33176891E+00 0.22246796E+04</pdfrwt>
<pdfrwt beam="2">  1       -2 0.88269882E-01 0.22246796E+04</pdfrwt>
<totfact> 0.55065124E+00</totfact>
</mgrwt>
</event>
<event>
12    1  0.4247462E-008  0.3094249E+04  0.7818608E-02  0.8217318E-01
          1   -1    0    0  501    0  0.00000000000E+00  0.00000000000E+00  0.25376351795E+04  0.25376351795E+04  0.00000000000E+00 0. -1.
         -1   -1    0    0    0  501 -0.00000000000E+00 -0.00000000000E+00 -0.94323806975E+03  0.94323806975E+03  0.00000000000E+00 0.  1.
         23    2    1    2    0    0  0.40684847779E+03 -0.37402798604E+03 -0.73542711991E+03  0.92431990378E+03  0.89953419130E+02 0.  0.
        254    2    1    2    0    0 -0.40684847779E+03  0.37402798604E+03  0.23298242297E+04  0.25565533455E+04  0.89580212597E+03 0.  0.
         23    2    4    4    0    0 -0.37964188465E+03  0.38064438838E+03  0.55083602767E+03  0.77500826795E+03  0.90550400518E+02 0.  0.
         23    2    4    4    0    0 -0.27206593137E+02 -0.66164023367E+01  0.17789882020E+04  0.17815450775E+04  0.91213293434E+02 0.  0.
         11    1    3    3    0    0  0.30771814265E+03 -0.31503030806E+03 -0.62549223098E+03  0.76496737272E+03  0.00000000000E+00 0.  1.
        -11    1    3    3    0    0  0.99130335142E+02 -0.58997677983E+02 -0.10993488892E+03  0.15935253106E+03  0.00000000000E+00 0. -1.
          3    1    5    5  502    0 -0.31208809207E+03  0.34750607999E+03  0.49987790225E+03  0.68413256756E+03  0.00000000000E+00 0. -1.
          3    1    6    6  503    0 -0.14638809726E+02 -0.38675438531E+02  0.14804660151E+04  0.14810434518E+04  0.00000000000E+00 0. -1.
         -3    1    5    5    0  502 -0.67553792589E+02  0.33138308385E+02  0.50958125417E+02  0.90875700392E+02  0.00000000000E+00 0.  1.
         -3    1    6    6    0  503 -0.12567783411E+02  0.32059036195E+02  0.29852218688E+03  0.30050162568E+03  0.00000000000E+00 0.  1.
<mgrwt>
<rscale>  0 0.30942489E+04</rscale>
<asrwt>0</asrwt>
<pdfrwt beam="1">  1        1 0.39040541E+00 0.30942489E+04</pdfrwt>
<pdfrwt beam="2">  1       -1 0.14511355E+00 0.30942489E+04</pdfrwt>
<totfact> 0.41041935E-01</totfact>
</mgrwt>
</event>
<event>
12    1  0.4247462E-008  0.1432107E+04  0.7818608E-02  0.8930900E-01
         -2   -1    0    0    0  501 -0.00000000000E+00  0.00000000000E+00  0.23001921357E+03  0.23001921357E+03  0.00000000000E+00 0. -1.
          2   -1    0    0  501    0  0.00000000000E+00 -0.00000000000E+00 -0.22290860068E+04  0.22290860068E+04  0.00000000000E+00 0.  1.
         23    2    1    2    0    0 -0.15616968318E+02  0.41994762132E+03 -0.52508248073E+03  0.67866121382E+03  0.90936995900E+02 0.  0.
        254    2    1    2    0    0  0.15616968318E+02 -0.41994762132E+03 -0.14739843125E+04  0.17804440066E+04  0.90595320665E+03 0.  0.
         23    2    4    4    0    0 -0.25794958251E+03  0.17950296861E+03 -0.39527167095E+03  0.51312865043E+03  0.91115394895E+02 0.  0.
         23    2    4    4    0    0  0.27356655083E+03 -0.59945058992E+03 -0.10787126416E+04  0.12673153562E+04  0.91036153964E+02 0.  0.
         13    1    3    3    0    0 -0.19871490523E+02  0.15683417266E+02 -0.37916599555E+02  0.45590725313E+02  0.00000000000E+00 0. -1.
        -13    1    3    3    0    0  0.42545222054E+01  0.40426420405E+03 -0.48716588117E+03  0.63307048850E+03  0.00000000000E+00 0.  1.
          2    1    5    5  502    0 -0.78812739405E+02  0.97513380543E+02 -0.19778925831E+03  0.23418133568E+03  0.00000000000E+00 0. -1.
          4    1    6    6  503    0  0.43453911465E+02 -0.18688414313E+03 -0.28213622962E+03  0.34119609822E+03  0.00000000000E+00 0. -1.
         -2    1    5    5    0  502 -0.17913684310E+03  0.81989588066E+02 -0.19748241264E+03  0.27894731476E+03  0.00000000000E+00 0.  1.
         -4    1    6    6    0  503  0.23011263936E+03 -0.41256644679E+03 -0.79657641197E+03  0.92611925793E+03  0.00000000000E+00 0.  1.
<mgrwt>
<rscale>  0 0.14321070E+04</rscale>
<asrwt>0</asrwt>
<pdfrwt beam="1">  1        2 0.34293632E+00 0.14321070E+04</pdfrwt>
<pdfrwt beam="2">  1       -2 0.35387570E-01 0.14321070E+04</pdfrwt>
<totfact> 0.36273739E+01</totfact>
</mgrwt>
</event>
<event>
12    1  0.4247462E-008  0.1717830E+04  0.7818608E-02  0.8751260E-01
         -1   -1    0    0    0  501 -0.00000000000E+00  0.00000000000E+00  0.40677827745E+03  0.40677827745E+03  0.00000000000E+00 0.  1.
          1   -1    0    0  501    0  0.00000000000E+00 -0.00000000000E+00 -0.18136054981E+04  0.18136054981E+04  0.00000000000E+00 0. -1.
         23    2    1    2    0    0  0.55048526829E+03 -0.18358363425E+03 -0.24933580896E+03  0.63821601808E+03  0.91729813767E+02 0.  0.
        254    2    1    2    0    0 -0.55048526829E+03  0.18358363425E+03 -0.11574914117E+04  0.15821677575E+04  0.90924774583E+03 0.  0.
         23    2    4    4    0    0 -0.78650724288E+03  0.13380651924E+03 -0.74017279154E+03  0.10920349644E+04  0.90480796414E+02 0.  0.
         23    2    4    4    0    0  0.23602197459E+03  0.49777115011E+02 -0.41731862018E+03  0.49013279306E+03  0.88832372573E+02 0.  0.
         11    1    3    3    0    0  0.46683861150E+03 -0.12195254334E+03 -0.18999256708E+03  0.51856329176E+03  0.00000000000E+00 0.  1.
        -11    1    3    3    0    0  0.83646656793E+02 -0.61631090910E+02 -0.59343241884E+02  0.11965272632E+03  0.00000000000E+00 0. -1.
          4    1    5    5  502    0 -0.73611991984E+03  0.14458497188E+03 -0.70639832578E+03  0.10304251284E+04  0.00000000000E+00 0. -1.
          3    1    6    6  503    0  0.18775807644E+03  0.46840432072E+02 -0.38801581655E+03  0.43359358302E+03  0.00000000000E+00 0. -1.
         -4    1    5    5    0  502 -0.50387323037E+02 -0.10778452646E+02 -0.33774465762E+02  0.61609836080E+02  0.00000000000E+00 0.  1.
         -3    1    6    6    0  503  0.48263898150E+02  0.29366829390E+01 -0.29302803631E+02  0.56539210040E+02  0.00000000000E+00 0.  1.
<mgrwt>
<rscale>  0 0.17178304E+04</rscale>
<asrwt>0</asrwt>
<pdfrwt beam="1">  1        1 0.27901623E+00 0.17178304E+04</pdfrwt>
<pdfrwt beam="2">  1       -1 0.62581273E-01 0.17178304E+04</pdfrwt>
<totfact> 0.98145111E+00</totfact>
</mgrwt>
</event>
<event>
12    1  0.4247462E-008  0.1699379E+04  0.7818608E-02  0.8761719E-01
         -1   -1    0    0    0  501 -0.00000000000E+00  0.00000000000E+00  0.61098385033E+03  0.61098385033E+03  0.00000000000E+00 0.  1.
          1   -1    0    0  501    0  0.00000000000E+00 -0.00000000000E+00 -0.11816549949E+04  0.11816549949E+04  0.00000000000E+00 0. -1.
         23    2    1    2    0    0  0.31259114997E+03  0.38825142919E+03 -0.56093386829E+03  0.75606339265E+03  0.92372343299E+02 0.  0.
        254    2    1    2    0    0 -0.31259114997E+03 -0.38825142919E+03 -0.97372763176E+01  0.10365754526E+04  0.90881321245E+03 0.  0.
         23    2    4    4    0    0  0.27857714396E+03 -0.28990293768E+03 -0.97753164389E+02  0.42415655183E+03  0.93296092628E+02 0.  0.
         23    2    4    4    0    0 -0.59116829393E+03 -0.98348491512E+02  0.88015888071E+02  0.61241890079E+03  0.90320185784E+02 0.  0.
         13    1    3    3    0    0  0.31421228167E+03  0.35681780923E+03 -0.52463231042E+03  0.70801650268E+03  0.00000000000E+00 0. -1.
        -13    1    3    3    0    0 -0.16211316995E+01  0.31433619967E+02 -0.36301557868E+02  0.48046889971E+02  0.00000000000E+00 0.  1.
          1    1    5    5  502    0  0.90461278227E+02 -0.47959337014E+02  0.27923149114E+00  0.10238856789E+03  0.00000000000E+00 0. -1.
          3    1    6    6  503    0 -0.20210089770E+03 -0.26874081215E+02 -0.12524031735E+02  0.20426414385E+03  0.00000000000E+00 0. -1.
         -1    1    5    5    0  502  0.18811586573E+03 -0.24194360067E+03 -0.98032395880E+02  0.32176798394E+03  0.00000000000E+00 0.  1.
         -3    1    6    6    0  503 -0.38906739623E+03 -0.71474410298E+02  0.10053991981E+03  0.40815475694E+03  0.00000000000E+00 0.  1.
<mgrwt>
<rscale>  0 0.16993788E+04</rscale>
<asrwt>0</asrwt>
<pdfrwt beam="1">  1        1 0.18179307E+00 0.16993788E+04</pdfrwt>
<pdfrwt beam="2">  1       -1 0.93997517E-01 0.16993788E+04</pdfrwt>
<totfact> 0.11503761E+01</totfact>
</mgrwt>
</event>
<event>
12    1  0.4247462E-008  0.1489998E+04  0.7818608E-02  0.8891132E-01
          1   -1    0    0  501    0  0.00000000000E+00  0.00000000000E+00  0.10730929271E+04  0.10730929271E+04  0.00000000000E+00 0. -1.
         -1   -1    0    0    0  501 -0.00000000000E+00 -0.00000000000E+00 -0.51721839841E+03  0.51721839841E+03  0.00000000000E+00 0.  1.
         23    2    1    2    0    0 -0.95855756086E+02  0.42080834052E+03 -0.16362511103E+02  0.44143776239E+03  0.91277493768E+02 0.  0.
        254    2    1    2    0    0  0.95855756086E+02 -0.42080834052E+03  0.57223703979E+03  0.11488735631E+04  0.89787930643E+03 0.  0.
         23    2    4    4    0    0  0.13121302508E+03 -0.12535136652E+03  0.75880392050E+03  0.78568697167E+03  0.92686593723E+02 0.  0.
         23    2    4    4    0    0 -0.35357268990E+02 -0.29545697400E+03 -0.18656688070E+03  0.36318659146E+03  0.92478858566E+02 0.  0.
         13    1    3    3    0    0 -0.38459986463E+02  0.22901515288E+03  0.34778007537E+02  0.23481188346E+03  0.00000000000E+00 0. -1.
        -13    1    3    3    0    0 -0.57395769622E+02  0.19179318764E+03 -0.51140518640E+02  0.20662587893E+03  0.00000000000E+00 0.  1.
          2    1    5    5  502    0  0.11762698174E+03 -0.62695269584E+02  0.41257886631E+03  0.43357597326E+03  0.00000000000E+00 0. -1.
          4    1    6    6  503    0 -0.22766023054E+02 -0.16524153254E+02 -0.14289559540E+01  0.28167026140E+02  0.00000000000E+00 0. -1.
         -2    1    5    5    0  502  0.13586043333E+02 -0.62656096934E+02  0.34622505419E+03  0.35211099841E+03  0.00000000000E+00 0.  1.
         -4    1    6    6    0  503 -0.12591245937E+02 -0.27893282075E+03 -0.18513792475E+03  0.33501956532E+03  0.00000000000E+00 0.  1.
<mgrwt>
<rscale>  0 0.14899979E+04</rscale>
<asrwt>0</asrwt>
<pdfrwt beam="1">  1        1 0.16509122E+00 0.14899979E+04</pdfrwt>
<pdfrwt beam="2">  1       -1 0.79572061E-01 0.14899979E+04</pdfrwt>
<totfact> 0.20301693E+01</totfact>
</mgrwt>
</event>
<event>
12    1  0.4247462E-008  0.2062003E+04  0.7818608E-02  0.8578169E-01
          2   -1    0    0  501    0  0.00000000000E+00  0.00000000000E+00  0.41970358210E+04  0.41970358210E+04  0.00000000000E+00 0. -1.
         -2   -1    0    0    0  501 -0.00000000000E+00 -0.00000000000E+00 -0.25326535147E+03  0.25326535147E+03  0.00000000000E+00 0.  1.
         23    2    1    2    0    0  0.47334367447E+03  0.31241569053E+03  0.29943286311E+03  0.64774069276E+03  0.90830433748E+02 0.  0.
        254    2    1    2    0    0 -0.47334367447E+03 -0.31241569053E+03  0.36443376064E+04  0.38025604797E+04  0.92553325951E+03 0.  0.
         23    2    4    4    0    0 -0.60720744904E+02  0.29086592159E+03  0.15840527676E+04  0.16144547694E+04  0.94609928463E+02 0.  0.
         23    2    4    4    0    0 -0.41262292957E+03 -0.60328161212E+03  0.20602848388E+04  0.21881057103E+04  0.93949971158E+02 0.  0.
         13    1    3    3    0    0  0.74255630940E+02  0.23230028584E+02  0.67682720539E+02  0.10312363266E+03  0.00000000000E+00 0. -1.
        -13    1    3    3    0    0  0.39908804353E+03  0.28918566195E+03  0.23175014257E+03  0.54461706010E+03  0.00000000000E+00 0.  1.
          2    1    5    5  502    0 -0.75248098856E+02  0.28473263919E+03  0.15325869546E+04  0.15606273500E+04  0.00000000000E+00 0. -1.
          1    1    6    6  503    0 -0.37241311118E+03 -0.54637188193E+03  0.17672152076E+04  0.18868660124E+04  0.00000000000E+00 0. -1.
         -2    1    5    5    0  502  0.14527353951E+02  0.61332824036E+01  0.51465813038E+02  0.53827419384E+02  0.00000000000E+00 0.  1.
         -1    1    6    6    0  503 -0.40209818383E+02 -0.56909730187E+02  0.29306963120E+03  0.30123969794E+03  0.00000000000E+00 0.  1.
<mgrwt>
<rscale>  0 0.20620027E+04</rscale>
<asrwt>0</asrwt>
<pdfrwt beam="1">  1        2 0.64569777E+00 0.20620027E+04</pdfrwt>
<pdfrwt beam="2">  1       -2 0.38963903E-01 0.20620027E+04</pdfrwt>
<totfact> 0.13617989E+00</totfact>
</mgrwt>
</event>
<event>
12    1  0.4247462E-008  0.1604710E+04  0.7818608E-02  0.8817660E-01
         -2   -1    0    0    0  501 -0.00000000000E+00  0.00000000000E+00  0.36017008211E+03  0.36017008211E+03  0.00000000000E+00 0.  1.
          2   -1    0    0  501    0  0.00000000000E+00 -0.00000000000E+00 -0.17874145184E+04  0.17874145184E+04  0.00000000000E+00 0. -1.
         23    2    1    2    0    0  0.38868571033E+03 -0.15958187105E+03 -0.21854123914E+02  0.43021275922E+03  0.89791204934E+02 0.  0.
        254    2    1    2    0    0 -0.38868571033E+03  0.15958187105E+03 -0.14053903124E+04  0.17173718413E+04  0.89314117368E+03 0.  0.
         23    2    4    4    0    0  0.23798351723E+03  0.23798623980E+03 -0.45139707707E+03  0.56967834219E+03  0.86605355281E+02 0.  0.
         23    2    4    4    0    0 -0.62666922756E+03 -0.78404368744E+02 -0.95399323528E+03  0.11476934991E+04  0.90750807415E+02 0.  0.
         11    1    3    3    0    0  0.17298034276E+01 -0.69380248409E+01  0.10806275996E+02  0.12957777953E+02  0.00000000000E+00 0. -1.
        -11    1    3    3    0    0  0.38695590690E+03 -0.15264384621E+03 -0.32660399910E+02  0.41725498127E+03  0.00000000000E+00 0.  1.
          3    1    6    6  502    0 -0.61636963780E+03 -0.78014142946E+02 -0.95259398290E+03  0.11372919736E+04  0.00000000000E+00 0. -1.
          3    1    5    5  503    0  0.13201956842E+03  0.14006469458E+03 -0.18635339709E+03  0.26790833081E+03  0.00000000000E+00 0. -1.
         -3    1    5    5    0  503  0.10596394882E+03  0.97921545216E+02 -0.26504367999E+03  0.30177001138E+03  0.00000000000E+00 0.  1.
         -3    1    6    6    0  502 -0.10299589762E+02 -0.39022579816E+00 -0.13992523764E+01  0.10401525496E+02  0.00000000000E+00 0.  1.
<mgrwt>
<rscale>  0 0.16047096E+04</rscale>
<asrwt>0</asrwt>
<pdfrwt beam="1">  1        2 0.27498685E+00 0.16047096E+04</pdfrwt>
<pdfrwt beam="2">  1       -2 0.55410782E-01 0.16047096E+04</pdfrwt>
<totfact> 0.25729106E+01</totfact>
</mgrwt>
</event>
<event>
12    1  0.4247462E-008  0.1152189E+04  0.7818608E-02  0.9155767E-01
         -1   -1    0    0    0  501 -0.00000000000E+00  0.00000000000E+00  0.36661697052E+03  0.36661697052E+03  0.00000000000E+00 0.  1.
          1   -1    0    0  501    0  0.00000000000E+00 -0.00000000000E+00 -0.90526319244E+03  0.90526319244E+03  0.00000000000E+00 0. -1.
         23    2    1    2    0    0  0.13632434316E+03  0.75502054515E+02 -0.26718845271E+03  0.32302211873E+03  0.93106031792E+02 0.  0.
        254    2    1    2    0    0 -0.13632434316E+03 -0.75502054515E+02 -0.27145776921E+03  0.94885804423E+03  0.89574403758E+03 0.  0.
         23    2    4    4    0    0 -0.31412179830E+03 -0.23025743325E+03  0.17438756658E+03  0.43630593654E+03  0.90889257596E+02 0.  0.
         23    2    4    4    0    0  0.17779745514E+03  0.15475537874E+03 -0.44584533579E+03  0.51255210769E+03  0.91490094271E+02 0.  0.
         13    1    3    3    0    0  0.13518842898E+03  0.88486222370E+02 -0.26413784252E+03  0.30963611341E+03  0.00000000000E+00 0. -1.
        -13    1    3    3    0    0  0.11359141804E+01 -0.12984167855E+02 -0.30506101919E+01  0.13386005321E+02  0.00000000000E+00 0.  1.
          2    1    5    5  502    0 -0.55558191932E+02 -0.62072690703E+02  0.75403519806E+02  0.11236290500E+03  0.00000000000E+00 0.  1.
          1    1    6    6  503    0  0.13980921202E+03  0.63613436744E+02 -0.25540435418E+03  0.29803467791E+03  0.00000000000E+00 0. -1.
         -2    1    5    5    0  502 -0.25856360637E+03 -0.16818474255E+03  0.98984046775E+02  0.32394303153E+03  0.00000000000E+00 0. -1.
         -1    1    6    6    0  503  0.37988243125E+02  0.91141941992E+02 -0.19044098161E+03  0.21451742979E+03  0.00000000000E+00 0.  1.
<mgrwt>
<rscale>  0 0.11521890E+04</rscale>
<asrwt>0</asrwt>
<pdfrwt beam="1">  1        1 0.13927126E+00 0.11521890E+04</pdfrwt>
<pdfrwt beam="2">  1       -1 0.56402611E-01 0.11521890E+04</pdfrwt>
<totfact> 0.56907971E+01</totfact>
</mgrwt>
</event>
<event>
12    1  0.4247462E-008  0.5471063E+04  0.7818608E-02  0.7759684E-01
         -2   -1    0    0    0  501 -0.00000000000E+00  0.00000000000E+00  0.24094528199E+04  0.24094528199E+04  0.00000000000E+00 0.  1.
          2   -1    0    0  501    0  0.00000000000E+00 -0.00000000000E+00 -0.31057392004E+04  0.31057392004E+04  0.00000000000E+00 0. -1.
         23    2    1    2    0    0  0.21345784245E+04 -0.45417646368E+03 -0.18537168932E+04  0.28647737629E+04  0.89224893909E+02 0.  0.
        254    2    1    2    0    0 -0.21345784245E+04  0.45417646368E+03  0.11574305126E+04  0.26504182574E+04  0.96040108125E+03 0.  0.
         23    2    4    4    0    0 -0.50986201687E+03 -0.28549849867E+03  0.36673104464E+03  0.69586911654E+03  0.90958777782E+02 0.  0.
         23    2    4    4    0    0 -0.16247164077E+04  0.73967496236E+03  0.79069946801E+03  0.19545491409E+04  0.90742713460E+02 0.  0.
         13    1    3    3    0    0  0.10411957789E+04 -0.22779106611E+03 -0.84739506347E+03  0.13616371813E+04  0.00000000000E+00 0.  1.
        -13    1    3    3    0    0  0.10933826456E+04 -0.22638539758E+03 -0.10063218297E+04  0.15031365816E+04  0.00000000000E+00 0. -1.
          1    1    5    5  502    0 -0.49150613232E+02 -0.68845110087E+01  0.11845172378E+02  0.51024380267E+02  0.00000000000E+00 0. -1.
          1    1    6    6  503    0 -0.33509681798E+02  0.25144526842E+02  0.30471189017E+02  0.51803854726E+02  0.00000000000E+00 0. -1.
         -1    1    5    5    0  502 -0.46071140364E+03 -0.27861398766E+03  0.35488587226E+03  0.64484473627E+03  0.00000000000E+00 0.  1.
         -1    1    6    6    0  503 -0.15912067259E+04  0.71453043551E+03  0.76022827899E+03  0.19027452861E+04  0.00000000000E+00 0.  1.
<mgrwt>
<rscale>  0 0.54710628E+04</rscale>
<asrwt>0</asrwt>
<pdfrwt beam="1">  1        2 0.47780603E+00 0.54710628E+04</pdfrwt>
<pdfrwt beam="2">  1       -2 0.37068505E+00 0.54710628E+04</pdfrwt>
<totfact> 0.12024814E-02</totfact>
</mgrwt>
</event>
<event>
12    1  0.4247462E-008  0.1621465E+04  0.7818608E-02  0.8807468E-01
         -2   -1    0    0    0  501 -0.00000000000E+00  0.00000000000E+00  0.35459968593E+03  0.35459968593E+03  0.00000000000E+00 0.  1.
          2   -1    0    0  501    0  0.00000000000E+00 -0.00000000000E+00 -0.18536043199E+04  0.18536043199E+04  0.00000000000E+00 0. -1.
         23    2    1    2    0    0  0.38156005877E+03 -0.39687309776E+03 -0.46040963830E+03  0.72536770298E+03  0.10528501942E+03 0.  0.
        254    2    1    2    0    0 -0.38156005877E+03  0.39687309776E+03 -0.10385949957E+04  0.14828363029E+04  0.90389579149E+03 0.  0.
         23    2    4    4    0    0 -0.24638816012E+03  0.26045929712E+03  0.50312666522E+02  0.37335116019E+03  0.91178689930E+02 0.  0.
         23    2    4    4    0    0 -0.13517189866E+03  0.13641380064E+03 -0.10889076622E+04  0.11094851427E+04  0.91417820014E+02 0.  0.
         13    1    3    3    0    0  0.22011544569E+03 -0.17375252533E+03 -0.18545649798E+03  0.33620657658E+03  0.00000000000E+00 0. -1.
        -13    1    3    3    0    0  0.16144461308E+03 -0.22312057242E+03 -0.27495314032E+03  0.38916112640E+03  0.00000000000E+00 0.  1.
          2    1    5    5  502    0 -0.14281071711E+03  0.20101858648E+03  0.59229932832E+02  0.25359723574E+03  0.00000000000E+00 0. -1.
          2    1    6    6  503    0 -0.14873369754E+03  0.12017108844E+03 -0.96093918293E+03  0.97977901415E+03  0.00000000000E+00 0. -1.
         -2    1    5    5    0  502 -0.10357744301E+03  0.59440710639E+02 -0.89172663100E+01  0.11975392445E+03  0.00000000000E+00 0.  1.
         -2    1    6    6    0  503  0.13561798884E+02  0.16242712195E+02 -0.12796847931E+03  0.12970612855E+03  0.00000000000E+00 0.  1.
<mgrwt>
<rscale>  0 0.16214654E+04</rscale>
<asrwt>0</asrwt>
<pdfrwt beam="1">  1        2 0.28516989E+00 0.16214654E+04</pdfrwt>
<pdfrwt beam="2">  1       -2 0.54553799E-01 0.16214654E+04</pdfrwt>
<totfact> 0.24391389E+01</totfact>
</mgrwt>
</event>
<event>
12    1  0.4247462E-008  0.1135665E+04  0.7818608E-02  0.9171111E-01
         -1   -1    0    0    0  501 -0.00000000000E+00  0.00000000000E+00  0.90166848923E+02  0.90166848923E+02  0.00000000000E+00 0.  1.
          1   -1    0    0  501    0  0.00000000000E+00 -0.00000000000E+00 -0.35759694312E+04  0.35759694312E+04  0.00000000000E+00 0. -1.
         23    2    1    2    0    0 -0.16079621965E+03 -0.10478769328E+03 -0.57106399859E+03  0.60945558987E+03  0.92120250835E+02 0.  0.
        254    2    1    2    0    0  0.16079621965E+03  0.10478769328E+03 -0.29147385837E+04  0.30566806902E+04  0.90042209327E+03 0.  0.
         23    2    4    4    0    0 -0.32155416156E+03 -0.14172903335E+03 -0.94997278187E+03  0.10169960992E+04  0.91370573843E+02 0.  0.
         23    2    4    4    0    0  0.48235038121E+03  0.24651672663E+03 -0.19647658018E+04  0.20396845910E+04  0.81093700643E+02 0.  0.
         11    1    3    3    0    0 -0.10201499767E+03 -0.40504316792E+02 -0.19831342208E+03  0.22666246448E+03  0.00000000000E+00 0.  1.
        -11    1    3    3    0    0 -0.58781221978E+02 -0.64283376488E+02 -0.37275057651E+03  0.38279312538E+03  0.00000000000E+00 0. -1.
          4    1    5    5  502    0 -0.27726116079E+03 -0.13569541293E+03 -0.89125984347E+03  0.94320257896E+03  0.00000000000E+00 0. -1.
          1    1    6    6  503    0  0.14381021595E+02 -0.21040829341E+01 -0.25813046568E+02  0.29623543343E+02  0.00000000000E+00 0. -1.
         -4    1    5    5    0  502 -0.44293000772E+02 -0.60336204230E+01 -0.58712938401E+02  0.73793520234E+02  0.00000000000E+00 0.  1.
         -1    1    6    6    0  503  0.46796935962E+03  0.24862080957E+03 -0.19389527552E+04  0.20100610477E+04  0.00000000000E+00 0.  1.
<mgrwt>
<rscale>  0 0.11356653E+04</rscale>
<asrwt>0</asrwt>
<pdfrwt beam="1">  1        1 0.55014917E+00 0.11356653E+04</pdfrwt>
<pdfrwt beam="2">  1       -1 0.13871822E-01 0.11356653E+04</pdfrwt>
<totfact> 0.83055791E+00</totfact>
</mgrwt>
</event>
<event>
12    1  0.4247462E-008  0.2229242E+04  0.7818608E-02  0.8506355E-01
          1   -1    0    0  501    0  0.00000000000E+00  0.00000000000E+00  0.75393798467E+03  0.75393798467E+03  0.00000000000E+00 0. -1.
         -1   -1    0    0    0  501 -0.00000000000E+00 -0.00000000000E+00 -0.16478540524E+04  0.16478540524E+04  0.00000000000E+00 0.  1.
         23    2    1    2    0    0  0.23110469476E+03  0.46851964028E+03  0.45536918175E+03  0.69793290514E+03  0.82639065367E+02 0.  0.
        254    2    1    2    0    0 -0.23110469476E+03 -0.46851964028E+03 -0.13492852494E+04  0.17038591319E+04  0.89980288047E+03 0.  0.
         23    2    4    4    0    0 -0.20723120103E+03 -0.59176844936E+03 -0.14029393537E+04  0.15396633051E+04  0.95862374045E+02 0.  0.
         23    2    4    4    0    0 -0.23873493732E+02  0.12324880908E+03  0.53654104210E+02  0.16419582678E+03  0.91221126878E+02 0.  0.
         11    1    3    3    0    0  0.12217880106E+02  0.87345997385E+02  0.94080727722E+02  0.12895651663E+03  0.00000000000E+00 0.  1.
        -11    1    3    3    0    0  0.21888681465E+03  0.38117364289E+03  0.36128845402E+03  0.56897638851E+03  0.00000000000E+00 0. -1.
          2    1    5    5  502    0  0.21984177109E+01 -0.31493561996E+02 -0.12095164446E+03  0.12500391108E+03  0.00000000000E+00 0.  1.
          4    1    6    6  503    0 -0.29842324725E+02  0.42769802045E+02  0.64306443005E+02  0.82795766341E+02  0.00000000000E+00 0. -1.
         -2    1    5    5    0  502 -0.20942961874E+03 -0.56027488737E+03 -0.12819877092E+04  0.14146593940E+04  0.00000000000E+00 0. -1.
         -4    1    6    6    0  503  0.59688309925E+01  0.80479007037E+02 -0.10652338795E+02  0.81400060435E+02  0.00000000000E+00 0.  1.
<mgrwt>
<rscale>  0 0.22292418E+04</rscale>
<asrwt>0</asrwt>
<pdfrwt beam="1">  1        1 0.11599046E+00 0.22292418E+04</pdfrwt>
<pdfrwt beam="2">  1       -1 0.25351600E+00 0.22292418E+04</pdfrwt>
<totfact> 0.14608572E+00</totfact>
</mgrwt>
</event>
<event>
12    1  0.4247462E-008  0.1903916E+04  0.7818608E-02  0.8652910E-01
          1   -1    0    0  501    0  0.00000000000E+00  0.00000000000E+00  0.11636739235E+04  0.11636739235E+04  0.00000000000E+00 0. -1.
         -1   -1    0    0    0  501 -0.00000000000E+00 -0.00000000000E+00 -0.77876074853E+03  0.77876074853E+03  0.00000000000E+00 0.  1.
         23    2    1    2    0    0  0.70207502338E+03  0.19999773443E+03  0.20555831812E+03  0.76385560764E+03  0.91174201131E+02 0.  0.
        254    2    1    2    0    0 -0.70207502338E+03 -0.19999773443E+03  0.17935485682E+03  0.11785790644E+04  0.90772904220E+03 0.  0.
         23    2    4    4    0    0  0.17017721573E+03 -0.32660751096E+02 -0.12842981790E+03  0.23412911092E+03  0.91078060148E+02 0.  0.
         23    2    4    4    0    0 -0.87225223911E+03 -0.16733698333E+03  0.30778467472E+03  0.94444995344E+03  0.91807809741E+02 0.  0.
         11    1    3    3    0    0  0.48725879105E+03  0.10529135324E+03  0.16831488064E+03  0.52615330235E+03  0.00000000000E+00 0.  1.
        -11    1    3    3    0    0  0.21481623233E+03  0.94706381184E+02  0.37243437478E+02  0.23770230530E+03  0.00000000000E+00 0. -1.
          4    1    5    5  502    0  0.12478053935E+03  0.16025198062E+02 -0.10397928961E+03  0.16321361046E+03  0.00000000000E+00 0. -1.
          1    1    6    6  503    0 -0.70574410943E+03 -0.16420633747E+03  0.22676479532E+03  0.75925011799E+03  0.00000000000E+00 0. -1.
         -4    1    5    5    0  502  0.45396676379E+02 -0.48685949158E+02 -0.24450528296E+02  0.70915500461E+02  0.00000000000E+00 0.  1.
         -1    1    6    6    0  503 -0.16650812968E+03 -0.31306458554E+01  0.81019879407E+02  0.18519983545E+03  0.00000000000E+00 0.  1.
<mgrwt>
<rscale>  0 0.19039155E+04</rscale>
<asrwt>0</asrwt>
<pdfrwt beam="1">  1        1 0.17902676E+00 0.19039155E+04</pdfrwt>
<pdfrwt beam="2">  1       -1 0.11980935E+00 0.19039155E+04</pdfrwt>
<totfact> 0.66066068E+00</totfact>
</mgrwt>
</event>
<event>
12    1  0.4247462E-008  0.1259252E+04  0.7818608E-02  0.9062518E-01
          2   -1    0    0  501    0  0.00000000000E+00  0.00000000000E+00  0.12442213578E+04  0.12442213578E+04  0.00000000000E+00 0. -1.
         -2   -1    0    0    0  501 -0.00000000000E+00 -0.00000000000E+00 -0.31861593270E+03  0.31861593270E+03  0.00000000000E+00 0.  1.
         23    2    1    2    0    0 -0.60265725786E+02 -0.11529172367E+03 -0.10103764177E+03  0.18824038275E+03  0.91113650969E+02 0.  0.
        254    2    1    2    0    0  0.60265725786E+02  0.11529172367E+03  0.10266430669E+04  0.13745969078E+04  0.90476324683E+03 0.  0.
         23    2    4    4    0    0  0.43788901693E+03  0.19699786977E+03  0.72923407291E+03  0.87835651064E+03  0.95775126498E+02 0.  0.
         23    2    4    4    0    0 -0.37762329115E+03 -0.81706146100E+02  0.29740899400E+03  0.49624039714E+03  0.92342718816E+02 0.  0.
         11    1    3    3    0    0 -0.27086219807E+02 -0.26727579799E+02  0.12886333453E+02  0.40175669442E+02  0.00000000000E+00 0. -1.
        -11    1    3    3    0    0 -0.33179505979E+02 -0.88564143867E+02 -0.11392397522E+03  0.14806471331E+03  0.00000000000E+00 0.  1.
          4    1    5    5  502    0  0.16985223682E+03  0.12412905185E+03  0.28079425817E+03  0.35086068359E+03  0.00000000000E+00 0. -1.
          4    1    6    6  503    0 -0.10601957989E+03 -0.60821721649E+02  0.11914998001E+03  0.17069314831E+03  0.00000000000E+00 0. -1.
         -4    1    5    5    0  502  0.26803678011E+03  0.72868817911E+02  0.44843981474E+03  0.52749582706E+03  0.00000000000E+00 0.  1.
         -4    1    6    6    0  503 -0.27160371126E+03 -0.20884424452E+02  0.17825901399E+03  0.32554724883E+03  0.00000000000E+00 0.  1.
<mgrwt>
<rscale>  0 0.12592518E+04</rscale>
<asrwt>0</asrwt>
<pdfrwt beam="1">  1        2 0.19141867E+00 0.12592518E+04</pdfrwt>
<pdfrwt beam="2">  1       -2 0.49017836E-01 0.12592518E+04</pdfrwt>
<totfact> 0.69025669E+01</totfact>
</mgrwt>
</event>
<event>
12    1  0.4247462E-008  0.1490338E+04  0.7818608E-02  0.8890904E-01
          1   -1    0    0  501    0  0.00000000000E+00  0.00000000000E+00  0.11378635308E+04  0.11378635308E+04  0.00000000000E+00 0. -1.
         -1   -1    0    0    0  501 -0.00000000000E+00 -0.00000000000E+00 -0.48799921846E+03  0.48799921846E+03  0.00000000000E+00 0.  1.
         23    2    1    2    0    0 -0.15609090127E+03 -0.41849749048E+03 -0.36159548402E+02  0.45682263245E+03  0.88740552068E+02 0.  0.
        254    2    1    2    0    0  0.15609090127E+03  0.41849749048E+03  0.68602386078E+03  0.11690401168E+04  0.83457865910E+03 0.  0.
         23    2    4    4    0    0  0.35381808858E+03  0.19626991618E+03  0.74515498518E+03  0.85285718249E+03  0.91653161328E+02 0.  0.
         23    2    4    4    0    0 -0.19772718732E+03  0.22222757430E+03 -0.59131124406E+02  0.31618293435E+03  0.89409298817E+02 0.  0.
         11    1    3    3    0    0 -0.44909411880E+02 -0.11240171110E+03 -0.49774342960E+02  0.13087583868E+03  0.00000000000E+00 0. -1.
        -11    1    3    3    0    0 -0.11118148939E+03 -0.30609577938E+03  0.13614794559E+02  0.32594679377E+03  0.00000000000E+00 0.  1.
          2    1    5    5  502    0  0.32007371175E+03  0.17613055221E+03  0.59997078508E+03  0.70244864248E+03  0.00000000000E+00 0.  1.
          3    1    6    6  503    0 -0.31646257949E+02  0.78254435895E+01 -0.28416523325E+02  0.43246063491E+02  0.00000000000E+00 0. -1.
         -2    1    5    5    0  502  0.33744376836E+02  0.20139363970E+02  0.14518420010E+03  0.15040854001E+03  0.00000000000E+00 0. -1.
         -3    1    6    6    0  503 -0.16608092937E+03  0.21440213071E+03 -0.30714601081E+02  0.27293687086E+03  0.00000000000E+00 0.  1.
<mgrwt>
<rscale>  0 0.14903376E+04</rscale>
<asrwt>0</asrwt>
<pdfrwt beam="1">  1        1 0.17505593E+00 0.14903376E+04</pdfrwt>
<pdfrwt beam="2">  1       -1 0.75076803E-01 0.14903376E+04</pdfrwt>
<totfact> 0.20515325E+01</totfact>
</mgrwt>
</event>
<event>
12    1  0.4247462E-008  0.1811503E+04  0.7818608E-02  0.8700206E-01
          2   -1    0    0  501    0  0.00000000000E+00  0.00000000000E+00  0.16108425251E+04  0.16108425251E+04  0.00000000000E+00 0. -1.
         -2   -1    0    0    0  501 -0.00000000000E+00 -0.00000000000E+00 -0.50929007686E+03  0.50929007686E+03  0.00000000000E+00 0.  1.
         23    2    1    2    0    0  0.17131386292E+03 -0.24578922919E+03  0.11384059810E+04  0.11807384819E+04  0.91730039137E+02 0.  0.
        254    2    1    2    0    0 -0.17131386292E+03  0.24578922919E+03 -0.36853532831E+02  0.93939412007E+03  0.88957424936E+03 0.  0.
         23    2    4    4    0    0 -0.22472559250E+03 -0.30638635758E+02  0.36541237758E+03  0.43978986888E+03  0.91916294265E+02 0.  0.
         23    2    4    4    0    0  0.53411729577E+02  0.27642786494E+03 -0.40226591041E+03  0.49960425119E+03  0.92311254763E+02 0.  0.
         13    1    3    3    0    0  0.10578914278E+03 -0.14600813389E+03  0.50599296951E+03  0.53715789400E+03  0.00000000000E+00 0.  1.
        -13    1    3    3    0    0  0.65524720148E+02 -0.99781095295E+02  0.63241301151E+03  0.64358058785E+03  0.00000000000E+00 0. -1.
          4    1    5    5  502    0 -0.14179731365E+03 -0.63157043649E+02  0.24439915033E+03  0.28952760663E+03  0.00000000000E+00 0.  1.
          3    1    6    6  503    0  0.27673284178E+02  0.10682479789E+03 -0.23686019088E+03  0.26130460793E+03  0.00000000000E+00 0. -1.
         -4    1    5    5    0  502 -0.82928278847E+02  0.32518407891E+02  0.12101322725E+03  0.15026226224E+03  0.00000000000E+00 0. -1.
         -3    1    6    6    0  503  0.25738445399E+02  0.16960306705E+03 -0.16540571953E+03  0.23829964326E+03  0.00000000000E+00 0.  1.
<mgrwt>
<rscale>  0 0.18115034E+04</rscale>
<asrwt>0</asrwt>
<pdfrwt beam="1">  1        2 0.24782192E+00 0.18115034E+04</pdfrwt>
<pdfrwt beam="2">  1       -2 0.78352320E-01 0.18115034E+04</pdfrwt>
<totfact> 0.15023180E+01</totfact>
</mgrwt>
</event>
<event>
12    1  0.4247462E-008  0.2598983E+04  0.7818608E-02  0.8368547E-01
          2   -1    0    0  501    0  0.00000000000E+00  0.00000000000E+00  0.11838960625E+04  0.11838960625E+04  0.00000000000E+00 0. -1.
         -2   -1    0    0    0  501 -0.00000000000E+00 -0.00000000000E+00 -0.14263736513E+04  0.14263736513E+04  0.00000000000E+00 0.  1.
         23    2    1    2    0    0 -0.68921543528E+03 -0.80566989314E+03 -0.54825522072E+03  0.11971875907E+04  0.92479443346E+02 0.  0.
        254    2    1    2    0    0  0.68921543528E+03  0.80566989314E+03  0.30577763192E+03  0.14130821230E+04  0.88271129667E+03 0.  0.
         23    2    4    4    0    0  0.35035615542E+03  0.22817754019E+03  0.54749619040E+03  0.69493723909E+03  0.91494602480E+02 0.  0.
         23    2    4    4    0    0  0.33885927986E+03  0.57749235295E+03 -0.24171855849E+03  0.71814488393E+03  0.94769106414E+02 0.  0.
         11    1    3    3    0    0 -0.76787803173E+01 -0.14130760722E+02 -0.22917029132E+02  0.27997005018E+02  0.00000000000E+00 0. -1.
        -11    1    3    3    0    0 -0.68153665496E+03 -0.79153913242E+03 -0.52533819159E+03  0.11691905857E+04  0.00000000000E+00 0.  1.
          3    1    5    5  502    0  0.21730288036E+03  0.15713846843E+03  0.27902884817E+03  0.38700147052E+03  0.00000000000E+00 0. -1.
          3    1    6    6  503    0  0.12401713292E+03  0.28444684829E+03 -0.14260868609E+03  0.34150768089E+03  0.00000000000E+00 0. -1.
         -3    1    5    5    0  502  0.13305327506E+03  0.71039071759E+02  0.26846734223E+03  0.30793576857E+03  0.00000000000E+00 0.  1.
         -3    1    6    6    0  503  0.21484214694E+03  0.29304550466E+03 -0.99109872396E+02  0.37663720303E+03  0.00000000000E+00 0.  1.
<mgrwt>
<rscale>  0 0.25989830E+04</rscale>
<asrwt>0</asrwt>
<pdfrwt beam="1">  1        2 0.18213786E+00 0.25989830E+04</pdfrwt>
<pdfrwt beam="2">  1       -2 0.21944210E+00 0.25989830E+04</pdfrwt>
<totfact> 0.17070904E+00</totfact>
</mgrwt>
</event>
<event>
12    1  0.4247462E-008  0.1805746E+04  0.7818608E-02  0.8703250E-01
          2   -1    0    0  501    0  0.00000000000E+00  0.00000000000E+00  0.18881695455E+04  0.18881695455E+04  0.00000000000E+00 0. -1.
         -2   -1    0    0    0  501 -0.00000000000E+00 -0.00000000000E+00 -0.43173015060E+03  0.43173015060E+03  0.00000000000E+00 0.  1.
         23    2    1    2    0    0 -0.43383053785E+03 -0.42786892990E+03  0.19248811998E+03  0.64567072307E+03  0.92510807800E+02 0.  0.
        254    2    1    2    0    0  0.43383053785E+03  0.42786892990E+03  0.12639512749E+04  0.16742289730E+04  0.91333951626E+03 0.  0.
         23    2    4    4    0    0  0.25835478624E+03  0.50807226799E+03  0.23501776568E+03  0.62302066827E+03  0.89648077734E+02 0.  0.
         23    2    4    4    0    0  0.17547575161E+03 -0.80203338088E+02  0.10289335092E+04  0.10512083047E+04  0.95448513261E+02 0.  0.
         13    1    3    3    0    0 -0.22733574163E+03 -0.19715947808E+03  0.50845065860E+02  0.30518620536E+03  0.00000000000E+00 0. -1.
        -13    1    3    3    0    0 -0.20649479622E+03 -0.23070945181E+03  0.14164305412E+03  0.34048451771E+03  0.00000000000E+00 0.  1.
          4    1    5    5  502    0  0.12777432888E+03  0.15989050524E+03  0.95354317560E+02  0.22579570116E+03  0.00000000000E+00 0. -1.
          3    1    6    6  503    0  0.41734962011E+01  0.17519303007E+02  0.81401752215E+02  0.83370194386E+02  0.00000000000E+00 0. -1.
         -4    1    5    5    0  502  0.13058045735E+03  0.34818176275E+03  0.13966344812E+03  0.39722496711E+03  0.00000000000E+00 0.  1.
         -3    1    6    6    0  503  0.17130225541E+03 -0.97722641094E+02  0.94753175701E+03  0.96783811034E+03  0.00000000000E+00 0.  1.
<mgrwt>
<rscale>  0 0.18057461E+04</rscale>
<asrwt>0</asrwt>
<pdfrwt beam="1">  1        2 0.29048762E+00 0.18057461E+04</pdfrwt>
<pdfrwt beam="2">  1       -2 0.66420024E-01 0.18057461E+04</pdfrwt>
<totfact> 0.15156899E+01</totfact>
</mgrwt>
</event>
<event>
12    1  0.4247462E-008  0.2160315E+04  0.7818608E-02  0.8535130E-01
         -2   -1    0    0    0  501 -0.00000000000E+00  0.00000000000E+00  0.65561690992E+03  0.65561690992E+03  0.00000000000E+00 0. -1.
          2   -1    0    0  501    0  0.00000000000E+00 -0.00000000000E+00 -0.17796066743E+04  0.17796066743E+04  0.00000000000E+00 0.  1.
         23    2    1    2    0    0  0.54971572897E+03  0.18999684037E+03  0.29033015512E+03  0.65658641801E+03  0.92346864159E+02 0.  0.
        254    2    1    2    0    0 -0.54971572897E+03 -0.18999684037E+03 -0.14143199195E+04  0.17786371662E+04  0.90827482202E+03 0.  0.
         23    2    4    4    0    0 -0.50483974716E+03  0.28918052742E+03 -0.76635907146E+03  0.96630744514E+03  0.89192512924E+02 0.  0.
         23    2    4    4    0    0 -0.44875981809E+02 -0.47917736778E+03 -0.64796084805E+03  0.81232972108E+03  0.91659760082E+02 0.  0.
         11    1    3    3    0    0  0.13794140912E+03  0.17443637895E+02  0.39766828683E+02  0.14461505287E+03  0.00000000000E+00 0.  1.
        -11    1    3    3    0    0  0.41177431986E+03  0.17255320247E+03  0.25056332644E+03  0.51197136515E+03  0.00000000000E+00 0. -1.
          2    1    5    5  502    0 -0.35575608045E+03  0.24185344631E+03 -0.59601464636E+03  0.73504349323E+03  0.00000000000E+00 0. -1.
          4    1    6    6  503    0 -0.41087338060E+02 -0.74193306260E+02 -0.10570184445E+03  0.13552009432E+03  0.00000000000E+00 0. -1.
         -2    1    5    5    0  502 -0.14908366671E+03  0.47327081105E+02 -0.17034442511E+03  0.23126395191E+03  0.00000000000E+00 0.  1.
         -4    1    6    6    0  503 -0.37886437483E+01 -0.40498406152E+03 -0.54225900359E+03  0.67680962677E+03  0.00000000000E+00 0.  1.
<mgrwt>
<rscale>  0 0.21603150E+04</rscale>
<asrwt>0</asrwt>
<pdfrwt beam="1">  1        2 0.27378564E+00 0.21603150E+04</pdfrwt>
<pdfrwt beam="2">  1       -2 0.10086414E+00 0.21603150E+04</pdfrwt>
<totfact> 0.65728960E+00</totfact>
</mgrwt>
</event>
<event>
12    1  0.4247462E-008  0.1366088E+04  0.7818608E-02  0.8978738E-01
          2   -1    0    0  501    0  0.00000000000E+00  0.00000000000E+00  0.83043558290E+03  0.83043558290E+03  0.00000000000E+00 0. -1.
         -2   -1    0    0    0  501 -0.00000000000E+00 -0.00000000000E+00 -0.56181280435E+03  0.56181280435E+03  0.00000000000E+00 0.  1.
         23    2    1    2    0    0 -0.30654024064E+03  0.84793480278E+02  0.26975177273E+03  0.42673431604E+03  0.90439505562E+02 0.  0.
        254    2    1    2    0    0  0.30654024064E+03 -0.84793480278E+02 -0.11289941833E+01  0.96551407121E+03  0.91162453546E+03 0.  0.
         23    2    4    4    0    0  0.45764038917E+03  0.10169552231E+03  0.30472476250E+03  0.56600312078E+03  0.87895658572E+02 0.  0.
         23    2    4    4    0    0 -0.15110014852E+03 -0.18648900259E+03 -0.30585375669E+03  0.39951095043E+03  0.91940611614E+02 0.  0.
         13    1    3    3    0    0 -0.24585728639E+03  0.84932462245E+02  0.25505447990E+03  0.36429674186E+03  0.00000000000E+00 0.  1.
        -13    1    3    3    0    0 -0.60682954254E+02 -0.13898196706E+00  0.14697292826E+02  0.62437574179E+02  0.00000000000E+00 0. -1.
          2    1    5    5  502    0  0.41273923338E+03  0.74246372253E+02  0.29437116464E+03  0.51236762303E+03  0.00000000000E+00 0. -1.
          4    1    6    6  503    0 -0.32893886388E+01  0.10344487909E+02 -0.13890042565E+02  0.17628436975E+02  0.00000000000E+00 0.  1.
         -2    1    5    5    0  502  0.44901155788E+02  0.27449150055E+02  0.10353597868E+02  0.53635497748E+02  0.00000000000E+00 0.  1.
         -4    1    6    6    0  503 -0.14781075988E+03 -0.19683349050E+03 -0.29196371412E+03  0.38188251346E+03  0.00000000000E+00 0. -1.
<mgrwt>
<rscale>  0 0.13660883E+04</rscale>
<asrwt>0</asrwt>
<pdfrwt beam="1">  1        2 0.12775932E+00 0.13660883E+04</pdfrwt>
<pdfrwt beam="2">  1       -2 0.86432739E-01 0.13660883E+04</pdfrwt>
<totfact> 0.37083649E+01</totfact>
</mgrwt>
</event>
<event>
12    1  0.4247462E-008  0.1476688E+04  0.7818608E-02  0.8900105E-01
         -2   -1    0    0    0  501 -0.00000000000E+00  0.00000000000E+00  0.12360072499E+04  0.12360072499E+04  0.00000000000E+00 0.  1.
          2   -1    0    0  501    0  0.00000000000E+00 -0.00000000000E+00 -0.44105876634E+03  0.44105876634E+03  0.00000000000E+00 0. -1.
         23    2    1    2    0    0  0.30290709737E+03 -0.13015040513E+03  0.61079031620E+03  0.70010403934E+03  0.91591582307E+02 0.  0.
        254    2    1    2    0    0 -0.30290709737E+03  0.13015040513E+03  0.18415816737E+03  0.97696197690E+03  0.90102643474E+03 0.  0.
         23    2    4    4    0    0  0.21218036752E+03 -0.22635210376E+03  0.10431922025E+03  0.33905014986E+03  0.88412222967E+02 0.  0.
         23    2    4    4    0    0 -0.51508746489E+03  0.35650250889E+03  0.79838947119E+02  0.63791182704E+03  0.90266861408E+02 0.  0.
         11    1    3    3    0    0  0.19138650461E+03 -0.10748502859E+03  0.47259291529E+03  0.52108146110E+03  0.00000000000E+00 0.  1.
        -11    1    3    3    0    0  0.11152059276E+03 -0.22665376539E+02  0.13819740091E+03  0.17902257824E+03  0.00000000000E+00 0. -1.
          4    1    5    5  502    0  0.14177005922E+03 -0.20170010403E+03  0.93474494283E+02  0.26366486823E+03  0.00000000000E+00 0. -1.
          3    1    6    6  503    0 -0.51430740080E+03  0.34093725641E+03  0.80693719697E+02  0.62230361700E+03  0.00000000000E+00 0. -1.
         -4    1    5    5    0  502  0.70410308299E+02 -0.24651999730E+02  0.10844725972E+02  0.75385281633E+02  0.00000000000E+00 0.  1.
         -3    1    6    6    0  503 -0.78006409175E+00  0.15565252476E+02 -0.85477257853E+00  0.15608210044E+02  0.00000000000E+00 0.  1.
<mgrwt>
<rscale>  0 0.14766880E+04</rscale>
<asrwt>0</asrwt>
<pdfrwt beam="1">  1        2 0.67855196E-01 0.14766880E+04</pdfrwt>
<pdfrwt beam="2">  1       -2 0.19015496E+00 0.14766880E+04</pdfrwt>
<totfact> 0.10638667E+01</totfact>
</mgrwt>
</event>
<event>
12    1  0.4247462E-008  0.2874013E+04  0.7818608E-02  0.8280652E-01
         -1   -1    0    0    0  501 -0.00000000000E+00  0.00000000000E+00  0.86470170317E+03  0.86470170317E+03  0.00000000000E+00 0.  1.
          1   -1    0    0  501    0  0.00000000000E+00 -0.00000000000E+00 -0.23880924714E+04  0.23880924714E+04  0.00000000000E+00 0. -1.
         23    2    1    2    0    0  0.97382943821E+03 -0.51834928812E+02  0.27965060086E+03  0.10187545773E+04  0.92875161130E+02 0.  0.
        254    2    1    2    0    0 -0.97382943821E+03  0.51834928812E+02 -0.18030413690E+04  0.22340395973E+04  0.88822525808E+03 0.  0.
         23    2    4    4    0    0 -0.15061321710E+03  0.13826939518E+03 -0.11614193611E+04  0.11827722082E+04  0.90842705772E+02 0.  0.
         23    2    4    4    0    0 -0.82321622111E+03 -0.86434466366E+02 -0.64162200792E+03  0.10512673891E+04  0.91260389448E+02 0.  0.
         11    1    3    3    0    0  0.70011358561E+03 -0.26617826175E+02  0.24239895664E+03  0.74136684280E+03  0.00000000000E+00 0.  1.
        -11    1    3    3    0    0  0.27371585260E+03 -0.25217102637E+02  0.37251644219E+02  0.27738773446E+03  0.00000000000E+00 0. -1.
          1    1    5    5  502    0 -0.11745409507E+03  0.99300582008E+02 -0.61415957230E+03  0.63312561967E+03  0.00000000000E+00 0.  1.
          1    1    6    6  503    0 -0.74930424112E+02  0.13301017281E+02 -0.79601473257E+02  0.11012665464E+03  0.00000000000E+00 0. -1.
         -1    1    5    5    0  502 -0.33159122033E+02  0.38968813170E+02 -0.54725978881E+03  0.54964658848E+03  0.00000000000E+00 0. -1.
         -1    1    6    6    0  503 -0.74828579700E+03 -0.99735483647E+02 -0.56202053467E+03  0.94114073447E+03  0.00000000000E+00 0.  1.
<mgrwt>
<rscale>  0 0.28740130E+04</rscale>
<asrwt>0</asrwt>
<pdfrwt beam="1">  1        1 0.36739884E+00 0.28740130E+04</pdfrwt>
<pdfrwt beam="2">  1       -1 0.13303103E+00 0.28740130E+04</pdfrwt>
<totfact> 0.66593197E-01</totfact>
</mgrwt>
</event>
<event>
12    1  0.4247462E-008  0.1306244E+04  0.7818608E-02  0.9024628E-01
         -2   -1    0    0    0  501 -0.00000000000E+00  0.00000000000E+00  0.48409266165E+03  0.48409266165E+03  0.00000000000E+00 0.  1.
          2   -1    0    0  501    0  0.00000000000E+00 -0.00000000000E+00 -0.88117072639E+03  0.88117072639E+03  0.00000000000E+00 0. -1.
         23    2    1    2    0    0 -0.45195665210E+02 -0.22166389383E+03  0.15192404294E+03  0.28831293832E+03  0.94158937976E+02 0.  0.
        254    2    1    2    0    0  0.45195665210E+02  0.22166389383E+03 -0.54900210768E+03  0.10769504497E+04  0.89846615236E+03 0.  0.
         23    2    4    4    0    0 -0.11932474348E+02 -0.33251559463E+03 -0.30978919735E+03  0.46372037452E+03  0.91423379564E+02 0.  0.
         23    2    4    4    0    0  0.57128139558E+02  0.55417948846E+03 -0.23921291033E+03  0.61323007521E+03  0.91922678944E+02 0.  0.
         13    1    3    3    0    0 -0.49138770508E+02 -0.21353986933E+03  0.10953577461E+03  0.24497342811E+03  0.00000000000E+00 0. -1.
        -13    1    3    3    0    0  0.39431052976E+01 -0.81240244980E+01  0.42388268332E+02  0.43339510214E+02  0.00000000000E+00 0.  1.
          1    1    5    5  502    0 -0.42423536683E+02 -0.90637353757E+02 -0.10812695833E+03  0.14733066714E+03  0.00000000000E+00 0. -1.
          3    1    6    6  503    0  0.61791813996E+02  0.45696501492E+03 -0.16117118122E+03  0.48847866155E+03  0.00000000000E+00 0. -1.
         -1    1    5    5    0  502  0.30491062335E+02 -0.24187824088E+03 -0.20166223901E+03  0.31638970738E+03  0.00000000000E+00 0.  1.
         -3    1    6    6    0  503 -0.46636744373E+01  0.97214473547E+02 -0.78041729109E+02  0.12475141365E+03  0.00000000000E+00 0.  1.
<mgrwt>
<rscale>  0 0.13062439E+04</rscale>
<asrwt>0</asrwt>
<pdfrwt beam="1">  1        2 0.13556473E+00 0.13062439E+04</pdfrwt>
<pdfrwt beam="2">  1       -2 0.74475795E-01 0.13062439E+04</pdfrwt>
<totfact> 0.48006730E+01</totfact>
</mgrwt>
</event>
<event>
12    1  0.4247462E-008  0.2305152E+04  0.7818608E-02  0.8475892E-01
          2   -1    0    0  501    0  0.00000000000E+00  0.00000000000E+00  0.15257400194E+04  0.15257400194E+04  0.00000000000E+00 0. -1.
         -2   -1    0    0    0  501 -0.00000000000E+00 -0.00000000000E+00 -0.87068031671E+03  0.87068031671E+03  0.00000000000E+00 0.  1.
         23    2    1    2    0    0 -0.32388993191E+03  0.10677775965E+03 -0.66779751781E+03  0.75551991336E+03  0.92469653083E+02 0.  0.
        254    2    1    2    0    0  0.32388993191E+03 -0.10677775965E+03  0.13228572205E+04  0.16409004227E+04  0.90900868730E+03 0.  0.
         23    2    4    4    0    0 -0.18387737941E+03  0.20609018969E+03  0.77210945472E+03  0.82498128394E+03  0.90316398451E+02 0.  0.
         23    2    4    4    0    0  0.50776731133E+03 -0.31286794934E+03  0.55074776576E+03  0.81591913880E+03  0.81773732894E+02 0.  0.
         13    1    3    3    0    0 -0.23361728266E+03  0.55075075499E+02 -0.53848369014E+03  0.58955490266E+03  0.00000000000E+00 0.  1.
        -13    1    3    3    0    0 -0.90272649251E+02  0.51702684152E+02 -0.12931382767E+03  0.16596501070E+03  0.00000000000E+00 0. -1.
          4    1    5    5  502    0 -0.25768577617E+02  0.80965007626E+02  0.29558722065E+03  0.30755675422E+03  0.00000000000E+00 0. -1.
          1    1    6    6  503    0  0.48267206449E+03 -0.28998626226E+03  0.49051788804E+03  0.74677449918E+03  0.00000000000E+00 0. -1.
         -4    1    5    5    0  502 -0.15810880180E+03  0.12512518206E+03  0.47652223407E+03  0.51742452972E+03  0.00000000000E+00 0.  1.
         -1    1    6    6    0  503  0.25095246835E+02 -0.22881687076E+02  0.60229877728E+02  0.69144639621E+02  0.00000000000E+00 0.  1.
<mgrwt>
<rscale>  0 0.23051523E+04</rscale>
<asrwt>0</asrwt>
<pdfrwt beam="1">  1        2 0.23472923E+00 0.23051523E+04</pdfrwt>
<pdfrwt beam="2">  1       -2 0.13395082E+00 0.23051523E+04</pdfrwt>
<totfact> 0.44781546E+00</totfact>
</mgrwt>
</event>
<event>
12    1  0.4247462E-008  0.1748417E+04  0.7818608E-02  0.8734222E-01
          1   -1    0    0  501    0  0.00000000000E+00  0.00000000000E+00  0.98143940059E+03  0.98143940059E+03  0.00000000000E+00 0. -1.
         -1   -1    0    0    0  501 -0.00000000000E+00 -0.00000000000E+00 -0.77869325574E+03  0.77869325574E+03  0.00000000000E+00 0.  1.
         23    2    1    2    0    0  0.50056049633E+03  0.35977962639E+03 -0.93177289424E+02  0.63154607761E+03  0.10082782765E+03 0.  0.
        254    2    1    2    0    0 -0.50056049633E+03 -0.35977962639E+03  0.29592343427E+03  0.11285865787E+04  0.89785009699E+03 0.  0.
         23    2    4    4    0    0 -0.51029570573E+03  0.17382998146E+03  0.14228317032E+03  0.56582543099E+03  0.96412385383E+02 0.  0.
         23    2    4    4    0    0  0.97352094075E+01 -0.53360960785E+03  0.15364026395E+03  0.56276114773E+03  0.90888892557E+02 0.  0.
         11    1    3    3    0    0  0.13484898437E+02  0.38185349419E+02 -0.12171173398E+02  0.42285941611E+02  0.00000000000E+00 0. -1.
        -11    1    3    3    0    0  0.48707559789E+03  0.32159427697E+03 -0.81006116025E+02  0.58926013600E+03  0.00000000000E+00 0.  1.
          2    1    5    5  502    0 -0.25871080244E+03  0.37321828335E+02  0.70436074257E+02  0.27071283443E+03  0.00000000000E+00 0.  1.
          3    1    6    6  503    0 -0.20746285582E+02 -0.27968598021E+02  0.10005882189E+02  0.36232147592E+02  0.00000000000E+00 0. -1.
         -2    1    5    5    0  502 -0.25158490329E+03  0.13650815313E+03  0.71847096067E+02  0.29511259656E+03  0.00000000000E+00 0. -1.
         -3    1    6    6    0  503  0.30481494990E+02 -0.50564100983E+03  0.14363438176E+03  0.52652900014E+03  0.00000000000E+00 0.  1.
<mgrwt>
<rscale>  0 0.17484167E+04</rscale>
<asrwt>0</asrwt>
<pdfrwt beam="1">  1        1 0.15099068E+00 0.17484167E+04</pdfrwt>
<pdfrwt beam="2">  1       -1 0.11979896E+00 0.17484167E+04</pdfrwt>
<totfact> 0.92207118E+00</totfact>
</mgrwt>
</event>
<event>
12    1  0.4247462E-008  0.1390851E+04  0.7818608E-02  0.8960468E-01
          2   -1    0    0  501    0  0.00000000000E+00  0.00000000000E+00  0.18668979605E+04  0.18668979605E+04  0.00000000000E+00 0. -1.
         -2   -1    0    0    0  501 -0.00000000000E+00 -0.00000000000E+00 -0.25904821139E+03  0.25904821139E+03  0.00000000000E+00 0.  1.
         23    2    1    2    0    0  0.72195590984E+02 -0.40011506971E+03  0.37521692902E+03  0.56068348907E+03  0.90961303430E+02 0.  0.
        254    2    1    2    0    0 -0.72195590984E+02  0.40011506971E+03  0.12326328201E+04  0.15652626828E+04  0.87484817236E+03 0.  0.
         23    2    4    4    0    0 -0.32921169666E+03 -0.48018827558E+02  0.84369015298E+03  0.91195726124E+03  0.95743527669E+02 0.  0.
         23    2    4    4    0    0  0.25701610567E+03  0.44813389727E+03  0.38894266709E+03  0.65330542155E+03  0.93007027083E+02 0.  0.
         13    1    3    3    0    0 -0.10022575404E+02 -0.20033166950E+03  0.17926282896E+03  0.26901373881E+03  0.00000000000E+00 0. -1.
        -13    1    3    3    0    0  0.82218166388E+02 -0.19978340021E+03  0.19595410006E+03  0.29166975026E+03  0.00000000000E+00 0.  1.
          2    1    5    5  502    0 -0.69279549047E+01 -0.69306261853E+01  0.98957862951E+02  0.99441886438E+02  0.00000000000E+00 0. -1.
          4    1    6    6  503    0  0.26250913108E+02  0.12386180142E+03  0.84581986155E+02  0.15226611137E+03  0.00000000000E+00 0. -1.
         -2    1    5    5    0  502 -0.32228374175E+03 -0.41088201373E+02  0.74473229002E+03  0.81251537481E+03  0.00000000000E+00 0.  1.
         -4    1    6    6    0  503  0.23076519257E+03  0.32427209585E+03  0.30436068094E+03  0.50103931018E+03  0.00000000000E+00 0.  1.
<mgrwt>
<rscale>  0 0.13908509E+04</rscale>
<asrwt>0</asrwt>
<pdfrwt beam="1">  1        2 0.28721506E+00 0.13908509E+04</pdfrwt>
<pdfrwt beam="2">  1       -2 0.39853572E-01 0.13908509E+04</pdfrwt>
<totfact> 0.45968456E+01</totfact>
</mgrwt>
</event>
<event>
12    1  0.4247462E-008  0.2272219E+04  0.7818608E-02  0.8488956E-01
          2   -1    0    0  501    0  0.00000000000E+00  0.00000000000E+00  0.80108681581E+03  0.80108681581E+03  0.00000000000E+00 0. -1.
         -2   -1    0    0    0  501 -0.00000000000E+00 -0.00000000000E+00 -0.16112414239E+04  0.16112414239E+04  0.00000000000E+00 0.  1.
         23    2    1    2    0    0 -0.15565184530E+03  0.23114094324E+03  0.62821433848E+03  0.69339206541E+03  0.92117689505E+02 0.  0.
        254    2    1    2    0    0  0.15565184530E+03 -0.23114094324E+03 -0.14383689466E+04  0.17189361743E+04  0.89898982880E+03 0.  0.
         23    2    4    4    0    0 -0.33300501500E+03  0.34424246017E+02 -0.34889205384E+03  0.49205597916E+03  0.91192393684E+02 0.  0.
         23    2    4    4    0    0  0.48865686030E+03 -0.26556518926E+03 -0.10894768927E+04  0.12268801952E+04  0.94682187203E+02 0.  0.
         11    1    3    3    0    0 -0.23739461776E+02  0.11337442583E+03  0.22353643548E+03  0.25176548704E+03  0.00000000000E+00 0.  1.
        -11    1    3    3    0    0 -0.13191238352E+03  0.11776651741E+03  0.40467790299E+03  0.44162657837E+03  0.00000000000E+00 0. -1.
          2    1    5    5  502    0 -0.10508712286E+03 -0.87735693351E+01 -0.16596219442E+03  0.19663094590E+03  0.00000000000E+00 0.  1.
          3    1    6    6  503    0  0.43687209587E+03 -0.26743335914E+03 -0.99627536887E+03  0.11202421347E+04  0.00000000000E+00 0. -1.
         -2    1    5    5    0  502 -0.22791789214E+03  0.43197815352E+02 -0.18292985942E+03  0.29542503326E+03  0.00000000000E+00 0. -1.
         -3    1    6    6    0  503  0.51784764433E+02  0.18681698811E+01 -0.93201523873E+02  0.10663806046E+03  0.00000000000E+00 0.  1.
<mgrwt>
<rscale>  0 0.22722185E+04</rscale>
<asrwt>0</asrwt>
<pdfrwt beam="1">  1        2 0.12324413E+00 0.22722185E+04</pdfrwt>
<pdfrwt beam="2">  1       -2 0.24788330E+00 0.22722185E+04</pdfrwt>
<totfact> 0.20685384E+00</totfact>
</mgrwt>
</event>
<event>
12    1  0.4247462E-008  0.1290461E+04  0.7818608E-02  0.9037164E-01
          2   -1    0    0  501    0  0.00000000000E+00  0.00000000000E+00  0.37026854551E+03  0.37026854551E+03  0.00000000000E+00 0. -1.
         -2   -1    0    0    0  501 -0.00000000000E+00 -0.00000000000E+00 -0.11243804416E+04  0.11243804416E+04  0.00000000000E+00 0.  1.
         23    2    1    2    0    0 -0.24821969728E+03 -0.19274870486E+03 -0.30235035552E+03  0.44531996191E+03  0.90161242537E+02 0.  0.
        254    2    1    2    0    0  0.24821969728E+03  0.19274870486E+03 -0.45176154059E+03  0.10493290252E+04  0.89344156624E+03 0.  0.
         23    2    4    4    0    0  0.56089998811E+03  0.24205041040E+03 -0.28689840609E+03  0.68038991664E+03  0.86154195540E+02 0.  0.
         23    2    4    4    0    0 -0.31268029084E+03 -0.49301705543E+02 -0.16486313449E+03  0.36893910858E+03  0.93469729207E+02 0.  0.
         13    1    3    3    0    0 -0.14984623841E+03 -0.16119018634E+03 -0.17400426265E+03  0.28055953871E+03  0.00000000000E+00 0. -1.
        -13    1    3    3    0    0 -0.98373458865E+02 -0.31558518513E+02 -0.12834609287E+03  0.16476042321E+03  0.00000000000E+00 0.  1.
          2    1    5    5  502    0  0.25163981357E+03  0.76194105241E+02 -0.89409372739E+02  0.27770879241E+03  0.00000000000E+00 0. -1.
          4    1    6    6  503    0 -0.21827363411E+03 -0.18343387151E+02 -0.15655668865E+03  0.26923940270E+03  0.00000000000E+00 0. -1.
         -2    1    5    5    0  502  0.30926017454E+03  0.16585630516E+03 -0.19748903335E+03  0.40268112424E+03  0.00000000000E+00 0.  1.
         -4    1    6    6    0  503 -0.94406656723E+02 -0.30958318392E+02 -0.83064458410E+01  0.99699705886E+02  0.00000000000E+00 0.  1.
<mgrwt>
<rscale>  0 0.12904615E+04</rscale>
<asrwt>0</asrwt>
<pdfrwt beam="1">  1        2 0.56964393E-01 0.12904615E+04</pdfrwt>
<pdfrwt beam="2">  1       -2 0.17298160E+00 0.12904615E+04</pdfrwt>
<totfact> 0.17252690E+01</totfact>
</mgrwt>
</event>
<event>
12    1  0.4247462E-008  0.1757559E+04  0.7818608E-02  0.8729201E-01
          1   -1    0    0  501    0  0.00000000000E+00  0.00000000000E+00  0.93912842304E+03  0.93912842304E+03  0.00000000000E+00 0. -1.
         -1   -1    0    0    0  501 -0.00000000000E+00 -0.00000000000E+00 -0.82230842287E+03  0.82230842287E+03  0.00000000000E+00 0.  1.
         23    2    1    2    0    0  0.37360172745E+03  0.23202573589E+03  0.51425281510E+03  0.68186831333E+03  0.84108537046E+02 0.  0.
        254    2    1    2    0    0 -0.37360172745E+03 -0.23202573589E+03 -0.39743281493E+03  0.10795685326E+04  0.90227555729E+03 0.  0.
         23    2    4    4    0    0 -0.57384803384E+03  0.70751054685E+02 -0.39320164395E+03  0.70494429135E+03  0.89619436612E+02 0.  0.
         23    2    4    4    0    0  0.20024630639E+03 -0.30277679057E+03 -0.42311709817E+01  0.37462424123E+03  0.92482707454E+02 0.  0.
         11    1    3    3    0    0  0.12114624728E+03  0.86839194024E+02  0.11801122109E+03  0.19011603602E+03  0.00000000000E+00 0.  1.
        -11    1    3    3    0    0  0.25245548017E+03  0.14518654187E+03  0.39624159402E+03  0.49175227731E+03  0.00000000000E+00 0. -1.
          2    1    5    5  502    0 -0.53834840090E+03  0.50192451369E+02 -0.34380357022E+03  0.64073331256E+03  0.00000000000E+00 0.  1.
          1    1    6    6  503    0  0.57721517525E+02 -0.39474040013E+02  0.23908614871E+02  0.73902606757E+02  0.00000000000E+00 0. -1.
         -2    1    5    5    0  502 -0.35499632945E+02  0.20558603316E+02 -0.49398073727E+02  0.64210978793E+02  0.00000000000E+00 0. -1.
         -1    1    6    6    0  503  0.14252478886E+03 -0.26330275056E+03 -0.28139785853E+02  0.30072163447E+03  0.00000000000E+00 0.  1.
<mgrwt>
<rscale>  0 0.17575588E+04</rscale>
<asrwt>0</asrwt>
<pdfrwt beam="1">  1        1 0.14448130E+00 0.17575588E+04</pdfrwt>
<pdfrwt beam="2">  1       -1 0.12650899E+00 0.17575588E+04</pdfrwt>
<totfact> 0.86994540E+00</totfact>
</mgrwt>
</event>
<event>
12    1  0.4247462E-008  0.1633955E+04  0.7818608E-02  0.8799956E-01
          2   -1    0    0  501    0  0.00000000000E+00  0.00000000000E+00  0.11284478958E+04  0.11284478958E+04  0.00000000000E+00 0.  1.
         -2   -1    0    0    0  501 -0.00000000000E+00 -0.00000000000E+00 -0.59147775540E+03  0.59147775540E+03  0.00000000000E+00 0. -1.
         23    2    1    2    0    0  0.38576963159E+03  0.41557260785E+03  0.90963836297E+02  0.58151140877E+03  0.91445601114E+02 0.  0.
        254    2    1    2    0    0 -0.38576963159E+03 -0.41557260785E+03  0.44600630408E+03  0.11384142424E+04  0.88065121528E+03 0.  0.
         23    2    4    4    0    0  0.18527607941E+03  0.13474724972E+02  0.35556440826E+03  0.41315697085E+03  0.98812146652E+02 0.  0.
         23    2    4    4    0    0 -0.57104571100E+03 -0.42904733282E+03  0.90441895815E+02  0.72525727154E+03  0.87427430222E+02 0.  0.
         11    1    3    3    0    0  0.86745289079E+02  0.62400918024E+02 -0.11714312241E+02  0.10749811561E+03  0.00000000000E+00 0.  1.
        -11    1    3    3    0    0  0.29902434251E+03  0.35317168982E+03  0.10267814854E+03  0.47401329316E+03  0.00000000000E+00 0. -1.
          4    1    5    5  502    0  0.10575864642E+03  0.55822080024E+02  0.21967834218E+03  0.25011911149E+03  0.00000000000E+00 0. -1.
          1    1    6    6  503    0 -0.42632903015E+03 -0.28739562436E+03  0.94236289866E+02  0.52271709861E+03  0.00000000000E+00 0. -1.
         -4    1    5    5    0  502  0.79517432996E+02 -0.42347355051E+02  0.13588606608E+03  0.16303785936E+03  0.00000000000E+00 0.  1.
         -1    1    6    6    0  503 -0.14471668085E+03 -0.14165170846E+03 -0.37943940507E+01  0.20254017294E+03  0.00000000000E+00 0.  1.
<mgrwt>
<rscale>  0 0.16339545E+04</rscale>
<asrwt>0</asrwt>
<pdfrwt beam="1">  1        2 0.17360737E+00 0.16339545E+04</pdfrwt>
<pdfrwt beam="2">  1       -2 0.90996578E-01 0.16339545E+04</pdfrwt>
<totfact> 0.20623491E+01</totfact>
</mgrwt>
</event>
<event>
12    1  0.4247462E-008  0.2781322E+04  0.7818608E-02  0.8309091E-01
         -2   -1    0    0    0  501 -0.00000000000E+00  0.00000000000E+00  0.13321496703E+04  0.13321496703E+04  0.00000000000E+00 0.  1.
          2   -1    0    0  501    0  0.00000000000E+00 -0.00000000000E+00 -0.14517421403E+04  0.14517421403E+04  0.00000000000E+00 0. -1.
         23    2    1    2    0    0 -0.96945650261E+03 -0.33676282861E+03  0.64286650019E+03  0.12144636467E+04  0.91594208164E+02 0.  0.
        254    2    1    2    0    0  0.96945650261E+03  0.33676282861E+03 -0.76245897013E+03  0.15694281639E+04  0.91022303161E+03 0.  0.
         23    2    4    4    0    0  0.82963323427E+03  0.61392821598E+03 -0.66611876301E+03  0.12317854772E+04  0.91553796285E+02 0.  0.
         23    2    4    4    0    0  0.13982326835E+03 -0.27716538737E+03 -0.96340207123E+02  0.33764268669E+03  0.91378061060E+02 0.  0.
         11    1    3    3    0    0 -0.30618264174E+03 -0.12848552762E+03  0.25257758598E+03  0.41719513162E+03  0.00000000000E+00 0. -1.
        -11    1    3    3    0    0 -0.66327386087E+03 -0.20827730100E+03  0.39028891421E+03  0.79726851511E+03  0.00000000000E+00 0.  1.
          4    1    5    5  502    0  0.80652739874E+03  0.60297162851E+03 -0.66380561640E+03  0.12061090855E+04  0.00000000000E+00 0. -1.
          3    1    6    6  503    0  0.12498363277E+03 -0.25070892312E+03 -0.11411261938E+03  0.30248564015E+03  0.00000000000E+00 0. -1.
         -4    1    5    5    0  502  0.23105835523E+02  0.10956587470E+02 -0.23131466106E+01  0.25676391714E+02  0.00000000000E+00 0.  1.
         -3    1    6    6    0  503  0.14839635575E+02 -0.26456464247E+02  0.17772412257E+02  0.35157046546E+02  0.00000000000E+00 0.  1.
<mgrwt>
<rscale>  0 0.27813219E+04</rscale>
<asrwt>0</asrwt>
<pdfrwt beam="1">  1        2 0.22334494E+00 0.27813219E+04</pdfrwt>
<pdfrwt beam="2">  1       -2 0.20494610E+00 0.27813219E+04</pdfrwt>
<totfact> 0.14547063E+00</totfact>
</mgrwt>
</event>
<event>
12    1  0.4247462E-008  0.1831014E+04  0.7818608E-02  0.8689979E-01
          2   -1    0    0  501    0  0.00000000000E+00  0.00000000000E+00  0.11906193536E+04  0.11906193536E+04  0.00000000000E+00 0. -1.
         -2   -1    0    0    0  501 -0.00000000000E+00 -0.00000000000E+00 -0.70396354719E+03  0.70396354719E+03  0.00000000000E+00 0.  1.
         23    2    1    2    0    0 -0.49987441323E+03 -0.30748295626E+03  0.56962890679E+03  0.82235207498E+03  0.85823344044E+02 0.  0.
        254    2    1    2    0    0  0.49987441323E+03  0.30748295626E+03 -0.82973100412E+02  0.10722308258E+04  0.89351788509E+03 0.  0.
         23    2    4    4    0    0  0.66135132798E+03  0.36579093443E+03  0.14048835656E+03  0.77414049680E+03  0.91476465450E+02 0.  0.
         23    2    4    4    0    0 -0.16147691475E+03 -0.58307978166E+02 -0.22346145697E+03  0.29809032899E+03  0.97201888712E+02 0.  0.
         11    1    3    3    0    0 -0.14205052855E+03 -0.45404437365E+02  0.15745168726E+03  0.21686620164E+03  0.00000000000E+00 0.  1.
        -11    1    3    3    0    0 -0.35782388468E+03 -0.26207851889E+03  0.41217721953E+03  0.60548587334E+03  0.00000000000E+00 0. -1.
          2    1    5    5  502    0  0.36392568303E+03  0.23549332837E+03  0.45709634339E+02  0.43587656641E+03  0.00000000000E+00 0.  1.
          1    1    6    6  503    0  0.74182789191E+01  0.69907599513E+01 -0.36159169318E+02  0.37568432395E+02  0.00000000000E+00 0. -1.
         -2    1    5    5    0  502  0.29742564495E+03  0.13029760606E+03  0.94778722218E+02  0.33826393039E+03  0.00000000000E+00 0. -1.
         -1    1    6    6    0  503 -0.16889519367E+03 -0.65298738118E+02 -0.18730228765E+03  0.26052189659E+03  0.00000000000E+00 0.  1.
<mgrwt>
<rscale>  0 0.18310135E+04</rscale>
<asrwt>0</asrwt>
<pdfrwt beam="1">  1        2 0.18317221E+00 0.18310135E+04</pdfrwt>
<pdfrwt beam="2">  1       -2 0.10830208E+00 0.18310135E+04</pdfrwt>
<totfact> 0.12329796E+01</totfact>
</mgrwt>
</event>
<event>
12    1  0.4247462E-008  0.1601978E+04  0.7818608E-02  0.8819334E-01
         -2   -1    0    0    0  501 -0.00000000000E+00  0.00000000000E+00  0.24644766980E+03  0.24644766980E+03  0.00000000000E+00 0.  1.
          2   -1    0    0  501    0  0.00000000000E+00 -0.00000000000E+00 -0.26033241034E+04  0.26033241034E+04  0.00000000000E+00 0. -1.
         23    2    1    2    0    0  0.22489228993E+03 -0.23498295668E+03 -0.15881295290E+04  0.16235330593E+04  0.88941900950E+02 0.  0.
        254    2    1    2    0    0 -0.22489228993E+03  0.23498295668E+03 -0.76874690462E+03  0.12262387139E+04  0.89827392712E+03 0.  0.
         23    2    4    4    0    0 -0.66140181291E+02 -0.33405673771E+03 -0.24155597358E+03  0.42895920761E+03  0.98429090363E+02 0.  0.
         23    2    4    4    0    0 -0.15875210864E+03  0.56903969439E+03 -0.52719093104E+03  0.79727950630E+03  0.93359132420E+02 0.  0.
         13    1    3    3    0    0  0.27382058183E+02 -0.80411287124E+02 -0.47066292557E+03  0.47826701926E+03  0.00000000000E+00 0.  1.
        -13    1    3    3    0    0  0.19751023175E+03 -0.15457166956E+03 -0.11174666034E+04  0.11452660400E+04  0.00000000000E+00 0. -1.
          1    1    5    5  502    0  0.13563103209E+01  0.12820811513E+01 -0.22910989994E+02  0.22986882613E+02  0.00000000000E+00 0. -1.
          3    1    6    6  503    0 -0.93802717455E+02  0.19851075695E+03 -0.16066357664E+03  0.27206296199E+03  0.00000000000E+00 0. -1.
         -1    1    5    5    0  502 -0.67496491612E+02 -0.33533881886E+03 -0.21864498358E+03  0.40597232500E+03  0.00000000000E+00 0.  1.
         -3    1    6    6    0  503 -0.64949391183E+02  0.37052893744E+03 -0.36652735440E+03  0.52521654431E+03  0.00000000000E+00 0.  1.
<mgrwt>
<rscale>  0 0.16019777E+04</rscale>
<asrwt>0</asrwt>
<pdfrwt beam="1">  1        2 0.40051138E+00 0.16019777E+04</pdfrwt>
<pdfrwt beam="2">  1       -2 0.37915028E-01 0.16019777E+04</pdfrwt>
<totfact> 0.19123610E+01</totfact>
</mgrwt>
</event>
<event>
12    1  0.4247462E-008  0.1140623E+04  0.7818608E-02  0.9166478E-01
          2   -1    0    0  501    0  0.00000000000E+00  0.00000000000E+00  0.19855339730E+04  0.19855339730E+04  0.00000000000E+00 0. -1.
         -2   -1    0    0    0  501 -0.00000000000E+00 -0.00000000000E+00 -0.16381257352E+03  0.16381257352E+03  0.00000000000E+00 0.  1.
         23    2    1    2    0    0  0.58340379313E+02 -0.45930297560E+02  0.62559547119E+03  0.63683695849E+03  0.93158070124E+02 0.  0.
        254    2    1    2    0    0 -0.58340379313E+02  0.45930297560E+02  0.11961259283E+04  0.15125095881E+04  0.92274309833E+03 0.  0.
         23    2    4    4    0    0  0.39993078133E+03 -0.12495586087E+03  0.55639824067E+03  0.70193865095E+03  0.87064748638E+02 0.  0.
         23    2    4    4    0    0 -0.45827116065E+03  0.17088615843E+03  0.63972768766E+03  0.81057093713E+03  0.92515911828E+02 0.  0.
         11    1    3    3    0    0  0.55337983954E+02 -0.45614650965E+02  0.22336606310E+03  0.23459622119E+03  0.00000000000E+00 0.  1.
        -11    1    3    3    0    0  0.30023953588E+01 -0.31564659559E+00  0.40222940809E+03  0.40224073730E+03  0.00000000000E+00 0. -1.
          2    1    5    5  502    0  0.39311251443E+03 -0.13049150016E+03  0.55575871714E+03  0.69313291098E+03  0.00000000000E+00 0. -1.
          3    1    6    6  503    0 -0.31663523327E+03  0.16147380123E+03  0.44247286679E+03  0.56755078828E+03  0.00000000000E+00 0. -1.
         -2    1    5    5    0  502  0.68182669070E+01  0.55356392934E+01  0.63952352909E+00  0.88057399658E+01  0.00000000000E+00 0.  1.
         -3    1    6    6    0  503 -0.14163592737E+03  0.94123571991E+01  0.19725482087E+03  0.24302014885E+03  0.00000000000E+00 0.  1.
<mgrwt>
<rscale>  0 0.11406234E+04</rscale>
<asrwt>0</asrwt>
<pdfrwt beam="1">  1        2 0.30546675E+00 0.11406234E+04</pdfrwt>
<pdfrwt beam="2">  1       -2 0.25201936E-01 0.11406234E+04</pdfrwt>
<totfact> 0.95465879E+01</totfact>
</mgrwt>
</event>
<event>
12    1  0.4247462E-008  0.1306620E+04  0.7818608E-02  0.9024332E-01
          2   -1    0    0  501    0  0.00000000000E+00  0.00000000000E+00  0.31892656590E+03  0.31892656590E+03  0.00000000000E+00 0. -1.
         -2   -1    0    0    0  501 -0.00000000000E+00 -0.00000000000E+00 -0.13382829650E+04  0.13382829650E+04  0.00000000000E+00 0.  1.
         23    2    1    2    0    0  0.26512904283E+03  0.19270943185E+03 -0.19456643510E+03  0.39192961290E+03  0.91227130404E+02 0.  0.
        254    2    1    2    0    0 -0.26512904283E+03 -0.19270943185E+03 -0.82478996403E+03  0.12652799180E+04  0.90178958286E+03 0.  0.
         23    2    4    4    0    0 -0.46014493802E+03  0.19998281847E+03 -0.47329387142E+03  0.69589597038E+03  0.92399248914E+02 0.  0.
         23    2    4    4    0    0  0.19501589519E+03 -0.39269225033E+03 -0.35149609261E+03  0.56938394766E+03  0.91707000170E+02 0.  0.
         13    1    3    3    0    0  0.86740192393E+02  0.57796216819E+02 -0.11332691058E+03  0.15397159581E+03  0.00000000000E+00 0.  1.
        -13    1    3    3    0    0  0.17838885044E+03  0.13491321504E+03 -0.81239524516E+02  0.23795801708E+03  0.00000000000E+00 0. -1.
          1    1    5    5  502    0 -0.34474062186E+03  0.17110865667E+03 -0.40509506731E+03  0.55877212019E+03  0.00000000000E+00 0. -1.
          3    1    6    6  503    0  0.14228362978E+03 -0.23903001067E+03 -0.17093377599E+03  0.32649400160E+03  0.00000000000E+00 0. -1.
         -1    1    5    5    0  502 -0.11540431616E+03  0.28874161802E+02 -0.68198804110E+02  0.13712385019E+03  0.00000000000E+00 0.  1.
         -3    1    6    6    0  503  0.52732265415E+02 -0.15366223966E+03 -0.18056231662E+03  0.24288994606E+03  0.00000000000E+00 0.  1.
<mgrwt>
<rscale>  0 0.13066201E+04</rscale>
<asrwt>0</asrwt>
<pdfrwt beam="1">  1        2 0.49065625E-01 0.13066201E+04</pdfrwt>
<pdfrwt beam="2">  1       -2 0.20588969E+00 0.13066201E+04</pdfrwt>
<totfact> 0.12221096E+01</totfact>
</mgrwt>
</event>
<event>
12    1  0.4247462E-008  0.1554829E+04  0.7818608E-02  0.8848789E-01
          1   -1    0    0  501    0  0.00000000000E+00  0.00000000000E+00  0.10188209937E+04  0.10188209937E+04  0.00000000000E+00 0. -1.
         -1   -1    0    0    0  501 -0.00000000000E+00 -0.00000000000E+00 -0.59320853026E+03  0.59320853026E+03  0.00000000000E+00 0.  1.
         23    2    1    2    0    0 -0.54402257465E+02  0.37360744005E+03 -0.18797919767E+03  0.43298513305E+03  0.97968473522E+02 0.  0.
        254    2    1    2    0    0  0.54402257465E+02 -0.37360744005E+03  0.61359166110E+03  0.11790443909E+04  0.93333210823E+03 0.  0.
         23    2    4    4    0    0 -0.22677922952E+03 -0.57848878152E+03  0.49221007124E+03  0.79812185331E+03  0.93003490291E+02 0.  0.
         23    2    4    4    0    0  0.28118148698E+03  0.20488134147E+03  0.12138158986E+03  0.38092253759E+03  0.96587248547E+02 0.  0.
         13    1    3    3    0    0 -0.64560209846E+02  0.30548726867E+03 -0.18730857698E+03  0.36410849348E+03  0.00000000000E+00 0.  1.
        -13    1    3    3    0    0  0.10157952381E+02  0.68120171381E+02 -0.67062068725E+00  0.68876639564E+02  0.00000000000E+00 0. -1.
          2    1    5    5  502    0 -0.13823739120E+03 -0.37050412331E+03  0.36802560755E+03  0.54020896839E+03  0.00000000000E+00 0. -1.
          4    1    6    6  503    0  0.24707361120E+03  0.17268569853E+03  0.66423716557E+02  0.30867107080E+03  0.00000000000E+00 0. -1.
         -2    1    5    5    0  502 -0.88541838321E+02 -0.20798465821E+03  0.12418446369E+03  0.25791288492E+03  0.00000000000E+00 0.  1.
         -4    1    6    6    0  503  0.34107875781E+02  0.32195642942E+02  0.54957873307E+02  0.72251466789E+02  0.00000000000E+00 0.  1.
<mgrwt>
<rscale>  0 0.15548290E+04</rscale>
<asrwt>0</asrwt>
<pdfrwt beam="1">  1        1 0.15674169E+00 0.15548290E+04</pdfrwt>
<pdfrwt beam="2">  1       -1 0.91262851E-01 0.15548290E+04</pdfrwt>
<totfact> 0.16503941E+01</totfact>
</mgrwt>
</event>
<event>
12    1  0.4247462E-008  0.1196753E+04  0.7818608E-02  0.9115704E-01
          1   -1    0    0  501    0  0.00000000000E+00  0.00000000000E+00  0.32731061007E+04  0.32731061007E+04  0.00000000000E+00 0. -1.
         -1   -1    0    0    0  501 -0.00000000000E+00 -0.00000000000E+00 -0.10939278526E+03  0.10939278526E+03  0.00000000000E+00 0.  1.
         23    2    1    2    0    0  0.22600219772E+03  0.18000707417E+02  0.52799883693E+03  0.58180828850E+03  0.91198102652E+02 0.  0.
        254    2    1    2    0    0 -0.22600219772E+03 -0.18000707417E+02  0.26357144785E+04  0.28006905974E+04  0.91949768440E+03 0.  0.
         23    2    4    4    0    0  0.54159141472E+02  0.28158561874E+03  0.20923083945E+04  0.21138604783E+04  0.91804307223E+02 0.  0.
         23    2    4    4    0    0 -0.28016133919E+03 -0.29958632616E+03  0.54340608401E+03  0.68683011913E+03  0.90570953468E+02 0.  0.
         13    1    3    3    0    0  0.23260326791E+03  0.10472852177E+02  0.51653168303E+03  0.56658533378E+03  0.00000000000E+00 0.  1.
        -13    1    3    3    0    0 -0.66010701835E+01  0.75278552394E+01  0.11467153893E+02  0.15222954722E+02  0.00000000000E+00 0. -1.
          1    1    5    5  502    0  0.30754810367E+02  0.26454874871E+03  0.17280081627E+04  0.17484118820E+04  0.00000000000E+00 0. -1.
          3    1    6    6  503    0 -0.25199544096E+03 -0.23944393358E+03  0.40791223196E+03  0.53593608628E+03  0.00000000000E+00 0. -1.
         -1    1    5    5    0  502  0.23404331105E+02  0.17036870039E+02  0.36430023176E+03  0.36544859627E+03  0.00000000000E+00 0.  1.
         -3    1    6    6    0  503 -0.28165898230E+02 -0.60142392580E+02  0.13549385204E+03  0.15089403285E+03  0.00000000000E+00 0.  1.
<mgrwt>
<rscale>  0 0.11967526E+04</rscale>
<asrwt>0</asrwt>
<pdfrwt beam="1">  1        1 0.50355471E+00 0.11967526E+04</pdfrwt>
<pdfrwt beam="2">  1       -1 0.16829662E-01 0.11967526E+04</pdfrwt>
<totfact> 0.10282049E+01</totfact>
</mgrwt>
</event>
<event>
12    1  0.4247462E-008  0.1941934E+04  0.7818608E-02  0.8634260E-01
         -1   -1    0    0    0  501 -0.00000000000E+00  0.00000000000E+00  0.58312418011E+03  0.58312418011E+03  0.00000000000E+00 0.  1.
          1   -1    0    0  501    0  0.00000000000E+00 -0.00000000000E+00 -0.16167686784E+04  0.16167686784E+04  0.00000000000E+00 0. -1.
         23    2    1    2    0    0 -0.38179582179E+03  0.36660971650E+03 -0.10280144443E+04  0.11600604928E+04  0.93573049313E+02 0.  0.
        254    2    1    2    0    0  0.38179582179E+03 -0.36660971650E+03 -0.56300540549E+01  0.10398323657E+04  0.89501336168E+03 0.  0.
         23    2    4    4    0    0  0.57207703461E+03 -0.51850221457E+03  0.24699096926E+02  0.77781325819E+03  0.90921610128E+02 0.  0.
         23    2    4    4    0    0 -0.19028121282E+03  0.15189249807E+03 -0.30329150981E+02  0.26201910755E+03  0.91955882916E+02 0.  0.
         13    1    3    3    0    0 -0.32022960091E+03  0.29866483861E+03 -0.91615559156E+03  0.10154254040E+04  0.00000000000E+00 0. -1.
        -13    1    3    3    0    0 -0.61566220879E+02  0.67944877891E+02 -0.11185885270E+03  0.14463508880E+03  0.00000000000E+00 0.  1.
          1    1    6    6  502    0 -0.68541210035E+02  0.45094791023E+02  0.32588861575E+02  0.88280640852E+02  0.00000000000E+00 0. -1.
          1    1    5    5  503    0  0.72615593901E+02 -0.10137427909E+03  0.24471007681E+02  0.12707713860E+03  0.00000000000E+00 0. -1.
         -1    1    5    5    0  503  0.49946144071E+03 -0.41712793548E+03  0.22808924467E+00  0.65073611959E+03  0.00000000000E+00 0.  1.
         -1    1    6    6    0  502 -0.12174000278E+03  0.10679770705E+03 -0.62918012556E+02  0.17373846670E+03  0.00000000000E+00 0.  1.
<mgrwt>
<rscale>  0 0.19419340E+04</rscale>
<asrwt>0</asrwt>
<pdfrwt beam="1">  1        1 0.24873364E+00 0.19419340E+04</pdfrwt>
<pdfrwt beam="2">  1       -1 0.89711412E-01 0.19419340E+04</pdfrwt>
<totfact> 0.61625967E+00</totfact>
</mgrwt>
</event>
<event>
12    1  0.4247462E-008  0.1290862E+04  0.7818608E-02  0.9036843E-01
          2   -1    0    0  501    0  0.00000000000E+00  0.00000000000E+00  0.35971118292E+04  0.35971118292E+04  0.00000000000E+00 0. -1.
         -2   -1    0    0    0  501 -0.00000000000E+00 -0.00000000000E+00 -0.11580993429E+03  0.11580993429E+03  0.00000000000E+00 0.  1.
         23    2    1    2    0    0  0.15625054975E+03  0.21669407590E+03  0.13238411292E+04  0.13537529869E+04  0.93387673326E+02 0.  0.
        254    2    1    2    0    0 -0.15625054975E+03 -0.21669407590E+03  0.21574607658E+04  0.23591687766E+04  0.91633498445E+03 0.  0.
         23    2    4    4    0    0 -0.18038000444E+03 -0.66036874892E+02  0.17413221811E+02  0.21176400027E+03  0.87424005125E+02 0.  0.
         23    2    4    4    0    0  0.24129454691E+02 -0.15065720101E+03  0.21400475440E+04  0.21474047763E+04  0.90906325973E+02 0.  0.
         11    1    3    3    0    0  0.24063330571E+02  0.62611759236E+02  0.18119297074E+03  0.19321016774E+03  0.00000000000E+00 0.  1.
        -11    1    3    3    0    0  0.13218721917E+03  0.15408231666E+03  0.11426481584E+04  0.11605428192E+04  0.00000000000E+00 0. -1.
          2    1    5    5  502    0 -0.81525754799E+02 -0.53051560272E+01  0.43919631989E+02  0.92755201741E+02  0.00000000000E+00 0. -1.
          1    1    6    6  503    0  0.37519498456E+02 -0.13669961212E+02  0.46408557606E+03  0.46580038913E+03  0.00000000000E+00 0. -1.
         -2    1    5    5    0  502 -0.98854249638E+02 -0.60731718865E+02 -0.26506410178E+02  0.11900879853E+03  0.00000000000E+00 0.  1.
         -1    1    6    6    0  503 -0.13390043766E+02 -0.13698723980E+03  0.16759619679E+04  0.16816043872E+04  0.00000000000E+00 0.  1.
<mgrwt>
<rscale>  0 0.12908622E+04</rscale>
<asrwt>0</asrwt>
<pdfrwt beam="1">  1        2 0.55340173E+00 0.12908622E+04</pdfrwt>
<pdfrwt beam="2">  1       -2 0.17816916E-01 0.12908622E+04</pdfrwt>
<totfact> 0.18216512E+01</totfact>
</mgrwt>
</event>
<event>
12    1  0.4247462E-008  0.1721261E+04  0.7818608E-02  0.8749331E-01
         -2   -1    0    0    0  501 -0.00000000000E+00  0.00000000000E+00  0.16758333131E+03  0.16758333131E+03  0.00000000000E+00 0.  1.
          2   -1    0    0  501    0  0.00000000000E+00 -0.00000000000E+00 -0.44197977541E+04  0.44197977541E+04  0.00000000000E+00 0. -1.
         23    2    1    2    0    0  0.63141129546E+02  0.12554641282E+03  0.58098915548E+02  0.17762207934E+03  0.91790059740E+02 0.  0.
        254    2    1    2    0    0 -0.63141129546E+02 -0.12554641282E+03 -0.43103133383E+04  0.44097590060E+04  0.92055674077E+03 0.  0.
         23    2    4    4    0    0 -0.22634649355E+03 -0.29125920099E+03 -0.39674201390E+04  0.39855554130E+04  0.90358915667E+02 0.  0.
         23    2    4    4    0    0  0.16320536400E+03  0.16571278817E+03 -0.34289319929E+03  0.42420359300E+03  0.90973750023E+02 0.  0.
         11    1    3    3    0    0 -0.14773516688E+02  0.63432864827E+02  0.39753211833E+02  0.76304016844E+02  0.00000000000E+00 0. -1.
        -11    1    3    3    0    0  0.77914646235E+02  0.62113547994E+02  0.18345703715E+02  0.10131806249E+03  0.00000000000E+00 0.  1.
          4    1    5    5  502    0 -0.51020814369E+01 -0.34275942350E+01 -0.11745274117E+02  0.13256360787E+02  0.00000000000E+00 0. -1.
          1    1    6    6  503    0  0.37431930660E+02  0.86806132629E+02 -0.18318991736E+03  0.20614315394E+03  0.00000000000E+00 0. -1.
         -4    1    5    5    0  502 -0.22124441211E+03 -0.28783160676E+03 -0.39556748649E+04  0.39722990522E+04  0.00000000000E+00 0.  1.
         -1    1    6    6    0  503  0.12577343334E+03  0.78906655544E+02 -0.15970328193E+03  0.21806043906E+03  0.00000000000E+00 0.  1.
<mgrwt>
<rscale>  0 0.17212605E+04</rscale>
<asrwt>0</asrwt>
<pdfrwt beam="1">  1        2 0.67996891E+00 0.17212605E+04</pdfrwt>
<pdfrwt beam="2">  1       -2 0.25782050E-01 0.17212605E+04</pdfrwt>
<totfact> 0.19404423E+00</totfact>
</mgrwt>
</event>
<event>
12    1  0.4247462E-008  0.1539025E+04  0.7818608E-02  0.8858909E-01
         -2   -1    0    0    0  501 -0.00000000000E+00  0.00000000000E+00  0.39147565722E+03  0.39147565722E+03  0.00000000000E+00 0.  1.
          2   -1    0    0  501    0  0.00000000000E+00 -0.00000000000E+00 -0.15126086920E+04  0.15126086920E+04  0.00000000000E+00 0. -1.
         23    2    1    2    0    0 -0.30084575358E+03  0.19922500531E+03  0.61366053413E+02  0.37698963888E+03  0.90314036143E+02 0.  0.
        254    2    1    2    0    0  0.30084575358E+03 -0.19922500531E+03 -0.11824990881E+04  0.15270947103E+04  0.89639019994E+03 0.  0.
         23    2    4    4    0    0  0.52622896955E+03 -0.38516005244E+03 -0.76629254511E+03  0.10105354324E+04  0.93340243662E+02 0.  0.
         23    2    4    4    0    0 -0.22538321597E+03  0.18593504713E+03 -0.41620654304E+03  0.51655927787E+03  0.90753321139E+02 0.  0.
         13    1    3    3    0    0 -0.12436933977E+03  0.36853466698E+02  0.10816432569E+01  0.12971923772E+03  0.00000000000E+00 0. -1.
        -13    1    3    3    0    0 -0.17647641381E+03  0.16237153861E+03  0.60284410156E+02  0.24727040116E+03  0.00000000000E+00 0.  1.
          4    1    5    5  502    0  0.28058003177E+03 -0.19110469960E+03 -0.46769299034E+03  0.57791253114E+03  0.00000000000E+00 0. -1.
          1    1    6    6  503    0 -0.15805207872E+03  0.13155497965E+03 -0.21490848938E+03  0.29744382842E+03  0.00000000000E+00 0. -1.
         -4    1    5    5    0  502  0.24564893778E+03 -0.19405535284E+03 -0.29859955478E+03  0.43262290128E+03  0.00000000000E+00 0.  1.
         -1    1    6    6    0  503 -0.67331137254E+02  0.54380067484E+02 -0.20129805366E+03  0.21911544946E+03  0.00000000000E+00 0.  1.
<mgrwt>
<rscale>  0 0.15390250E+04</rscale>
<asrwt>0</asrwt>
<pdfrwt beam="1">  1        2 0.23270903E+00 0.15390250E+04</pdfrwt>
<pdfrwt beam="2">  1       -2 0.60227024E-01 0.15390250E+04</pdfrwt>
<totfact> 0.30904484E+01</totfact>
</mgrwt>
</event>
<event>
12    1  0.4247462E-008  0.1950906E+04  0.7818608E-02  0.8629924E-01
         -2   -1    0    0    0  501 -0.00000000000E+00  0.00000000000E+00  0.12611050882E+04  0.12611050882E+04  0.00000000000E+00 0. -1.
          2   -1    0    0  501    0  0.00000000000E+00 -0.00000000000E+00 -0.75450385690E+03  0.75450385690E+03  0.00000000000E+00 0.  1.
         23    2    1    2    0    0  0.67695389805E+03  0.30778546055E+03  0.37385378933E+03  0.83739152364E+03  0.91975204552E+02 0.  0.
        254    2    1    2    0    0 -0.67695389805E+03 -0.30778546055E+03  0.13274744201E+03  0.11782174215E+04  0.90419905948E+03 0.  0.
         23    2    4    4    0    0  0.61874803289E+02 -0.52461339372E+02 -0.26827430487E+03  0.29512876152E+03  0.92461883012E+02 0.  0.
         23    2    4    4    0    0 -0.73882870134E+03 -0.25532412117E+03  0.40102174689E+03  0.88308865998E+03  0.89268601026E+02 0.  0.
         11    1    3    3    0    0  0.63063593644E+03  0.26194861890E+03  0.35453298005E+03  0.76942341868E+03  0.00000000000E+00 0. -1.
        -11    1    3    3    0    0  0.46317961614E+02  0.45836841647E+02  0.19320809279E+02  0.67968104957E+02  0.00000000000E+00 0.  1.
          4    1    5    5  502    0  0.45794126522E+02 -0.74354544761E+02 -0.24225529858E+03  0.25751374728E+03  0.00000000000E+00 0. -1.
          3    1    6    6  503    0 -0.29981948820E+03 -0.78178342863E+02  0.19991724194E+03  0.36874175573E+03  0.00000000000E+00 0. -1.
         -4    1    5    5    0  502  0.16080676767E+02  0.21893205389E+02 -0.26019006299E+02  0.37615014240E+02  0.00000000000E+00 0.  1.
         -3    1    6    6    0  503 -0.43900921315E+03 -0.17714577831E+03  0.20110450495E+03  0.51434690425E+03  0.00000000000E+00 0.  1.
<mgrwt>
<rscale>  0 0.19509061E+04</rscale>
<asrwt>0</asrwt>
<pdfrwt beam="1">  1        2 0.11607752E+00 0.19509061E+04</pdfrwt>
<pdfrwt beam="2">  1       -2 0.19401617E+00 0.19509061E+04</pdfrwt>
<totfact> 0.50536868E+00</totfact>
</mgrwt>
</event>
<event>
12    1  0.4247462E-008  0.1169810E+04  0.7818608E-02  0.9139700E-01
          4   -1    0    0  501    0  0.00000000000E+00  0.00000000000E+00  0.65006756447E+03  0.65006756447E+03  0.00000000000E+00 0. -1.
         -4   -1    0    0    0  501 -0.00000000000E+00 -0.00000000000E+00 -0.52627414873E+03  0.52627414873E+03  0.00000000000E+00 0.  1.
         23    2    1    2    0    0 -0.15858516607E+03 -0.33830634910E+02 -0.15177958009E+03  0.23920672221E+03  0.88820314456E+02 0.  0.
        254    2    1    2    0    0  0.15858516607E+03  0.33830634910E+02  0.27557299582E+03  0.93713499099E+03  0.88090166793E+03 0.  0.
         23    2    4    4    0    0 -0.24252140429E+03 -0.26984702729E+03  0.17599691868E+03  0.41530636325E+03  0.99349938552E+02 0.  0.
         23    2    4    4    0    0  0.40110657037E+03  0.30367766220E+03  0.99576077137E+02  0.52182862774E+03  0.96348940211E+02 0.  0.
         13    1    3    3    0    0 -0.93623144364E+01  0.13569962708E+02  0.54034221783E+01  0.17349172624E+02  0.00000000000E+00 0. -1.
        -13    1    3    3    0    0 -0.14922285164E+03 -0.47400597618E+02 -0.15718300227E+03  0.22185754958E+03  0.00000000000E+00 0.  1.
          2    1    5    5  502    0 -0.60288163160E+02 -0.13639814806E+03  0.54065497482E+02  0.15862596077E+03  0.00000000000E+00 0. -1.
          1    1    6    6  503    0  0.11034588721E+03  0.11617773413E+03  0.69166663417E+02  0.17452079550E+03  0.00000000000E+00 0. -1.
         -2    1    5    5    0  502 -0.18223324113E+03 -0.13344887924E+03  0.12193142120E+03  0.25668040248E+03  0.00000000000E+00 0.  1.
         -1    1    6    6    0  503  0.29076068316E+03  0.18749992807E+03  0.30409413720E+02  0.34730783224E+03  0.00000000000E+00 0.  1.
<mgrwt>
<rscale>  0 0.11698098E+04</rscale>
<asrwt>0</asrwt>
<pdfrwt beam="1">  1        4 0.10001039E+00 0.11698098E+04</pdfrwt>
<pdfrwt beam="2">  1       -4 0.80965254E-01 0.11698098E+04</pdfrwt>
<totfact> 0.21965236E+00</totfact>
</mgrwt>
</event>
<event>
12    1  0.4247462E-008  0.1321903E+04  0.7818608E-02  0.9012374E-01
         -2   -1    0    0    0  501 -0.00000000000E+00  0.00000000000E+00  0.56244189130E+03  0.56244189130E+03  0.00000000000E+00 0. -1.
          2   -1    0    0  501    0  0.00000000000E+00 -0.00000000000E+00 -0.77671514800E+03  0.77671514800E+03  0.00000000000E+00 0.  1.
         23    2    1    2    0    0  0.46593704311E+02  0.18365904457E+02  0.29539439795E+03  0.31320923670E+03  0.91290174084E+02 0.  0.
        254    2    1    2    0    0 -0.46593704311E+02 -0.18365904457E+02 -0.50966765465E+03  0.10259478026E+04  0.88898790528E+03 0.  0.
         23    2    4    4    0    0  0.23649204960E+03  0.28058372046E+03 -0.46596951587E+03  0.59969000095E+03  0.88570840610E+02 0.  0.
         23    2    4    4    0    0 -0.28308575391E+03 -0.29894962492E+03 -0.43698138779E+02  0.42625780165E+03  0.10137930669E+03 0.  0.
         11    1    3    3    0    0  0.49736261005E+02  0.43660260950E+02  0.26687977843E+03  0.27496314331E+03  0.00000000000E+00 0. -1.
        -11    1    3    3    0    0 -0.31425566942E+01 -0.25294356492E+02  0.28514619524E+02  0.38246093389E+02  0.00000000000E+00 0.  1.
          4    1    5    5  502    0  0.40717925949E+02  0.81378338352E+01 -0.42315677616E+02  0.59285667789E+02  0.00000000000E+00 0. -1.
          3    1    6    6  503    0 -0.12602356754E+03 -0.81484048799E+02 -0.49251289532E+02  0.15794707754E+03  0.00000000000E+00 0. -1.
         -4    1    5    5    0  502  0.19577412365E+03  0.27244588663E+03 -0.42365383825E+03  0.54040433316E+03  0.00000000000E+00 0.  1.
         -3    1    6    6    0  503 -0.15706218637E+03 -0.21746557612E+03  0.55531507523E+01  0.26831072411E+03  0.00000000000E+00 0.  1.
<mgrwt>
<rscale>  0 0.13219034E+04</rscale>
<asrwt>0</asrwt>
<pdfrwt beam="1">  1        2 0.11949464E+00 0.13219034E+04</pdfrwt>
<pdfrwt beam="2">  1       -2 0.86529522E-01 0.13219034E+04</pdfrwt>
<totfact> 0.40571452E+01</totfact>
</mgrwt>
</event>
<event>
12    1  0.4247462E-008  0.1816190E+04  0.7818608E-02  0.8697737E-01
          2   -1    0    0  501    0  0.00000000000E+00  0.00000000000E+00  0.17917273570E+04  0.17917273570E+04  0.00000000000E+00 0.  1.
         -2   -1    0    0    0  501 -0.00000000000E+00 -0.00000000000E+00 -0.46024648942E+03  0.46024648942E+03  0.00000000000E+00 0. -1.
         23    2    1    2    0    0 -0.63691809185E+02 -0.38330743504E+03 -0.20658299215E+03  0.44907696350E+03  0.89511732112E+02 0.  0.
        254    2    1    2    0    0  0.63691809185E+02  0.38330743504E+03  0.15380638597E+04  0.18028968829E+04  0.85663031555E+03 0.  0.
         23    2    4    4    0    0 -0.26330499470E+03  0.15208534546E+03  0.12769788867E+04  0.13162749469E+04  0.97186347020E+02 0.  0.
         23    2    4    4    0    0  0.32699680389E+03  0.23122208958E+03  0.26108497294E+03  0.48662193600E+03  0.90801877961E+02 0.  0.
         11    1    3    3    0    0  0.68640757374E+01 -0.16277741688E+03 -0.11801293370E+03  0.20117319778E+03  0.00000000000E+00 0.  1.
        -11    1    3    3    0    0 -0.70555884922E+02 -0.22053001816E+03 -0.88570058446E+02  0.24790376572E+03  0.00000000000E+00 0. -1.
          1    1    5    5  502    0 -0.11866977435E+03  0.12138179999E+03  0.74800074397E+03  0.76702097083E+03  0.00000000000E+00 0. -1.
          3    1    6    6  503    0  0.30868277150E+03  0.21189374252E+03  0.21067989823E+03  0.42961614385E+03  0.00000000000E+00 0. -1.
         -1    1    5    5    0  502 -0.14463522035E+03  0.30703545466E+02  0.52897814278E+03  0.54925397605E+03  0.00000000000E+00 0.  1.
         -3    1    6    6    0  503  0.18314032386E+02  0.19328347062E+02  0.50405074705E+02  0.57005792148E+02  0.00000000000E+00 0.  1.
<mgrwt>
<rscale>  0 0.18161897E+04</rscale>
<asrwt>0</asrwt>
<pdfrwt beam="1">  1        2 0.27565036E+00 0.18161897E+04</pdfrwt>
<pdfrwt beam="2">  1       -2 0.70807153E-01 0.18161897E+04</pdfrwt>
<totfact> 0.14903890E+01</totfact>
</mgrwt>
</event>
<event>
12    1  0.4247462E-008  0.2570943E+04  0.7818608E-02  0.8378139E-01
          2   -1    0    0  501    0  0.00000000000E+00  0.00000000000E+00  0.61947027355E+03  0.61947027355E+03  0.00000000000E+00 0.  1.
         -2   -1    0    0    0  501 -0.00000000000E+00 -0.00000000000E+00 -0.26675005164E+04  0.26675005164E+04  0.00000000000E+00 0. -1.
         23    2    1    2    0    0 -0.44215218734E+03  0.59896555150E+03 -0.19820472653E+04  0.21191877200E+04  0.90481723170E+02 0.  0.
        254    2    1    2    0    0  0.44215218734E+03 -0.59896555150E+03 -0.65982977557E+02  0.11677830699E+04  0.89727657743E+03 0.  0.
         23    2    4    4    0    0  0.58896637724E+03 -0.73046392340E+03 -0.26142329949E+02  0.94308567012E+03  0.90929768885E+02 0.  0.
         23    2    4    4    0    0 -0.14681418990E+03  0.13149837190E+03 -0.39840647609E+02  0.22469739980E+03  0.10027669772E+03 0.  0.
         11    1    3    3    0    0 -0.37154355678E+03  0.44774231279E+03 -0.15892554445E+04  0.16924097202E+04  0.00000000000E+00 0. -1.
        -11    1    3    3    0    0 -0.70608630562E+02  0.15122323871E+03 -0.39279182077E+03  0.42677799978E+03  0.00000000000E+00 0.  1.
          1    1    5    5  502    0  0.54911348501E+03 -0.63737588660E+03 -0.17779536855E+02  0.84148069031E+03  0.00000000000E+00 0. -1.
          1    1    6    6  503    0 -0.13562730753E+03  0.11135121767E+03 -0.68100536779E+02  0.18823268402E+03  0.00000000000E+00 0. -1.
         -1    1    5    5    0  502  0.39852892233E+02 -0.93088036793E+02 -0.83627930936E+01  0.10160497981E+03  0.00000000000E+00 0.  1.
         -1    1    6    6    0  503 -0.11186882369E+02  0.20147154232E+02  0.28259889170E+02  0.36464715777E+02  0.00000000000E+00 0.  1.
<mgrwt>
<rscale>  0 0.25709432E+04</rscale>
<asrwt>0</asrwt>
<pdfrwt beam="1">  1        2 0.95303120E-01 0.25709432E+04</pdfrwt>
<pdfrwt beam="2">  1       -2 0.41038469E+00 0.25709432E+04</pdfrwt>
<totfact> 0.26836684E-01</totfact>
</mgrwt>
</event>
<event>
12    1  0.4247462E-008  0.2804250E+04  0.7818608E-02  0.8301950E-01
          2   -1    0    0  501    0  0.00000000000E+00  0.00000000000E+00  0.17657707006E+04  0.17657707006E+04  0.00000000000E+00 0. -1.
         -2   -1    0    0    0  501 -0.00000000000E+00 -0.00000000000E+00 -0.11133692191E+04  0.11133692191E+04  0.00000000000E+00 0.  1.
         23    2    1    2    0    0  0.26462419846E+03  0.15865140872E+03  0.15421106415E+04  0.15753810077E+04  0.92324714128E+02 0.  0.
        254    2    1    2    0    0 -0.26462419846E+03 -0.15865140872E+03 -0.88970916003E+03  0.13037589120E+04  0.90166993703E+03 0.  0.
         23    2    4    4    0    0 -0.29084028483E+03  0.27128252580E+03 -0.72773855811E+03  0.83432706131E+03  0.91191864681E+02 0.  0.
         23    2    4    4    0    0  0.26216086369E+02 -0.42993393451E+03 -0.16197060192E+03  0.46943185072E+03  0.92743276587E+02 0.  0.
         11    1    3    3    0    0  0.68588298817E+02  0.80503223868E+02  0.65708031923E+03  0.66553712872E+03  0.00000000000E+00 0. -1.
        -11    1    3    3    0    0  0.19603589964E+03  0.78148184847E+02  0.88503032229E+03  0.90984387898E+03  0.00000000000E+00 0.  1.
          3    1    6    6  502    0  0.81727359417E+01 -0.41820043517E+03 -0.14762803542E+03  0.44356784648E+03  0.00000000000E+00 0. -1.
          3    1    5    5  503    0 -0.27145722583E+03  0.23382571863E+03 -0.58987254338E+03  0.69015440995E+03  0.00000000000E+00 0. -1.
         -3    1    5    5    0  503 -0.19383058999E+02  0.37456807165E+02 -0.13786601474E+03  0.14417265135E+03  0.00000000000E+00 0.  1.
         -3    1    6    6    0  502  0.18043350428E+02 -0.11733499346E+02 -0.14342566501E+02  0.25864004241E+02  0.00000000000E+00 0.  1.
<mgrwt>
<rscale>  0 0.28042502E+04</rscale>
<asrwt>0</asrwt>
<pdfrwt beam="1">  1        2 0.27165703E+00 0.28042502E+04</pdfrwt>
<pdfrwt beam="2">  1       -2 0.17128757E+00 0.28042502E+04</pdfrwt>
<totfact> 0.16367194E+00</totfact>
</mgrwt>
</event>
<event>
12    1  0.4247462E-008  0.1477135E+04  0.7818608E-02  0.8899802E-01
         -2   -1    0    0    0  501 -0.00000000000E+00  0.00000000000E+00  0.18928673445E+03  0.18928673445E+03  0.00000000000E+00 0.  1.
          2   -1    0    0  501    0  0.00000000000E+00 -0.00000000000E+00 -0.28817758698E+04  0.28817758698E+04  0.00000000000E+00 0. -1.
         23    2    1    2    0    0 -0.35082058052E+03  0.28426924801E+03 -0.77373131663E+03  0.90042495789E+03  0.90669010034E+02 0.  0.
        254    2    1    2    0    0  0.35082058052E+03 -0.28426924801E+03 -0.19187578187E+04  0.21706376464E+04  0.90892911702E+03 0.  0.
         23    2    4    4    0    0 -0.17430007242E+03  0.20984357297E+03 -0.50220990135E+03  0.57855084132E+03  0.89952490867E+02 0.  0.
         23    2    4    4    0    0  0.52512065294E+03 -0.49411282098E+03 -0.14165479174E+04  0.15920868050E+04  0.90737051678E+02 0.  0.
         11    1    3    3    0    0 -0.39803864632E+02  0.20497001316E+02 -0.13850127508E+03  0.14555781635E+03  0.00000000000E+00 0. -1.
        -11    1    3    3    0    0 -0.31101671589E+03  0.26377224669E+03 -0.63523004155E+03  0.75486714154E+03  0.00000000000E+00 0.  1.
          4    1    5    5  502    0 -0.55602491664E+02  0.12233088070E+03 -0.18413188654E+03  0.22794962841E+03  0.00000000000E+00 0. -1.
          1    1    6    6  503    0  0.33742996341E+03 -0.26467351224E+03 -0.78766056434E+03  0.89683901170E+03  0.00000000000E+00 0. -1.
         -4    1    5    5    0  502 -0.11869758075E+03  0.87512692269E+02 -0.31807801481E+03  0.35060121291E+03  0.00000000000E+00 0.  1.
         -1    1    6    6    0  503  0.18769068953E+03 -0.22943930875E+03 -0.62888735304E+03  0.69524779334E+03  0.00000000000E+00 0.  1.
<mgrwt>
<rscale>  0 0.14771350E+04</rscale>
<asrwt>0</asrwt>
<pdfrwt beam="1">  1        2 0.44335014E+00 0.14771350E+04</pdfrwt>
<pdfrwt beam="2">  1       -2 0.29121036E-01 0.14771350E+04</pdfrwt>
<totfact> 0.21765496E+01</totfact>
</mgrwt>
</event>
<event>
12    1  0.4247462E-008  0.1135784E+04  0.7818608E-02  0.9170999E-01
         -1   -1    0    0    0  501 -0.00000000000E+00  0.00000000000E+00  0.23068102855E+03  0.23068102855E+03  0.00000000000E+00 0.  1.
          1   -1    0    0  501    0  0.00000000000E+00 -0.00000000000E+00 -0.13980406481E+04  0.13980406481E+04  0.00000000000E+00 0. -1.
         23    2    1    2    0    0 -0.15558572526E+03  0.13607487553E+03 -0.37753294856E+03  0.43832885191E+03  0.82932294735E+02 0.  0.
        254    2    1    2    0    0  0.15558572526E+03 -0.13607487553E+03 -0.78982667101E+03  0.11903928248E+04  0.86630572973E+03 0.  0.
         23    2    4    4    0    0  0.39638728199E+03  0.95278659940E+02 -0.11710222125E+03  0.43399441842E+03  0.91854910775E+02 0.  0.
         23    2    4    4    0    0 -0.24080155673E+03 -0.23135353547E+03 -0.67272444976E+03  0.75639840635E+03  0.89836049141E+02 0.  0.
         13    1    3    3    0    0 -0.55178014319E+02  0.49182566777E+02 -0.63760935001E+02  0.97616571191E+02  0.00000000000E+00 0.  1.
        -13    1    3    3    0    0 -0.10040771094E+03  0.86892308751E+02 -0.31377201356E+03  0.34071228071E+03  0.00000000000E+00 0. -1.
          3    1    6    6  502    0 -0.21107467874E+03 -0.16349008744E+03 -0.57316155151E+03  0.63229399240E+03  0.00000000000E+00 0. -1.
          3    1    5    5  503    0  0.29769155675E+03  0.10303818758E+03 -0.11378349245E+03  0.33493852304E+03  0.00000000000E+00 0. -1.
         -3    1    5    5    0  503  0.98695725237E+02 -0.77595276356E+01 -0.33187288074E+01  0.99055895383E+02  0.00000000000E+00 0.  1.
         -3    1    6    6    0  502 -0.29726877998E+02 -0.67863448032E+02 -0.99562898243E+02  0.12410441395E+03  0.00000000000E+00 0.  1.
<mgrwt>
<rscale>  0 0.11357842E+04</rscale>
<asrwt>0</asrwt>
<pdfrwt beam="1">  1        1 0.21508318E+00 0.11357842E+04</pdfrwt>
<pdfrwt beam="2">  1       -1 0.35489389E-01 0.11357842E+04</pdfrwt>
<totfact> 0.57962808E+01</totfact>
</mgrwt>
</event>
<event>
12    1  0.4247462E-008  0.1223574E+04  0.7818608E-02  0.9092469E-01
          1   -1    0    0  501    0  0.00000000000E+00  0.00000000000E+00  0.41102094180E+04  0.41102094180E+04  0.00000000000E+00 0. -1.
         -1   -1    0    0    0  501 -0.00000000000E+00 -0.00000000000E+00 -0.91061813585E+02  0.91061813585E+02  0.00000000000E+00 0.  1.
         23    2    1    2    0    0  0.15076631861E+03 -0.83639122630E+02  0.22601296654E+03  0.29828944783E+03  0.90381126251E+02 0.  0.
        254    2    1    2    0    0 -0.15076631861E+03  0.83639122630E+02  0.37931346379E+04  0.39029817838E+04  0.90314474896E+03 0.  0.
         23    2    4    4    0    0  0.34169962190E+03  0.71260404112E+01  0.93754148894E+03  0.10027773065E+04  0.98837598582E+02 0.  0.
         23    2    4    4    0    0 -0.49246594052E+03  0.76513082219E+02  0.28555931490E+04  0.29002044773E+04  0.91634181831E+02 0.  0.
         11    1    3    3    0    0  0.82207822948E+01 -0.22223379632E+02  0.86176361922E+02  0.89374634086E+02  0.00000000000E+00 0. -1.
        -11    1    3    3    0    0  0.14254553632E+03 -0.61415742998E+02  0.13983660461E+03  0.20891481375E+03  0.00000000000E+00 0.  1.
          2    1    5    5  502    0  0.84138577078E+02  0.80043827773E+01  0.12915917904E+03  0.15435499288E+03  0.00000000000E+00 0.  1.
          1    1    6    6  503    0 -0.14645689793E+03  0.76612928945E+01  0.63159911989E+03  0.64840247270E+03  0.00000000000E+00 0. -1.
         -2    1    5    5    0  502  0.25756104482E+03 -0.87834236612E+00  0.80838230990E+03  0.84842231362E+03  0.00000000000E+00 0. -1.
         -1    1    6    6    0  503 -0.34600904258E+03  0.68851789325E+02  0.22239940291E+04  0.22518020046E+04  0.00000000000E+00 0.  1.
<mgrwt>
<rscale>  0 0.12235737E+04</rscale>
<asrwt>0</asrwt>
<pdfrwt beam="1">  1        1 0.63233977E+00 0.12235737E+04</pdfrwt>
<pdfrwt beam="2">  1       -1 0.14009513E-01 0.12235737E+04</pdfrwt>
<totfact> 0.28801778E+00</totfact>
</mgrwt>
</event>
<event>
12    1  0.4247462E-008  0.1390968E+04  0.7818608E-02  0.8960383E-01
          1   -1    0    0  501    0  0.00000000000E+00  0.00000000000E+00  0.10645253132E+04  0.10645253132E+04  0.00000000000E+00 0. -1.
         -1   -1    0    0    0  501 -0.00000000000E+00 -0.00000000000E+00 -0.45437888784E+03  0.45437888784E+03  0.00000000000E+00 0.  1.
         23    2    1    2    0    0  0.18469018828E+03  0.18006751670E+01  0.56174123029E+03  0.59794521023E+03  0.88721793016E+02 0.  0.
        254    2    1    2    0    0 -0.18469018828E+03 -0.18006751670E+01  0.48405195060E+02  0.92095899080E+03  0.90094877309E+03 0.  0.
         23    2    4    4    0    0 -0.47335050487E+03  0.14988914409E+03  0.20955168444E+03  0.54631538263E+03  0.89560777540E+02 0.  0.
         23    2    4    4    0    0  0.28866031659E+03 -0.15168981926E+03 -0.16114648937E+03  0.37464360816E+03  0.89749999763E+02 0.  0.
         13    1    3    3    0    0 -0.73504285147E-02  0.12354002258E+02  0.96246674808E+02  0.97036301648E+02  0.00000000000E+00 0.  1.
        -13    1    3    3    0    0  0.18469753871E+03 -0.10553327091E+02  0.46549455548E+03  0.50090890858E+03  0.00000000000E+00 0. -1.
          4    1    5    5  502    0 -0.30278329372E+03  0.77906187207E+02  0.17398412574E+03  0.35779543453E+03  0.00000000000E+00 0. -1.
          1    1    6    6  503    0  0.13462623143E+03 -0.10810511771E+03 -0.49974536204E+02  0.17974535581E+03  0.00000000000E+00 0. -1.
         -4    1    5    5    0  502 -0.17056721115E+03  0.71982956886E+02  0.35567558700E+02  0.18851994811E+03  0.00000000000E+00 0.  1.
         -1    1    6    6    0  503  0.15403408516E+03 -0.43584701549E+02 -0.11117195317E+03  0.19489825235E+03  0.00000000000E+00 0.  1.
<mgrwt>
<rscale>  0 0.13909678E+04</rscale>
<asrwt>0</asrwt>
<pdfrwt beam="1">  1        1 0.16377313E+00 0.13909678E+04</pdfrwt>
<pdfrwt beam="2">  1       -1 0.69904444E-01 0.13909678E+04</pdfrwt>
<totfact> 0.27236540E+01</totfact>
</mgrwt>
</event>
<event>
12    1  0.4247462E-008  0.1610014E+04  0.7818608E-02  0.8814419E-01
          2   -1    0    0  501    0  0.00000000000E+00  0.00000000000E+00  0.20354745526E+04  0.20354745526E+04  0.00000000000E+00 0. -1.
         -2   -1    0    0    0  501 -0.00000000000E+00 -0.00000000000E+00 -0.31837125451E+03  0.31837125451E+03  0.00000000000E+00 0.  1.
         23    2    1    2    0    0 -0.83543811468E+02 -0.39767138395E+03  0.80624751838E+02  0.42425799658E+03  0.91500814242E+02 0.  0.
        254    2    1    2    0    0  0.83543811468E+02  0.39767138395E+03  0.16364785463E+04  0.19295878105E+04  0.93814976850E+03 0.  0.
         23    2    4    4    0    0 -0.21894031343E+02 -0.28626405990E+03  0.69978863078E+03  0.76180985083E+03  0.90684400290E+02 0.  0.
         23    2    4    4    0    0  0.10543784281E+03  0.68393544385E+03  0.93668991550E+03  0.11677779597E+04  0.86212153130E+02 0.  0.
         11    1    3    3    0    0 -0.70907353387E+02 -0.38872124184E+03  0.91178064973E+02  0.40551879877E+03  0.00000000000E+00 0.  1.
        -11    1    3    3    0    0 -0.12636458080E+02 -0.89501421131E+01 -0.10553313135E+02  0.18739197816E+02  0.00000000000E+00 0. -1.
          1    1    5    5  502    0  0.43385919884E+01 -0.17482380876E+03  0.31425257412E+03  0.35963435296E+03  0.00000000000E+00 0. -1.
          3    1    6    6  503    0  0.25430948180E+02  0.42328805169E+03  0.54508015152E+03  0.69060254808E+03  0.00000000000E+00 0. -1.
         -1    1    5    5    0  502 -0.26232623331E+02 -0.11144025114E+03  0.38553605666E+03  0.40217549787E+03  0.00000000000E+00 0.  1.
         -3    1    6    6    0  503  0.80006894631E+02  0.26064739216E+03  0.39160976398E+03  0.47717541164E+03  0.00000000000E+00 0.  1.
<mgrwt>
<rscale>  0 0.16100144E+04</rscale>
<asrwt>0</asrwt>
<pdfrwt beam="1">  1        2 0.31314992E+00 0.16100144E+04</pdfrwt>
<pdfrwt beam="2">  1       -2 0.48980194E-01 0.16100144E+04</pdfrwt>
<totfact> 0.24149361E+01</totfact>
</mgrwt>
</event>
<event>
12    1  0.4247462E-008  0.1809215E+04  0.7818608E-02  0.8701414E-01
         -2   -1    0    0    0  501 -0.00000000000E+00  0.00000000000E+00  0.68840033093E+03  0.68840033093E+03  0.00000000000E+00 0.  1.
          2   -1    0    0  501    0  0.00000000000E+00 -0.00000000000E+00 -0.11887190216E+04  0.11887190216E+04  0.00000000000E+00 0. -1.
         23    2    1    2    0    0  0.43915628869E+03 -0.31103441291E+03  0.23496373464E+03  0.59465710876E+03  0.93853441598E+02 0.  0.
        254    2    1    2    0    0 -0.43915628869E+03  0.31103441291E+03 -0.73528242534E+03  0.12824622438E+04  0.90247909109E+03 0.  0.
         23    2    4    4    0    0 -0.28440260787E+03 -0.22409593469E+03 -0.59236852039E+03  0.70034965161E+03  0.92115901204E+02 0.  0.
         23    2    4    4    0    0 -0.15475368082E+03  0.53513034760E+03 -0.14291390496E+03  0.58211259219E+03  0.90097142659E+02 0.  0.
         13    1    3    3    0    0  0.35296154431E+03 -0.21454973484E+03  0.20812080622E+03  0.46252319992E+03  0.00000000000E+00 0.  1.
        -13    1    3    3    0    0  0.86194744374E+02 -0.96484678074E+02  0.26842928427E+02  0.13213390885E+03  0.00000000000E+00 0. -1.
          2    1    5    5  502    0 -0.70046742033E+02 -0.85283044713E+02 -0.11772701485E+03  0.16136726375E+03  0.00000000000E+00 0.  1.
          3    1    6    6  503    0 -0.10906223877E+03  0.36681225324E+03 -0.54405806206E+02  0.38653045521E+03  0.00000000000E+00 0. -1.
         -2    1    5    5    0  502 -0.21435586584E+03 -0.13881288998E+03 -0.47464150553E+03  0.53898238786E+03  0.00000000000E+00 0. -1.
         -3    1    6    6    0  503 -0.45691442042E+02  0.16831809435E+03 -0.88508098751E+02  0.19558213698E+03  0.00000000000E+00 0.  1.
<mgrwt>
<rscale>  0 0.18092148E+04</rscale>
<asrwt>0</asrwt>
<pdfrwt beam="1">  1        2 0.18287985E+00 0.18092148E+04</pdfrwt>
<pdfrwt beam="2">  1       -2 0.10590774E+00 0.18092148E+04</pdfrwt>
<totfact> 0.13069854E+01</totfact>
</mgrwt>
</event>
<event>
12    1  0.4247462E-008  0.2475105E+04  0.7818608E-02  0.8411908E-01
         -2   -1    0    0    0  501 -0.00000000000E+00  0.00000000000E+00  0.66785306222E+03  0.66785306222E+03  0.00000000000E+00 0.  1.
          2   -1    0    0  501    0  0.00000000000E+00 -0.00000000000E+00 -0.22932238147E+04  0.22932238147E+04  0.00000000000E+00 0. -1.
         23    2    1    2    0    0  0.36683716084E+03 -0.10142141504E+04 -0.68588030095E+03  0.12811662300E+04  0.88064046071E+02 0.  0.
        254    2    1    2    0    0 -0.36683716084E+03  0.10142141504E+04 -0.93949045149E+03  0.16799106469E+04  0.88105483798E+03 0.  0.
         23    2    4    4    0    0 -0.33109589578E+03 -0.37116436597E+01 -0.10111439083E+03  0.35751814427E+03  0.89201092747E+02 0.  0.
         23    2    4    4    0    0 -0.35741265066E+02  0.10179257941E+04 -0.83837606065E+03  0.13223925026E+04  0.91635973117E+02 0.  0.
         13    1    3    3    0    0  0.29066820385E+03 -0.81785086805E+03 -0.59159967042E+03  0.10504085953E+04  0.00000000000E+00 0. -1.
        -13    1    3    3    0    0  0.76168956994E+02 -0.19636328238E+03 -0.94280630532E+02  0.23075763469E+03  0.00000000000E+00 0.  1.
          2    1    5    5  502    0 -0.44116614036E+02  0.25718565059E+02 -0.33940542233E+02  0.61316234635E+02  0.00000000000E+00 0. -1.
          3    1    6    6  503    0  0.47239244815E+01  0.51099970603E+02 -0.20057985483E+02  0.55098504878E+02  0.00000000000E+00 0. -1.
         -2    1    5    5    0  502 -0.28697928174E+03 -0.29430208719E+02 -0.67173848602E+02  0.29620190963E+03  0.00000000000E+00 0.  1.
         -3    1    6    6    0  503 -0.40465189547E+02  0.96682582348E+03 -0.81831807517E+03  0.12672939977E+04  0.00000000000E+00 0.  1.
<mgrwt>
<rscale>  0 0.24751053E+04</rscale>
<asrwt>0</asrwt>
<pdfrwt beam="1">  1        2 0.35280366E+00 0.24751053E+04</pdfrwt>
<pdfrwt beam="2">  1       -2 0.10274663E+00 0.24751053E+04</pdfrwt>
<totfact> 0.31647747E+00</totfact>
</mgrwt>
</event>
<event>
12    1  0.4247462E-008  0.1746419E+04  0.7818608E-02  0.8735324E-01
         -2   -1    0    0    0  501 -0.00000000000E+00  0.00000000000E+00  0.25052168899E+03  0.25052168899E+03  0.00000000000E+00 0.  1.
          2   -1    0    0  501    0  0.00000000000E+00 -0.00000000000E+00 -0.30436283976E+04  0.30436283976E+04  0.00000000000E+00 0. -1.
         23    2    1    2    0    0  0.76953905014E+02 -0.54274461699E+03 -0.16579336946E+04  0.17485283966E+04  0.90076606672E+02 0.  0.
        254    2    1    2    0    0 -0.76953905014E+02  0.54274461699E+03 -0.11351730139E+04  0.15456216900E+04  0.89433495636E+03 0.  0.
         23    2    4    4    0    0 -0.33650713460E+03  0.21707685287E+02 -0.78791252019E+03  0.86179761481E+03  0.90447300611E+02 0.  0.
         23    2    4    4    0    0  0.25955322959E+03  0.52103693170E+03 -0.34726049374E+03  0.68382407516E+03  0.90433135839E+02 0.  0.
         13    1    3    3    0    0  0.62585775211E+02 -0.53103401434E+03 -0.15668077043E+04  0.16555363137E+04  0.00000000000E+00 0. -1.
        -13    1    3    3    0    0  0.14368129803E+02 -0.11710602652E+02 -0.91125990308E+02  0.92992082878E+02  0.00000000000E+00 0.  1.
          4    1    5    5  502    0 -0.27516389324E+03  0.14818876524E+02 -0.53913470409E+03  0.60547584295E+03  0.00000000000E+00 0. -1.
          1    1    6    6  503    0  0.21804314554E+03  0.45970427345E+03 -0.33389229704E+03  0.60856790777E+03  0.00000000000E+00 0. -1.
         -4    1    5    5    0  502 -0.61343241364E+02  0.68888087623E+01 -0.24877781610E+03  0.25632177186E+03  0.00000000000E+00 0.  1.
         -1    1    6    6    0  503  0.41510084048E+02  0.61332658252E+02 -0.13368196700E+02  0.75256167381E+02  0.00000000000E+00 0.  1.
<mgrwt>
<rscale>  0 0.17464191E+04</rscale>
<asrwt>0</asrwt>
<pdfrwt beam="1">  1        2 0.46825054E+00 0.17464191E+04</pdfrwt>
<pdfrwt beam="2">  1       -2 0.38541797E-01 0.17464191E+04</pdfrwt>
<totfact> 0.99006568E+00</totfact>
</mgrwt>
</event>
<event>
12    1  0.4247462E-008  0.4120857E+04  0.7818608E-02  0.7980600E-01
          2   -1    0    0  501    0  0.00000000000E+00  0.00000000000E+00  0.14957569172E+04  0.14957569172E+04  0.00000000000E+00 0. -1.
         -2   -1    0    0    0  501 -0.00000000000E+00 -0.00000000000E+00 -0.28382720071E+04  0.28382720071E+04  0.00000000000E+00 0.  1.
         23    2    1    2    0    0 -0.18825582115E+04 -0.29052179344E+02 -0.59398452037E+02  0.18859869417E+04  0.92461448039E+02 0.  0.
        254    2    1    2    0    0  0.18825582115E+04  0.29052179344E+02 -0.12831166379E+04  0.24480419826E+04  0.89535009554E+03 0.  0.
         23    2    4    4    0    0  0.15651184951E+04 -0.20256362556E+03 -0.12969593607E+04  0.20446442190E+04  0.88535151052E+02 0.  0.
         23    2    4    4    0    0  0.31743971637E+03  0.23161580491E+03  0.13842722806E+02  0.40339776361E+03  0.90134788515E+02 0.  0.
         11    1    3    3    0    0 -0.96744748234E+03 -0.97073545576E+01  0.15419448397E+02  0.96761904860E+03  0.00000000000E+00 0.  1.
        -11    1    3    3    0    0 -0.91511072911E+03 -0.19344824786E+02 -0.74817900434E+02  0.91836789306E+03  0.00000000000E+00 0. -1.
          1    1    5    5  502    0  0.11229019379E+04 -0.17086210091E+03 -0.97200909847E+03  0.14949596339E+04  0.00000000000E+00 0. -1.
          3    1    6    6  503    0  0.49833785988E+02  0.12839705831E+02  0.25741112547E+02  0.57540152476E+02  0.00000000000E+00 0. -1.
         -1    1    5    5    0  502  0.44221655722E+03 -0.31701524653E+02 -0.32495026219E+03  0.54968458505E+03  0.00000000000E+00 0.  1.
         -3    1    6    6    0  503  0.26760593038E+03  0.21877609908E+03 -0.11898389741E+02  0.34585761114E+03  0.00000000000E+00 0.  1.
<mgrwt>
<rscale>  0 0.41208567E+04</rscale>
<asrwt>0</asrwt>
<pdfrwt beam="1">  1        2 0.23011645E+00 0.41208567E+04</pdfrwt>
<pdfrwt beam="2">  1       -2 0.43665723E+00 0.41208567E+04</pdfrwt>
<totfact> 0.42418183E-02</totfact>
</mgrwt>
</event>
<event>
12    1  0.4247462E-008  0.3144804E+04  0.7818608E-02  0.8203548E-01
          2   -1    0    0  501    0  0.00000000000E+00  0.00000000000E+00  0.18979358794E+04  0.18979358794E+04  0.00000000000E+00 0. -1.
         -2   -1    0    0    0  501 -0.00000000000E+00 -0.00000000000E+00 -0.13027038662E+04  0.13027038662E+04  0.00000000000E+00 0.  1.
         23    2    1    2    0    0 -0.14023228686E+04  0.31589107242E+03  0.18454465998E+03  0.14522914269E+04  0.93792641675E+02 0.  0.
        254    2    1    2    0    0  0.14023228686E+04 -0.31589107242E+03  0.41068735320E+03  0.17483483187E+04  0.90651042128E+03 0.  0.
         23    2    4    4    0    0  0.11917540339E+04  0.11501932552E+03  0.19892833228E+03  0.12164835924E+04  0.82174976383E+02 0.  0.
         23    2    4    4    0    0  0.21056883473E+03 -0.43091039794E+03  0.21175902092E+03  0.53186472626E+03  0.89527643145E+02 0.  0.
         13    1    3    3    0    0 -0.82993674619E+03  0.18558648113E+03  0.15557181963E+03  0.86454608652E+03  0.00000000000E+00 0. -1.
        -13    1    3    3    0    0 -0.57238612240E+03  0.13030459129E+03  0.28972840357E+02  0.58774534035E+03  0.00000000000E+00 0.  1.
          4    1    5    5  502    0  0.40773009815E+03  0.74851715247E+02  0.51869175276E+02  0.41777628410E+03  0.00000000000E+00 0. -1.
          3    1    6    6  503    0  0.73372386713E+02 -0.10948785975E+03  0.98334103609E+02  0.16444055004E+03  0.00000000000E+00 0. -1.
         -4    1    5    5    0  502  0.78402393571E+03  0.40167610268E+02  0.14705915700E+03  0.79870730831E+03  0.00000000000E+00 0.  1.
         -3    1    6    6    0  503  0.13719644802E+03 -0.32142253819E+03  0.11342491731E+03  0.36742417623E+03  0.00000000000E+00 0.  1.
<mgrwt>
<rscale>  0 0.31448042E+04</rscale>
<asrwt>0</asrwt>
<pdfrwt beam="1">  1        2 0.29199014E+00 0.31448042E+04</pdfrwt>
<pdfrwt beam="2">  1       -2 0.20041598E+00 0.31448042E+04</pdfrwt>
<totfact> 0.85125911E-01</totfact>
</mgrwt>
</event>
<event>
12    1  0.4247462E-008  0.1270956E+04  0.7818608E-02  0.9052920E-01
         -2   -1    0    0    0  501 -0.00000000000E+00  0.00000000000E+00  0.18100599357E+03  0.18100599357E+03  0.00000000000E+00 0.  1.
          2   -1    0    0  501    0  0.00000000000E+00 -0.00000000000E+00 -0.22310419900E+04  0.22310419900E+04  0.00000000000E+00 0. -1.
         23    2    1    2    0    0  0.20105302342E+03  0.15514107290E+03 -0.84420344293E+03  0.88621909710E+03  0.90629820017E+02 0.  0.
        254    2    1    2    0    0 -0.20105302342E+03 -0.15514107290E+03 -0.12058325535E+04  0.15258288865E+04  0.89979473937E+03 0.  0.
         23    2    4    4    0    0 -0.19178185507E+03 -0.17342331223E+03 -0.13365292285E+04  0.13644847767E+04  0.93018288932E+02 0.  0.
         23    2    4    4    0    0 -0.92711683538E+01  0.18282239334E+02  0.13069667498E+03  0.16134410980E+03  0.92358573384E+02 0.  0.
         11    1    3    3    0    0  0.23854576732E+02  0.51807836971E+02 -0.11011261035E+03  0.12400757945E+03  0.00000000000E+00 0.  1.
        -11    1    3    3    0    0  0.17719844669E+03  0.10333323592E+03 -0.73409083258E+03  0.76221151765E+03  0.00000000000E+00 0. -1.
          2    1    5    5  502    0  0.94303076176E+01 -0.15137888606E+02 -0.62854810423E+02  0.65336158186E+02  0.00000000000E+00 0. -1.
          4    1    6    6  503    0  0.22836249790E+02 -0.10017759931E+02  0.12086008446E+01  0.24966187825E+02  0.00000000000E+00 0. -1.
         -2    1    5    5    0  502 -0.20121216269E+03 -0.15828542362E+03 -0.12736744180E+04  0.12991486185E+04  0.00000000000E+00 0.  1.
         -4    1    6    6    0  503 -0.32107418143E+02  0.28299999265E+02  0.12948807413E+03  0.13637792197E+03  0.00000000000E+00 0.  1.
<mgrwt>
<rscale>  0 0.12709555E+04</rscale>
<asrwt>0</asrwt>
<pdfrwt beam="1">  1        2 0.34323723E+00 0.12709555E+04</pdfrwt>
<pdfrwt beam="2">  1       -2 0.27847076E-01 0.12709555E+04</pdfrwt>
<totfact> 0.57508175E+01</totfact>
</mgrwt>
</event>
<event>
12    1  0.4247462E-008  0.1452707E+04  0.7818608E-02  0.8916526E-01
          1   -1    0    0  501    0  0.00000000000E+00  0.00000000000E+00  0.82434579429E+03  0.82434579429E+03  0.00000000000E+00 0. -1.
         -1   -1    0    0    0  501 -0.00000000000E+00 -0.00000000000E+00 -0.64000951233E+03  0.64000951233E+03  0.00000000000E+00 0.  1.
         23    2    1    2    0    0  0.11033464725E+01  0.32973479371E+03 -0.25304834282E+03  0.42545810122E+03  0.90856373124E+02 0.  0.
        254    2    1    2    0    0 -0.11033464725E+01 -0.32973479371E+03  0.43738462478E+03  0.10388972054E+04  0.88276601759E+03 0.  0.
         23    2    4    4    0    0 -0.36794955564E+03 -0.40243470948E+02 -0.15795496635E+02  0.38169980440E+03  0.91863107456E+02 0.  0.
         23    2    4    4    0    0  0.36684620917E+03 -0.28949132276E+03  0.45318012142E+03  0.65719740099E+03  0.90304121077E+02 0.  0.
         11    1    3    3    0    0  0.24750583273E+02  0.19309312451E+03 -0.19369117511E+03  0.27461576324E+03  0.00000000000E+00 0.  1.
        -11    1    3    3    0    0 -0.23647236800E+02  0.13664166920E+03 -0.59357167713E+02  0.15084233798E+03  0.00000000000E+00 0. -1.
          4    1    5    5  502    0 -0.34631459143E+03 -0.20014480724E+02 -0.31239393567E+02  0.34829624659E+03  0.00000000000E+00 0.  1.
          4    1    6    6  503    0  0.14095141649E+03 -0.16461972993E+03  0.22945910685E+03  0.31562388853E+03  0.00000000000E+00 0.  1.
         -4    1    5    5    0  502 -0.21634964212E+02 -0.20228990224E+02  0.15443896931E+02  0.33403557810E+02  0.00000000000E+00 0. -1.
         -4    1    6    6    0  503  0.22589479268E+03 -0.12487159283E+03  0.22372101457E+03  0.34157351247E+03  0.00000000000E+00 0. -1.
<mgrwt>
<rscale>  0 0.14527066E+04</rscale>
<asrwt>0</asrwt>
<pdfrwt beam="1">  1        1 0.12682243E+00 0.14527066E+04</pdfrwt>
<pdfrwt beam="2">  1       -1 0.98463001E-01 0.14527066E+04</pdfrwt>
<totfact> 0.20201846E+01</totfact>
</mgrwt>
</event>
<event>
12    1  0.4247462E-008  0.2775829E+04  0.7818608E-02  0.8310812E-01
         -2   -1    0    0    0  501 -0.00000000000E+00  0.00000000000E+00  0.10577407431E+04  0.10577407431E+04  0.00000000000E+00 0.  1.
          2   -1    0    0  501    0  0.00000000000E+00 -0.00000000000E+00 -0.18211521410E+04  0.18211521410E+04  0.00000000000E+00 0. -1.
         23    2    1    2    0    0 -0.85088536492E+03 -0.41642767986E+03  0.49066669190E+03  0.10706953201E+04  0.90646285428E+02 0.  0.
        254    2    1    2    0    0  0.85088536492E+03  0.41642767986E+03 -0.12540780898E+04  0.18081975640E+04  0.89411892849E+03 0.  0.
         23    2    4    4    0    0  0.82375516687E+03  0.17179285514E+03 -0.12894652005E+04  0.15424679252E+04  0.91659353073E+02 0.  0.
         23    2    4    4    0    0  0.27130198051E+02  0.24463482472E+03  0.35387110644E+02  0.26572963880E+03  0.93689637790E+02 0.  0.
         13    1    3    3    0    0 -0.14577552560E+03 -0.38111253205E+02  0.62149985633E+02  0.16298954629E+03  0.00000000000E+00 0. -1.
        -13    1    3    3    0    0 -0.70510983932E+03 -0.37831642665E+03  0.42851670627E+03  0.90770577377E+03  0.00000000000E+00 0.  1.
          1    1    5    5  502    0  0.73826584683E+03  0.12460016494E+03 -0.11330558168E+04  0.13580784755E+04  0.00000000000E+00 0. -1.
          3    1    6    6  503    0 -0.18922763416E+02  0.16587467266E+03 -0.24255325261E+01  0.16696814431E+03  0.00000000000E+00 0. -1.
         -1    1    5    5    0  502  0.85489320044E+02  0.47192690197E+02 -0.15640938374E+03  0.18438944973E+03  0.00000000000E+00 0.  1.
         -3    1    6    6    0  503  0.46052961466E+02  0.78760152053E+02  0.37812643170E+02  0.98761494494E+02  0.00000000000E+00 0.  1.
<mgrwt>
<rscale>  0 0.27758291E+04</rscale>
<asrwt>0</asrwt>
<pdfrwt beam="1">  1        2 0.28017725E+00 0.27758291E+04</pdfrwt>
<pdfrwt beam="2">  1       -2 0.16272935E+00 0.27758291E+04</pdfrwt>
<totfact> 0.17613817E+00</totfact>
</mgrwt>
</event>
<event>
12    1  0.4247462E-008  0.1216625E+04  0.7818608E-02  0.9098428E-01
          2   -1    0    0  501    0  0.00000000000E+00  0.00000000000E+00  0.21196145718E+04  0.21196145718E+04  0.00000000000E+00 0. -1.
         -2   -1    0    0    0  501 -0.00000000000E+00 -0.00000000000E+00 -0.17458095064E+03  0.17458095064E+03  0.00000000000E+00 0.  1.
         23    2    1    2    0    0  0.61102498210E+02  0.20384554872E+03  0.76926725879E+03  0.80303148019E+03  0.88322815349E+02 0.  0.
        254    2    1    2    0    0 -0.61102498210E+02 -0.20384554872E+03  0.11757663624E+04  0.14911640423E+04  0.89210825519E+03 0.  0.
         23    2    4    4    0    0 -0.10417404819E+03 -0.29322873237E+02 -0.11487598605E+03  0.18458797612E+03  0.95729648208E+02 0.  0.
         23    2    4    4    0    0  0.43071549981E+02 -0.17452267549E+03  0.12906423485E+04  0.13065760661E+04  0.95236664890E+02 0.  0.
         11    1    3    3    0    0  0.53046730073E+02  0.98299130334E+02  0.52604331476E+03  0.53777155336E+03  0.00000000000E+00 0. -1.
        -11    1    3    3    0    0  0.80557681368E+01  0.10554641839E+03  0.24322394403E+03  0.26525992683E+03  0.00000000000E+00 0.  1.
          4    1    5    5  502    0 -0.93500209800E+02  0.81727205985E+01 -0.11107302097E+03  0.14541766943E+03  0.00000000000E+00 0. -1.
          1    1    6    6  503    0  0.71943454915E+02 -0.13660287914E+03  0.91694985310E+03  0.92985656979E+03  0.00000000000E+00 0. -1.
         -4    1    5    5    0  502 -0.10673838391E+02 -0.37495593836E+02 -0.38029650819E+01  0.39170306694E+02  0.00000000000E+00 0.  1.
         -1    1    6    6    0  503 -0.28871904934E+02 -0.37919796348E+02  0.37369249535E+03  0.37671949635E+03  0.00000000000E+00 0.  1.
<mgrwt>
<rscale>  0 0.12166254E+04</rscale>
<asrwt>0</asrwt>
<pdfrwt beam="1">  1        2 0.32609453E+00 0.12166254E+04</pdfrwt>
<pdfrwt beam="2">  1       -2 0.26858609E-01 0.12166254E+04</pdfrwt>
<totfact> 0.71225775E+01</totfact>
</mgrwt>
</event>
<event>
12    1  0.4247462E-008  0.3144587E+04  0.7818608E-02  0.8203607E-01
         -2   -1    0    0    0  501 -0.00000000000E+00  0.00000000000E+00  0.13423894352E+04  0.13423894352E+04  0.00000000000E+00 0.  1.
          2   -1    0    0  501    0  0.00000000000E+00 -0.00000000000E+00 -0.18415722639E+04  0.18415722639E+04  0.00000000000E+00 0. -1.
         23    2    1    2    0    0  0.10951232733E+04  0.93747929622E+03 -0.23146253056E+03  0.14627276585E+04  0.88514887201E+02 0.  0.
        254    2    1    2    0    0 -0.10951232733E+04 -0.93747929622E+03 -0.26772029805E+03  0.17212340406E+04  0.90155978718E+03 0.  0.
         23    2    4    4    0    0 -0.10179615062E+04 -0.10757964648E+04 -0.34173490671E+03  0.15226937658E+04  0.90718775205E+02 0.  0.
         23    2    4    4    0    0 -0.77161767188E+02  0.13831716857E+03  0.74014608656E+02  0.19854027483E+03  0.94098358116E+02 0.  0.
         13    1    3    3    0    0  0.83289484466E+02  0.84639420995E+02 -0.41840197530E+02  0.12590302593E+03  0.00000000000E+00 0. -1.
        -13    1    3    3    0    0  0.10118337889E+04  0.85283987522E+03 -0.18962233303E+03  0.13368246326E+04  0.00000000000E+00 0.  1.
          1    1    5    5  502    0 -0.69314727334E+02 -0.43363031777E+02 -0.18227974880E+02  0.83768389136E+02  0.00000000000E+00 0. -1.
          3    1    6    6  503    0 -0.54780881126E+01  0.46818410460E+02 -0.17831226040E+02  0.50397674842E+02  0.00000000000E+00 0. -1.
         -1    1    5    5    0  502 -0.94864677882E+03 -0.10324334330E+04 -0.32350693183E+03  0.14389253766E+04  0.00000000000E+00 0.  1.
         -3    1    6    6    0  503 -0.71683679075E+02  0.91498758108E+02  0.91845834696E+02  0.14814259999E+03  0.00000000000E+00 0.  1.
<mgrwt>
<rscale>  0 0.31445872E+04</rscale>
<asrwt>0</asrwt>
<pdfrwt beam="1">  1        2 0.28331881E+00 0.31445872E+04</pdfrwt>
<pdfrwt beam="2">  1       -2 0.20652145E+00 0.31445872E+04</pdfrwt>
<totfact> 0.83471770E-01</totfact>
</mgrwt>
</event>
<event>
12    1  0.4247462E-008  0.1636066E+04  0.7818608E-02  0.8798693E-01
          1   -1    0    0  501    0  0.00000000000E+00  0.00000000000E+00  0.64322192827E+03  0.64322192827E+03  0.00000000000E+00 0. -1.
         -1   -1    0    0    0  501 -0.00000000000E+00 -0.00000000000E+00 -0.10403529097E+04  0.10403529097E+04  0.00000000000E+00 0.  1.
         23    2    1    2    0    0 -0.42464209348E+03  0.22352482668E+03 -0.45610291927E+03  0.66855441329E+03  0.93010079369E+02 0.  0.
        254    2    1    2    0    0  0.42464209348E+03 -0.22352482668E+03  0.58971937848E+02  0.10150204247E+04  0.89247101766E+03 0.  0.
         23    2    4    4    0    0  0.37815624340E+03 -0.14953353123E+03  0.44451375404E+03  0.60906270889E+03  0.89456606454E+02 0.  0.
         23    2    4    4    0    0  0.46485850078E+02 -0.73991295458E+02 -0.38554181619E+03  0.40595771579E+03  0.92322959843E+02 0.  0.
         13    1    3    3    0    0 -0.99680572733E+02  0.37163055131E+02 -0.55128589031E+02  0.11981849012E+03  0.00000000000E+00 0. -1.
        -13    1    3    3    0    0 -0.32496152075E+03  0.18636177155E+03 -0.40097433024E+03  0.54873592317E+03  0.00000000000E+00 0.  1.
          3    1    6    6  502    0  0.47959344310E+02 -0.94712909767E+02 -0.31404192391E+03  0.33150107685E+03  0.00000000000E+00 0. -1.
          3    1    5    5  503    0  0.28731402897E+03 -0.12329946211E+03  0.39023861903E+03  0.50003828691E+03  0.00000000000E+00 0. -1.
         -3    1    5    5    0  503  0.90842214434E+02 -0.26234069111E+02  0.54275135014E+02  0.10902442197E+03  0.00000000000E+00 0.  1.
         -3    1    6    6    0  502 -0.14734942322E+01  0.20721614309E+02 -0.71499892285E+02  0.74456638936E+02  0.00000000000E+00 0.  1.
<mgrwt>
<rscale>  0 0.16360658E+04</rscale>
<asrwt>0</asrwt>
<pdfrwt beam="1">  1        1 0.98957221E-01 0.16360658E+04</pdfrwt>
<pdfrwt beam="2">  1       -1 0.16005429E+00 0.16360658E+04</pdfrwt>
<totfact> 0.86402069E+00</totfact>
</mgrwt>
</event>
<event>
12    1  0.4247462E-008  0.2009118E+04  0.7818608E-02  0.8602369E-01
          2   -1    0    0  501    0  0.00000000000E+00  0.00000000000E+00  0.30269076298E+04  0.30269076298E+04  0.00000000000E+00 0. -1.
         -2   -1    0    0    0  501 -0.00000000000E+00 -0.00000000000E+00 -0.33338946010E+03  0.33338946010E+03  0.00000000000E+00 0.  1.
         23    2    1    2    0    0 -0.77592945044E+03  0.55252992010E+01  0.75512359344E+03  0.10868419564E+04  0.94428575728E+02 0.  0.
        254    2    1    2    0    0  0.77592945044E+03 -0.55252992010E+01  0.19383945763E+04  0.22734551335E+04  0.89951524146E+03 0.  0.
         23    2    4    4    0    0  0.39975874930E+03 -0.39543584095E+03  0.13656229917E+04  0.14797348480E+04  0.92263226125E+02 0.  0.
         23    2    4    4    0    0  0.37617070114E+03  0.38991054175E+03  0.57277158458E+03  0.79372028551E+03  0.91596815252E+02 0.  0.
         11    1    3    3    0    0 -0.13602912984E+03  0.20951220702E+02  0.17791559838E+03  0.22493740899E+03  0.00000000000E+00 0. -1.
        -11    1    3    3    0    0 -0.63990032061E+03 -0.15425921501E+02  0.57720799506E+03  0.86190454746E+03  0.00000000000E+00 0.  1.
          4    1    5    5  502    0  0.71961267905E+02 -0.27504044599E+02  0.18650987640E+03  0.20179402999E+03  0.00000000000E+00 0. -1.
          1    1    6    6  503    0  0.83500797143E+01  0.18431981850E+01  0.32479181739E+02  0.33585986024E+02  0.00000000000E+00 0. -1.
         -4    1    5    5    0  502  0.32779748140E+03 -0.36793179635E+03  0.11791131153E+04  0.12779408180E+04  0.00000000000E+00 0.  1.
         -1    1    6    6    0  503  0.36782062143E+03  0.38806734357E+03  0.54029240284E+03  0.76013429949E+03  0.00000000000E+00 0.  1.
<mgrwt>
<rscale>  0 0.20091183E+04</rscale>
<asrwt>0</asrwt>
<pdfrwt beam="1">  1        2 0.46567808E+00 0.20091183E+04</pdfrwt>
<pdfrwt beam="2">  1       -2 0.51290688E-01 0.20091183E+04</pdfrwt>
<totfact> 0.55978419E+00</totfact>
</mgrwt>
</event>
<event>
12    1  0.4247462E-008  0.2267890E+04  0.7818608E-02  0.8490690E-01
          1   -1    0    0  501    0  0.00000000000E+00  0.00000000000E+00  0.19448753357E+04  0.19448753357E+04  0.00000000000E+00 0. -1.
         -1   -1    0    0    0  501 -0.00000000000E+00 -0.00000000000E+00 -0.66113795690E+03  0.66113795690E+03  0.00000000000E+00 0.  1.
         23    2    1    2    0    0 -0.91730340401E+03  0.19348840898E+03  0.37510214424E+03  0.10138206627E+04  0.90815296231E+02 0.  0.
        254    2    1    2    0    0  0.91730340401E+03 -0.19348840898E+03  0.90863523459E+03  0.15921926300E+04  0.91135946912E+03 0.  0.
         23    2    4    4    0    0  0.95803794870E+03 -0.18232153044E+03  0.10384252426E+04  0.14275177541E+04  0.91662982163E+02 0.  0.
         23    2    4    4    0    0 -0.40734544694E+02 -0.11166878535E+02 -0.12979000800E+03  0.16467487583E+03  0.92132330065E+02 0.  0.
         13    1    3    3    0    0 -0.63783746447E+03  0.14844017160E+03  0.21883035217E+03  0.69047653013E+03  0.00000000000E+00 0. -1.
        -13    1    3    3    0    0 -0.27946593954E+03  0.45048237374E+02  0.15627179207E+03  0.32334413254E+03  0.00000000000E+00 0.  1.
          1    1    5    5  502    0  0.55391614892E+03 -0.11835519107E+03  0.53896839502E+03  0.78186826392E+03  0.00000000000E+00 0. -1.
          1    1    6    6  503    0  0.19145560234E+02 -0.25350862331E+02 -0.78082896951E+02  0.84298027817E+02  0.00000000000E+00 0. -1.
         -1    1    5    5    0  502  0.40412179978E+03 -0.63966339370E+02  0.49945684758E+03  0.64564949022E+03  0.00000000000E+00 0.  1.
         -1    1    6    6    0  503 -0.59880104928E+02  0.14183983797E+02 -0.51707111052E+02  0.80376848009E+02  0.00000000000E+00 0.  1.
<mgrwt>
<rscale>  0 0.22678897E+04</rscale>
<asrwt>0</asrwt>
<pdfrwt beam="1">  1        1 0.29921159E+00 0.22678897E+04</pdfrwt>
<pdfrwt beam="2">  1       -1 0.10171353E+00 0.22678897E+04</pdfrwt>
<totfact> 0.26979688E+00</totfact>
</mgrwt>
</event>
<event>
12    1  0.4247462E-008  0.1628932E+04  0.7818608E-02  0.8802968E-01
          1   -1    0    0  501    0  0.00000000000E+00  0.00000000000E+00  0.84568070634E+03  0.84568070634E+03  0.00000000000E+00 0. -1.
         -1   -1    0    0    0  501 -0.00000000000E+00 -0.00000000000E+00 -0.78440373237E+03  0.78440373237E+03  0.00000000000E+00 0.  1.
         23    2    1    2    0    0  0.40264236300E+03 -0.30681049962E+03 -0.21943279712E+03  0.55935833476E+03  0.92073009427E+02 0.  0.
        254    2    1    2    0    0 -0.40264236300E+03  0.30681049962E+03  0.28070977109E+03  0.10707261039E+04  0.90077902892E+03 0.  0.
         23    2    4    4    0    0  0.70867246310E+02  0.36529203264E+03 -0.15924316020E+03  0.41547936178E+03  0.93831126407E+02 0.  0.
         23    2    4    4    0    0 -0.47350960931E+03 -0.58481533021E+02  0.43995293129E+03  0.65524674217E+03  0.90323150748E+02 0.  0.
         13    1    3    3    0    0  0.10880508024E+03 -0.57286894681E+02 -0.91220555473E+02  0.15310624915E+03  0.00000000000E+00 0. -1.
        -13    1    3    3    0    0  0.29383728275E+03 -0.24952360493E+03 -0.12821224164E+03  0.40625208561E+03  0.00000000000E+00 0.  1.
          3    1    6    6  502    0 -0.36288493556E+03 -0.41017494551E+02  0.28095108558E+03  0.46076178640E+03  0.00000000000E+00 0. -1.
          3    1    5    5  503    0  0.46168021164E+02  0.12604819951E+03 -0.10106105213E+03  0.16802669739E+03  0.00000000000E+00 0. -1.
         -3    1    5    5    0  503  0.24699225146E+02  0.23924383313E+03 -0.58182108072E+02  0.24745266438E+03  0.00000000000E+00 0.  1.
         -3    1    6    6    0  502 -0.11062467374E+03 -0.17464038470E+02  0.15900184571E+03  0.19448495577E+03  0.00000000000E+00 0.  1.
<mgrwt>
<rscale>  0 0.16289323E+04</rscale>
<asrwt>0</asrwt>
<pdfrwt beam="1">  1        1 0.13010472E+00 0.16289323E+04</pdfrwt>
<pdfrwt beam="2">  1       -1 0.12067750E+00 0.16289323E+04</pdfrwt>
<totfact> 0.11807607E+01</totfact>
</mgrwt>
</event>
<event>
12    1  0.4247462E-008  0.1806962E+04  0.7818608E-02  0.8702606E-01
         -2   -1    0    0    0  501 -0.00000000000E+00  0.00000000000E+00  0.35265053941E+03  0.35265053941E+03  0.00000000000E+00 0.  1.
          2   -1    0    0  501    0  0.00000000000E+00 -0.00000000000E+00 -0.23146943587E+04  0.23146943587E+04  0.00000000000E+00 0. -1.
         23    2    1    2    0    0  0.26178485626E+03  0.18281740898E+03 -0.16134606316E+04  0.16471008080E+04  0.87933759130E+02 0.  0.
        254    2    1    2    0    0 -0.26178485626E+03 -0.18281740898E+03 -0.34858318766E+03  0.10202440901E+04  0.90412070470E+03 0.  0.
         23    2    4    4    0    0 -0.56561797914E+03 -0.55902679498E+02 -0.35970761686E+03  0.67727030177E+03  0.79099204309E+02 0.  0.
         23    2    4    4    0    0  0.30383312289E+03 -0.12691472948E+03  0.11124429201E+02  0.34297378833E+03  0.95317109857E+02 0.  0.
         11    1    3    3    0    0  0.15506115842E+03  0.12281036120E+03 -0.11887325205E+04  0.12050773224E+04  0.00000000000E+00 0. -1.
        -11    1    3    3    0    0  0.10672369783E+03  0.60007047780E+02 -0.42472811115E+03  0.44202348565E+03  0.00000000000E+00 0.  1.
          4    1    5    5  502    0 -0.43626342287E+03 -0.33940349982E+02 -0.23707374339E+03  0.49767628163E+03  0.00000000000E+00 0. -1.
          1    1    6    6  503    0  0.27737233746E+03 -0.80727452549E+02  0.15256307550E+01  0.28888520684E+03  0.00000000000E+00 0. -1.
         -4    1    5    5    0  502 -0.12935455627E+03 -0.21962329516E+02 -0.12263387348E+03  0.17959402014E+03  0.00000000000E+00 0.  1.
         -1    1    6    6    0  503  0.26460785432E+02 -0.46187276929E+02  0.95987984458E+01  0.54088581488E+02  0.00000000000E+00 0.  1.
<mgrwt>
<rscale>  0 0.18069623E+04</rscale>
<asrwt>0</asrwt>
<pdfrwt beam="1">  1        2 0.35610682E+00 0.18069623E+04</pdfrwt>
<pdfrwt beam="2">  1       -2 0.54253930E-01 0.18069623E+04</pdfrwt>
<totfact> 0.13429023E+01</totfact>
</mgrwt>
</event>
<event>
12    1  0.4247462E-008  0.1277845E+04  0.7818608E-02  0.9047321E-01
         -2   -1    0    0    0  501 -0.00000000000E+00  0.00000000000E+00  0.10931134556E+04  0.10931134556E+04  0.00000000000E+00 0. -1.
          2   -1    0    0  501    0  0.00000000000E+00 -0.00000000000E+00 -0.37344868226E+03  0.37344868226E+03  0.00000000000E+00 0.  1.
         23    2    1    2    0    0 -0.47600561493E+02 -0.23548083446E+03 -0.40844578108E+02  0.26023447162E+03  0.91305332833E+02 0.  0.
        254    2    1    2    0    0  0.47600561493E+02  0.23548083446E+03  0.76050935147E+03  0.12063276663E+04  0.90506073158E+03 0.  0.
         23    2    4    4    0    0 -0.34618055911E+03  0.18850890405E+03  0.78231045339E+02  0.41214636669E+03  0.91476470779E+02 0.  0.
         23    2    4    4    0    0  0.39378112060E+03  0.46971930413E+02  0.68227830613E+03  0.79418129957E+03  0.89164546675E+02 0.  0.
         13    1    3    3    0    0 -0.31285512055E+02 -0.23810128167E+03 -0.41452084286E+02  0.24369915652E+03  0.00000000000E+00 0.  1.
        -13    1    3    3    0    0 -0.16315049438E+02  0.26204472034E+01  0.60750617853E+00  0.16535315101E+02  0.00000000000E+00 0. -1.
          4    1    5    5  502    0 -0.19648083385E+03  0.12328067782E+03  0.20660947950E+01  0.23196360133E+03  0.00000000000E+00 0. -1.
          3    1    6    6  503    0  0.24889951167E+03 -0.12480411908E+02  0.39678957183E+03  0.46856023295E+03  0.00000000000E+00 0.  1.
         -4    1    5    5    0  502 -0.14969972526E+03  0.65228226227E+02  0.76164950544E+02  0.18018276535E+03  0.00000000000E+00 0.  1.
         -3    1    6    6    0  503  0.14488160893E+03  0.59452342321E+02  0.28548873430E+03  0.32562106662E+03  0.00000000000E+00 0. -1.
<mgrwt>
<rscale>  0 0.12778447E+04</rscale>
<asrwt>0</asrwt>
<pdfrwt beam="1">  1        2 0.57453644E-01 0.12778447E+04</pdfrwt>
<pdfrwt beam="2">  1       -2 0.16817130E+00 0.12778447E+04</pdfrwt>
<totfact> 0.18502947E+01</totfact>
</mgrwt>
</event>
<event>
12    1  0.4247462E-008  0.3701934E+04  0.7818608E-02  0.8067533E-01
          2   -1    0    0  501    0  0.00000000000E+00  0.00000000000E+00  0.26408190772E+04  0.26408190772E+04  0.00000000000E+00 0. -1.
         -2   -1    0    0    0  501 -0.00000000000E+00 -0.00000000000E+00 -0.12973549068E+04  0.12973549068E+04  0.00000000000E+00 0.  1.
         23    2    1    2    0    0 -0.12505484161E+04 -0.10573505610E+04 -0.88791743145E+01  0.16403386712E+04  0.93651302905E+02 0.  0.
        254    2    1    2    0    0  0.12505484161E+04  0.10573505610E+04  0.13523433447E+04  0.22978353128E+04  0.87712772893E+03 0.  0.
         23    2    4    4    0    0  0.97440818253E+03  0.53174037147E+03  0.12743391198E+04  0.16920997500E+04  0.83918073128E+02 0.  0.
         23    2    4    4    0    0  0.27614023353E+03  0.52561018958E+03  0.78004224937E+02  0.60573556277E+03  0.91166950893E+02 0.  0.
         11    1    3    3    0    0 -0.11508802099E+04 -0.95908712083E+03  0.15857427191E+02  0.14982072022E+04  0.00000000000E+00 0. -1.
        -11    1    3    3    0    0 -0.99668206168E+02 -0.98263440217E+02 -0.24736601505E+02  0.14213146892E+03  0.00000000000E+00 0.  1.
          4    1    5    5  502    0  0.18974729331E+01  0.27394277631E+01 -0.80494991611E+00  0.34282375018E+01  0.00000000000E+00 0. -1.
          1    1    6    6  503    0  0.16672963596E+03  0.28511566969E+03  0.13623647431E+00  0.33028735242E+03  0.00000000000E+00 0. -1.
         -4    1    5    5    0  502  0.97251070959E+03  0.52900094370E+03  0.12751440697E+04  0.16886715125E+04  0.00000000000E+00 0.  1.
         -1    1    6    6    0  503  0.10941059757E+03  0.24049451989E+03  0.77867988462E+02  0.27544821035E+03  0.00000000000E+00 0.  1.
<mgrwt>
<rscale>  0 0.37019344E+04</rscale>
<asrwt>0</asrwt>
<pdfrwt beam="1">  1        2 0.40627986E+00 0.37019344E+04</pdfrwt>
<pdfrwt beam="2">  1       -2 0.19959306E+00 0.37019344E+04</pdfrwt>
<totfact> 0.31137527E-01</totfact>
</mgrwt>
</event>
<event>
12    1  0.4247462E-008  0.1394872E+04  0.7818608E-02  0.8957539E-01
          2   -1    0    0  501    0  0.00000000000E+00  0.00000000000E+00  0.24663604480E+04  0.24663604480E+04  0.00000000000E+00 0. -1.
         -2   -1    0    0    0  501 -0.00000000000E+00 -0.00000000000E+00 -0.19722053553E+03  0.19722053553E+03  0.00000000000E+00 0.  1.
         23    2    1    2    0    0 -0.22882975125E+03  0.18744566069E+03  0.11817934765E+04  0.12218543397E+04  0.93772467260E+02 0.  0.
        254    2    1    2    0    0  0.22882975125E+03 -0.18744566069E+03  0.10873464359E+04  0.14417266438E+04  0.89930779651E+03 0.  0.
         23    2    4    4    0    0  0.16373642042E+03  0.25425421378E+03  0.60956018470E+02  0.31937622062E+03  0.82648130729E+02 0.  0.
         23    2    4    4    0    0  0.65093330832E+02 -0.44169987447E+03  0.10263904175E+04  0.11223504232E+04  0.82808589437E+02 0.  0.
         13    1    3    3    0    0 -0.18964489276E+03  0.18164528514E+03  0.11008507049E+04  0.11317386931E+04  0.00000000000E+00 0. -1.
        -13    1    3    3    0    0 -0.39184858491E+02  0.58003755555E+01  0.80942771546E+02  0.90115646572E+02  0.00000000000E+00 0.  1.
          3    1    6    6  502    0  0.45408706587E+02 -0.33812354952E+03  0.68842337806E+03  0.76832039725E+03  0.00000000000E+00 0. -1.
          3    1    5    5  503    0 -0.17548073250E+01  0.51384319834E+02  0.50157041814E+01  0.51658348425E+02  0.00000000000E+00 0. -1.
         -3    1    5    5    0  503  0.16549122774E+03  0.20286989394E+03  0.55940314289E+02  0.26771787219E+03  0.00000000000E+00 0.  1.
         -3    1    6    6    0  502  0.19684624245E+02 -0.10357632495E+03  0.33796703941E+03  0.35403002592E+03  0.00000000000E+00 0.  1.
<mgrwt>
<rscale>  0 0.13948719E+04</rscale>
<asrwt>0</asrwt>
<pdfrwt beam="1">  1        2 0.37944005E+00 0.13948719E+04</pdfrwt>
<pdfrwt beam="2">  1       -2 0.30341623E-01 0.13948719E+04</pdfrwt>
<totfact> 0.35712209E+01</totfact>
</mgrwt>
</event>
<event>
12    1  0.4247462E-008  0.1489934E+04  0.7818608E-02  0.8891174E-01
         -2   -1    0    0    0  501 -0.00000000000E+00  0.00000000000E+00  0.42211154870E+03  0.42211154870E+03  0.00000000000E+00 0.  1.
          2   -1    0    0  501    0  0.00000000000E+00 -0.00000000000E+00 -0.13147609241E+04  0.13147609241E+04  0.00000000000E+00 0. -1.
         23    2    1    2    0    0 -0.11585746180E+03 -0.44085662037E+03 -0.37606948684E+03  0.59784197209E+03  0.90604930836E+02 0.  0.
        254    2    1    2    0    0  0.11585746180E+03  0.44085662037E+03 -0.51657988861E+03  0.11390305008E+04  0.90706019048E+03 0.  0.
         23    2    4    4    0    0 -0.21839152689E+03  0.18696415249E+03 -0.62797469697E+03  0.69668217067E+03  0.91451482048E+02 0.  0.
         23    2    4    4    0    0  0.33424898868E+03  0.25389246788E+03  0.11139480836E+03  0.44234833008E+03  0.84139587072E+02 0.  0.
         13    1    3    3    0    0 -0.11877422778E+03 -0.43861761847E+03 -0.35551369908E+03  0.57695989692E+03  0.00000000000E+00 0. -1.
        -13    1    3    3    0    0  0.29167659830E+01 -0.22390018937E+01 -0.20555787757E+02  0.20882075174E+02  0.00000000000E+00 0.  1.
          4    1    5    5  502    0 -0.19807718159E+03  0.19530553644E+03 -0.59791637452E+03  0.65945645296E+03  0.00000000000E+00 0. -1.
          3    1    6    6  503    0  0.27084543565E+03  0.23505632630E+03  0.73350472270E+02  0.36604510422E+03  0.00000000000E+00 0. -1.
         -4    1    5    5    0  502 -0.20314345293E+02 -0.83413839476E+01 -0.30058322448E+02  0.37225717713E+02  0.00000000000E+00 0.  1.
         -3    1    6    6    0  503  0.63403553038E+02  0.18836141578E+02  0.38044336090E+02  0.76303225856E+02  0.00000000000E+00 0.  1.
<mgrwt>
<rscale>  0 0.14899339E+04</rscale>
<asrwt>0</asrwt>
<pdfrwt beam="1">  1        2 0.20227091E+00 0.14899339E+04</pdfrwt>
<pdfrwt beam="2">  1       -2 0.64940240E-01 0.14899339E+04</pdfrwt>
<totfact> 0.34278962E+01</totfact>
</mgrwt>
</event>
<event>
12    1  0.4247462E-008  0.1712921E+04  0.7818608E-02  0.8754029E-01
         -1   -1    0    0    0  501 -0.00000000000E+00  0.00000000000E+00  0.56957869960E+03  0.56957869960E+03  0.00000000000E+00 0.  1.
          1   -1    0    0  501    0  0.00000000000E+00 -0.00000000000E+00 -0.12878378236E+04  0.12878378236E+04  0.00000000000E+00 0. -1.
         23    2    1    2    0    0 -0.30862461900E+03 -0.27154956562E+03  0.23750488313E+03  0.48351821661E+03  0.91613177250E+02 0.  0.
        254    2    1    2    0    0  0.30862461900E+03  0.27154956562E+03 -0.95576400707E+03  0.13738983065E+04  0.89728668634E+03 0.  0.
         23    2    4    4    0    0  0.60733028702E+03  0.19023356081E+03 -0.49461211893E+03  0.81146443116E+03  0.93778940312E+02 0.  0.
         23    2    4    4    0    0 -0.29870566803E+03  0.81316004805E+02 -0.46115188814E+03  0.56243387539E+03  0.88506674893E+02 0.  0.
         13    1    3    3    0    0 -0.24333282822E+03 -0.15788829637E+03  0.16147484787E+03  0.33198449649E+03  0.00000000000E+00 0. -1.
        -13    1    3    3    0    0 -0.65291790780E+02 -0.11366126925E+03  0.76030035260E+02  0.15153372012E+03  0.00000000000E+00 0.  1.
          4    1    5    5  502    0  0.21908375591E+02 -0.79321871175E+01 -0.73354148690E+01  0.24427542341E+02  0.00000000000E+00 0.  1.
          1    1    6    6  503    0 -0.29649035735E+03  0.68513082128E+02 -0.41579991447E+03  0.51525735637E+03  0.00000000000E+00 0. -1.
         -4    1    5    5    0  502  0.58542191143E+03  0.19816574793E+03 -0.48727670406E+03  0.78703688882E+03  0.00000000000E+00 0. -1.
         -1    1    6    6    0  503 -0.22153106763E+01  0.12802922677E+02 -0.45351973675E+02  0.47176519018E+02  0.00000000000E+00 0.  1.
<mgrwt>
<rscale>  0 0.17129215E+04</rscale>
<asrwt>0</asrwt>
<pdfrwt beam="1">  1        1 0.19812889E+00 0.17129215E+04</pdfrwt>
<pdfrwt beam="2">  1       -1 0.87627493E-01 0.17129215E+04</pdfrwt>
<totfact> 0.11239636E+01</totfact>
</mgrwt>
</event>
<event>
12    1  0.4247462E-008  0.2470976E+04  0.7818608E-02  0.8413399E-01
         -2   -1    0    0    0  501 -0.00000000000E+00  0.00000000000E+00  0.66218353268E+03  0.66218353268E+03  0.00000000000E+00 0.  1.
          2   -1    0    0  501    0  0.00000000000E+00 -0.00000000000E+00 -0.23051474959E+04  0.23051474959E+04  0.00000000000E+00 0. -1.
         23    2    1    2    0    0 -0.90823530337E+03  0.36641912639E+03 -0.12600529080E+04  0.15985160804E+04  0.91465763653E+02 0.  0.
        254    2    1    2    0    0  0.90823530337E+03 -0.36641912639E+03 -0.38291105523E+03  0.13688149482E+04  0.87628713541E+03 0.  0.
         23    2    4    4    0    0  0.91742824939E+03 -0.11081776022E+02 -0.39073968799E+03  0.10014577895E+04  0.91884720873E+02 0.  0.
         23    2    4    4    0    0 -0.91929460163E+01 -0.35533735036E+03  0.78286327599E+01  0.36735715864E+03  0.92416728441E+02 0.  0.
         11    1    3    3    0    0 -0.80405051092E+02  0.21198568286E+02 -0.14875511582E+03  0.17041841456E+03  0.00000000000E+00 0.  1.
        -11    1    3    3    0    0 -0.82783025228E+03  0.34522055810E+03 -0.11112977922E+04  0.14280976659E+04  0.00000000000E+00 0. -1.
          1    1    5    5  502    0  0.80895484938E+03  0.17755321573E+02 -0.33020024905E+03  0.87393100658E+03  0.00000000000E+00 0. -1.
          3    1    6    6  503    0 -0.21216017734E+02 -0.13225043241E+03  0.44114160551E+02  0.14101898965E+03  0.00000000000E+00 0.  1.
         -1    1    5    5    0  502  0.10847340000E+03 -0.28837097595E+02 -0.60539438937E+02  0.12752678296E+03  0.00000000000E+00 0.  1.
         -3    1    6    6    0  503  0.12023071718E+02 -0.22308691795E+03 -0.36285527791E+02  0.22633816899E+03  0.00000000000E+00 0. -1.
<mgrwt>
<rscale>  0 0.24709761E+04</rscale>
<asrwt>0</asrwt>
<pdfrwt beam="1">  1        2 0.35463808E+00 0.24709761E+04</pdfrwt>
<pdfrwt beam="2">  1       -2 0.10187439E+00 0.24709761E+04</pdfrwt>
<totfact> 0.31810368E+00</totfact>
</mgrwt>
</event>
<event>
12    1  0.4247462E-008  0.1603603E+04  0.7818608E-02  0.8818338E-01
         -1   -1    0    0    0  501 -0.00000000000E+00  0.00000000000E+00  0.26409674497E+03  0.26409674497E+03  0.00000000000E+00 0.  1.
          1   -1    0    0  501    0  0.00000000000E+00 -0.00000000000E+00 -0.24342811371E+04  0.24342811371E+04  0.00000000000E+00 0. -1.
         23    2    1    2    0    0 -0.31193839996E+03 -0.42949841982E+03 -0.10075282934E+04  0.11423123961E+04  0.89386185945E+02 0.  0.
        254    2    1    2    0    0  0.31193839996E+03  0.42949841982E+03 -0.11626560987E+04  0.15560654860E+04  0.88757880481E+03 0.  0.
         23    2    4    4    0    0  0.41412120988E+03  0.51977275023E+02 -0.10575651907E+04  0.11405909212E+04  0.91134534374E+02 0.  0.
         23    2    4    4    0    0 -0.10218280992E+03  0.37752114480E+03 -0.10509090801E+03  0.41547456476E+03  0.92798025871E+02 0.  0.
         13    1    3    3    0    0 -0.27536015461E+03 -0.35120321859E+03 -0.89813901827E+03  0.10029060832E+04  0.00000000000E+00 0. -1.
        -13    1    3    3    0    0 -0.36578245348E+02 -0.78295201235E+02 -0.10938927512E+03  0.13940631291E+03  0.00000000000E+00 0.  1.
          4    1    5    5  502    0  0.21989442805E+03  0.46749026675E+02 -0.45559940431E+03  0.50804512417E+03  0.00000000000E+00 0. -1.
          1    1    6    6  503    0 -0.97735351299E+02  0.20934541087E+03 -0.84412688156E+02  0.24597398616E+03  0.00000000000E+00 0. -1.
         -4    1    5    5    0  502  0.19422678183E+03  0.52282483479E+01 -0.60196578640E+03  0.63254579704E+03  0.00000000000E+00 0.  1.
         -1    1    6    6    0  503 -0.44474586244E+01  0.16817573393E+03 -0.20678219856E+02  0.16950057861E+03  0.00000000000E+00 0.  1.
<mgrwt>
<rscale>  0 0.16036031E+04</rscale>
<asrwt>0</asrwt>
<pdfrwt beam="1">  1        1 0.37450480E+00 0.16036031E+04</pdfrwt>
<pdfrwt beam="2">  1       -1 0.40630268E-01 0.16036031E+04</pdfrwt>
<totfact> 0.85561228E+00</totfact>
</mgrwt>
</event>
<event>
12    1  0.4247462E-008  0.1336069E+04  0.7818608E-02  0.9001441E-01
          2   -1    0    0  501    0  0.00000000000E+00  0.00000000000E+00  0.12721092236E+04  0.12721092236E+04  0.00000000000E+00 0. -1.
         -2   -1    0    0    0  501 -0.00000000000E+00 -0.00000000000E+00 -0.35081125445E+03  0.35081125445E+03  0.00000000000E+00 0.  1.
         23    2    1    2    0    0 -0.30764059185E+03  0.17332675726E+03  0.31907239872E+03  0.48556686324E+03  0.96348764996E+02 0.  0.
        254    2    1    2    0    0  0.30764059185E+03 -0.17332675726E+03  0.60222557038E+03  0.11373536148E+04  0.89789348414E+03 0.  0.
         23    2    4    4    0    0 -0.25128327481E+03 -0.13969793232E+03  0.46474143819E+03  0.55380961421E+03  0.89786902915E+02 0.  0.
         23    2    4    4    0    0  0.55892386666E+03 -0.33628824939E+02  0.13748413220E+03  0.58354400055E+03  0.89971814369E+02 0.  0.
         11    1    3    3    0    0 -0.16633404421E+03  0.14701423187E+03  0.20304902101E+03  0.30084730939E+03  0.00000000000E+00 0. -1.
        -11    1    3    3    0    0 -0.14130654765E+03  0.26312525391E+02  0.11602337771E+03  0.18471955385E+03  0.00000000000E+00 0.  1.
          1    1    6    6  502    0  0.23442589628E+02 -0.18160384262E+02  0.17955897132E+02  0.34666537278E+02  0.00000000000E+00 0. -1.
          1    1    5    5  503    0 -0.32584842982E+02  0.14492780951E+01  0.19317073049E+02  0.37908069199E+02  0.00000000000E+00 0. -1.
         -1    1    5    5    0  503 -0.21869843183E+03 -0.14114721042E+03  0.44542436514E+03  0.51590154502E+03  0.00000000000E+00 0.  1.
         -1    1    6    6    0  502  0.53548127703E+03 -0.15468440677E+02  0.11952823507E+03  0.54887746327E+03  0.00000000000E+00 0.  1.
<mgrwt>
<rscale>  0 0.13360692E+04</rscale>
<asrwt>0</asrwt>
<pdfrwt beam="1">  1        2 0.19570911E+00 0.13360692E+04</pdfrwt>
<pdfrwt beam="2">  1       -2 0.53970963E-01 0.13360692E+04</pdfrwt>
<totfact> 0.54257078E+01</totfact>
</mgrwt>
</event>
<event>
12    1  0.4247462E-008  0.1256951E+04  0.7818608E-02  0.9064418E-01
          2   -1    0    0  501    0  0.00000000000E+00  0.00000000000E+00  0.25930509296E+04  0.25930509296E+04  0.00000000000E+00 0. -1.
         -2   -1    0    0    0  501 -0.00000000000E+00 -0.00000000000E+00 -0.15232312485E+03  0.15232312485E+03  0.00000000000E+00 0.  1.
         23    2    1    2    0    0 -0.11995681271E+03 -0.40557632460E+02  0.12166174431E+04  0.12267256328E+04  0.93076402463E+02 0.  0.
        254    2    1    2    0    0  0.11995681271E+03  0.40557632460E+02  0.12241103616E+04  0.15186484217E+04  0.88983835204E+03 0.  0.
         23    2    4    4    0    0  0.35305895883E+03  0.34239248086E+03  0.59311822323E+03  0.77566907817E+03  0.89387094877E+02 0.  0.
         23    2    4    4    0    0 -0.23310214612E+03 -0.30183484840E+03  0.63099213838E+03  0.74297934350E+03  0.91795097545E+02 0.  0.
         13    1    3    3    0    0 -0.10441126415E+03  0.47615733493E+01  0.68159922306E+03  0.68956644751E+03  0.00000000000E+00 0. -1.
        -13    1    3    3    0    0 -0.15545548561E+02 -0.45319205809E+02  0.53501822009E+03  0.53715918527E+03  0.00000000000E+00 0.  1.
          2    1    5    5  502    0  0.33516742673E+03  0.29487623709E+03  0.55454534242E+03  0.71190570720E+03  0.00000000000E+00 0. -1.
          1    1    6    6  503    0 -0.99479288558E+02 -0.17953346415E+03  0.27072190151E+03  0.33973333889E+03  0.00000000000E+00 0. -1.
         -2    1    5    5    0  502  0.17891532101E+02  0.47516243772E+02  0.38572880816E+02  0.63763370971E+02  0.00000000000E+00 0.  1.
         -1    1    6    6    0  503 -0.13362285757E+03 -0.12230138426E+03  0.36027023687E+03  0.40324600460E+03  0.00000000000E+00 0.  1.
<mgrwt>
<rscale>  0 0.12569513E+04</rscale>
<asrwt>0</asrwt>
<pdfrwt beam="1">  1        2 0.39893088E+00 0.12569513E+04</pdfrwt>
<pdfrwt beam="2">  1       -2 0.23434329E-01 0.12569513E+04</pdfrwt>
<totfact> 0.49012952E+01</totfact>
</mgrwt>
</event>
<event>
12    1  0.4247462E-008  0.2096879E+04  0.7818608E-02  0.8562619E-01
          1   -1    0    0  501    0  0.00000000000E+00  0.00000000000E+00  0.12799023703E+04  0.12799023703E+04  0.00000000000E+00 0. -1.
         -1   -1    0    0    0  501 -0.00000000000E+00 -0.00000000000E+00 -0.85883571262E+03  0.85883571262E+03  0.00000000000E+00 0.  1.
         23    2    1    2    0    0 -0.30711971308E+03  0.61750397629E+03 -0.34088684100E+03  0.77458140975E+03  0.90215536662E+02 0.  0.
        254    2    1    2    0    0  0.30711971308E+03 -0.61750397629E+03  0.76195349869E+03  0.13641566732E+04  0.89705998459E+03 0.  0.
         23    2    4    4    0    0  0.21981038822E+03  0.19377753307E+03  0.16114492957E+03  0.34661134112E+03  0.91133936470E+02 0.  0.
         23    2    4    4    0    0  0.87309324862E+02 -0.81128150937E+03  0.60080856912E+03  0.10175453321E+04  0.92881432124E+02 0.  0.
         11    1    3    3    0    0 -0.30197332138E+03  0.56991386056E+03 -0.33367369253E+03  0.72617341481E+03  0.00000000000E+00 0.  1.
        -11    1    3    3    0    0 -0.51463917009E+01  0.47590115734E+02 -0.72131484634E+01  0.48407994937E+02  0.00000000000E+00 0. -1.
          2    1    5    5  502    0  0.20640276608E+03  0.19793418835E+03  0.13348198379E+03  0.31559069181E+03  0.00000000000E+00 0.  1.
          3    1    6    6  503    0 -0.16874676893E+01 -0.12746656234E+03  0.58477493475E+02  0.14025045207E+03  0.00000000000E+00 0. -1.
         -2    1    5    5    0  502  0.13407622143E+02 -0.41566552791E+01  0.27662945772E+02  0.31020649307E+02  0.00000000000E+00 0. -1.
         -3    1    6    6    0  503  0.88996792552E+02 -0.68381494703E+03  0.54233107565E+03  0.87729488000E+03  0.00000000000E+00 0.  1.
<mgrwt>
<rscale>  0 0.20968795E+04</rscale>
<asrwt>0</asrwt>
<pdfrwt beam="1">  1        1 0.19690806E+00 0.20968795E+04</pdfrwt>
<pdfrwt beam="2">  1       -1 0.13212857E+00 0.20968795E+04</pdfrwt>
<totfact> 0.41866890E+00</totfact>
</mgrwt>
</event>
<event>
12    1  0.4247462E-008  0.1642187E+04  0.7818608E-02  0.8795042E-01
         -1   -1    0    0    0  501 -0.00000000000E+00  0.00000000000E+00  0.65637708650E+03  0.65637708650E+03  0.00000000000E+00 0.  1.
          1   -1    0    0  501    0  0.00000000000E+00 -0.00000000000E+00 -0.10271453547E+04  0.10271453547E+04  0.00000000000E+00 0. -1.
         23    2    1    2    0    0  0.36574924535E+03 -0.22971455324E+03 -0.52839243326E+03  0.68932197044E+03  0.97082073302E+02 0.  0.
        254    2    1    2    0    0 -0.36574924535E+03  0.22971455324E+03  0.15762416502E+03  0.99420047080E+03  0.88150321173E+03 0.  0.
         23    2    4    4    0    0 -0.43356008736E+03  0.26156338575E+03  0.44701472881E+03  0.68163880025E+03  0.91758008424E+02 0.  0.
         23    2    4    4    0    0  0.67810842009E+02 -0.31848832508E+02 -0.28939056379E+03  0.31256167055E+03  0.91297541366E+02 0.  0.
         11    1    3    3    0    0  0.32672612781E+03 -0.16870131840E+03 -0.41190967432E+03  0.55215910499E+03  0.00000000000E+00 0. -1.
        -11    1    3    3    0    0  0.39023117547E+02 -0.61013234842E+02 -0.11648275894E+03  0.13716286545E+03  0.00000000000E+00 0.  1.
          3    1    6    6  502    0  0.60818529189E+02 -0.20525322233E+02 -0.79177315411E+02  0.10192757047E+03  0.00000000000E+00 0. -1.
          3    1    5    5  503    0 -0.37783406638E+03  0.19074494244E+03  0.34990781142E+03  0.54916089744E+03  0.00000000000E+00 0. -1.
         -3    1    5    5    0  503 -0.55726020986E+02  0.70818443313E+02  0.97106917387E+02  0.13247790281E+03  0.00000000000E+00 0.  1.
         -3    1    6    6    0  502  0.69923128201E+01 -0.11323510275E+02 -0.21021324838E+03  0.21063410009E+03  0.00000000000E+00 0.  1.
<mgrwt>
<rscale>  0 0.16421872E+04</rscale>
<asrwt>0</asrwt>
<pdfrwt beam="1">  1        1 0.15802236E+00 0.16421872E+04</pdfrwt>
<pdfrwt beam="2">  1       -1 0.10098109E+00 0.16421872E+04</pdfrwt>
<totfact> 0.12846270E+01</totfact>
</mgrwt>
</event>
<event>
12    1  0.4247462E-008  0.2142817E+04  0.7818608E-02  0.8542613E-01
          1   -1    0    0  501    0  0.00000000000E+00  0.00000000000E+00  0.16596506735E+04  0.16596506735E+04  0.00000000000E+00 0. -1.
         -1   -1    0    0    0  501 -0.00000000000E+00 -0.00000000000E+00 -0.69166144162E+03  0.69166144162E+03  0.00000000000E+00 0.  1.
         23    2    1    2    0    0  0.21420704590E+03  0.45981814288E+03  0.11823380437E+04  0.12897403384E+04  0.90495899949E+02 0.  0.
        254    2    1    2    0    0 -0.21420704590E+03 -0.45981814288E+03 -0.21434881187E+03  0.10615717767E+04  0.90756368416E+03 0.  0.
         23    2    4    4    0    0 -0.20564046701E+03 -0.58307879202E+03  0.16982735030E+03  0.64790933411E+03  0.93146642092E+02 0.  0.
         23    2    4    4    0    0 -0.85665788865E+01  0.12326064914E+03 -0.38417616217E+03  0.41366244255E+03  0.90877493917E+02 0.  0.
         11    1    3    3    0    0  0.11956636242E+03  0.17504090348E+03  0.56143309596E+03  0.60011878337E+03  0.00000000000E+00 0.  1.
        -11    1    3    3    0    0  0.94640683480E+02  0.28477723940E+03  0.62090494777E+03  0.68962155507E+03  0.00000000000E+00 0. -1.
          2    1    5    5  502    0 -0.88531312167E+02 -0.34888192740E+03  0.64492353563E+02  0.36567151403E+03  0.00000000000E+00 0. -1.
          3    1    6    6  503    0 -0.17926399730E+02 -0.16568282486E+01 -0.13822454947E+02  0.22697161671E+02  0.00000000000E+00 0. -1.
         -2    1    5    5    0  502 -0.11710915485E+03 -0.23419686462E+03  0.10533499673E+03  0.28223782008E+03  0.00000000000E+00 0.  1.
         -3    1    6    6    0  503  0.93598208438E+01  0.12491747739E+03 -0.37035370722E+03  0.39096528088E+03  0.00000000000E+00 0.  1.
<mgrwt>
<rscale>  0 0.21428172E+04</rscale>
<asrwt>0</asrwt>
<pdfrwt beam="1">  1        1 0.25533087E+00 0.21428172E+04</pdfrwt>
<pdfrwt beam="2">  1       -1 0.10640945E+00 0.21428172E+04</pdfrwt>
<totfact> 0.38396946E+00</totfact>
</mgrwt>
</event>
<event>
12    1  0.4247462E-008  0.1999853E+04  0.7818608E-02  0.8606689E-01
         -2   -1    0    0    0  501 -0.00000000000E+00  0.00000000000E+00  0.24790206712E+03  0.24790206712E+03  0.00000000000E+00 0.  1.
          2   -1    0    0  501    0  0.00000000000E+00 -0.00000000000E+00 -0.40332588892E+04  0.40332588892E+04  0.00000000000E+00 0. -1.
         23    2    1    2    0    0  0.20093504958E+03  0.78656953474E+01 -0.31797022952E+04  0.31873389404E+04  0.90476912640E+02 0.  0.
        254    2    1    2    0    0 -0.20093504958E+03 -0.78656953474E+01 -0.60565452692E+03  0.10938220159E+04  0.88836503379E+03 0.  0.
         23    2    4    4    0    0 -0.13491972078E+03 -0.11934269748E+03 -0.81026720625E+03  0.83489223884E+03  0.89811438354E+02 0.  0.
         23    2    4    4    0    0 -0.66015328802E+02  0.11147700213E+03  0.20461267933E+03  0.25892977710E+03  0.91614056140E+02 0.  0.
         13    1    3    3    0    0  0.20480693355E+03 -0.53900356765E+01 -0.30580500196E+04  0.30649053583E+04  0.00000000000E+00 0. -1.
        -13    1    3    3    0    0 -0.38718839700E+01  0.13255731024E+02 -0.12165227554E+03  0.12243358214E+03  0.00000000000E+00 0.  1.
          1    1    5    5  502    0 -0.58280993365E+02  0.83849405856E+00 -0.21055560066E+03  0.21847434227E+03  0.00000000000E+00 0. -1.
          3    1    6    6  503    0 -0.28732553052E+02  0.49086674450E+02  0.16836189130E+03  0.17770984119E+03  0.00000000000E+00 0. -1.
         -1    1    5    5    0  502 -0.76638727410E+02 -0.12018119154E+03 -0.59971160559E+03  0.61641789657E+03  0.00000000000E+00 0.  1.
         -3    1    6    6    0  503 -0.37282775749E+02  0.62390327681E+02  0.36250788032E+02  0.81219935907E+02  0.00000000000E+00 0.  1.
<mgrwt>
<rscale>  0 0.19998532E+04</rscale>
<asrwt>0</asrwt>
<pdfrwt beam="1">  1        2 0.62050136E+00 0.19998532E+04</pdfrwt>
<pdfrwt beam="2">  1       -2 0.38138780E-01 0.19998532E+04</pdfrwt>
<totfact> 0.19596494E+00</totfact>
</mgrwt>
</event>
<event>
12    1  0.4247462E-008  0.1420132E+04  0.7818608E-02  0.8939373E-01
          1   -1    0    0  501    0  0.00000000000E+00  0.00000000000E+00  0.70122587138E+03  0.70122587138E+03  0.00000000000E+00 0. -1.
         -1   -1    0    0    0  501 -0.00000000000E+00 -0.00000000000E+00 -0.71901803861E+03  0.71901803861E+03  0.00000000000E+00 0.  1.
         23    2    1    2    0    0  0.37133060290E+03 -0.12445155568E+03  0.64142824891E+02  0.40737380917E+03  0.92002782832E+02 0.  0.
        254    2    1    2    0    0 -0.37133060290E+03  0.12445155568E+03 -0.81934992129E+02  0.10128701008E+04  0.93049335937E+03 0.  0.
         23    2    4    4    0    0  0.16786856525E+03  0.36416628310E+03 -0.59746155754E+02  0.41523790103E+03  0.89755079938E+02 0.  0.
         23    2    4    4    0    0 -0.53919916815E+03 -0.23971472742E+03 -0.22188836375E+02  0.59763219979E+03  0.92048945083E+02 0.  0.
         13    1    3    3    0    0  0.25891156430E+02 -0.17502092775E+02  0.31361491634E+02  0.44274353640E+02  0.00000000000E+00 0.  1.
        -13    1    3    3    0    0  0.34543944647E+03 -0.10694946290E+03  0.32781333257E+02  0.36309945553E+03  0.00000000000E+00 0. -1.
          4    1    5    5  502    0  0.13225586495E+03  0.18345853906E+03 -0.43823768907E+02  0.23036747185E+03  0.00000000000E+00 0. -1.
          1    1    6    6  503    0 -0.38089022423E+03 -0.16097932491E+03  0.26144442818E+02  0.41433710654E+03  0.00000000000E+00 0. -1.
         -4    1    5    5    0  502  0.35612700299E+02  0.18070774404E+03 -0.15922386847E+02  0.18487042917E+03  0.00000000000E+00 0.  1.
         -1    1    6    6    0  503 -0.15830894392E+03 -0.78735402512E+02 -0.48333279193E+02  0.18329509325E+03  0.00000000000E+00 0.  1.
<mgrwt>
<rscale>  0 0.14201325E+04</rscale>
<asrwt>0</asrwt>
<pdfrwt beam="1">  1        1 0.10788090E+00 0.14201325E+04</pdfrwt>
<pdfrwt beam="2">  1       -1 0.11061816E+00 0.14201325E+04</pdfrwt>
<totfact> 0.19929549E+01</totfact>
</mgrwt>
</event>
<event>
12    1  0.4247462E-008  0.3048394E+04  0.7818608E-02  0.8230045E-01
          2   -1    0    0  501    0  0.00000000000E+00  0.00000000000E+00  0.10796864185E+04  0.10796864185E+04  0.00000000000E+00 0. -1.
         -2   -1    0    0    0  501 -0.00000000000E+00 -0.00000000000E+00 -0.21517146957E+04  0.21517146957E+04  0.00000000000E+00 0.  1.
         23    2    1    2    0    0 -0.99441197518E+03 -0.11258731394E+03 -0.14871568205E+04  0.17946633414E+04  0.87464395777E+02 0.  0.
        254    2    1    2    0    0  0.99441197518E+03  0.11258731394E+03  0.41512854337E+03  0.14367377728E+04  0.94358499382E+03 0.  0.
         23    2    4    4    0    0  0.10908278047E+04  0.24441667824E+03  0.17811453005E+03  0.11360666383E+04  0.96321381856E+02 0.  0.
         23    2    4    4    0    0 -0.96415829538E+02 -0.13182936429E+03  0.23701401332E+03  0.30067113452E+03  0.86905092762E+02 0.  0.
         11    1    3    3    0    0 -0.26364003079E+03  0.13132580695E+01 -0.35092819251E+03  0.43892868075E+03  0.00000000000E+00 0. -1.
        -11    1    3    3    0    0 -0.73077194439E+03 -0.11390057201E+03 -0.11362286280E+04  0.13557346606E+04  0.00000000000E+00 0.  1.
          2    1    5    5  502    0  0.48917113766E+03  0.60690920867E+02  0.75626674551E+02  0.49868946620E+03  0.00000000000E+00 0. -1.
          2    1    6    6  503    0 -0.94271103936E+02 -0.83166964066E+02  0.21058189461E+03  0.24525195062E+03  0.00000000000E+00 0. -1.
         -2    1    5    5    0  502  0.60165666706E+03  0.18372575737E+03  0.10248785550E+03  0.63737717206E+03  0.00000000000E+00 0.  1.
         -2    1    6    6    0  503 -0.21447256026E+01 -0.48662400228E+02  0.26432118710E+02  0.55419183893E+02  0.00000000000E+00 0.  1.
<mgrwt>
<rscale>  0 0.30483944E+04</rscale>
<asrwt>0</asrwt>
<pdfrwt beam="1">  1        2 0.16610561E+00 0.30483944E+04</pdfrwt>
<pdfrwt beam="2">  1       -2 0.33103302E+00 0.30483944E+04</pdfrwt>
<totfact> 0.39104458E-01</totfact>
</mgrwt>
</event>
<event>
12    1  0.4247462E-008  0.1312371E+04  0.7818608E-02  0.9019812E-01
         -2   -1    0    0    0  501 -0.00000000000E+00  0.00000000000E+00  0.18001814142E+03  0.18001814142E+03  0.00000000000E+00 0.  1.
          2   -1    0    0  501    0  0.00000000000E+00 -0.00000000000E+00 -0.23918660817E+04  0.23918660817E+04  0.00000000000E+00 0. -1.
         23    2    1    2    0    0  0.24481922608E+02 -0.27142511195E+03 -0.19508689660E+03  0.34699806674E+03  0.89876610758E+02 0.  0.
        254    2    1    2    0    0 -0.24481922608E+02  0.27142511195E+03 -0.20167610437E+04  0.22248861564E+04  0.89917870617E+03 0.  0.
         23    2    4    4    0    0  0.31362543751E+03  0.34827686363E+03 -0.61854588348E+03  0.78147781956E+03  0.91928688091E+02 0.  0.
         23    2    4    4    0    0 -0.33810736012E+03 -0.76851751682E+02 -0.13982151602E+04  0.14434083369E+04  0.90549510770E+02 0.  0.
         11    1    3    3    0    0  0.24795133949E+02 -0.23802089844E+02 -0.47826772348E+02  0.58895995634E+02  0.00000000000E+00 0. -1.
        -11    1    3    3    0    0 -0.31321134098E+00 -0.24762302211E+03 -0.14726012425E+03  0.28810207110E+03  0.00000000000E+00 0.  1.
          2    1    5    5  502    0  0.74285156970E+02  0.14610008034E+03 -0.19737634726E+03  0.25655592076E+03  0.00000000000E+00 0. -1.
          3    1    6    6  503    0 -0.23210587588E+03 -0.93965642836E+02 -0.94002158999E+03  0.97280176259E+03  0.00000000000E+00 0. -1.
         -2    1    5    5    0  502  0.23934028054E+03  0.20217678329E+03 -0.42116953622E+03  0.52492189879E+03  0.00000000000E+00 0.  1.
         -3    1    6    6    0  503 -0.10600148424E+03  0.17113891154E+02 -0.45819357024E+03  0.47060657427E+03  0.00000000000E+00 0.  1.
<mgrwt>
<rscale>  0 0.13123708E+04</rscale>
<asrwt>0</asrwt>
<pdfrwt beam="1">  1        2 0.36797936E+00 0.13123708E+04</pdfrwt>
<pdfrwt beam="2">  1       -2 0.27695101E-01 0.13123708E+04</pdfrwt>
<totfact> 0.46979888E+01</totfact>
</mgrwt>
</event>
<event>
12    1  0.4247462E-008  0.1860105E+04  0.7818608E-02  0.8674973E-01
          1   -1    0    0  501    0  0.00000000000E+00  0.00000000000E+00  0.10671125816E+04  0.10671125816E+04  0.00000000000E+00 0. -1.
         -1   -1    0    0    0  501 -0.00000000000E+00 -0.00000000000E+00 -0.81059658626E+03  0.81059658626E+03  0.00000000000E+00 0.  1.
         23    2    1    2    0    0 -0.51999807546E+03 -0.46227125824E+03 -0.38213414323E+02  0.70307744472E+03  0.93621117005E+02 0.  0.
        254    2    1    2    0    0  0.51999807546E+03  0.46227125824E+03  0.29472940965E+03  0.11746317231E+04  0.89933394544E+03 0.  0.
         23    2    4    4    0    0  0.37459716885E+03  0.59471291844E+03 -0.10966721021E+03  0.71717295054E+03  0.91124364016E+02 0.  0.
         23    2    4    4    0    0  0.14540090661E+03 -0.13244166020E+03  0.40439661987E+03  0.45745877260E+03  0.83962405105E+02 0.  0.
         11    1    3    3    0    0 -0.32796937588E+03 -0.25509526452E+03 -0.59765250497E+02  0.41977302279E+03  0.00000000000E+00 0. -1.
        -11    1    3    3    0    0 -0.19202869958E+03 -0.20717599373E+03  0.21551836175E+02  0.28330442193E+03  0.00000000000E+00 0.  1.
          1    1    5    5  502    0  0.92887410609E+01  0.51273149198E+02  0.51890258261E+01  0.52365470763E+02  0.00000000000E+00 0. -1.
          3    1    6    6  503    0  0.89018133516E+02 -0.10492037597E+03  0.19354420799E+03  0.23746973246E+03  0.00000000000E+00 0. -1.
         -1    1    5    5    0  502  0.36530842779E+03  0.54343976924E+03 -0.11485623604E+03  0.66480747978E+03  0.00000000000E+00 0.  1.
         -3    1    6    6    0  503  0.56382773094E+02 -0.27521284225E+02  0.21085241188E+03  0.21998904014E+03  0.00000000000E+00 0.  1.
<mgrwt>
<rscale>  0 0.18601052E+04</rscale>
<asrwt>0</asrwt>
<pdfrwt beam="1">  1        1 0.16417117E+00 0.18601052E+04</pdfrwt>
<pdfrwt beam="2">  1       -1 0.12470717E+00 0.18601052E+04</pdfrwt>
<totfact> 0.70971718E+00</totfact>
</mgrwt>
</event>
<event>
12    1  0.4247462E-008  0.1609820E+04  0.7818608E-02  0.8814538E-01
         -1   -1    0    0    0  501 -0.00000000000E+00  0.00000000000E+00  0.74574796272E+03  0.74574796272E+03  0.00000000000E+00 0.  1.
          1   -1    0    0  501    0  0.00000000000E+00 -0.00000000000E+00 -0.86876581473E+03  0.86876581473E+03  0.00000000000E+00 0. -1.
         23    2    1    2    0    0 -0.29939908013E+03 -0.42968503945E+03  0.11253555416E+03  0.54512885218E+03  0.10115420020E+03 0.  0.
        254    2    1    2    0    0  0.29939908013E+03  0.42968503945E+03 -0.23555340616E+03  0.10693849253E+04  0.90212508497E+03 0.  0.
         23    2    4    4    0    0 -0.75363474458E+02 -0.23757930528E+03 -0.85313011300E+01  0.26588859906E+03  0.92197529428E+02 0.  0.
         23    2    4    4    0    0  0.37476255459E+03  0.66726434473E+03 -0.22702210503E+03  0.80349632621E+03  0.91534867611E+02 0.  0.
         13    1    3    3    0    0 -0.21458782481E+03 -0.27779023400E+03  0.29206922316E+02  0.35223343534E+03  0.00000000000E+00 0. -1.
        -13    1    3    3    0    0 -0.84811255322E+02 -0.15189480545E+03  0.83328631840E+02  0.19289541684E+03  0.00000000000E+00 0.  1.
          4    1    5    5  502    0  0.86435734549E+01 -0.99740979900E+02  0.19654278478E+02  0.10202580603E+03  0.00000000000E+00 0.  1.
          3    1    6    6  503    0  0.37343382047E+03  0.65189876710E+03 -0.20907247210E+03  0.77983082743E+03  0.00000000000E+00 0. -1.
         -4    1    5    5    0  502 -0.84007047913E+02 -0.13783832538E+03 -0.28185579608E+02  0.16386279303E+03  0.00000000000E+00 0. -1.
         -3    1    6    6    0  503  0.13287341259E+01  0.15365577626E+02 -0.17949632932E+02  0.23665498781E+02  0.00000000000E+00 0.  1.
<mgrwt>
<rscale>  0 0.16098203E+04</rscale>
<asrwt>0</asrwt>
<pdfrwt beam="1">  1        1 0.13365628E+00 0.16098203E+04</pdfrwt>
<pdfrwt beam="2">  1       -1 0.11473046E+00 0.16098203E+04</pdfrwt>
<totfact> 0.12785457E+01</totfact>
</mgrwt>
</event>
<event>
12    1  0.4247462E-008  0.1373245E+04  0.7818608E-02  0.8973416E-01
          1   -1    0    0  501    0  0.00000000000E+00  0.00000000000E+00  0.89121486413E+03  0.89121486413E+03  0.00000000000E+00 0. -1.
         -1   -1    0    0    0  501 -0.00000000000E+00 -0.00000000000E+00 -0.52899717168E+03  0.52899717168E+03  0.00000000000E+00 0.  1.
         23    2    1    2    0    0  0.23857062900E+03 -0.29884786657E+03  0.51899603758E+02  0.39636319733E+03  0.90466695303E+02 0.  0.
        254    2    1    2    0    0 -0.23857062900E+03  0.29884786657E+03  0.31031808869E+03  0.10238488385E+04  0.89763195995E+03 0.  0.
         23    2    4    4    0    0 -0.40137210577E+03  0.10903106936E+03 -0.18307042718E+03  0.46319492353E+03  0.89707382634E+02 0.  0.
         23    2    4    4    0    0  0.16280147677E+03  0.18981679721E+03  0.49338851587E+03  0.56065391495E+03  0.91465006522E+02 0.  0.
         13    1    3    3    0    0  0.23051168727E+03 -0.30023362891E+03  0.61792113295E+02  0.38352853240E+03  0.00000000000E+00 0.  1.
        -13    1    3    3    0    0  0.80589417297E+01  0.13857623467E+01 -0.98925095376E+01  0.12834664937E+02  0.00000000000E+00 0. -1.
          1    1    5    5  502    0 -0.23696358922E+03  0.10824290619E+03 -0.12371359559E+03  0.28839785556E+03  0.00000000000E+00 0. -1.
          1    1    6    6  503    0 -0.81903048284E+01 -0.28473742730E+01  0.16291535348E+02  0.18455426233E+02  0.00000000000E+00 0. -1.
         -1    1    5    5    0  502 -0.16440851655E+03  0.78816317263E+00 -0.59356831593E+02  0.17479706797E+03  0.00000000000E+00 0.  1.
         -1    1    6    6    0  503  0.17099178160E+03  0.19266417148E+03  0.47709698052E+03  0.54219848872E+03  0.00000000000E+00 0.  1.
<mgrwt>
<rscale>  0 0.13732445E+04</rscale>
<asrwt>0</asrwt>
<pdfrwt beam="1">  1        1 0.13710998E+00 0.13732445E+04</pdfrwt>
<pdfrwt beam="2">  1       -1 0.81384180E-01 0.13732445E+04</pdfrwt>
<totfact> 0.27193548E+01</totfact>
</mgrwt>
</event>
<event>
12    1  0.4247462E-008  0.3137002E+04  0.7818608E-02  0.8205656E-01
          1   -1    0    0  501    0  0.00000000000E+00  0.00000000000E+00  0.46780488648E+04  0.46780488648E+04  0.00000000000E+00 0. -1.
         -1   -1    0    0    0  501 -0.00000000000E+00 -0.00000000000E+00 -0.52590217308E+03  0.52590217308E+03  0.00000000000E+00 0.  1.
         23    2    1    2    0    0 -0.32460407888E+03  0.83905707888E+03  0.37710770337E+04  0.38779865470E+04  0.91504508565E+02 0.  0.
        254    2    1    2    0    0  0.32460407888E+03 -0.83905707888E+03  0.38106965800E+03  0.13259644908E+04  0.89642799884E+03 0.  0.
         23    2    4    4    0    0  0.16671998049E+03  0.12189005058E+03 -0.84974163195E+02  0.24187082966E+03  0.92887854451E+02 0.  0.
         23    2    4    4    0    0  0.15788409839E+03 -0.96094712945E+03  0.46604382119E+03  0.10840936612E+04  0.98566976320E+02 0.  0.
         13    1    3    3    0    0 -0.11788126428E+03  0.24541802543E+03  0.99016073098E+03  0.10269100607E+04  0.00000000000E+00 0.  1.
        -13    1    3    3    0    0 -0.20672281460E+03  0.59363905344E+03  0.27809163027E+04  0.28510764863E+04  0.00000000000E+00 0. -1.
          3    1    5    5  502    0  0.14603769450E+03  0.62143838050E+02 -0.38248881906E+02  0.16325391814E+03  0.00000000000E+00 0. -1.
          3    1    6    6  503    0  0.24038630581E+02 -0.41811209052E+03  0.17650967174E+03  0.45447908667E+03  0.00000000000E+00 0. -1.
         -3    1    5    5    0  502  0.20682285999E+02  0.59746212527E+02 -0.46725281289E+02  0.78616911520E+02  0.00000000000E+00 0.  1.
         -3    1    6    6    0  503  0.13384546781E+03 -0.54283503893E+03  0.28953414946E+03  0.62961457452E+03  0.00000000000E+00 0.  1.
<mgrwt>
<rscale>  0 0.31370024E+04</rscale>
<asrwt>0</asrwt>
<pdfrwt beam="1">  1        1 0.71969980E+00 0.31370024E+04</pdfrwt>
<pdfrwt beam="2">  1       -1 0.80908030E-01 0.31370024E+04</pdfrwt>
<totfact> 0.26634441E-02</totfact>
</mgrwt>
</event>
<event>
12    1  0.4247462E-008  0.1697429E+04  0.7818608E-02  0.8762832E-01
         -1   -1    0    0    0  501 -0.00000000000E+00  0.00000000000E+00  0.53241172967E+03  0.53241172967E+03  0.00000000000E+00 0.  1.
          1   -1    0    0  501    0  0.00000000000E+00 -0.00000000000E+00 -0.13529309952E+04  0.13529309952E+04  0.00000000000E+00 0. -1.
         23    2    1    2    0    0  0.42351821457E+03 -0.28806548943E+03  0.64182788608E+02  0.52417058114E+03  0.91027267908E+02 0.  0.
        254    2    1    2    0    0 -0.42351821457E+03  0.28806548943E+03 -0.88470205416E+03  0.13611721437E+04  0.89874494491E+03 0.  0.
         23    2    4    4    0    0 -0.29690353394E+03  0.86460780038E+01 -0.97930892991E+03  0.10274816693E+04  0.91902869727E+02 0.  0.
         23    2    4    4    0    0 -0.12661468063E+03  0.27941941143E+03  0.94606875753E+02  0.33369047442E+03  0.91062544126E+02 0.  0.
         13    1    3    3    0    0  0.24697721454E+03 -0.16930032006E+03 -0.78498056395E+01  0.29953624542E+03  0.00000000000E+00 0. -1.
        -13    1    3    3    0    0  0.17654100003E+03 -0.11876516938E+03  0.72032594247E+02  0.22463433572E+03  0.00000000000E+00 0.  1.
          1    1    5    5  502    0 -0.12414642021E+03 -0.41717648157E+02 -0.41545416433E+03  0.43560860698E+03  0.00000000000E+00 0. -1.
          3    1    6    6  503    0  0.40719609624E+01  0.56807957940E+02 -0.46154765321E+01  0.57140419801E+02  0.00000000000E+00 0. -1.
         -1    1    5    5    0  502 -0.17275711373E+03  0.50363726161E+02 -0.56385476558E+03  0.59187306234E+03  0.00000000000E+00 0.  1.
         -3    1    6    6    0  503 -0.13068664160E+03  0.22261145349E+03  0.99222352285E+02  0.27655005462E+03  0.00000000000E+00 0.  1.
<mgrwt>
<rscale>  0 0.16974290E+04</rscale>
<asrwt>0</asrwt>
<pdfrwt beam="1">  1        1 0.20814323E+00 0.16974290E+04</pdfrwt>
<pdfrwt beam="2">  1       -1 0.81909499E-01 0.16974290E+04</pdfrwt>
<totfact> 0.11707868E+01</totfact>
</mgrwt>
</event>
<event>
12    1  0.4247462E-008  0.1892376E+04  0.7818608E-02  0.8658661E-01
         -3   -1    0    0    0  501 -0.00000000000E+00  0.00000000000E+00  0.11426439568E+04  0.11426439568E+04  0.00000000000E+00 0.  1.
          3   -1    0    0  501    0  0.00000000000E+00 -0.00000000000E+00 -0.78350862104E+03  0.78350862104E+03  0.00000000000E+00 0. -1.
         23    2    1    2    0    0 -0.48166355421E+02 -0.46522446609E+03 -0.42711094748E+03  0.63940783506E+03  0.87548937410E+02 0.  0.
        254    2    1    2    0    0  0.48166355421E+02  0.46522446609E+03  0.78624628319E+03  0.12867447427E+04  0.90486187537E+03 0.  0.
         23    2    4    4    0    0 -0.19780538215E+03  0.58821841067E+03  0.77321302929E+03  0.99580492158E+03  0.92957976167E+02 0.  0.
         23    2    4    4    0    0  0.24597173757E+03 -0.12299394458E+03  0.13033253905E+02  0.29093982116E+03  0.94055875640E+02 0.  0.
         13    1    3    3    0    0 -0.24182909630E+02 -0.13647898804E+03 -0.77038444150E+02  0.15857568910E+03  0.00000000000E+00 0. -1.
        -13    1    3    3    0    0 -0.23983445791E+02 -0.32874547804E+03 -0.35007250333E+03  0.48083214596E+03  0.00000000000E+00 0.  1.
          4    1    5    5  502    0  0.38534116045E+01  0.47152705500E+02  0.86485168279E+02  0.98579464135E+02  0.00000000000E+00 0. -1.
          1    1    6    6  503    0  0.21519397762E+03 -0.84441868646E+02 -0.19275022009E+02  0.23197069568E+03  0.00000000000E+00 0. -1.
         -4    1    5    5    0  502 -0.20165879375E+03  0.54106570517E+03  0.68672786101E+03  0.89722545745E+03  0.00000000000E+00 0.  1.
         -1    1    6    6    0  503  0.30777759950E+02 -0.38552075935E+02  0.32308275915E+02  0.58969125473E+02  0.00000000000E+00 0.  1.
<mgrwt>
<rscale>  0 0.18923756E+04</rscale>
<asrwt>0</asrwt>
<pdfrwt beam="1">  1        3 0.12053979E+00 0.18923756E+04</pdfrwt>
<pdfrwt beam="2">  1       -3 0.17579138E+00 0.18923756E+04</pdfrwt>
<totfact> 0.28973538E-01</totfact>
</mgrwt>
</event>
<event>
12    1  0.4247462E-008  0.1285455E+04  0.7818608E-02  0.9041179E-01
          2   -1    0    0  501    0  0.00000000000E+00  0.00000000000E+00  0.20682546104E+04  0.20682546104E+04  0.00000000000E+00 0. -1.
         -2   -1    0    0    0  501 -0.00000000000E+00 -0.00000000000E+00 -0.19973303336E+03  0.19973303336E+03  0.00000000000E+00 0.  1.
         23    2    1    2    0    0  0.12394894056E+03  0.16966920345E+03  0.53157479715E+02  0.23406290084E+03  0.88367106086E+02 0.  0.
        254    2    1    2    0    0 -0.12394894056E+03 -0.16966920345E+03  0.18153640974E+04  0.20339247430E+04  0.89283373344E+03 0.  0.
         23    2    4    4    0    0 -0.19526305649E+02 -0.44731985902E+03  0.15782171901E+04  0.16431292935E+04  0.92887259949E+02 0.  0.
         23    2    4    4    0    0 -0.10442263491E+03  0.27765065557E+03  0.23714690729E+03  0.39079544952E+03  0.92132809045E+02 0.  0.
         13    1    3    3    0    0  0.60937768294E+02  0.19505528175E+02  0.25525375794E+02  0.68887023767E+02  0.00000000000E+00 0. -1.
        -13    1    3    3    0    0  0.63011172268E+02  0.15016367527E+03  0.27632103920E+02  0.16517587708E+03  0.00000000000E+00 0.  1.
          2    1    5    5  502    0  0.10079071741E+02 -0.39133480790E+03  0.14118384500E+04  0.14651048865E+04  0.00000000000E+00 0. -1.
          3    1    6    6  503    0 -0.11107366314E+03  0.24860595566E+03  0.23701850086E+03  0.36099868363E+03  0.00000000000E+00 0. -1.
         -2    1    5    5    0  502 -0.29605377390E+02 -0.55985051122E+02  0.16637874006E+03  0.17802440693E+03  0.00000000000E+00 0.  1.
         -3    1    6    6    0  503  0.66510282214E+01  0.29044699911E+02  0.12840643806E+00  0.29796765891E+02  0.00000000000E+00 0.  1.
<mgrwt>
<rscale>  0 0.12854552E+04</rscale>
<asrwt>0</asrwt>
<pdfrwt beam="1">  1        2 0.31819300E+00 0.12854552E+04</pdfrwt>
<pdfrwt beam="2">  1       -2 0.30728160E-01 0.12854552E+04</pdfrwt>
<totfact> 0.58957350E+01</totfact>
</mgrwt>
</event>
<event>
12    1  0.4247462E-008  0.1441402E+04  0.7818608E-02  0.8924383E-01
         -1   -1    0    0    0  501 -0.00000000000E+00  0.00000000000E+00  0.64422179762E+03  0.64422179762E+03  0.00000000000E+00 0.  1.
          1   -1    0    0  501    0  0.00000000000E+00 -0.00000000000E+00 -0.80625957582E+03  0.80625957582E+03  0.00000000000E+00 0. -1.
         23    2    1    2    0    0  0.18587104662E+02 -0.22318366777E+03  0.35894896988E+03  0.43263314608E+03  0.90391626188E+02 0.  0.
        254    2    1    2    0    0 -0.18587104662E+02  0.22318366777E+03 -0.52098674808E+03  0.10178482274E+04  0.84524043458E+03 0.  0.
         23    2    4    4    0    0  0.74452012679E+02  0.52630613423E+03 -0.37834695440E+03  0.65868107431E+03  0.90405147154E+02 0.  0.
         23    2    4    4    0    0 -0.93039117341E+02 -0.30312246646E+03 -0.14263979368E+03  0.35916715305E+03  0.90085659575E+02 0.  0.
         13    1    3    3    0    0  0.21701563061E+02 -0.48592078750E+02  0.32337323772E+02  0.62272389269E+02  0.00000000000E+00 0. -1.
        -13    1    3    3    0    0 -0.31144583995E+01 -0.17459158902E+03  0.32661164611E+03  0.37036075681E+03  0.00000000000E+00 0.  1.
          1    1    5    5  502    0  0.48071950580E+02  0.36728932982E+03 -0.21087790196E+03  0.42624154392E+03  0.00000000000E+00 0. -1.
          1    1    6    6  503    0  0.86201089769E-01 -0.14562019087E+03 -0.77390266139E+02  0.16490755202E+03  0.00000000000E+00 0. -1.
         -1    1    5    5    0  502  0.26380062099E+02  0.15901680441E+03 -0.16746905244E+03  0.23243953039E+03  0.00000000000E+00 0.  1.
         -1    1    6    6    0  503 -0.93125318431E+02 -0.15750227559E+03 -0.65249527538E+02  0.19425960103E+03  0.00000000000E+00 0.  1.
<mgrwt>
<rscale>  0 0.14414021E+04</rscale>
<asrwt>0</asrwt>
<pdfrwt beam="1">  1        1 0.12403994E+00 0.14414021E+04</pdfrwt>
<pdfrwt beam="2">  1       -1 0.99111045E-01 0.14414021E+04</pdfrwt>
<totfact> 0.20650231E+01</totfact>
</mgrwt>
</event>
<event>
12    1  0.4247462E-008  0.2420920E+04  0.7818608E-02  0.8431713E-01
          1   -1    0    0  501    0  0.00000000000E+00  0.00000000000E+00  0.17120644589E+04  0.17120644589E+04  0.00000000000E+00 0.  1.
         -1   -1    0    0    0  501 -0.00000000000E+00 -0.00000000000E+00 -0.85581673569E+03  0.85581673569E+03  0.00000000000E+00 0. -1.
         23    2    1    2    0    0  0.47751002002E+02  0.10108170673E+04  0.61266908137E+03  0.11874722371E+04  0.10341957697E+03 0.  0.
        254    2    1    2    0    0 -0.47751002002E+02 -0.10108170673E+04  0.24357864188E+03  0.13804089575E+04  0.90673426832E+03 0.  0.
         23    2    4    4    0    0 -0.38182147596E+03 -0.92115003416E+03  0.16325782157E+03  0.10145724322E+04  0.91646489241E+02 0.  0.
         23    2    4    4    0    0  0.33407047396E+03 -0.89667033166E+02  0.80320820309E+02  0.36583652526E+03  0.87986763955E+02 0.  0.
         11    1    3    3    0    0  0.29949496002E+02  0.77907690645E+03  0.42004898259E+03  0.88560654144E+03  0.00000000000E+00 0.  1.
        -11    1    3    3    0    0  0.17801506000E+02  0.23174016088E+03  0.19262009878E+03  0.30186569569E+03  0.00000000000E+00 0. -1.
          2    1    5    5  502    0 -0.30086415197E+03 -0.75733005173E+03  0.16682921872E+03  0.83180528576E+03  0.00000000000E+00 0. -1.
          4    1    6    6  503    0  0.14975385684E+03 -0.78027534582E+02  0.13366254674E+02  0.16939058579E+03  0.00000000000E+00 0. -1.
         -2    1    5    5    0  502 -0.80957323991E+02 -0.16381998243E+03 -0.35713971452E+01  0.18276714647E+03  0.00000000000E+00 0.  1.
         -4    1    6    6    0  503  0.18431661712E+03 -0.11639498584E+02  0.66954565635E+02  0.19644593947E+03  0.00000000000E+00 0.  1.
<mgrwt>
<rscale>  0 0.24209200E+04</rscale>
<asrwt>0</asrwt>
<pdfrwt beam="1">  1        1 0.26339453E+00 0.24209200E+04</pdfrwt>
<pdfrwt beam="2">  1       -1 0.13166411E+00 0.24209200E+04</pdfrwt>
<totfact> 0.20540041E+00</totfact>
</mgrwt>
</event>
<event>
12    1  0.4247462E-008  0.2301173E+04  0.7818608E-02  0.8477459E-01
          2   -1    0    0  501    0  0.00000000000E+00  0.00000000000E+00  0.19086202671E+04  0.19086202671E+04  0.00000000000E+00 0. -1.
         -2   -1    0    0    0  501 -0.00000000000E+00 -0.00000000000E+00 -0.69361604697E+03  0.69361604697E+03  0.00000000000E+00 0.  1.
         23    2    1    2    0    0  0.91627176039E+03  0.33443441274E+03  0.48027901560E+03  0.10908641618E+04  0.88973992163E+02 0.  0.
        254    2    1    2    0    0 -0.91627176039E+03 -0.33443441274E+03  0.73472520456E+03  0.15113721523E+04  0.89051914149E+03 0.  0.
         23    2    4    4    0    0 -0.29109768549E+03 -0.34908894006E+03  0.74773134936E+03  0.87948396767E+03  0.88254903504E+02 0.  0.
         23    2    4    4    0    0 -0.62517407490E+03  0.14654527325E+02 -0.13006144808E+02  0.63188818467E+03  0.89755997168E+02 0.  0.
         13    1    3    3    0    0  0.88501669030E+03  0.30652774559E+03  0.44951665424E+03  0.10388835466E+04  0.00000000000E+00 0. -1.
        -13    1    3    3    0    0  0.31255070084E+02  0.27906667148E+02  0.30762361362E+02  0.51980615174E+02  0.00000000000E+00 0.  1.
          1    1    5    5  502    0 -0.11792857146E+02 -0.51903817393E+02  0.62760945116E+02  0.82292247335E+02  0.00000000000E+00 0. -1.
          3    1    6    6  503    0 -0.14569404211E+03 -0.18415669304E+02  0.28088479234E+02  0.14951539536E+03  0.00000000000E+00 0. -1.
         -1    1    5    5    0  502 -0.27930482834E+03 -0.29718512267E+03  0.68497040425E+03  0.79719172033E+03  0.00000000000E+00 0.  1.
         -3    1    6    6    0  503 -0.47948003279E+03  0.33070196629E+02 -0.41094624042E+02  0.48237278931E+03  0.00000000000E+00 0.  1.
<mgrwt>
<rscale>  0 0.23011733E+04</rscale>
<asrwt>0</asrwt>
<pdfrwt beam="1">  1        2 0.29363388E+00 0.23011733E+04</pdfrwt>
<pdfrwt beam="2">  1       -2 0.10671016E+00 0.23011733E+04</pdfrwt>
<totfact> 0.48137076E+00</totfact>
</mgrwt>
</event>
<event>
12    1  0.4247462E-008  0.1510056E+04  0.7818608E-02  0.8877794E-01
         -1   -1    0    0    0  501 -0.00000000000E+00  0.00000000000E+00  0.60482866703E+03  0.60482866703E+03  0.00000000000E+00 0.  1.
          1   -1    0    0  501    0  0.00000000000E+00 -0.00000000000E+00 -0.94252629704E+03  0.94252629704E+03  0.00000000000E+00 0. -1.
         23    2    1    2    0    0 -0.32578951503E+03  0.30182974663E+03  0.84485153925E+02  0.46117822313E+03  0.91146081672E+02 0.  0.
        254    2    1    2    0    0  0.32578951503E+03 -0.30182974663E+03 -0.42218278393E+03  0.10861767409E+04  0.89682863774E+03 0.  0.
         23    2    4    4    0    0  0.57000222105E+03 -0.41814551677E+03 -0.26933880925E+03  0.76197305412E+03  0.91166528056E+02 0.  0.
         23    2    4    4    0    0 -0.24421270602E+03  0.11631577014E+03 -0.15284397468E+03  0.32420368683E+03  0.92615040850E+02 0.  0.
         11    1    3    3    0    0 -0.32613599344E+03  0.28339215744E+03  0.69923989997E+02  0.43768158002E+03  0.00000000000E+00 0.  1.
        -11    1    3    3    0    0  0.34647840909E+00  0.18437589194E+02  0.14561163929E+02  0.23496643112E+02  0.00000000000E+00 0. -1.
          1    1    5    5  502    0  0.16487300579E+03 -0.72338257089E+02 -0.73383525634E+02  0.19442498120E+03  0.00000000000E+00 0. -1.
          3    1    6    6  503    0 -0.14290645084E+03  0.11636145227E+03 -0.91250138857E+02  0.20564247886E+03  0.00000000000E+00 0.  1.
         -1    1    5    5    0  502  0.40512921525E+03 -0.34580725968E+03 -0.19595528362E+03  0.56754807292E+03  0.00000000000E+00 0.  1.
         -3    1    6    6    0  503 -0.10130625517E+03 -0.45682132453E-01 -0.61593835828E+02  0.11856120797E+03  0.00000000000E+00 0. -1.
<mgrwt>
<rscale>  0 0.15100555E+04</rscale>
<asrwt>0</asrwt>
<pdfrwt beam="1">  1        1 0.14500405E+00 0.15100555E+04</pdfrwt>
<pdfrwt beam="2">  1       -1 0.93050565E-01 0.15100555E+04</pdfrwt>
<totfact> 0.18225409E+01</totfact>
</mgrwt>
</event>
<event>
12    1  0.4811160E-008  0.1796410E+04  0.7818608E-02  0.8708211E-01
          2   -1    0    0  501    0  0.00000000000E+00  0.00000000000E+00  0.16444023951E+04  0.16444023951E+04  0.00000000000E+00 0. -1.
         -2   -1    0    0    0  501 -0.00000000000E+00 -0.00000000000E+00 -0.49061733728E+03  0.49061733728E+03  0.00000000000E+00 0.  1.
         23    2    1    2    0    0  0.11515656723E+03  0.64027106330E+03  0.61646078494E+03  0.90167318855E+03  0.98906875976E+02 0.  0.
        254    2    1    2    0    0 -0.11515656723E+03 -0.64027106330E+03  0.53732427284E+03  0.12333465438E+04  0.89956559150E+03 0.  0.
         23    2    4    4    0    0 -0.13501408375E+02 -0.23782077092E+03  0.72473183465E+03  0.76833602106E+03  0.91449450518E+02 0.  0.
         23    2    4    4    0    0 -0.10165515886E+03 -0.40245029238E+03 -0.18740756181E+03  0.46501052272E+03  0.93878553790E+02 0.  0.
         13    1    3    3    0    0  0.30123432631E+02  0.21068386587E+03  0.26676233671E+03  0.34125834322E+03  0.00000000000E+00 0. -1.
        -13    1    3    3    0    0  0.85033134603E+02  0.42958719743E+03  0.34969844823E+03  0.56041484533E+03  0.00000000000E+00 0.  1.
          4    1    5    5  502    0 -0.29639178983E+01 -0.10522080704E+03  0.46212676666E+03  0.47396344955E+03  0.00000000000E+00 0.  1.
          3    1    6    6  503    0 -0.10840853377E+03 -0.37427573348E+03 -0.14962814005E+03  0.41740066503E+03  0.00000000000E+00 0. -1.
         -4    1    5    5    0  502 -0.10537490476E+02 -0.13259996388E+03  0.26260506799E+03  0.29437257151E+03  0.00000000000E+00 0. -1.
         -3    1    6    6    0  503  0.67533749084E+01 -0.28174558892E+02 -0.37779421758E+02  0.47609857696E+02  0.00000000000E+00 0.  1.
<mgrwt>
<rscale>  0 0.17964101E+04</rscale>
<asrwt>0</asrwt>
<pdfrwt beam="1">  1        2 0.25298498E+00 0.17964101E+04</pdfrwt>
<pdfrwt beam="2">  1       -2 0.75479591E-01 0.17964101E+04</pdfrwt>
<totfact> 0.15657520E+01</totfact>
</mgrwt>
</event>
<event>
12    1  0.4247462E-008  0.1522363E+04  0.7818608E-02  0.8869716E-01
          2   -1    0    0  501    0  0.00000000000E+00  0.00000000000E+00  0.78232885804E+03  0.78232885804E+03  0.00000000000E+00 0. -1.
         -2   -1    0    0    0  501 -0.00000000000E+00 -0.00000000000E+00 -0.74060618911E+03  0.74060618911E+03  0.00000000000E+00 0.  1.
         23    2    1    2    0    0 -0.21992969012E+03  0.43199793443E+03  0.39878072853E+02  0.49463991758E+03  0.89928323810E+02 0.  0.
        254    2    1    2    0    0  0.21992969012E+03 -0.43199793443E+03  0.18445960727E+01  0.10282951296E+04  0.90686062160E+03 0.  0.
         23    2    4    4    0    0  0.23239624751E+02 -0.63896120027E+03  0.19201013528E+03  0.67349160114E+03  0.88946889475E+02 0.  0.
         23    2    4    4    0    0  0.19669006537E+03  0.20696326584E+03 -0.19016553921E+03  0.35480352843E+03  0.90563989845E+02 0.  0.
         13    1    3    3    0    0 -0.12055384788E+03  0.31551620568E+03  0.59607993816E+01  0.33781538955E+03  0.00000000000E+00 0.  1.
        -13    1    3    3    0    0 -0.99375842245E+02  0.11648172875E+03  0.33917273471E+02  0.15682452804E+03  0.00000000000E+00 0. -1.
          4    1    5    5  502    0 -0.13645198843E+02 -0.53473755773E+03  0.16288038738E+03  0.55916050262E+03  0.00000000000E+00 0. -1.
          1    1    6    6  503    0  0.17790355950E+03  0.20526752252E+03 -0.14968801574E+03  0.31014663361E+03  0.00000000000E+00 0. -1.
         -4    1    5    5    0  502  0.36884823594E+02 -0.10422364254E+03  0.29129747898E+02  0.11433109852E+03  0.00000000000E+00 0.  1.
         -1    1    6    6    0  503  0.18786505868E+02  0.16957433245E+01 -0.40477523470E+02  0.44656894814E+02  0.00000000000E+00 0.  1.
<mgrwt>
<rscale>  0 0.15223634E+04</rscale>
<asrwt>0</asrwt>
<pdfrwt beam="1">  1        2 0.12035829E+00 0.15223634E+04</pdfrwt>
<pdfrwt beam="2">  1       -2 0.11393941E+00 0.15223634E+04</pdfrwt>
<totfact> 0.20643410E+01</totfact>
</mgrwt>
</event>
<event>
12    1  0.4247462E-008  0.1608098E+04  0.7818608E-02  0.8815588E-01
          4   -1    0    0  501    0  0.00000000000E+00  0.00000000000E+00  0.49588031147E+03  0.49588031147E+03  0.00000000000E+00 0. -1.
         -4   -1    0    0    0  501 -0.00000000000E+00 -0.00000000000E+00 -0.13037320309E+04  0.13037320309E+04  0.00000000000E+00 0.  1.
         23    2    1    2    0    0  0.10125989562E+03 -0.52674031371E+03 -0.16265963357E+03  0.56881176646E+03  0.96849082177E+02 0.  0.
        254    2    1    2    0    0 -0.10125989562E+03  0.52674031371E+03 -0.64519208587E+03  0.12308005759E+04  0.90049336781E+03 0.  0.
         23    2    4    4    0    0 -0.21088751145E+03 -0.18501806537E+03 -0.65253347179E+02  0.30192931032E+03  0.90543261001E+02 0.  0.
         23    2    4    4    0    0  0.10962761583E+03  0.71175837908E+03 -0.57993873869E+03  0.92887126561E+03  0.88626650001E+02 0.  0.
         13    1    3    3    0    0  0.35837263960E+02 -0.38418196817E+03 -0.13931761231E+03  0.41023102181E+03  0.00000000000E+00 0. -1.
        -13    1    3    3    0    0  0.65422631660E+02 -0.14255834554E+03 -0.23342021259E+02  0.15858074465E+03  0.00000000000E+00 0.  1.
          2    1    5    5  502    0 -0.59902626795E+02 -0.12096081812E+02  0.63980130220E+01  0.61445703371E+02  0.00000000000E+00 0. -1.
          3    1    6    6  503    0  0.90734225353E+02  0.51912284579E+03 -0.47079279952E+03  0.70665910364E+03  0.00000000000E+00 0. -1.
         -2    1    5    5    0  502 -0.15098488465E+03 -0.17292198356E+03 -0.71651360201E+02  0.24048360695E+03  0.00000000000E+00 0.  1.
         -3    1    6    6    0  503  0.18893390477E+02  0.19263553329E+03 -0.10914593917E+03  0.22221216197E+03  0.00000000000E+00 0.  1.
<mgrwt>
<rscale>  0 0.16080983E+04</rscale>
<asrwt>0</asrwt>
<pdfrwt beam="1">  1        4 0.76289280E-01 0.16080983E+04</pdfrwt>
<pdfrwt beam="2">  1       -4 0.20057416E+00 0.16080983E+04</pdfrwt>
<totfact> 0.38635952E-01</totfact>
</mgrwt>
</event>
<event>
12    1  0.4247462E-008  0.1490780E+04  0.7818608E-02  0.8890607E-01
          1   -1    0    0  501    0  0.00000000000E+00  0.00000000000E+00  0.16904109369E+04  0.16904109369E+04  0.00000000000E+00 0. -1.
         -1   -1    0    0    0  501 -0.00000000000E+00 -0.00000000000E+00 -0.32868110398E+03  0.32868110398E+03  0.00000000000E+00 0.  1.
         23    2    1    2    0    0  0.44698446143E+03 -0.50130261786E+02  0.64244999583E+03  0.78955779876E+03  0.91385822334E+02 0.  0.
        254    2    1    2    0    0 -0.44698446143E+03  0.50130261786E+02  0.71927983709E+03  0.12295342421E+04  0.88999034637E+03 0.  0.
         23    2    4    4    0    0 -0.86555678102E+00 -0.30592323561E+03  0.14541386933E+02  0.31785776011E+03  0.85043097622E+02 0.  0.
         23    2    4    4    0    0 -0.44611890465E+03  0.35605349740E+03  0.70473845016E+03  0.91167648203E+03  0.93282123967E+02 0.  0.
         13    1    3    3    0    0  0.21790406512E+03 -0.91722080294E+01  0.38527964547E+03  0.44272645754E+03  0.00000000000E+00 0.  1.
        -13    1    3    3    0    0  0.22908039631E+03 -0.40958053756E+02  0.25717035036E+03  0.34683134121E+03  0.00000000000E+00 0. -1.
          4    1    5    5  502    0 -0.38497674561E+01 -0.47722576696E+02  0.34283093143E+02  0.58886293069E+02  0.00000000000E+00 0.  1.
          3    1    6    6  503    0 -0.27425917429E+03  0.24963001529E+03  0.51342973013E+03  0.63335876642E+03  0.00000000000E+00 0. -1.
         -4    1    5    5    0  502  0.29842106751E+01 -0.25820065891E+03 -0.19741706210E+02  0.25897146704E+03  0.00000000000E+00 0. -1.
         -3    1    6    6    0  503 -0.17185973036E+03  0.10642348210E+03  0.19130872003E+03  0.27831771561E+03  0.00000000000E+00 0.  1.
<mgrwt>
<rscale>  0 0.14907798E+04</rscale>
<asrwt>0</asrwt>
<pdfrwt beam="1">  1        1 0.26006322E+00 0.14907798E+04</pdfrwt>
<pdfrwt beam="2">  1       -1 0.50566325E-01 0.14907798E+04</pdfrwt>
<totfact> 0.18401945E+01</totfact>
</mgrwt>
</event>
<event>
12    1  0.4247462E-008  0.3324241E+04  0.7818608E-02  0.8156755E-01
         -1   -1    0    0    0  501 -0.00000000000E+00  0.00000000000E+00  0.17419657614E+04  0.17419657614E+04  0.00000000000E+00 0.  1.
          1   -1    0    0  501    0  0.00000000000E+00 -0.00000000000E+00 -0.15859347880E+04  0.15859347880E+04  0.00000000000E+00 0. -1.
         23    2    1    2    0    0 -0.90219445542E+03  0.16700621794E+02  0.13208569601E+04  0.16019650499E+04  0.85995150075E+02 0.  0.
        254    2    1    2    0    0  0.90219445542E+03 -0.16700621794E+02 -0.11648259867E+04  0.17259354996E+04  0.89877695967E+03 0.  0.
         23    2    4    4    0    0  0.10473712182E+04 -0.88033550495E+02 -0.82079717506E+03  0.13371142209E+04  0.97108507877E+02 0.  0.
         23    2    4    4    0    0 -0.14517676282E+03  0.71332928702E+02 -0.34402881167E+03  0.38882127870E+03  0.81617916740E+02 0.  0.
         13    1    3    3    0    0 -0.39168720872E+03 -0.22284529108E+02  0.51912747235E+03  0.65069870314E+03  0.00000000000E+00 0.  1.
        -13    1    3    3    0    0 -0.51050724670E+03  0.38985150902E+02  0.80172948777E+03  0.95126634676E+03  0.00000000000E+00 0. -1.
          4    1    5    5  502    0  0.54482828309E+03 -0.49544020281E+02 -0.48834318181E+03  0.73332907431E+03  0.00000000000E+00 0. -1.
          3    1    6    6  503    0 -0.13861420117E+03  0.47330475338E+02 -0.32800932518E+03  0.35922720953E+03  0.00000000000E+00 0. -1.
         -4    1    5    5    0  502  0.50254293515E+03 -0.38489530214E+02 -0.33245399325E+03  0.60378514658E+03  0.00000000000E+00 0.  1.
         -3    1    6    6    0  503 -0.65625616581E+01  0.24002453364E+02 -0.16019486490E+02  0.29594069176E+02  0.00000000000E+00 0.  1.
<mgrwt>
<rscale>  0 0.33242407E+04</rscale>
<asrwt>0</asrwt>
<pdfrwt beam="1">  1        1 0.24398997E+00 0.33242407E+04</pdfrwt>
<pdfrwt beam="2">  1       -1 0.26799473E+00 0.33242407E+04</pdfrwt>
<totfact> 0.25150325E-01</totfact>
</mgrwt>
</event>
<event>
12    1  0.4247462E-008  0.1168441E+04  0.7818608E-02  0.9140937E-01
          2   -1    0    0  501    0  0.00000000000E+00  0.00000000000E+00  0.16220496498E+04  0.16220496498E+04  0.00000000000E+00 0. -1.
         -2   -1    0    0    0  501 -0.00000000000E+00 -0.00000000000E+00 -0.21042135266E+03  0.21042135266E+03  0.00000000000E+00 0.  1.
         23    2    1    2    0    0 -0.16014997042E+03  0.12598249492E+03  0.15560649265E+03  0.27188106428E+03  0.90478342775E+02 0.  0.
        254    2    1    2    0    0  0.16014997042E+03 -0.12598249492E+03  0.12560218045E+04  0.15605899382E+04  0.90351014369E+03 0.  0.
         23    2    4    4    0    0  0.19144840221E+02 -0.49939067255E+03  0.79920405253E+03  0.94676871819E+03  0.88804951569E+02 0.  0.
         23    2    4    4    0    0  0.14100513020E+03  0.37340817763E+03  0.45681775198E+03  0.61382122001E+03  0.93690542441E+02 0.  0.
         11    1    3    3    0    0 -0.14307487753E+03  0.66247697846E+02  0.13125670055E+03  0.20515238115E+03  0.00000000000E+00 0. -1.
        -11    1    3    3    0    0 -0.17075092889E+02  0.59734797070E+02  0.24349792098E+02  0.66728683138E+02  0.00000000000E+00 0.  1.
          2    1    5    5  502    0  0.49970653571E+02 -0.18487734002E+03  0.29487523514E+03  0.35160788013E+03  0.00000000000E+00 0.  1.
          3    1    6    6  503    0  0.10576430501E+03  0.16375522028E+03  0.25215777340E+03  0.31872465087E+03  0.00000000000E+00 0. -1.
         -2    1    5    5    0  502 -0.30825813350E+02 -0.31451333253E+03  0.50432881739E+03  0.59516083806E+03  0.00000000000E+00 0. -1.
         -3    1    6    6    0  503  0.35240825185E+02  0.20965295735E+03  0.20465997857E+03  0.29509656914E+03  0.00000000000E+00 0.  1.
<mgrwt>
<rscale>  0 0.11684415E+04</rscale>
<asrwt>0</asrwt>
<pdfrwt beam="1">  1        2 0.24954609E+00 0.11684415E+04</pdfrwt>
<pdfrwt beam="2">  1       -2 0.32372517E-01 0.11684415E+04</pdfrwt>
<totfact> 0.95215179E+01</totfact>
</mgrwt>
</event>
<event>
12    1  0.4247462E-008  0.1140842E+04  0.7818608E-02  0.9166274E-01
          2   -1    0    0  501    0  0.00000000000E+00  0.00000000000E+00  0.17150494196E+04  0.17150494196E+04  0.00000000000E+00 0. -1.
         -2   -1    0    0    0  501 -0.00000000000E+00 -0.00000000000E+00 -0.18972043269E+03  0.18972043269E+03  0.00000000000E+00 0.  1.
         23    2    1    2    0    0 -0.94008079000E+02  0.34704335461E+02  0.60519583087E+01  0.13606251845E+03  0.91839386495E+02 0.  0.
        254    2    1    2    0    0  0.94008079000E+02 -0.34704335461E+02  0.15192770286E+04  0.17687073339E+04  0.90004501739E+03 0.  0.
         23    2    4    4    0    0 -0.33350731907E+03 -0.50333812399E+02  0.11310842557E+04  0.11838742101E+04  0.91901726569E+02 0.  0.
         23    2    4    4    0    0  0.42751539807E+03  0.15629476938E+02  0.38819277294E+03  0.58483312376E+03  0.91227504345E+02 0.  0.
         13    1    3    3    0    0  0.99018283840E+01  0.13442104031E+02 -0.20782100289E+02  0.26657682918E+02  0.00000000000E+00 0. -1.
        -13    1    3    3    0    0 -0.10390990738E+03  0.21262231429E+02  0.26834058598E+02  0.10940483554E+03  0.00000000000E+00 0.  1.
          1    1    5    5  502    0 -0.15041423232E+03 -0.59479029001E+02  0.43647548710E+03  0.46548152167E+03  0.00000000000E+00 0. -1.
          3    1    6    6  503    0  0.14579402659E+03 -0.34821679455E+02  0.11220954207E+03  0.18724163234E+03  0.00000000000E+00 0. -1.
         -1    1    5    5    0  502 -0.18309308674E+03  0.91452166017E+01  0.69460876857E+03  0.71839268842E+03  0.00000000000E+00 0.  1.
         -3    1    6    6    0  503  0.28172137148E+03  0.50451156394E+02  0.27598323087E+03  0.39759149142E+03  0.00000000000E+00 0.  1.
<mgrwt>
<rscale>  0 0.11408417E+04</rscale>
<asrwt>0</asrwt>
<pdfrwt beam="1">  1        2 0.26385375E+00 0.11408417E+04</pdfrwt>
<pdfrwt beam="2">  1       -2 0.29187760E-01 0.11408417E+04</pdfrwt>
<totfact> 0.10282529E+02</totfact>
</mgrwt>
</event>
<event>
12    1  0.4247462E-008  0.1121199E+04  0.7818608E-02  0.9184773E-01
          2   -1    0    0  501    0  0.00000000000E+00  0.00000000000E+00  0.21646528296E+04  0.21646528296E+04  0.00000000000E+00 0.  1.
         -2   -1    0    0    0  501 -0.00000000000E+00 -0.00000000000E+00 -0.14518343902E+03  0.14518343902E+03  0.00000000000E+00 0. -1.
         23    2    1    2    0    0 -0.87259110610E+02 -0.23685886536E+02  0.72500773014E+02  0.15220183368E+03  0.98660338959E+02 0.  0.
        254    2    1    2    0    0  0.87259110610E+02  0.23685886536E+02  0.19469686175E+04  0.21576344349E+04  0.92548602553E+03 0.  0.
         23    2    4    4    0    0  0.35271645413E+03 -0.22388568391E+03  0.15672720341E+04  0.16245261030E+04  0.90607581768E+02 0.  0.
         23    2    4    4    0    0 -0.26545734352E+03  0.24757157045E+03  0.37969658341E+03  0.53310833192E+03  0.90970953550E+02 0.  0.
         13    1    3    3    0    0 -0.76359468517E+02 -0.13573269558E+01  0.92751651712E+02  0.12014774099E+03  0.00000000000E+00 0.  1.
        -13    1    3    3    0    0 -0.10899642094E+02 -0.22328559580E+02 -0.20250878698E+02  0.32054092698E+02  0.00000000000E+00 0. -1.
          3    1    5    5  502    0  0.29370653499E+03 -0.14565777184E+03  0.12635653130E+04  0.13054030088E+04  0.00000000000E+00 0. -1.
          3    1    6    6  503    0 -0.24488075352E+03  0.21352193980E+03  0.29209295353E+03  0.43689414705E+03  0.00000000000E+00 0. -1.
         -3    1    5    5    0  502  0.59009919138E+02 -0.78227912067E+02  0.30370672118E+03  0.31912309423E+03  0.00000000000E+00 0.  1.
         -3    1    6    6    0  503 -0.20576589995E+02  0.34049630641E+02  0.87603629875E+02  0.96214184869E+02  0.00000000000E+00 0.  1.
<mgrwt>
<rscale>  0 0.11211989E+04</rscale>
<asrwt>0</asrwt>
<pdfrwt beam="1">  1        2 0.33302349E+00 0.11211989E+04</pdfrwt>
<pdfrwt beam="2">  1       -2 0.22335915E-01 0.11211989E+04</pdfrwt>
<totfact> 0.94543202E+01</totfact>
</mgrwt>
</event>
<event>
12    1  0.4247462E-008  0.2325020E+04  0.7818608E-02  0.8468121E-01
         -1   -1    0    0    0  501 -0.00000000000E+00  0.00000000000E+00  0.82410364030E+03  0.82410364030E+03  0.00000000000E+00 0.  1.
          1   -1    0    0  501    0  0.00000000000E+00 -0.00000000000E+00 -0.16398781680E+04  0.16398781680E+04  0.00000000000E+00 0. -1.
         23    2    1    2    0    0  0.94044804643E+03  0.31366346429E+03 -0.34273283672E+03  0.10529082415E+04  0.91228672616E+02 0.  0.
        254    2    1    2    0    0 -0.94044804643E+03 -0.31366346429E+03 -0.47304169097E+03  0.14110735668E+04  0.88573860292E+03 0.  0.
         23    2    4    4    0    0  0.15562304968E+03 -0.68236238743E+02 -0.13211650690E+03  0.23366423874E+03  0.90936720861E+02 0.  0.
         23    2    4    4    0    0 -0.10960710961E+04 -0.24542722554E+03 -0.34092518407E+03  0.11774093281E+04  0.91958544640E+02 0.  0.
         13    1    3    3    0    0  0.36300264289E+03  0.13893885388E+03 -0.17811883307E+03  0.42755261964E+03  0.00000000000E+00 0.  1.
        -13    1    3    3    0    0  0.57744540354E+03  0.17472461040E+03 -0.16461400365E+03  0.62535562183E+03  0.00000000000E+00 0. -1.
          1    1    5    5  502    0  0.81255290245E+02  0.11951073707E+02 -0.69852917678E+02  0.10781781144E+03  0.00000000000E+00 0. -1.
          3    1    6    6  503    0 -0.58231378084E+01 -0.95980730129E+01 -0.61122903783E+01  0.12782489318E+02  0.00000000000E+00 0. -1.
         -1    1    5    5    0  502  0.74367759436E+02 -0.80187312450E+02 -0.62263589219E+02  0.12584642730E+03  0.00000000000E+00 0.  1.
         -3    1    6    6    0  503 -0.10902479583E+04 -0.23582915253E+03 -0.33481289369E+03  0.11646268388E+04  0.00000000000E+00 0.  1.
<mgrwt>
<rscale>  0 0.23250201E+04</rscale>
<asrwt>0</asrwt>
<pdfrwt beam="1">  1        1 0.25228895E+00 0.23250201E+04</pdfrwt>
<pdfrwt beam="2">  1       -1 0.12678518E+00 0.23250201E+04</pdfrwt>
<totfact> 0.25523902E+00</totfact>
</mgrwt>
</event>
<event>
12    1  0.4313536E-008  0.1888786E+04  0.7818608E-02  0.8660459E-01
         -2   -1    0    0    0  501 -0.00000000000E+00  0.00000000000E+00  0.10366111022E+04  0.10366111022E+04  0.00000000000E+00 0.  1.
          2   -1    0    0  501    0  0.00000000000E+00 -0.00000000000E+00 -0.86037874396E+03  0.86037874396E+03  0.00000000000E+00 0. -1.
         23    2    1    2    0    0  0.13354515629E+01 -0.45156774377E+03 -0.50283729714E+03  0.68233789469E+03  0.93938514428E+02 0.  0.
        254    2    1    2    0    0 -0.13354515629E+01  0.45156774377E+03  0.67906965537E+03  0.12146519515E+04  0.90018251245E+03 0.  0.
         23    2    4    4    0    0  0.27415748754E+03  0.53577586111E+03  0.67979366975E+03  0.91254210398E+03  0.91627270978E+02 0.  0.
         23    2    4    4    0    0 -0.27549293910E+03 -0.84208117337E+02 -0.72401438426E+00  0.30210984749E+03  0.91008072351E+02 0.  0.
         11    1    3    3    0    0 -0.65088594031E+01 -0.43819212144E+03 -0.45361404201E+03  0.63073005291E+03  0.00000000000E+00 0. -1.
        -11    1    3    3    0    0  0.78443109660E+01 -0.13375622331E+02 -0.49223255128E+02  0.51607841775E+02  0.00000000000E+00 0.  1.
          4    1    5    5  502    0  0.27866730649E+03  0.49908539165E+03  0.64390637797E+03  0.86102097504E+03  0.00000000000E+00 0. -1.
          3    1    6    6  503    0 -0.23257159167E+03 -0.86339419007E+02  0.29127667236E+02  0.24978483046E+03  0.00000000000E+00 0. -1.
         -4    1    5    5    0  502 -0.45098189567E+01  0.36690469461E+02  0.35887291779E+02  0.51521128943E+02  0.00000000000E+00 0.  1.
         -3    1    6    6    0  503 -0.42921347427E+02  0.21313016702E+01 -0.29851681620E+02  0.52325017031E+02  0.00000000000E+00 0.  1.
<mgrwt>
<rscale>  0 0.18887860E+04</rscale>
<asrwt>0</asrwt>
<pdfrwt beam="1">  1        2 0.13236596E+00 0.18887860E+04</pdfrwt>
<pdfrwt beam="2">  1       -2 0.15947863E+00 0.18887860E+04</pdfrwt>
<totfact> 0.74337967E+00</totfact>
</mgrwt>
</event>
<event>
12    1  0.4247462E-008  0.2524913E+04  0.7818608E-02  0.8394163E-01
          1   -1    0    0  501    0  0.00000000000E+00  0.00000000000E+00  0.10133358774E+04  0.10133358774E+04  0.00000000000E+00 0. -1.
         -1   -1    0    0    0  501 -0.00000000000E+00 -0.00000000000E+00 -0.15728218400E+04  0.15728218400E+04  0.00000000000E+00 0.  1.
         23    2    1    2    0    0 -0.64842039706E+02  0.19013694871E+03  0.85049709945E+03  0.88263772360E+03  0.12388496907E+03 0.  0.
        254    2    1    2    0    0  0.64842039706E+02 -0.19013694871E+03 -0.14099830620E+04  0.17035199939E+04  0.93465051485E+03 0.  0.
         23    2    4    4    0    0  0.28282009584E+03  0.13373876219E+03 -0.12141557430E+04  0.12570597680E+04  0.90287479842E+02 0.  0.
         23    2    4    4    0    0 -0.21797805614E+03 -0.32387571090E+03 -0.19582731903E+03  0.44646022584E+03  0.92566113173E+02 0.  0.
         13    1    3    3    0    0 -0.37897218641E+02  0.25911147324E+02  0.39558541600E+03  0.39824038983E+03  0.00000000000E+00 0. -1.
        -13    1    3    3    0    0 -0.26944821065E+02  0.16422580139E+03  0.45491168345E+03  0.48439733377E+03  0.00000000000E+00 0.  1.
          4    1    5    5  502    0  0.42586922692E+02 -0.12485004632E+02 -0.16497607325E+03  0.17084093792E+03  0.00000000000E+00 0. -1.
          1    1    6    6  503    0 -0.95170071663E+02 -0.21286804221E+03 -0.89770693372E+02  0.24985780621E+03  0.00000000000E+00 0. -1.
         -4    1    5    5    0  502  0.24023317315E+03  0.14622376682E+03 -0.10491796698E+04  0.10862188301E+04  0.00000000000E+00 0.  1.
         -1    1    6    6    0  503 -0.12280798447E+03 -0.11100766869E+03 -0.10605662566E+03  0.19660241963E+03  0.00000000000E+00 0.  1.
<mgrwt>
<rscale>  0 0.25249133E+04</rscale>
<asrwt>0</asrwt>
<pdfrwt beam="1">  1        1 0.15589783E+00 0.25249133E+04</pdfrwt>
<pdfrwt beam="2">  1       -1 0.24197259E+00 0.25249133E+04</pdfrwt>
<totfact> 0.10304584E+00</totfact>
</mgrwt>
</event>
<event>
12    1  0.4247462E-008  0.2757698E+04  0.7818608E-02  0.8316523E-01
          2   -1    0    0  501    0  0.00000000000E+00  0.00000000000E+00  0.16208923836E+04  0.16208923836E+04  0.00000000000E+00 0. -1.
         -2   -1    0    0    0  501 -0.00000000000E+00 -0.00000000000E+00 -0.11729495143E+04  0.11729495143E+04  0.00000000000E+00 0.  1.
         23    2    1    2    0    0 -0.11266365518E+04 -0.38521617385E+03  0.50770222189E+03  0.12975706905E+04  0.90701324602E+02 0.  0.
        254    2    1    2    0    0  0.11266365518E+04  0.38521617385E+03 -0.59759352596E+02  0.14962712073E+04  0.90418743923E+03 0.  0.
         23    2    4    4    0    0  0.47810814937E+03  0.51412505587E+03 -0.32345300757E+03  0.77830153640E+03  0.90661225905E+02 0.  0.
         23    2    4    4    0    0  0.64852840242E+03 -0.12890888202E+03  0.26369365497E+03  0.71796967095E+03  0.93485379129E+02 0.  0.
         11    1    3    3    0    0 -0.88571300278E+02 -0.20366251970E+02  0.15547180219E+02  0.92202897270E+02  0.00000000000E+00 0.  1.
        -11    1    3    3    0    0 -0.10380652515E+04 -0.36484992188E+03  0.49215504167E+03  0.12053677932E+04  0.00000000000E+00 0. -1.
          4    1    5    5  502    0  0.27444977875E+02  0.33775655001E+02  0.21157369425E+01  0.43571757184E+02  0.00000000000E+00 0. -1.
          1    1    6    6  503    0  0.12972801125E+03  0.54131908416E+00  0.23709777529E+02  0.13187798709E+03  0.00000000000E+00 0. -1.
         -4    1    5    5    0  502  0.45066317150E+03  0.48034940087E+03 -0.32556874451E+03  0.73472977922E+03  0.00000000000E+00 0.  1.
         -1    1    6    6    0  503  0.51880039117E+03 -0.12945020111E+03  0.23998387744E+03  0.58609168385E+03  0.00000000000E+00 0.  1.
<mgrwt>
<rscale>  0 0.27576983E+04</rscale>
<asrwt>0</asrwt>
<pdfrwt beam="1">  1        2 0.24936806E+00 0.27576983E+04</pdfrwt>
<pdfrwt beam="2">  1       -2 0.18045377E+00 0.27576983E+04</pdfrwt>
<totfact> 0.17066820E+00</totfact>
</mgrwt>
</event>
<event>
12    1  0.4247462E-008  0.1878308E+04  0.7818608E-02  0.8665730E-01
          1   -1    0    0  501    0  0.00000000000E+00  0.00000000000E+00  0.23559979524E+04  0.23559979524E+04  0.00000000000E+00 0. -1.
         -1   -1    0    0    0  501 -0.00000000000E+00 -0.00000000000E+00 -0.37436806493E+03  0.37436806493E+03  0.00000000000E+00 0.  1.
         23    2    1    2    0    0 -0.44680527422E+03 -0.21993929115E+02  0.15781189019E+04  0.16428614823E+04  0.91738190083E+02 0.  0.
        254    2    1    2    0    0  0.44680527422E+03  0.21993929115E+02  0.40351098558E+03  0.10875045350E+04  0.90538738243E+03 0.  0.
         23    2    4    4    0    0 -0.23735939599E+02  0.70533353091E+02  0.56666347667E+03  0.57894039246E+03  0.92337064637E+02 0.  0.
         23    2    4    4    0    0  0.47054121382E+03 -0.48539423976E+02 -0.16315249109E+03  0.50856414257E+03  0.90849557961E+02 0.  0.
         11    1    3    3    0    0 -0.55553860638E+02 -0.15256454617E+02  0.11944955245E+03  0.13261668982E+03  0.00000000000E+00 0.  1.
        -11    1    3    3    0    0 -0.39125141358E+03 -0.67374744975E+01  0.14586693494E+04  0.15102447925E+04  0.00000000000E+00 0. -1.
          2    1    5    5  502    0 -0.39370759568E+02  0.84033046795E+02  0.38132158686E+03  0.39245096798E+03  0.00000000000E+00 0. -1.
          3    1    6    6  503    0  0.22553160172E+03 -0.64511621842E+02 -0.59174463550E+02  0.24192533944E+03  0.00000000000E+00 0. -1.
         -2    1    5    5    0  502  0.15634819969E+02 -0.13499693704E+02  0.18534188981E+03  0.18648942449E+03  0.00000000000E+00 0.  1.
         -3    1    6    6    0  503  0.24500961210E+03  0.15972197866E+02 -0.10397802754E+03  0.26663880314E+03  0.00000000000E+00 0.  1.
<mgrwt>
<rscale>  0 0.18783082E+04</rscale>
<asrwt>0</asrwt>
<pdfrwt beam="1">  1        1 0.36246121E+00 0.18783082E+04</pdfrwt>
<pdfrwt beam="2">  1       -1 0.57595089E-01 0.18783082E+04</pdfrwt>
<totfact> 0.48778733E+00</totfact>
</mgrwt>
</event>
<event>
12    1  0.4247462E-008  0.2221739E+04  0.7818608E-02  0.8509434E-01
          2   -1    0    0  501    0  0.00000000000E+00  0.00000000000E+00  0.39573202118E+03  0.39573202118E+03  0.00000000000E+00 0. -1.
         -2   -1    0    0    0  501 -0.00000000000E+00 -0.00000000000E+00 -0.31183495115E+04  0.31183495115E+04  0.00000000000E+00 0.  1.
         23    2    1    2    0    0 -0.38368353439E+03  0.68968517065E+03 -0.18911031924E+04  0.20519521475E+04  0.10657223783E+03 0.  0.
        254    2    1    2    0    0  0.38368353439E+03 -0.68968517065E+03 -0.83151429793E+03  0.14621293853E+04  0.90748422708E+03 0.  0.
         23    2    4    4    0    0 -0.21799467200E+03 -0.22268950241E+03  0.10374455051E+02  0.32299968319E+03  0.84314141852E+02 0.  0.
         23    2    4    4    0    0  0.60167820640E+03 -0.46699566823E+03 -0.84188875298E+03  0.11391297021E+04  0.93478273040E+02 0.  0.
         11    1    3    3    0    0 -0.32073070803E+02  0.39214738402E+02 -0.19897367771E+03  0.20532170367E+03  0.00000000000E+00 0. -1.
        -11    1    3    3    0    0 -0.35161046359E+03  0.65047043225E+03 -0.16921295147E+04  0.18466304438E+04  0.00000000000E+00 0.  1.
          3    1    6    6  502    0  0.13916624516E+03 -0.15056714145E+03 -0.26228841445E+03  0.33291578549E+03  0.00000000000E+00 0. -1.
          3    1    5    5  503    0 -0.70714135727E+02 -0.30662202219E+02 -0.18540280909E+02  0.79274218083E+02  0.00000000000E+00 0. -1.
         -3    1    5    5    0  503 -0.14728053628E+03 -0.19202730019E+03  0.28914735960E+02  0.24372546511E+03  0.00000000000E+00 0.  1.
         -3    1    6    6    0  502  0.46251196124E+03 -0.31642852679E+03 -0.57960033853E+03  0.80621391657E+03  0.00000000000E+00 0.  1.
<mgrwt>
<rscale>  0 0.22217387E+04</rscale>
<asrwt>0</asrwt>
<pdfrwt beam="1">  1        2 0.60881852E-01 0.22217387E+04</pdfrwt>
<pdfrwt beam="2">  1       -2 0.47974606E+00 0.22217387E+04</pdfrwt>
<totfact> 0.16247423E-01</totfact>
</mgrwt>
</event>
<event>
12    1  0.4247462E-008  0.1826379E+04  0.7818608E-02  0.8692396E-01
         -1   -1    0    0    0  501 -0.00000000000E+00  0.00000000000E+00  0.76028719293E+03  0.76028719293E+03  0.00000000000E+00 0.  1.
          1   -1    0    0  501    0  0.00000000000E+00 -0.00000000000E+00 -0.10968417943E+04  0.10968417943E+04  0.00000000000E+00 0. -1.
         23    2    1    2    0    0 -0.57150519248E+03  0.25788231550E+03 -0.41403171321E+03  0.75635358093E+03  0.86758320369E+02 0.  0.
        254    2    1    2    0    0  0.57150519248E+03 -0.25788231550E+03  0.77477111834E+02  0.11007754063E+04  0.90143347985E+03 0.  0.
         23    2    4    4    0    0  0.43923935104E+03  0.26875377981E+03  0.15515882185E+03  0.54544247304E+03  0.90958395668E+02 0.  0.
         23    2    4    4    0    0  0.13226584144E+03 -0.52663609531E+03 -0.77681710013E+02  0.55533293326E+03  0.86720176441E+02 0.  0.
         11    1    3    3    0    0 -0.72760400951E+02  0.66830828346E+02 -0.60097464846E+02  0.11563797320E+03  0.00000000000E+00 0.  1.
        -11    1    3    3    0    0 -0.49874479153E+03  0.19105148715E+03 -0.35393424837E+03  0.64071560773E+03  0.00000000000E+00 0. -1.
          2    1    5    5  502    0  0.36848005671E+03  0.21147232561E+03  0.92159954815E+02  0.43473158841E+03  0.00000000000E+00 0. -1.
          1    1    6    6  503    0  0.30664763059E+02 -0.25604797593E+03 -0.79207801590E+01  0.25799928765E+03  0.00000000000E+00 0. -1.
         -2    1    5    5    0  502  0.70759294331E+02  0.57281454195E+02  0.62998867032E+02  0.11071088463E+03  0.00000000000E+00 0.  1.
         -1    1    6    6    0  503  0.10160107838E+03 -0.27058811937E+03 -0.69760929854E+02  0.29733364561E+03  0.00000000000E+00 0.  1.
<mgrwt>
<rscale>  0 0.18263787E+04</rscale>
<asrwt>0</asrwt>
<pdfrwt beam="1">  1        1 0.16874489E+00 0.18263787E+04</pdfrwt>
<pdfrwt beam="2">  1       -1 0.11696726E+00 0.18263787E+04</pdfrwt>
<totfact> 0.79097706E+00</totfact>
</mgrwt>
</event>
<event>
12    1  0.4247462E-008  0.1899197E+04  0.7818608E-02  0.8655256E-01
          2   -1    0    0  501    0  0.00000000000E+00  0.00000000000E+00  0.15975489881E+04  0.15975489881E+04  0.00000000000E+00 0. -1.
         -2   -1    0    0    0  501 -0.00000000000E+00 -0.00000000000E+00 -0.56445041066E+03  0.56445041066E+03  0.00000000000E+00 0.  1.
         23    2    1    2    0    0  0.55581742832E+03 -0.36867500638E+03  0.60730657742E+02  0.67604423621E+03  0.92159224008E+02 0.  0.
        254    2    1    2    0    0 -0.55581742832E+03  0.36867500638E+03  0.97236791966E+03  0.14859551625E+04  0.90427269112E+03 0.  0.
         23    2    4    4    0    0 -0.15100755998E+03  0.61479152288E+03  0.51755828214E+03  0.82288399433E+03  0.92193236969E+02 0.  0.
         23    2    4    4    0    0 -0.40480986833E+03 -0.24611651650E+03  0.45480963752E+03  0.66307116820E+03  0.91472392106E+02 0.  0.
         13    1    3    3    0    0  0.43047696774E+03 -0.31717470574E+03  0.74363012115E+02  0.53985189755E+03  0.00000000000E+00 0.  1.
        -13    1    3    3    0    0  0.12534046058E+03 -0.51500300638E+02 -0.13632354373E+02  0.13619233866E+03  0.00000000000E+00 0. -1.
          4    1    5    5  502    0 -0.62876820381E+02  0.12308902762E+03  0.86341219023E+02  0.16296996461E+03  0.00000000000E+00 0. -1.
          1    1    6    6  503    0 -0.10154338331E+03 -0.28766293016E+02  0.13711238840E+03  0.17302706540E+03  0.00000000000E+00 0. -1.
         -4    1    5    5    0  502 -0.88130739603E+02  0.49170249525E+03  0.43121706312E+03  0.65991402972E+03  0.00000000000E+00 0.  1.
         -1    1    6    6    0  503 -0.30326648503E+03 -0.21735022348E+03  0.31769724912E+03  0.49004410280E+03  0.00000000000E+00 0.  1.
<mgrwt>
<rscale>  0 0.18991969E+04</rscale>
<asrwt>0</asrwt>
<pdfrwt beam="1">  1        2 0.24577677E+00 0.18991969E+04</pdfrwt>
<pdfrwt beam="2">  1       -2 0.86838526E-01 0.18991969E+04</pdfrwt>
<totfact> 0.12022783E+01</totfact>
</mgrwt>
</event>
<event>
12    1  0.4247462E-008  0.1318538E+04  0.7818608E-02  0.9014992E-01
          2   -1    0    0  501    0  0.00000000000E+00  0.00000000000E+00  0.11080803847E+04  0.11080803847E+04  0.00000000000E+00 0. -1.
         -2   -1    0    0    0  501 -0.00000000000E+00 -0.00000000000E+00 -0.39224224588E+03  0.39224224588E+03  0.00000000000E+00 0.  1.
         23    2    1    2    0    0 -0.20264829233E+03  0.12208583213E+03 -0.90902351264E+02  0.26910423565E+03  0.90457566794E+02 0.  0.
        254    2    1    2    0    0  0.20264829233E+03 -0.12208583213E+03  0.80674049009E+03  0.12312183949E+04  0.89949832511E+03 0.  0.
         23    2    4    4    0    0  0.53129282395E+03  0.35678498117E+02  0.57679545415E+03  0.79061101086E+03  0.93956130984E+02 0.  0.
         23    2    4    4    0    0 -0.32864453163E+03 -0.15776433024E+03  0.22994503593E+03  0.44060738407E+03  0.91451272716E+02 0.  0.
         11    1    3    3    0    0 -0.14153426709E+03  0.92832775405E+02 -0.10596468851E+03  0.19969573897E+03  0.00000000000E+00 0.  1.
        -11    1    3    3    0    0 -0.61114025237E+02  0.29253056722E+02  0.15062337250E+02  0.69408496682E+02  0.00000000000E+00 0. -1.
          4    1    6    6  502    0 -0.23391277911E+03 -0.79549003218E+02  0.18915630402E+03  0.31116448945E+03  0.00000000000E+00 0. -1.
          4    1    5    5  503    0  0.22525514627E+03  0.35214893793E+01  0.17931471316E+03  0.28793410385E+03  0.00000000000E+00 0. -1.
         -4    1    5    5    0  503  0.30603767768E+03  0.32157008737E+02  0.39748074100E+03  0.50267690701E+03  0.00000000000E+00 0.  1.
         -4    1    6    6    0  502 -0.94731752511E+02 -0.78215327027E+02  0.40788731914E+02  0.12944289462E+03  0.00000000000E+00 0.  1.
<mgrwt>
<rscale>  0 0.13185385E+04</rscale>
<asrwt>0</asrwt>
<pdfrwt beam="1">  1        2 0.17047390E+00 0.13185385E+04</pdfrwt>
<pdfrwt beam="2">  1       -2 0.60344962E-01 0.13185385E+04</pdfrwt>
<totfact> 0.53948486E+01</totfact>
</mgrwt>
</event>
<event>
12    1  0.4247462E-008  0.2609883E+04  0.7818608E-02  0.8364852E-01
         -2   -1    0    0    0  501 -0.00000000000E+00  0.00000000000E+00  0.39774602658E+03  0.39774602658E+03  0.00000000000E+00 0.  1.
          2   -1    0    0  501    0  0.00000000000E+00 -0.00000000000E+00 -0.42813066237E+04  0.42813066237E+04  0.00000000000E+00 0. -1.
         23    2    1    2    0    0 -0.72390726662E+03 -0.23223156419E+03 -0.16607131128E+03  0.78378664914E+03  0.93640807722E+02 0.  0.
        254    2    1    2    0    0  0.72390726662E+03  0.23223156419E+03 -0.37174892858E+04  0.38952660012E+04  0.88056652180E+03 0.  0.
         23    2    4    4    0    0  0.78684389036E+03  0.12755188199E+03 -0.36345300611E+04  0.37220348032E+04  0.91331927645E+02 0.  0.
         23    2    4    4    0    0 -0.62936623738E+02  0.10467968220E+03 -0.82959224769E+02  0.17323119795E+03  0.90597795203E+02 0.  0.
         13    1    3    3    0    0 -0.55981648686E+02 -0.25073631557E+02  0.11200526330E+02  0.62354500873E+02  0.00000000000E+00 0. -1.
        -13    1    3    3    0    0 -0.66792561793E+03 -0.20715793263E+03 -0.17727183761E+03  0.72143214827E+03  0.00000000000E+00 0.  1.
          1    1    5    5  502    0  0.29324659463E+02  0.20693049210E+02 -0.21492464037E+03  0.21790075488E+03  0.00000000000E+00 0. -1.
          1    1    6    6  503    0  0.97242071600E+01  0.53271252751E+02 -0.60972706098E+02  0.81547884481E+02  0.00000000000E+00 0. -1.
         -1    1    5    5    0  502  0.75751923089E+03  0.10685883278E+03 -0.34196054207E+04  0.35041340483E+04  0.00000000000E+00 0.  1.
         -1    1    6    6    0  503 -0.72660830898E+02  0.51408429451E+02 -0.21986518671E+02  0.91683313469E+02  0.00000000000E+00 0.  1.
<mgrwt>
<rscale>  0 0.26098833E+04</rscale>
<asrwt>0</asrwt>
<pdfrwt beam="1">  1        2 0.65866254E+00 0.26098833E+04</pdfrwt>
<pdfrwt beam="2">  1       -2 0.61191698E-01 0.26098833E+04</pdfrwt>
<totfact> 0.43429672E-01</totfact>
</mgrwt>
</event>
<event>
12    1  0.4247462E-008  0.1874083E+04  0.7818608E-02  0.8667866E-01
         -2   -1    0    0    0  501 -0.00000000000E+00  0.00000000000E+00  0.51191940047E+03  0.51191940047E+03  0.00000000000E+00 0.  1.
          2   -1    0    0  501    0  0.00000000000E+00 -0.00000000000E+00 -0.17152049251E+04  0.17152049251E+04  0.00000000000E+00 0. -1.
         23    2    1    2    0    0  0.16422571408E+03 -0.60115199821E+03 -0.91024692364E+03  0.11070076098E+04  0.92534188610E+02 0.  0.
        254    2    1    2    0    0 -0.16422571408E+03  0.60115199821E+03 -0.29303860098E+03  0.11201167157E+04  0.88342290275E+03 0.  0.
         23    2    4    4    0    0  0.14756214839E+02 -0.52543661371E+02  0.23271139839E+03  0.25761249526E+03  0.96078200176E+02 0.  0.
         23    2    4    4    0    0 -0.17898192892E+03  0.65369565959E+03 -0.52574999936E+03  0.86250422048E+03  0.90265842229E+02 0.  0.
         13    1    3    3    0    0  0.16472716201E+03 -0.60132349226E+03 -0.91223931036E+03  0.11049459442E+04  0.00000000000E+00 0. -1.
        -13    1    3    3    0    0 -0.50144793211E+00  0.17149404240E+00  0.19923867205E+01  0.20616656080E+01  0.00000000000E+00 0.  1.
          4    1    5    5  502    0  0.70821201069E+01 -0.62413342759E+02  0.68554126515E+02  0.92979836748E+02  0.00000000000E+00 0. -1.
          1    1    6    6  503    0 -0.10700784802E+03  0.52659032874E+03 -0.40244472455E+03  0.67134924605E+03  0.00000000000E+00 0. -1.
         -4    1    5    5    0  502  0.76740947322E+01  0.98696813874E+01  0.16415727187E+03  0.16463265851E+03  0.00000000000E+00 0.  1.
         -1    1    6    6    0  503 -0.71974080897E+02  0.12710533085E+03 -0.12330527481E+03  0.19115497443E+03  0.00000000000E+00 0.  1.
<mgrwt>
<rscale>  0 0.18740829E+04</rscale>
<asrwt>0</asrwt>
<pdfrwt beam="1">  1        2 0.26387768E+00 0.18740829E+04</pdfrwt>
<pdfrwt beam="2">  1       -2 0.78756831E-01 0.18740829E+04</pdfrwt>
<totfact> 0.12922902E+01</totfact>
</mgrwt>
</event>
<event>
12    1  0.4247462E-008  0.2116023E+04  0.7818608E-02  0.8554218E-01
          2   -1    0    0  501    0  0.00000000000E+00  0.00000000000E+00  0.32636603425E+04  0.32636603425E+04  0.00000000000E+00 0. -1.
         -2   -1    0    0    0  501 -0.00000000000E+00 -0.00000000000E+00 -0.34298561985E+03  0.34298561985E+03  0.00000000000E+00 0.  1.
         23    2    1    2    0    0 -0.87941695944E+02  0.85600481553E+03  0.10946086133E+04  0.13953223023E+04  0.90985300074E+02 0.  0.
        254    2    1    2    0    0  0.87941695944E+02 -0.85600481553E+03  0.18260661094E+04  0.22113236601E+04  0.90274963737E+03 0.  0.
         23    2    4    4    0    0  0.21041433528E+03 -0.97541721165E+03  0.17193731600E+04  0.19900542019E+04  0.91426111485E+02 0.  0.
         23    2    4    4    0    0 -0.12247263934E+03  0.11941239611E+03  0.10669294932E+03  0.22126945815E+03  0.91202631242E+02 0.  0.
         13    1    3    3    0    0 -0.48299020619E+02  0.45989694768E+03  0.66090858583E+03  0.80662144572E+03  0.00000000000E+00 0.  1.
        -13    1    3    3    0    0 -0.39642675325E+02  0.39610786786E+03  0.43370002746E+03  0.58870085655E+03  0.00000000000E+00 0. -1.
          1    1    5    5  502    0 -0.49938609023E+01 -0.27988912659E+01  0.12392690916E+02  0.13651052237E+02  0.00000000000E+00 0. -1.
          3    1    6    6  503    0 -0.11778799610E+02 -0.14372159124E+02  0.19606537093E+02  0.27013244435E+02  0.00000000000E+00 0. -1.
         -1    1    5    5    0  502  0.21540819619E+03 -0.97261832038E+03  0.17069804691E+04  0.19764031497E+04  0.00000000000E+00 0.  1.
         -3    1    6    6    0  503 -0.11069383973E+03  0.13378455524E+03  0.87086412223E+02  0.19425621372E+03  0.00000000000E+00 0.  1.
<mgrwt>
<rscale>  0 0.21160232E+04</rscale>
<asrwt>0</asrwt>
<pdfrwt beam="1">  1        2 0.50210157E+00 0.21160232E+04</pdfrwt>
<pdfrwt beam="2">  1       -2 0.52767021E-01 0.21160232E+04</pdfrwt>
<totfact> 0.36825946E+00</totfact>
</mgrwt>
</event>
<event>
12    1  0.4247462E-008  0.2036754E+04  0.7818608E-02  0.8589627E-01
          2   -1    0    0  501    0  0.00000000000E+00  0.00000000000E+00  0.23559731037E+04  0.23559731037E+04  0.00000000000E+00 0. -1.
         -2   -1    0    0    0  501 -0.00000000000E+00 -0.00000000000E+00 -0.44019685606E+03  0.44019685606E+03  0.00000000000E+00 0.  1.
         23    2    1    2    0    0  0.60390807881E+03  0.31116924469E+03  0.16121695364E+03  0.70406696180E+03  0.90488198508E+02 0.  0.
        254    2    1    2    0    0 -0.60390807881E+03 -0.31116924469E+03  0.17545592940E+04  0.20921029980E+04  0.91481439179E+03 0.  0.
         23    2    4    4    0    0 -0.39003603750E+03 -0.53422905845E+03  0.61453180180E+03  0.90704122424E+03  0.86865698658E+02 0.  0.
         23    2    4    4    0    0 -0.21387204131E+03  0.22305981375E+03  0.11400274922E+04  0.11850617737E+04  0.95978091296E+02 0.  0.
         11    1    3    3    0    0  0.11059526482E+03  0.94107706227E+02  0.17410608930E+02  0.14625560596E+03  0.00000000000E+00 0. -1.
        -11    1    3    3    0    0  0.49331281399E+03  0.21706153847E+03  0.14380634471E+03  0.55781135584E+03  0.00000000000E+00 0.  1.
          4    1    5    5  502    0 -0.37149179621E+03 -0.52600860104E+03  0.60824042802E+03  0.88580337621E+03  0.00000000000E+00 0.  1.
          1    1    6    6  503    0 -0.74378193976E+02  0.74451556368E+02  0.23694807636E+03  0.25926731548E+03  0.00000000000E+00 0. -1.
         -4    1    5    5    0  502 -0.18544241288E+02 -0.82204574094E+01  0.62913737794E+01  0.21237848031E+02  0.00000000000E+00 0. -1.
         -1    1    6    6    0  503 -0.13949384733E+03  0.14860825738E+03  0.90307941586E+03  0.92579445826E+03  0.00000000000E+00 0.  1.
<mgrwt>
<rscale>  0 0.20367542E+04</rscale>
<asrwt>0</asrwt>
<pdfrwt beam="1">  1        2 0.36245739E+00 0.20367542E+04</pdfrwt>
<pdfrwt beam="2">  1       -2 0.67722595E-01 0.20367542E+04</pdfrwt>
<totfact> 0.77977723E+00</totfact>
</mgrwt>
</event>
<event>
12    1  0.4247462E-008  0.1642943E+04  0.7818608E-02  0.8794592E-01
         -2   -1    0    0    0  501 -0.00000000000E+00  0.00000000000E+00  0.18790240720E+03  0.18790240720E+03  0.00000000000E+00 0.  1.
          2   -1    0    0  501    0  0.00000000000E+00 -0.00000000000E+00 -0.35913091317E+04  0.35913091317E+04  0.00000000000E+00 0. -1.
         23    2    1    2    0    0 -0.48460930323E+02 -0.47730090965E+03 -0.50256997971E+03  0.70103291929E+03  0.93305676734E+02 0.  0.
        254    2    1    2    0    0  0.48460930323E+02  0.47730090965E+03 -0.29008367448E+04  0.30781786196E+04  0.91113400448E+03 0.  0.
         23    2    4    4    0    0 -0.32508093435E+03 -0.80267788325E+02 -0.84850666956E+03  0.91700152674E+03  0.93849347620E+02 0.  0.
         23    2    4    4    0    0  0.37354186467E+03  0.55756869797E+03 -0.20523300752E+04  0.21611770928E+04  0.90616286414E+02 0.  0.
         13    1    3    3    0    0  0.94919710548E+01 -0.17218633851E+02 -0.47116742459E+02  0.51054542268E+02  0.00000000000E+00 0. -1.
        -13    1    3    3    0    0 -0.57952901378E+02 -0.46008227580E+03 -0.45545323725E+03  0.64997837702E+03  0.00000000000E+00 0.  1.
          1    1    5    5  502    0 -0.52189111874E+02  0.97579959020E+01 -0.75399750383E+02  0.92217374936E+02  0.00000000000E+00 0. -1.
          3    1    6    6  503    0  0.20165276832E+03  0.25077054196E+03 -0.86753961162E+03  0.92529707738E+03  0.00000000000E+00 0. -1.
         -1    1    5    5    0  502 -0.27289182247E+03 -0.90025784228E+02 -0.77310691917E+03  0.82478415181E+03  0.00000000000E+00 0.  1.
         -3    1    6    6    0  503  0.17188909635E+03  0.30679815601E+03 -0.11847904636E+04  0.12358800154E+04  0.00000000000E+00 0.  1.
<mgrwt>
<rscale>  0 0.16429433E+04</rscale>
<asrwt>0</asrwt>
<pdfrwt beam="1">  1        2 0.55250908E+00 0.16429433E+04</pdfrwt>
<pdfrwt beam="2">  1       -2 0.28908064E-01 0.16429433E+04</pdfrwt>
<totfact> 0.74462649E+00</totfact>
</mgrwt>
</event>
<event>
12    1  0.4247462E-008  0.1733009E+04  0.7818608E-02  0.8742759E-01
          2   -1    0    0  501    0  0.00000000000E+00  0.00000000000E+00  0.34870070009E+04  0.34870070009E+04  0.00000000000E+00 0. -1.
         -2   -1    0    0    0  501 -0.00000000000E+00 -0.00000000000E+00 -0.21532226915E+03  0.21532226915E+03  0.00000000000E+00 0.  1.
         23    2    1    2    0    0 -0.24556365293E+03  0.19572691540E+03  0.22433363606E+04  0.22669413338E+04  0.88625341011E+02 0.  0.
        254    2    1    2    0    0  0.24556365293E+03 -0.19572691540E+03  0.10283483712E+04  0.14353879363E+04  0.95090884004E+03 0.  0.
         23    2    4    4    0    0 -0.29686088239E+03 -0.30939638865E+03  0.42961835738E+03  0.61436771580E+03  0.94990780665E+02 0.  0.
         23    2    4    4    0    0  0.54242453533E+03  0.11366947326E+03  0.59873001382E+03  0.82102022050E+03  0.91931753718E+02 0.  0.
         13    1    3    3    0    0  0.11000979087E+01 -0.41184109160E+01  0.70825369858E+01  0.82664293402E+01  0.00000000000E+00 0.  1.
        -13    1    3    3    0    0 -0.24666375084E+03  0.19984532631E+03  0.22362538236E+04  0.22586749044E+04  0.00000000000E+00 0. -1.
          2    1    5    5  502    0 -0.13084591160E+03 -0.14827687306E+03  0.13352072112E+03  0.23860944373E+03  0.00000000000E+00 0. -1.
          1    1    6    6  503    0  0.23752453540E+03  0.34751744880E+01  0.25724776981E+03  0.35015196248E+03  0.00000000000E+00 0. -1.
         -2    1    5    5    0  502 -0.16601497079E+03 -0.16111951559E+03  0.29609763626E+03  0.37575827207E+03  0.00000000000E+00 0.  1.
         -1    1    6    6    0  503  0.30489999993E+03  0.11019429877E+03  0.34148224401E+03  0.47086825802E+03  0.00000000000E+00 0.  1.
<mgrwt>
<rscale>  0 0.17330092E+04</rscale>
<asrwt>0</asrwt>
<pdfrwt beam="1">  1        2 0.53646257E+00 0.17330092E+04</pdfrwt>
<pdfrwt beam="2">  1       -2 0.33126505E-01 0.17330092E+04</pdfrwt>
<totfact> 0.67657289E+00</totfact>
</mgrwt>
</event>
<event>
12    1  0.4247462E-008  0.2108969E+04  0.7818608E-02  0.8557303E-01
          2   -1    0    0  501    0  0.00000000000E+00  0.00000000000E+00  0.33616285697E+04  0.33616285697E+04  0.00000000000E+00 0. -1.
         -2   -1    0    0    0  501 -0.00000000000E+00 -0.00000000000E+00 -0.33077344699E+03  0.33077344699E+03  0.00000000000E+00 0.  1.
         23    2    1    2    0    0 -0.11030852459E+03 -0.45248561109E+03  0.25365083646E+04  0.25802049263E+04  0.81679734947E+02 0.  0.
        254    2    1    2    0    0  0.11030852459E+03  0.45248561109E+03  0.49434675815E+03  0.11121970904E+04  0.88073404150E+03 0.  0.
         23    2    4    4    0    0 -0.21223979581E+03  0.14033504829E+03 -0.15935468542E+03  0.31396880982E+03  0.91884933844E+02 0.  0.
         23    2    4    4    0    0  0.32254832041E+03  0.31215056281E+03  0.65370144357E+03  0.79822828063E+03  0.91473590740E+02 0.  0.
         13    1    3    3    0    0 -0.37458391998E+02 -0.30925808416E+03  0.16088082414E+04  0.16386908346E+04  0.00000000000E+00 0. -1.
        -13    1    3    3    0    0 -0.72850132597E+02 -0.14322752693E+03  0.92770012319E+03  0.94151409169E+03  0.00000000000E+00 0.  1.
          2    1    5    5  502    0 -0.21075203062E+03  0.15088545645E+03 -0.14833486230E+03  0.29864037026E+03  0.00000000000E+00 0. -1.
          1    1    6    6  503    0  0.27552174207E+03  0.25992852270E+03  0.48434490397E+03  0.61486994826E+03  0.00000000000E+00 0. -1.
         -2    1    5    5    0  502 -0.14877651981E+01 -0.10550408159E+02 -0.11019823124E+02  0.15328439559E+02  0.00000000000E+00 0.  1.
         -1    1    6    6    0  503  0.47026578338E+02  0.52222040105E+02  0.16935653960E+03  0.18335833237E+03  0.00000000000E+00 0.  1.
<mgrwt>
<rscale>  0 0.21089689E+04</rscale>
<asrwt>0</asrwt>
<pdfrwt beam="1">  1        2 0.51717360E+00 0.21089689E+04</pdfrwt>
<pdfrwt beam="2">  1       -2 0.50888225E-01 0.21089689E+04</pdfrwt>
<totfact> 0.34155297E+00</totfact>
</mgrwt>
</event>
<event>
12    1  0.4247462E-008  0.1395526E+04  0.7818608E-02  0.8957063E-01
          2   -1    0    0  501    0  0.00000000000E+00  0.00000000000E+00  0.10125720896E+04  0.10125720896E+04  0.00000000000E+00 0. -1.
         -2   -1    0    0    0  501 -0.00000000000E+00 -0.00000000000E+00 -0.48082830108E+03  0.48082830108E+03  0.00000000000E+00 0.  1.
         23    2    1    2    0    0  0.11231299260E+03  0.27728429082E+03 -0.12644094090E+03  0.33728276106E+03  0.90948134297E+02 0.  0.
        254    2    1    2    0    0 -0.11231299260E+03 -0.27728429082E+03  0.65818472938E+03  0.11561176296E+04  0.90216409217E+03 0.  0.
         23    2    4    4    0    0 -0.19133216512E+03  0.25993086704E+03  0.54844160948E+02  0.33941345307E+03  0.89563145821E+02 0.  0.
         23    2    4    4    0    0  0.79019172517E+02 -0.53721515785E+03  0.60334056843E+03  0.81670417651E+03  0.90231452201E+02 0.  0.
         13    1    3    3    0    0  0.84920664414E+02  0.23354633195E+03 -0.64655787951E+02  0.25677963184E+03  0.00000000000E+00 0.  1.
        -13    1    3    3    0    0  0.27392328187E+02  0.43737958861E+02 -0.61785152946E+02  0.80503129215E+02  0.00000000000E+00 0. -1.
          4    1    5    5  502    0  0.53537043431E+01  0.24204789799E+01 -0.74083701610E+01  0.94554120549E+01  0.00000000000E+00 0. -1.
          1    1    6    6  503    0  0.46302474291E+02 -0.46054175551E+03  0.47152435886E+03  0.66074037918E+03  0.00000000000E+00 0.  1.
         -4    1    5    5    0  502 -0.19668586946E+03  0.25751038806E+03  0.62252531109E+02  0.32995804102E+03  0.00000000000E+00 0.  1.
         -1    1    6    6    0  503  0.32716698225E+02 -0.76673402344E+02  0.13181620957E+03  0.15596379732E+03  0.00000000000E+00 0. -1.
<mgrwt>
<rscale>  0 0.13955262E+04</rscale>
<asrwt>0</asrwt>
<pdfrwt beam="1">  1        2 0.15578032E+00 0.13955262E+04</pdfrwt>
<pdfrwt beam="2">  1       -2 0.73973585E-01 0.13955262E+04</pdfrwt>
<totfact> 0.39640868E+01</totfact>
</mgrwt>
</event>
<event>
12    1  0.4247462E-008  0.1385399E+04  0.7818608E-02  0.8964456E-01
         -1   -1    0    0    0  501 -0.00000000000E+00  0.00000000000E+00  0.27126531880E+03  0.27126531880E+03  0.00000000000E+00 0.  1.
          1   -1    0    0  501    0  0.00000000000E+00 -0.00000000000E+00 -0.17688677326E+04  0.17688677326E+04  0.00000000000E+00 0. -1.
         23    2    1    2    0    0 -0.37730615561E+03 -0.10349837900E+03 -0.47525784219E+03  0.62246945468E+03  0.92338269076E+02 0.  0.
        254    2    1    2    0    0  0.37730615561E+03  0.10349837900E+03 -0.10223445716E+04  0.14176635967E+04  0.90083838771E+03 0.  0.
         23    2    4    4    0    0  0.47984082270E+03  0.39447107342E+03 -0.83722818286E+03  0.10464203711E+04  0.90498177200E+02 0.  0.
         23    2    4    4    0    0 -0.10253466709E+03 -0.29097269443E+03 -0.18511638871E+03  0.37124322552E+03  0.91514961994E+02 0.  0.
         11    1    3    3    0    0 -0.17942349594E+03 -0.47929081092E+02 -0.29760263771E+03  0.35079526462E+03  0.00000000000E+00 0. -1.
        -11    1    3    3    0    0 -0.19788265966E+03 -0.55569297908E+02 -0.17765520448E+03  0.27167419006E+03  0.00000000000E+00 0.  1.
          2    1    5    5  502    0  0.20305190887E+03  0.12086186158E+03 -0.35977884216E+03  0.43043987100E+03  0.00000000000E+00 0. -1.
          1    1    6    6  503    0  0.10683498117E+02 -0.49111592547E+02 -0.53903917328E+02  0.73700189673E+02  0.00000000000E+00 0. -1.
         -2    1    5    5    0  502  0.27678891383E+03  0.27360921185E+03 -0.47744934070E+03  0.61598050015E+03  0.00000000000E+00 0.  1.
         -1    1    6    6    0  503 -0.11321816521E+03 -0.24186110188E+03 -0.13121247138E+03  0.29754303585E+03  0.00000000000E+00 0.  1.
<mgrwt>
<rscale>  0 0.13853988E+04</rscale>
<asrwt>0</asrwt>
<pdfrwt beam="1">  1        1 0.27213349E+00 0.13853988E+04</pdfrwt>
<pdfrwt beam="2">  1       -1 0.41733127E-01 0.13853988E+04</pdfrwt>
<totfact> 0.23531140E+01</totfact>
</mgrwt>
</event>
<event>
12    1  0.4247462E-008  0.1721452E+04  0.7818608E-02  0.8749223E-01
         -1   -1    0    0    0  501 -0.00000000000E+00  0.00000000000E+00  0.26640131081E+03  0.26640131081E+03  0.00000000000E+00 0.  1.
          1   -1    0    0  501    0  0.00000000000E+00 -0.00000000000E+00 -0.27809515928E+04  0.27809515928E+04  0.00000000000E+00 0. -1.
         23    2    1    2    0    0  0.30629387057E+03  0.47508285178E+03 -0.13522705477E+04  0.14685457505E+04  0.92039859959E+02 0.  0.
        254    2    1    2    0    0 -0.30629387057E+03 -0.47508285178E+03 -0.11622797343E+04  0.15788071531E+04  0.90676247984E+03 0.  0.
         23    2    4    4    0    0 -0.61973794915E+03 -0.28842339258E+03 -0.80474796952E+03  0.10597820615E+04  0.90860026799E+02 0.  0.
         23    2    4    4    0    0  0.31344407859E+03 -0.18665945920E+03 -0.35753176474E+03  0.51902509159E+03  0.92027923974E+02 0.  0.
         13    1    3    3    0    0  0.56101554816E+02  0.16483937632E+03 -0.41735220907E+03  0.45221927298E+03  0.00000000000E+00 0.  1.
        -13    1    3    3    0    0  0.25019231575E+03  0.31024347546E+03 -0.93491833866E+03  0.10163264775E+04  0.00000000000E+00 0. -1.
          4    1    5    5  502    0 -0.59204559260E+03 -0.26991706334E+03 -0.78971037130E+03  0.10232378391E+04  0.00000000000E+00 0. -1.
          1    1    6    6  503    0  0.20948474709E+03 -0.17153827556E+03 -0.24624558085E+03  0.36598650977E+03  0.00000000000E+00 0. -1.
         -4    1    5    5    0  502 -0.27692356551E+02 -0.18506329238E+02 -0.15037598225E+02  0.36544222438E+02  0.00000000000E+00 0.  1.
         -1    1    6    6    0  503  0.10395933150E+03 -0.15121183636E+02 -0.11128618389E+03  0.15303858182E+03  0.00000000000E+00 0.  1.
<mgrwt>
<rscale>  0 0.17214519E+04</rscale>
<asrwt>0</asrwt>
<pdfrwt beam="1">  1        1 0.42783868E+00 0.17214519E+04</pdfrwt>
<pdfrwt beam="2">  1       -1 0.40984819E-01 0.17214519E+04</pdfrwt>
<totfact> 0.47699929E+00</totfact>
</mgrwt>
</event>
<event>
12    1  0.4247462E-008  0.1580907E+04  0.7818608E-02  0.8832364E-01
          4   -1    0    0  501    0  0.00000000000E+00  0.00000000000E+00  0.46640760868E+03  0.46640760868E+03  0.00000000000E+00 0. -1.
         -4   -1    0    0    0  501 -0.00000000000E+00 -0.00000000000E+00 -0.13396371858E+04  0.13396371858E+04  0.00000000000E+00 0.  1.
         23    2    1    2    0    0  0.52088280466E+03 -0.92915547355E+01 -0.22564020342E+03  0.57503398971E+03  0.91352935047E+02 0.  0.
        254    2    1    2    0    0 -0.52088280466E+03  0.92915547355E+01 -0.64758937371E+03  0.12310108048E+04  0.90808059961E+03 0.  0.
         23    2    4    4    0    0  0.14427510767E+03 -0.22606700683E+02 -0.51888014968E+03  0.54689961259E+03  0.92391595436E+02 0.  0.
         23    2    4    4    0    0 -0.66515791233E+03  0.31898255419E+02 -0.12870922403E+03  0.68411119220E+03  0.89384069685E+02 0.  0.
         11    1    3    3    0    0  0.41885656121E+03 -0.43950556788E+02 -0.18076645563E+03  0.45831100990E+03  0.00000000000E+00 0. -1.
        -11    1    3    3    0    0  0.10202624345E+03  0.34659002053E+02 -0.44873747787E+02  0.11672297981E+03  0.00000000000E+00 0.  1.
          2    1    6    6  502    0 -0.48373972662E+03  0.49107622755E+02 -0.12413199380E+03  0.50182111714E+03  0.00000000000E+00 0. -1.
          2    1    5    5  503    0  0.14214676138E+03 -0.31406613073E+02 -0.36799148844E+03  0.39573957685E+03  0.00000000000E+00 0. -1.
         -2    1    5    5    0  503  0.21283462945E+01  0.87999123894E+01 -0.15088866123E+03  0.15116003574E+03  0.00000000000E+00 0.  1.
         -2    1    6    6    0  502 -0.18141818571E+03 -0.17209367337E+02 -0.45772302366E+01  0.18229007506E+03  0.00000000000E+00 0.  1.
<mgrwt>
<rscale>  0 0.15809073E+04</rscale>
<asrwt>0</asrwt>
<pdfrwt beam="1">  1        4 0.71755017E-01 0.15809073E+04</pdfrwt>
<pdfrwt beam="2">  1       -4 0.20609803E+00 0.15809073E+04</pdfrwt>
<totfact> 0.40851015E-01</totfact>
</mgrwt>
</event>
<event>
12    1  0.4878639E-008  0.1305247E+04  0.7818608E-02  0.9025414E-01
         -1   -1    0    0    0  501 -0.00000000000E+00  0.00000000000E+00  0.26478907566E+03  0.26478907566E+03  0.00000000000E+00 0.  1.
          1   -1    0    0  501    0  0.00000000000E+00 -0.00000000000E+00 -0.16085161705E+04  0.16085161705E+04  0.00000000000E+00 0. -1.
         23    2    1    2    0    0 -0.31630282476E+03  0.56272693654E+02 -0.23708622775E+03  0.41073230092E+03  0.96317447197E+02 0.  0.
        254    2    1    2    0    0  0.31630282476E+03 -0.56272693654E+02 -0.11066408671E+04  0.14625729452E+04  0.90069501963E+03 0.  0.
         23    2    4    4    0    0  0.57721935571E+03  0.13825665478E+02 -0.42224985971E+03  0.72091626681E+03  0.89732859632E+02 0.  0.
         23    2    4    4    0    0 -0.26091653095E+03 -0.70098359132E+02 -0.68439100737E+03  0.74165667840E+03  0.93125515165E+02 0.  0.
         13    1    3    3    0    0 -0.47519424107E+02 -0.23033346507E+02 -0.56560582135E+02  0.77380424981E+02  0.00000000000E+00 0. -1.
        -13    1    3    3    0    0 -0.26878340065E+03  0.79306040161E+02 -0.18052564561E+03  0.33335187594E+03  0.00000000000E+00 0.  1.
          2    1    5    5  502    0  0.52897896802E+02 -0.21888386211E+02 -0.57968360571E+02  0.81471588693E+02  0.00000000000E+00 0. -1.
          3    1    6    6  503    0 -0.61790647046E+01  0.15457668961E+02 -0.31526218377E+02  0.35651406922E+02  0.00000000000E+00 0. -1.
         -2    1    5    5    0  502  0.52432145891E+03  0.35714051689E+02 -0.36428149914E+03  0.63944467812E+03  0.00000000000E+00 0.  1.
         -3    1    6    6    0  503 -0.25473746625E+03 -0.85556028094E+02 -0.65286478899E+03  0.70600527148E+03  0.00000000000E+00 0.  1.
<mgrwt>
<rscale>  0 0.13052471E+04</rscale>
<asrwt>0</asrwt>
<pdfrwt beam="1">  1        1 0.24746402E+00 0.13052471E+04</pdfrwt>
<pdfrwt beam="2">  1       -1 0.40736781E-01 0.13052471E+04</pdfrwt>
<totfact> 0.31848946E+01</totfact>
</mgrwt>
</event>
<event>
12    1  0.4247462E-008  0.1711801E+04  0.7818608E-02  0.8754662E-01
         -1   -1    0    0    0  501 -0.00000000000E+00  0.00000000000E+00  0.47769887153E+03  0.47769887153E+03  0.00000000000E+00 0.  1.
          1   -1    0    0  501    0  0.00000000000E+00 -0.00000000000E+00 -0.15335301930E+04  0.15335301930E+04  0.00000000000E+00 0. -1.
         23    2    1    2    0    0 -0.60872509448E+03 -0.68915175770E+02 -0.36449860195E+03  0.71886486773E+03  0.92800458650E+02 0.  0.
        254    2    1    2    0    0  0.60872509448E+03  0.68915175770E+02 -0.69133271950E+03  0.12923641968E+04  0.90386323410E+03 0.  0.
         23    2    4    4    0    0  0.79884070219E+03  0.21956005377E+02 -0.32572047434E+03  0.86771906935E+03  0.90631243335E+02 0.  0.
         23    2    4    4    0    0 -0.19011560770E+03  0.46959170393E+02 -0.36561224516E+03  0.42464512743E+03  0.91115654314E+02 0.  0.
         11    1    3    3    0    0 -0.22454681118E+03 -0.28273070911E+02 -0.83811506639E+02  0.24134002070E+03  0.00000000000E+00 0.  1.
        -11    1    3    3    0    0 -0.38417828331E+03 -0.40642104860E+02 -0.28068709531E+03  0.47752484702E+03  0.00000000000E+00 0. -1.
          2    1    5    5  502    0  0.63975042874E+03 -0.55515254316E+00 -0.29341923120E+03  0.70382935752E+03  0.00000000000E+00 0. -1.
          3    1    6    6  503    0 -0.19418519046E+03  0.41529343265E+02 -0.30689275177E+03  0.36553486241E+03  0.00000000000E+00 0. -1.
         -2    1    5    5    0  502  0.15909027344E+03  0.22511157920E+02 -0.32301243143E+02  0.16388971183E+03  0.00000000000E+00 0.  1.
         -3    1    6    6    0  503  0.40695827624E+01  0.54298271285E+01 -0.58719493392E+02  0.59110265020E+02  0.00000000000E+00 0.  1.
<mgrwt>
<rscale>  0 0.17118010E+04</rscale>
<asrwt>0</asrwt>
<pdfrwt beam="1">  1        1 0.23592772E+00 0.17118010E+04</pdfrwt>
<pdfrwt beam="2">  1       -1 0.73492134E-01 0.17118010E+04</pdfrwt>
<totfact> 0.10996271E+01</totfact>
</mgrwt>
</event>
<event>
12    1  0.4247462E-008  0.1405630E+04  0.7818608E-02  0.8949753E-01
         -1   -1    0    0    0  501 -0.00000000000E+00  0.00000000000E+00  0.66433705892E+03  0.66433705892E+03  0.00000000000E+00 0.  1.
          1   -1    0    0  501    0  0.00000000000E+00 -0.00000000000E+00 -0.74352138900E+03  0.74352138900E+03  0.00000000000E+00 0. -1.
         23    2    1    2    0    0 -0.41197511395E+03 -0.39099538117E+02 -0.64773200022E+02  0.42864744387E+03  0.91053804449E+02 0.  0.
        254    2    1    2    0    0  0.41197511395E+03  0.39099538117E+02 -0.14411130053E+02  0.97921100405E+03  0.88735237724E+03 0.  0.
         23    2    4    4    0    0 -0.15055506684E+03  0.49952939834E+02 -0.29324650386E+03  0.34451986110E+03  0.86823374252E+02 0.  0.
         23    2    4    4    0    0  0.56253018079E+03 -0.10853401717E+02  0.27883537380E+03  0.63469114295E+03  0.92334612304E+02 0.  0.
         11    1    3    3    0    0 -0.21407461057E+03 -0.38764092410E+02 -0.75947663425E+02  0.23043142436E+03  0.00000000000E+00 0.  1.
        -11    1    3    3    0    0 -0.19790050337E+03 -0.33544570778E+00  0.11174463403E+02  0.19821601951E+03  0.00000000000E+00 0. -1.
          4    1    5    5  502    0 -0.11262288562E+03 -0.45025929501E+01 -0.20698115380E+03  0.23568068596E+03  0.00000000000E+00 0. -1.
          1    1    6    6  503    0  0.18420120124E+02  0.59848534118E+01 -0.60378841198E+01  0.20287319694E+02  0.00000000000E+00 0. -1.
         -4    1    5    5    0  502 -0.37932181222E+02  0.54455532784E+02 -0.86265350057E+02  0.10883917513E+03  0.00000000000E+00 0.  1.
         -1    1    6    6    0  503  0.54411006066E+03 -0.16838255129E+02  0.28487325792E+03  0.61440382326E+03  0.00000000000E+00 0.  1.
<mgrwt>
<rscale>  0 0.14056298E+04</rscale>
<asrwt>0</asrwt>
<pdfrwt beam="1">  1        1 0.11438791E+00 0.14056298E+04</pdfrwt>
<pdfrwt beam="2">  1       -1 0.10220570E+00 0.14056298E+04</pdfrwt>
<totfact> 0.21941380E+01</totfact>
</mgrwt>
</event>
<event>
12    1  0.4247462E-008  0.1382730E+04  0.7818608E-02  0.8966415E-01
          1   -1    0    0  501    0  0.00000000000E+00  0.00000000000E+00  0.54180542279E+03  0.54180542279E+03  0.00000000000E+00 0. -1.
         -1   -1    0    0    0  501 -0.00000000000E+00 -0.00000000000E+00 -0.88220936842E+03  0.88220936842E+03  0.00000000000E+00 0.  1.
         23    2    1    2    0    0  0.69127329226E+02 -0.14922680184E+03  0.27830693894E+03  0.33593394361E+03  0.91376343616E+02 0.  0.
        254    2    1    2    0    0 -0.69127329226E+02  0.14922680184E+03 -0.61871088457E+03  0.10880808476E+04  0.87981222213E+03 0.  0.
         23    2    4    4    0    0 -0.36525209003E+03  0.23602763183E+03 -0.62411810765E+03  0.76585036446E+03  0.88798852423E+02 0.  0.
         23    2    4    4    0    0  0.29612476080E+03 -0.86800829990E+02  0.54072230771E+01  0.32223048314E+03  0.92622827419E+02 0.  0.
         13    1    3    3    0    0  0.76285713160E+02 -0.15878617642E+03  0.26222334919E+03  0.31590132116E+03  0.00000000000E+00 0. -1.
        -13    1    3    3    0    0 -0.71583839343E+01  0.95593745728E+01  0.16083589755E+02  0.20032622449E+02  0.00000000000E+00 0.  1.
          2    1    5    5  502    0 -0.25158794867E+03  0.20867158284E+03 -0.46590954604E+03  0.56913270025E+03  0.00000000000E+00 0. -1.
          2    1    6    6  503    0  0.90666952023E+01 -0.26081474261E+02  0.82112662648E+01  0.28807519073E+02  0.00000000000E+00 0.  1.
         -2    1    5    5    0  502 -0.11366414136E+03  0.27356048996E+02 -0.15820856161E+03  0.19671766421E+03  0.00000000000E+00 0.  1.
         -2    1    6    6    0  503  0.28705806560E+03 -0.60719355729E+02 -0.28040431877E+01  0.29342296407E+03  0.00000000000E+00 0. -1.
<mgrwt>
<rscale>  0 0.13827304E+04</rscale>
<asrwt>0</asrwt>
<pdfrwt beam="1">  1        1 0.83354681E-01 0.13827304E+04</pdfrwt>
<pdfrwt beam="2">  1       -1 0.13572452E+00 0.13827304E+04</pdfrwt>
<totfact> 0.17580597E+01</totfact>
</mgrwt>
</event>
<event>
12    1  0.4247462E-008  0.1157338E+04  0.7818608E-02  0.9151041E-01
         -2   -1    0    0    0  501 -0.00000000000E+00  0.00000000000E+00  0.13390309337E+03  0.13390309337E+03  0.00000000000E+00 0.  1.
          2   -1    0    0  501    0  0.00000000000E+00 -0.00000000000E+00 -0.25007473452E+04  0.25007473452E+04  0.00000000000E+00 0. -1.
         23    2    1    2    0    0  0.17368156913E+03 -0.53469467710E+02 -0.75901141453E+03  0.78567147107E+03  0.90316452737E+02 0.  0.
        254    2    1    2    0    0 -0.17368156913E+03  0.53469467710E+02 -0.16078328373E+04  0.18489789675E+04  0.89474718112E+03 0.  0.
         23    2    4    4    0    0 -0.12723310887E+02 -0.32040772938E+03 -0.21961379224E+03  0.39946772841E+03  0.92310631061E+02 0.  0.
         23    2    4    4    0    0 -0.16095825825E+03  0.37387719709E+03 -0.13882190450E+04  0.14495112391E+04  0.90768914284E+02 0.  0.
         11    1    3    3    0    0  0.34456395707E+02 -0.35398321488E+02 -0.34464952982E+03  0.34817177194E+03  0.00000000000E+00 0. -1.
        -11    1    3    3    0    0  0.13922517343E+03 -0.18071146222E+02 -0.41436188471E+03  0.43749969913E+03  0.00000000000E+00 0.  1.
          2    1    5    5  502    0  0.15373194623E+02 -0.15538063343E+03 -0.15505429969E+03  0.22004843151E+03  0.00000000000E+00 0. -1.
          4    1    6    6  503    0 -0.28996170173E+02  0.23040168717E+02 -0.72097840804E+02  0.81053845732E+02  0.00000000000E+00 0. -1.
         -2    1    5    5    0  502 -0.28096505510E+02 -0.16502709595E+03 -0.64559492554E+02  0.17941929689E+03  0.00000000000E+00 0.  1.
         -4    1    6    6    0  503 -0.13196208807E+03  0.35083702838E+03 -0.13161212042E+04  0.13684573933E+04  0.00000000000E+00 0.  1.
<mgrwt>
<rscale>  0 0.11573380E+04</rscale>
<asrwt>0</asrwt>
<pdfrwt beam="1">  1        2 0.38473034E+00 0.11573380E+04</pdfrwt>
<pdfrwt beam="2">  1       -2 0.20600477E-01 0.11573380E+04</pdfrwt>
<totfact> 0.70325181E+01</totfact>
</mgrwt>
</event>
<event>
12    1  0.4247462E-008  0.1893140E+04  0.7818608E-02  0.8658279E-01
          2   -1    0    0  501    0  0.00000000000E+00  0.00000000000E+00  0.75807195550E+03  0.75807195550E+03  0.00000000000E+00 0. -1.
         -2   -1    0    0    0  501 -0.00000000000E+00 -0.00000000000E+00 -0.11819385736E+04  0.11819385736E+04  0.00000000000E+00 0.  1.
         23    2    1    2    0    0  0.40180343875E+03 -0.22822494647E+02 -0.78636145101E+03  0.88845520557E+03  0.94981319312E+02 0.  0.
        254    2    1    2    0    0 -0.40180343875E+03  0.22822494647E+02  0.36249483293E+03  0.10515553235E+04  0.90133191712E+03 0.  0.
         23    2    4    4    0    0  0.68850452764E+02  0.35775896041E+03  0.25614191473E+02  0.37647515342E+03  0.91354232163E+02 0.  0.
         23    2    4    4    0    0 -0.47065389152E+03 -0.33493646576E+03  0.33688064146E+03  0.67508017008E+03  0.92450785557E+02 0.  0.
         13    1    3    3    0    0  0.11418175860E+03  0.37819719811E+01 -0.14153837258E+03  0.18189251832E+03  0.00000000000E+00 0. -1.
        -13    1    3    3    0    0  0.28762168016E+03 -0.26604466628E+02 -0.64482307843E+03  0.70656268726E+03  0.00000000000E+00 0.  1.
          2    1    5    5  502    0 -0.21618964553E+02  0.99677081145E+02  0.11347370859E+02  0.10262389078E+03  0.00000000000E+00 0. -1.
          1    1    6    6  503    0 -0.43561420299E+03 -0.32954562478E+03  0.29709940950E+03  0.62179426806E+03  0.00000000000E+00 0. -1.
         -2    1    5    5    0  502  0.90469417317E+02  0.25808187927E+03  0.14266820613E+02  0.27385126263E+03  0.00000000000E+00 0.  1.
         -1    1    6    6    0  503 -0.35039688524E+02 -0.53908409812E+01  0.39781231966E+02  0.53285902029E+02  0.00000000000E+00 0.  1.
<mgrwt>
<rscale>  0 0.18931397E+04</rscale>
<asrwt>0</asrwt>
<pdfrwt beam="1">  1        2 0.11662646E+00 0.18931397E+04</pdfrwt>
<pdfrwt beam="2">  1       -2 0.18183670E+00 0.18931397E+04</pdfrwt>
<totfact> 0.60994239E+00</totfact>
</mgrwt>
</event>
<event>
12    1  0.4247462E-008  0.1241459E+04  0.7818608E-02  0.9077322E-01
         -1   -1    0    0    0  501 -0.00000000000E+00  0.00000000000E+00  0.14557640966E+03  0.14557640966E+03  0.00000000000E+00 0.  1.
          1   -1    0    0  501    0  0.00000000000E+00 -0.00000000000E+00 -0.26467561681E+04  0.26467561681E+04  0.00000000000E+00 0. -1.
         23    2    1    2    0    0  0.12727194104E+03 -0.19375920999E+03 -0.22216556844E+03  0.32698268230E+03  0.61800940862E+02 0.  0.
        254    2    1    2    0    0 -0.12727194104E+03  0.19375920999E+03 -0.22790141900E+04  0.24653498954E+04  0.91120999249E+03 0.  0.
         23    2    4    4    0    0  0.10221733779E+03  0.13456897902E+03 -0.18647320167E+02  0.19077519902E+03  0.86546286761E+02 0.  0.
         23    2    4    4    0    0 -0.22948927883E+03  0.59190230972E+02 -0.22603668698E+04  0.22745746964E+04  0.90900225206E+02 0.  0.
         13    1    3    3    0    0  0.68674910138E+02 -0.15252653243E+03 -0.14154717109E+03  0.21912596382E+03  0.00000000000E+00 0.  1.
        -13    1    3    3    0    0  0.58597030904E+02 -0.41232677562E+02 -0.80618397355E+02  0.10785671848E+03  0.00000000000E+00 0. -1.
          2    1    6    6  502    0 -0.21735937536E+03  0.26745809263E+02 -0.19195754095E+04  0.19320274815E+04  0.00000000000E+00 0. -1.
          2    1    5    5  503    0  0.64245915180E+02  0.11377427333E+03 -0.47189286015E+02  0.13892066658E+03  0.00000000000E+00 0. -1.
         -2    1    5    5    0  503  0.37971422607E+02  0.20794705688E+02  0.28541965848E+02  0.51854532433E+02  0.00000000000E+00 0.  1.
         -2    1    6    6    0  502 -0.12129903469E+02  0.32444421710E+02 -0.34079146031E+03  0.34254721497E+03  0.00000000000E+00 0.  1.
<mgrwt>
<rscale>  0 0.12414592E+04</rscale>
<asrwt>0</asrwt>
<pdfrwt beam="1">  1        1 0.40719323E+00 0.12414592E+04</pdfrwt>
<pdfrwt beam="2">  1       -1 0.22396372E-01 0.12414592E+04</pdfrwt>
<totfact> 0.17970832E+01</totfact>
</mgrwt>
</event>
<event>
12    1  0.4247462E-008  0.2359913E+04  0.7818608E-02  0.8454666E-01
          1   -1    0    0  501    0  0.00000000000E+00  0.00000000000E+00  0.10049334358E+04  0.10049334358E+04  0.00000000000E+00 0. -1.
         -1   -1    0    0    0  501 -0.00000000000E+00 -0.00000000000E+00 -0.13854622895E+04  0.13854622895E+04  0.00000000000E+00 0.  1.
         23    2    1    2    0    0 -0.77984981568E+03 -0.64578210774E+03 -0.12948296179E+03  0.10250092625E+04  0.93155167207E+02 0.  0.
        254    2    1    2    0    0  0.77984981568E+03  0.64578210774E+03 -0.25104589191E+03  0.13653864628E+04  0.88094034260E+03 0.  0.
         23    2    4    4    0    0 -0.52845221631E+02  0.24089852737E+03  0.19997857658E+03  0.33127019772E+03  0.94465839677E+02 0.  0.
         23    2    4    4    0    0  0.83269503731E+03  0.40488358037E+03 -0.45102446849E+03  0.10341162651E+04  0.93067930558E+02 0.  0.
         11    1    3    3    0    0 -0.62220727551E+03 -0.50471994028E+03 -0.64767427284E+02  0.80379035292E+03  0.00000000000E+00 0. -1.
        -11    1    3    3    0    0 -0.15764254017E+03 -0.14106216746E+03 -0.64715534509E+02  0.22121890960E+03  0.00000000000E+00 0.  1.
          2    1    5    5  502    0 -0.69106030581E+02  0.11521763118E+03  0.12780113748E+03  0.18542889942E+03  0.00000000000E+00 0. -1.
          4    1    6    6  503    0  0.42753686120E+03  0.18825575891E+03 -0.27521866863E+03  0.54219305972E+03  0.00000000000E+00 0. -1.
         -2    1    5    5    0  502  0.16260808950E+02  0.12568089619E+03  0.72177439097E+02  0.14584129830E+03  0.00000000000E+00 0.  1.
         -4    1    6    6    0  503  0.40515817611E+03  0.21662782146E+03 -0.17580579986E+03  0.49192320535E+03  0.00000000000E+00 0.  1.
<mgrwt>
<rscale>  0 0.23599130E+04</rscale>
<asrwt>0</asrwt>
<pdfrwt beam="1">  1        1 0.15460514E+00 0.23599130E+04</pdfrwt>
<pdfrwt beam="2">  1       -1 0.21314804E+00 0.23599130E+04</pdfrwt>
<totfact> 0.16504908E+00</totfact>
</mgrwt>
</event>
<event>
12    1  0.4247462E-008  0.2165563E+04  0.7818608E-02  0.8532900E-01
         -2   -1    0    0    0  501 -0.00000000000E+00  0.00000000000E+00  0.33813860269E+03  0.33813860269E+03  0.00000000000E+00 0.  1.
          2   -1    0    0  501    0  0.00000000000E+00 -0.00000000000E+00 -0.34672647167E+04  0.34672647167E+04  0.00000000000E+00 0. -1.
         23    2    1    2    0    0  0.22220199074E+03  0.44073284614E+02 -0.27796427383E+04  0.27903461301E+04  0.91113085884E+02 0.  0.
        254    2    1    2    0    0 -0.22220199074E+03 -0.44073284614E+02 -0.34948337568E+03  0.10150571892E+04  0.92568152643E+03 0.  0.
         23    2    4    4    0    0  0.76203293052E+02 -0.68844293525E+02 -0.59909739436E+03  0.61455981145E+03  0.90661983707E+02 0.  0.
         23    2    4    4    0    0 -0.29840528379E+03  0.24771008911E+02  0.24961401868E+03  0.40049737776E+03  0.91824152584E+02 0.  0.
         13    1    3    3    0    0 -0.33078299277E+01  0.58753260943E+01 -0.17566021476E+02  0.18815586784E+02  0.00000000000E+00 0.  1.
        -13    1    3    3    0    0  0.22550982067E+03  0.38197958520E+02 -0.27620767168E+04  0.27715305434E+04  0.00000000000E+00 0. -1.
          4    1    5    5  502    0  0.33224413481E+01 -0.39194268607E+02 -0.75977635060E+02  0.85556007021E+02  0.00000000000E+00 0. -1.
          1    1    6    6  503    0 -0.43146475567E+02  0.32740025662E+02  0.68913270362E+02  0.87650250805E+02  0.00000000000E+00 0. -1.
         -4    1    5    5    0  502  0.72880851704E+02 -0.29650024917E+02 -0.52311975930E+03  0.52900380442E+03  0.00000000000E+00 0.  1.
         -1    1    6    6    0  503 -0.25525880823E+03 -0.79690167511E+01  0.18070074831E+03  0.31284712696E+03  0.00000000000E+00 0.  1.
<mgrwt>
<rscale>  0 0.21655632E+04</rscale>
<asrwt>0</asrwt>
<pdfrwt beam="1">  1        2 0.53342534E+00 0.21655632E+04</pdfrwt>
<pdfrwt beam="2">  1       -2 0.52021324E-01 0.21655632E+04</pdfrwt>
<totfact> 0.27503023E+00</totfact>
</mgrwt>
</event>
<event>
12    1  0.4247462E-008  0.2216726E+04  0.7818608E-02  0.8511498E-01
          2   -1    0    0  501    0  0.00000000000E+00  0.00000000000E+00  0.49911846524E+03  0.49911846524E+03  0.00000000000E+00 0. -1.
         -2   -1    0    0    0  501 -0.00000000000E+00 -0.00000000000E+00 -0.24612771309E+04  0.24612771309E+04  0.00000000000E+00 0.  1.
         23    2    1    2    0    0  0.64181793250E+03  0.25456303121E+03 -0.16255560642E+04  0.17683890887E+04  0.89637357301E+02 0.  0.
        254    2    1    2    0    0 -0.64181793250E+03 -0.25456303121E+03 -0.33660260145E+03  0.11920065074E+04  0.91150732698E+03 0.  0.
         23    2    4    4    0    0 -0.25328688905E+03 -0.50349312134E+03 -0.42765729305E+03  0.71279792172E+03  0.86778715778E+02 0.  0.
         23    2    4    4    0    0 -0.38853104345E+03  0.24893009013E+03  0.91054691594E+02  0.47920858571E+03  0.91800600558E+02 0.  0.
         13    1    3    3    0    0  0.41080514767E+00 -0.13997362104E+01  0.66868287333E+00  0.16047302306E+01  0.00000000000E+00 0. -1.
        -13    1    3    3    0    0  0.64140712735E+03  0.25596276742E+03 -0.16262247471E+04  0.17667843584E+04  0.00000000000E+00 0.  1.
          2    1    5    5  502    0 -0.23643201664E+03 -0.44245167982E+03 -0.40758837496E+03  0.64636821617E+03  0.00000000000E+00 0. -1.
          4    1    6    6  503    0 -0.35936929247E+03  0.22781653017E+03  0.56364849391E+02  0.42921283302E+03  0.00000000000E+00 0. -1.
         -2    1    5    5    0  502 -0.16854872412E+02 -0.61041441521E+02 -0.20068918086E+02  0.66429705555E+02  0.00000000000E+00 0.  1.
         -4    1    6    6    0  503 -0.29161750977E+02  0.21113559968E+02  0.34689842204E+02  0.49995752687E+02  0.00000000000E+00 0.  1.
<mgrwt>
<rscale>  0 0.22167263E+04</rscale>
<asrwt>0</asrwt>
<pdfrwt beam="1">  1        2 0.76787456E-01 0.22167263E+04</pdfrwt>
<pdfrwt beam="2">  1       -2 0.37865802E+00 0.22167263E+04</pdfrwt>
<totfact> 0.57618846E-01</totfact>
</mgrwt>
</event>
<event>
12    1  0.4247462E-008  0.1379508E+04  0.7818608E-02  0.8968787E-01
         -1   -1    0    0    0  501 -0.00000000000E+00  0.00000000000E+00  0.30709554509E+03  0.30709554509E+03  0.00000000000E+00 0.  1.
          1   -1    0    0  501    0  0.00000000000E+00 -0.00000000000E+00 -0.15492263973E+04  0.15492263973E+04  0.00000000000E+00 0. -1.
         23    2    1    2    0    0 -0.23594625419E+03 -0.23089875537E+02 -0.72634286371E+03  0.77126179466E+03  0.10519991928E+03 0.  0.
        254    2    1    2    0    0  0.23594625419E+03  0.23089875537E+02 -0.51578798845E+03  0.10850601477E+04  0.92472401173E+03 0.  0.
         23    2    4    4    0    0 -0.13224728272E+03 -0.37214489960E+03 -0.19414231474E+03  0.44961013561E+03  0.92069895121E+02 0.  0.
         23    2    4    4    0    0  0.36819353691E+03  0.39523477514E+03 -0.32164567371E+03  0.63545001208E+03  0.92540641528E+02 0.  0.
         11    1    3    3    0    0 -0.22604687809E+03 -0.54156699243E+00 -0.69812649647E+03  0.73381066323E+03  0.00000000000E+00 0. -1.
        -11    1    3    3    0    0 -0.98993761011E+01 -0.22548308545E+02 -0.28216367242E+02  0.37451131435E+02  0.00000000000E+00 0.  1.
          4    1    5    5  502    0 -0.60965053808E+02 -0.25204707239E+03 -0.86771550848E+02  0.27344792287E+03  0.00000000000E+00 0. -1.
          1    1    6    6  503    0  0.42358110780E+02  0.20368646333E+02 -0.52746667846E+02  0.70649149118E+02  0.00000000000E+00 0. -1.
         -4    1    5    5    0  502 -0.71282228910E+02 -0.12009782721E+03 -0.10737076389E+03  0.17616221274E+03  0.00000000000E+00 0.  1.
         -1    1    6    6    0  503  0.32583542613E+03  0.37486612881E+03 -0.26889900586E+03  0.56480086296E+03  0.00000000000E+00 0.  1.
<mgrwt>
<rscale>  0 0.13795079E+04</rscale>
<asrwt>0</asrwt>
<pdfrwt beam="1">  1        1 0.23834252E+00 0.13795079E+04</pdfrwt>
<pdfrwt beam="2">  1       -1 0.47245469E-01 0.13795079E+04</pdfrwt>
<totfact> 0.26397262E+01</totfact>
</mgrwt>
</event>
<event>
12    1  0.5969489E-008  0.2495221E+04  0.7818608E-02  0.8404690E-01
          1   -1    0    0  501    0  0.00000000000E+00  0.00000000000E+00  0.16391729003E+04  0.16391729003E+04  0.00000000000E+00 0. -1.
         -1   -1    0    0    0  501 -0.00000000000E+00 -0.00000000000E+00 -0.94958410905E+03  0.94958410905E+03  0.00000000000E+00 0.  1.
         23    2    1    2    0    0  0.10642978540E+04 -0.16847436862E+03  0.19902213275E+03  0.10993735013E+04  0.88874918404E+02 0.  0.
        254    2    1    2    0    0 -0.10642978540E+04  0.16847436862E+03  0.49056665851E+03  0.14893835081E+04  0.90360060467E+03 0.  0.
         23    2    4    4    0    0 -0.15408179893E+03  0.35198233777E+03 -0.69215343276E+02  0.40137010925E+03  0.93136641514E+02 0.  0.
         23    2    4    4    0    0 -0.91021605507E+03 -0.18350796915E+03  0.55978200179E+03  0.10880133988E+04  0.90823041239E+02 0.  0.
         13    1    3    3    0    0  0.33184174949E+03 -0.52749850028E+02  0.10419810592E+03  0.35179360236E+03  0.00000000000E+00 0. -1.
        -13    1    3    3    0    0  0.73245610450E+03 -0.11572451860E+03  0.94824026839E+02  0.74757989893E+03  0.00000000000E+00 0.  1.
          1    1    5    5  502    0 -0.20919621397E+02  0.23070281881E+01 -0.13214871526E+01  0.21087893843E+02  0.00000000000E+00 0. -1.
          3    1    6    6  503    0 -0.18651404443E+03 -0.56445658610E+02  0.81090375095E+02  0.21106693269E+03  0.00000000000E+00 0. -1.
         -1    1    5    5    0  502 -0.13316217753E+03  0.34967530959E+03 -0.67893856123E+02  0.38028221541E+03  0.00000000000E+00 0.  1.
         -3    1    6    6    0  503 -0.72370201064E+03 -0.12706231054E+03  0.47869162669E+03  0.87694646612E+03  0.00000000000E+00 0.  1.
<mgrwt>
<rscale>  0 0.24952215E+04</rscale>
<asrwt>0</asrwt>
<pdfrwt beam="1">  1        1 0.25218045E+00 0.24952215E+04</pdfrwt>
<pdfrwt beam="2">  1       -1 0.14608986E+00 0.24952215E+04</pdfrwt>
<totfact> 0.17459891E+00</totfact>
</mgrwt>
</event>
<event>
12    1  0.4247462E-008  0.1970410E+04  0.7818608E-02  0.8620581E-01
         -1   -1    0    0    0  501 -0.00000000000E+00  0.00000000000E+00  0.41770415577E+03  0.41770415577E+03  0.00000000000E+00 0.  1.
          1   -1    0    0  501    0  0.00000000000E+00 -0.00000000000E+00 -0.23237239717E+04  0.23237239717E+04  0.00000000000E+00 0. -1.
         23    2    1    2    0    0 -0.19212128031E+03  0.64877987571E+03 -0.42801979948E+03  0.80588735818E+03  0.91801807436E+02 0.  0.
        254    2    1    2    0    0  0.19212128031E+03 -0.64877987571E+03 -0.14780000165E+04  0.19355407693E+04  0.10507179010E+04 0.  0.
         23    2    4    4    0    0  0.10949154519E+03  0.26047175347E+03 -0.18587548334E+03  0.35067938210E+03  0.92695204279E+02 0.  0.
         23    2    4    4    0    0  0.82629735126E+02 -0.90925162919E+03 -0.12921245332E+04  0.15848613872E+04  0.92917217227E+02 0.  0.
         13    1    3    3    0    0 -0.56536673498E+02  0.11407594736E+03 -0.48155927959E+02  0.13612020649E+03  0.00000000000E+00 0. -1.
        -13    1    3    3    0    0 -0.13558460682E+03  0.53470392835E+03 -0.37986387152E+03  0.66976715169E+03  0.00000000000E+00 0.  1.
          2    1    5    5  502    0 -0.37845598305E+01  0.83879110701E+02 -0.78731584294E+02  0.11510295596E+03  0.00000000000E+00 0.  1.
          3    1    6    6  503    0  0.55470796843E+01 -0.56080179161E+03 -0.79347041654E+03  0.97166080578E+03  0.00000000000E+00 0. -1.
         -2    1    5    5    0  502  0.11327610502E+03  0.17659264277E+03 -0.10714389905E+03  0.23557642614E+03  0.00000000000E+00 0. -1.
         -3    1    6    6    0  503  0.77082655442E+02 -0.34844983758E+03 -0.49865411661E+03  0.61320058145E+03  0.00000000000E+00 0.  1.
<mgrwt>
<rscale>  0 0.19704103E+04</rscale>
<asrwt>0</asrwt>
<pdfrwt beam="1">  1        1 0.35749600E+00 0.19704103E+04</pdfrwt>
<pdfrwt beam="2">  1       -1 0.64262178E-01 0.19704103E+04</pdfrwt>
<totfact> 0.40950957E+00</totfact>
</mgrwt>
</event>
<event>
12    1  0.4247462E-008  0.2328988E+04  0.7818608E-02  0.8466579E-01
          1   -1    0    0  501    0  0.00000000000E+00  0.00000000000E+00  0.12233919283E+04  0.12233919283E+04  0.00000000000E+00 0. -1.
         -1   -1    0    0    0  501 -0.00000000000E+00 -0.00000000000E+00 -0.11084314170E+04  0.11084314170E+04  0.00000000000E+00 0.  1.
         23    2    1    2    0    0  0.63138408519E+03  0.55891599457E+03 -0.46148279543E+03  0.96563031544E+03  0.91883532739E+02 0.  0.
        254    2    1    2    0    0 -0.63138408519E+03 -0.55891599457E+03  0.57644330666E+03  0.13661930299E+04  0.90728361448E+03 0.  0.
         23    2    4    4    0    0 -0.68035360314E+03 -0.58365144993E+03  0.74328958534E+03  0.11683477504E+04  0.95010620357E+02 0.  0.
         23    2    4    4    0    0  0.48969517949E+02  0.24735455358E+02 -0.16684627869E+03  0.19784527944E+03  0.91078084329E+02 0.  0.
         11    1    3    3    0    0  0.54930594642E+03  0.49335907432E+03 -0.36777807044E+03  0.82486417554E+03  0.00000000000E+00 0.  1.
        -11    1    3    3    0    0  0.82078138773E+02  0.65556920253E+02 -0.93704724984E+02  0.14076613990E+03  0.00000000000E+00 0. -1.
          4    1    5    5  502    0 -0.36671749629E+02 -0.17270515275E+02  0.57910450024E+02  0.70687397326E+02  0.00000000000E+00 0.  1.
          3    1    6    6  503    0  0.63435627158E+02 -0.80269140147E+01 -0.13714269291E+03  0.15131631888E+03  0.00000000000E+00 0. -1.
         -4    1    5    5    0  502 -0.64368185351E+03 -0.56638093466E+03  0.68537913532E+03  0.10976603531E+04  0.00000000000E+00 0. -1.
         -3    1    6    6    0  503 -0.14466109209E+02  0.32762369373E+02 -0.29703585778E+02  0.46528960558E+02  0.00000000000E+00 0.  1.
<mgrwt>
<rscale>  0 0.23289878E+04</rscale>
<asrwt>0</asrwt>
<pdfrwt beam="1">  1        1 0.18821414E+00 0.23289878E+04</pdfrwt>
<pdfrwt beam="2">  1       -1 0.17052791E+00 0.23289878E+04</pdfrwt>
<totfact> 0.22591420E+00</totfact>
</mgrwt>
</event>
<event>
12    1  0.4247462E-008  0.2092514E+04  0.7818608E-02  0.8564548E-01
          2   -1    0    0  501    0  0.00000000000E+00  0.00000000000E+00  0.22780510851E+04  0.22780510851E+04  0.00000000000E+00 0. -1.
         -2   -1    0    0    0  501 -0.00000000000E+00 -0.00000000000E+00 -0.48052199714E+03  0.48052199714E+03  0.00000000000E+00 0.  1.
         23    2    1    2    0    0  0.38546746124E+03 -0.65171390769E+03  0.12072527461E+04  0.14279353940E+04  0.90686907533E+02 0.  0.
        254    2    1    2    0    0 -0.38546746124E+03  0.65171390769E+03  0.59027634185E+03  0.13306376883E+04  0.92133290214E+03 0.  0.
         23    2    4    4    0    0  0.22627566675E+03  0.35511394440E+03  0.46276360247E+03  0.63262939538E+03  0.93612014506E+02 0.  0.
         23    2    4    4    0    0 -0.61174312799E+03  0.29659996329E+03  0.12751273938E+03  0.69800829290E+03  0.93567544481E+02 0.  0.
         11    1    3    3    0    0  0.11576998958E+03 -0.19425808707E+03  0.44180537320E+03  0.49631732054E+03  0.00000000000E+00 0. -1.
        -11    1    3    3    0    0  0.26969747166E+03 -0.45745582061E+03  0.76544737290E+03  0.93161807341E+03  0.00000000000E+00 0.  1.
          4    1    5    5  502    0  0.11274853442E+03  0.21695961077E+03  0.32602334323E+03  0.40752291353E+03  0.00000000000E+00 0.  1.
          4    1    6    6  503    0  0.31417281263E+01  0.27096492158E+01 -0.14684433549E+01  0.44010203793E+01  0.00000000000E+00 0. -1.
         -4    1    5    5    0  502  0.11352713233E+03  0.13815433363E+03  0.13674025924E+03  0.22510648185E+03  0.00000000000E+00 0. -1.
         -4    1    6    6    0  503 -0.61488485612E+03  0.29389031407E+03  0.12898118274E+03  0.69360727252E+03  0.00000000000E+00 0.  1.
<mgrwt>
<rscale>  0 0.20925139E+04</rscale>
<asrwt>0</asrwt>
<pdfrwt beam="1">  1        2 0.35046939E+00 0.20925139E+04</pdfrwt>
<pdfrwt beam="2">  1       -2 0.73926463E-01 0.20925139E+04</pdfrwt>
<totfact> 0.70926361E+00</totfact>
</mgrwt>
</event>
<event>
12    1  0.4247462E-008  0.2343932E+04  0.7818608E-02  0.8460798E-01
          2   -1    0    0  501    0  0.00000000000E+00  0.00000000000E+00  0.10041236262E+04  0.10041236262E+04  0.00000000000E+00 0.  1.
         -2   -1    0    0    0  501 -0.00000000000E+00 -0.00000000000E+00 -0.13678643170E+04  0.13678643170E+04  0.00000000000E+00 0. -1.
         23    2    1    2    0    0  0.64177537176E+02  0.23945353472E+03 -0.11344205769E+04  0.11648268105E+04  0.91949450994E+02 0.  0.
        254    2    1    2    0    0 -0.64177537176E+02 -0.23945353472E+03  0.77067988610E+03  0.12071611327E+04  0.89545170824E+03 0.  0.
         23    2    4    4    0    0  0.16829841253E+03 -0.12588600807E+03  0.88324968977E+03  0.91349646478E+03  0.10086691237E+03 0.  0.
         23    2    4    4    0    0 -0.23247594971E+03 -0.11356752665E+03 -0.11256980366E+03  0.29366466788E+03  0.81389963514E+02 0.  0.
         11    1    3    3    0    0  0.53607396891E+02  0.14901868605E+03 -0.89037548364E+03  0.90434994535E+03  0.00000000000E+00 0. -1.
        -11    1    3    3    0    0  0.10570140285E+02  0.90434848669E+02 -0.24404509329E+03  0.26047686515E+03  0.00000000000E+00 0.  1.
          2    1    5    5  502    0  0.10111079183E+03 -0.17909971704E+02  0.32014180981E+03  0.33620668896E+03  0.00000000000E+00 0. -1.
          1    1    6    6  503    0 -0.22509589339E+03 -0.11597712782E+03 -0.88280277157E+02  0.26816461872E+03  0.00000000000E+00 0. -1.
         -2    1    5    5    0  502  0.67187620705E+02 -0.10797603637E+03  0.56310787996E+03  0.57728977583E+03  0.00000000000E+00 0.  1.
         -1    1    6    6    0  503 -0.73800563202E+01  0.24096011750E+01 -0.24289526507E+02  0.25500049157E+02  0.00000000000E+00 0.  1.
<mgrwt>
<rscale>  0 0.23439325E+04</rscale>
<asrwt>0</asrwt>
<pdfrwt beam="1">  1        2 0.15448056E+00 0.23439325E+04</pdfrwt>
<pdfrwt beam="2">  1       -2 0.21044066E+00 0.23439325E+04</pdfrwt>
<totfact> 0.25723147E+00</totfact>
</mgrwt>
</event>
<event>
12    1  0.4247462E-008  0.1487583E+04  0.7818608E-02  0.8892752E-01
         -1   -1    0    0    0  501 -0.00000000000E+00  0.00000000000E+00  0.14881782547E+04  0.14881782547E+04  0.00000000000E+00 0.  1.
          1   -1    0    0  501    0  0.00000000000E+00 -0.00000000000E+00 -0.37174705108E+03  0.37174705108E+03  0.00000000000E+00 0. -1.
         23    2    1    2    0    0  0.58114681281E+02 -0.40396930583E+03  0.62559205875E+03  0.75260345991E+03  0.92076205682E+02 0.  0.
        254    2    1    2    0    0 -0.58114681281E+02  0.40396930583E+03  0.49083914483E+03  0.11073218458E+04  0.90480389473E+03 0.  0.
         23    2    4    4    0    0  0.12659644788E+02 -0.22600607528E+03  0.38844532978E+03  0.45876596681E+03  0.91309503362E+02 0.  0.
         23    2    4    4    0    0 -0.70774326069E+02  0.62997538111E+03  0.10239381505E+03  0.64855587903E+03  0.90896913165E+02 0.  0.
         13    1    3    3    0    0  0.23189349589E+02 -0.35078903679E+03  0.56015318524E+03  0.66133371696E+03  0.00000000000E+00 0.  1.
        -13    1    3    3    0    0  0.34925331691E+02 -0.53180269042E+02  0.65438873519E+02  0.91269742941E+02  0.00000000000E+00 0. -1.
          2    1    5    5  502    0 -0.25714974363E+02 -0.18462770104E+03  0.27758399365E+03  0.33436734504E+03  0.00000000000E+00 0. -1.
          1    1    6    6  503    0 -0.21884448422E+02  0.44769015360E+03  0.41011526646E+02  0.45009704291E+03  0.00000000000E+00 0. -1.
         -2    1    5    5    0  502  0.38374619151E+02 -0.41378374241E+02  0.11086133612E+03  0.12439862176E+03  0.00000000000E+00 0.  1.
         -1    1    6    6    0  503 -0.48889877646E+02  0.18228522751E+03  0.61382288408E+02  0.19845883612E+03  0.00000000000E+00 0.  1.
<mgrwt>
<rscale>  0 0.14875831E+04</rscale>
<asrwt>0</asrwt>
<pdfrwt beam="1">  1        1 0.57191855E-01 0.14875831E+04</pdfrwt>
<pdfrwt beam="2">  1       -1 0.22895050E+00 0.14875831E+04</pdfrwt>
<totfact> 0.61436522E+00</totfact>
</mgrwt>
</event>
<event>
12    1  0.4247462E-008  0.3423421E+04  0.7818608E-02  0.8132182E-01
         -2   -1    0    0    0  501 -0.00000000000E+00  0.00000000000E+00  0.14368751214E+04  0.14368751214E+04  0.00000000000E+00 0.  1.
          2   -1    0    0  501    0  0.00000000000E+00 -0.00000000000E+00 -0.20391144921E+04  0.20391144921E+04  0.00000000000E+00 0. -1.
         23    2    1    2    0    0 -0.47829682983E+03  0.14503003991E+04  0.17538983887E+03  0.15395369057E+04  0.85282959423E+02 0.  0.
        254    2    1    2    0    0  0.47829682983E+03 -0.14503003991E+04 -0.77762920956E+03  0.19364527078E+04  0.90166667731E+03 0.  0.
         23    2    4    4    0    0 -0.23508050276E+03 -0.16652550594E+03 -0.14073804949E+03  0.33324777942E+03  0.90847658243E+02 0.  0.
         23    2    4    4    0    0  0.71337733259E+03 -0.12837748932E+04 -0.63689116007E+03  0.16032049284E+04  0.87467123292E+02 0.  0.
         13    1    3    3    0    0 -0.38795024204E+03  0.11681025968E+04  0.10731597785E+03  0.12355103343E+04  0.00000000000E+00 0.  1.
        -13    1    3    3    0    0 -0.90346587782E+02  0.28219780229E+03  0.68073861022E+02  0.30402657136E+03  0.00000000000E+00 0. -1.
          4    1    5    5  502    0 -0.15383306232E+03 -0.15675986241E+03 -0.93013270120E+02  0.23851568910E+03  0.00000000000E+00 0. -1.
          1    1    6    6  503    0  0.25640326281E+03 -0.38375134847E+03 -0.21618291668E+03  0.50964966801E+03  0.00000000000E+00 0. -1.
         -4    1    5    5    0  502 -0.81247440440E+02 -0.97656435283E+01 -0.47724779371E+02  0.94732090326E+02  0.00000000000E+00 0.  1.
         -1    1    6    6    0  503  0.45697406978E+03 -0.90002354472E+03 -0.42070824340E+03  0.10935552604E+04  0.00000000000E+00 0.  1.
<mgrwt>
<rscale>  0 0.34234210E+04</rscale>
<asrwt>0</asrwt>
<pdfrwt beam="1">  1        2 0.31370992E+00 0.34234210E+04</pdfrwt>
<pdfrwt beam="2">  1       -2 0.22105771E+00 0.34234210E+04</pdfrwt>
<totfact> 0.51137207E-01</totfact>
</mgrwt>
</event>
<event>
12    1  0.4247462E-008  0.1141158E+04  0.7818608E-02  0.9165980E-01
         -2   -1    0    0    0  501 -0.00000000000E+00  0.00000000000E+00  0.15758794695E+04  0.15758794695E+04  0.00000000000E+00 0. -1.
          2   -1    0    0  501    0  0.00000000000E+00 -0.00000000000E+00 -0.20658967884E+03  0.20658967884E+03  0.00000000000E+00 0.  1.
         23    2    1    2    0    0  0.26173159882E+03  0.50065040887E+02  0.22270597350E+03  0.35873275072E+03  0.89896038084E+02 0.  0.
        254    2    1    2    0    0 -0.26173159882E+03 -0.50065040887E+02  0.11465838171E+04  0.14237363976E+04  0.80085013703E+03 0.  0.
         23    2    4    4    0    0 -0.28496543842E+03 -0.37312363694E+03  0.84820423151E+03  0.97379441472E+03  0.91643844665E+02 0.  0.
         23    2    4    4    0    0  0.23233839595E+02  0.32305859605E+03  0.29837958559E+03  0.44994198285E+03  0.92253688522E+02 0.  0.
         13    1    3    3    0    0  0.10170206227E+02  0.26709410688E+02  0.23466728325E+02  0.36979900652E+02  0.00000000000E+00 0. -1.
        -13    1    3    3    0    0  0.25156139260E+03  0.23355630199E+02  0.19923924518E+03  0.32175285007E+03  0.00000000000E+00 0.  1.
          2    1    5    5  502    0  0.37149448869E+01 -0.24918647244E+02  0.59202012040E+02  0.64339863425E+02  0.00000000000E+00 0.  1.
          4    1    6    6  503    0  0.47457987840E+02  0.26571148379E+03  0.26911460164E+03  0.38115288540E+03  0.00000000000E+00 0. -1.
         -2    1    5    5    0  502 -0.28868038330E+03 -0.34820498969E+03  0.78900221947E+03  0.90945455130E+03  0.00000000000E+00 0. -1.
         -4    1    6    6    0  503 -0.24224148245E+02  0.57347112257E+02  0.29264983951E+02  0.68789097450E+02  0.00000000000E+00 0.  1.
<mgrwt>
<rscale>  0 0.11411581E+04</rscale>
<asrwt>0</asrwt>
<pdfrwt beam="1">  1        2 0.31783029E-01 0.11411581E+04</pdfrwt>
<pdfrwt beam="2">  1       -2 0.24244299E+00 0.11411581E+04</pdfrwt>
<totfact> 0.11853592E+01</totfact>
</mgrwt>
</event>
<event>
12    1  0.4247462E-008  0.1288726E+04  0.7818608E-02  0.9038554E-01
          1   -1    0    0  501    0  0.00000000000E+00  0.00000000000E+00  0.10880652603E+04  0.10880652603E+04  0.00000000000E+00 0. -1.
         -1   -1    0    0    0  501 -0.00000000000E+00 -0.00000000000E+00 -0.38159815772E+03  0.38159815772E+03  0.00000000000E+00 0.  1.
         23    2    1    2    0    0  0.40035779366E+02 -0.25705814842E+02  0.55786061540E+03  0.56706061309E+03  0.89920076488E+02 0.  0.
        254    2    1    2    0    0 -0.40035779366E+02  0.25705814842E+02  0.14860648716E+03  0.90260280492E+03  0.88901309489E+03 0.  0.
         23    2    4    4    0    0  0.35823100291E+03 -0.19383577309E+03  0.85275070814E+01  0.41737701366E+03  0.90714358207E+02 0.  0.
         23    2    4    4    0    0 -0.39826678227E+03  0.21954158793E+03  0.14007898008E+03  0.48522579126E+03  0.94905264083E+02 0.  0.
         13    1    3    3    0    0 -0.11214325125E+02 -0.25957566883E+01  0.72856288908E+01  0.13622754094E+02  0.00000000000E+00 0.  1.
        -13    1    3    3    0    0  0.51250104491E+02 -0.23110058154E+02  0.55057498651E+03  0.55343785900E+03  0.00000000000E+00 0. -1.
          4    1    5    5  502    0  0.21789823030E+02  0.59226090229E+01 -0.11986616294E+02  0.25564675932E+02  0.00000000000E+00 0. -1.
          3    1    6    6  503    0 -0.30440115591E+02  0.41728044587E+02 -0.45006641054E+01  0.51846758044E+02  0.00000000000E+00 0. -1.
         -4    1    5    5    0  502  0.33644117988E+03 -0.19975838211E+03  0.20514123376E+02  0.39181233773E+03  0.00000000000E+00 0.  1.
         -3    1    6    6    0  503 -0.36782666668E+03  0.17781354334E+03  0.14457964418E+03  0.43337903322E+03  0.00000000000E+00 0.  1.
<mgrwt>
<rscale>  0 0.12887260E+04</rscale>
<asrwt>0</asrwt>
<pdfrwt beam="1">  1        1 0.16739465E+00 0.12887260E+04</pdfrwt>
<pdfrwt beam="2">  1       -1 0.58707409E-01 0.12887260E+04</pdfrwt>
<totfact> 0.37428520E+01</totfact>
</mgrwt>
</event>
<event>
12    1  0.4247462E-008  0.1176987E+04  0.7818608E-02  0.9133242E-01
         -1   -1    0    0    0  501 -0.00000000000E+00  0.00000000000E+00  0.47495634885E+03  0.47495634885E+03  0.00000000000E+00 0.  1.
          1   -1    0    0  501    0  0.00000000000E+00 -0.00000000000E+00 -0.72917112311E+03  0.72917112311E+03  0.00000000000E+00 0. -1.
         23    2    1    2    0    0 -0.11059088848E+03 -0.15260110021E+03 -0.19411150681E+03  0.28579006199E+03  0.92082800016E+02 0.  0.
        254    2    1    2    0    0  0.11059088848E+03  0.15260110021E+03 -0.60103267462E+02  0.91833740997E+03  0.89677965821E+03 0.  0.
         23    2    4    4    0    0 -0.10193814710E+00  0.24558040968E+03  0.37113359695E+03  0.45470894123E+03  0.93329129682E+02 0.  0.
         23    2    4    4    0    0  0.11069282663E+03 -0.92979309462E+02 -0.43123686441E+03  0.46362846873E+03  0.89933697457E+02 0.  0.
         11    1    3    3    0    0 -0.59893583604E+02 -0.11686765265E+03 -0.17890440405E+03  0.22192808606E+03  0.00000000000E+00 0. -1.
        -11    1    3    3    0    0 -0.50697304876E+02 -0.35733447561E+02 -0.15207102760E+02  0.63861975937E+02  0.00000000000E+00 0.  1.
          1    1    5    5  502    0 -0.55110051451E+01  0.23351092065E+03  0.28934498670E+03  0.37185782575E+03  0.00000000000E+00 0. -1.
          3    1    6    6  503    0  0.25861330169E+02 -0.53079170798E+02 -0.76058489332E+02  0.96286554462E+02  0.00000000000E+00 0. -1.
         -1    1    5    5    0  502  0.54090669980E+01  0.12069489022E+02  0.81788610245E+02  0.82851115483E+02  0.00000000000E+00 0.  1.
         -3    1    6    6    0  503  0.84831496457E+02 -0.39900138664E+02 -0.35517837508E+03  0.36734191427E+03  0.00000000000E+00 0.  1.
<mgrwt>
<rscale>  0 0.11769868E+04</rscale>
<asrwt>0</asrwt>
<pdfrwt beam="1">  1        1 0.11218017E+00 0.11769868E+04</pdfrwt>
<pdfrwt beam="2">  1       -1 0.73070208E-01 0.11769868E+04</pdfrwt>
<totfact> 0.47909795E+01</totfact>
</mgrwt>
</event>
<event>
12    1  0.4247462E-008  0.1269284E+04  0.7818608E-02  0.9054284E-01
          1   -1    0    0  501    0  0.00000000000E+00  0.00000000000E+00  0.14557278967E+04  0.14557278967E+04  0.00000000000E+00 0. -1.
         -1   -1    0    0    0  501 -0.00000000000E+00 -0.00000000000E+00 -0.27667997421E+03  0.27667997421E+03  0.00000000000E+00 0.  1.
         23    2    1    2    0    0 -0.30788472880E+03 -0.11321763716E+03  0.17687673635E+03  0.38407396990E+03  0.92823460903E+02 0.  0.
        254    2    1    2    0    0  0.30788472880E+03  0.11321763716E+03  0.10021711861E+04  0.13483339010E+04  0.84026542395E+03 0.  0.
         23    2    4    4    0    0  0.30403529477E+03  0.20673459050E+02 -0.19399180029E+02  0.31847475415E+03  0.90470926102E+02 0.  0.
         23    2    4    4    0    0  0.38494340321E+01  0.92544178113E+02  0.10215703661E+04  0.10298591468E+04  0.91785654192E+02 0.  0.
         11    1    3    3    0    0 -0.24925102290E+03 -0.12726459384E+03  0.13541778398E+03  0.31090243724E+03  0.00000000000E+00 0.  1.
        -11    1    3    3    0    0 -0.58633705902E+02  0.14046956677E+02  0.41458952372E+02  0.73171532658E+02  0.00000000000E+00 0. -1.
          4    1    6    6  502    0 -0.78815900755E+01  0.18879416709E+02  0.35513286364E+02  0.40984696482E+02  0.00000000000E+00 0. -1.
          4    1    5    5  503    0  0.69133548803E+02 -0.32231230469E+02 -0.14473024803E+02  0.77638703200E+02  0.00000000000E+00 0. -1.
         -4    1    5    5    0  503  0.23490174597E+03  0.52904689519E+02 -0.49261552256E+01  0.24083605095E+03  0.00000000000E+00 0.  1.
         -4    1    6    6    0  502  0.11731024108E+02  0.73664761404E+02  0.98605707976E+03  0.98887445035E+03  0.00000000000E+00 0.  1.
<mgrwt>
<rscale>  0 0.12692845E+04</rscale>
<asrwt>0</asrwt>
<pdfrwt beam="1">  1        1 0.22395813E+00 0.12692845E+04</pdfrwt>
<pdfrwt beam="2">  1       -1 0.42566151E-01 0.12692845E+04</pdfrwt>
<totfact> 0.37552689E+01</totfact>
</mgrwt>
</event>
<event>
12    1  0.4247462E-008  0.2239688E+04  0.7818608E-02  0.8502089E-01
         -2   -1    0    0    0  501 -0.00000000000E+00  0.00000000000E+00  0.15103129992E+04  0.15103129992E+04  0.00000000000E+00 0.  1.
          2   -1    0    0  501    0  0.00000000000E+00 -0.00000000000E+00 -0.83032465308E+03  0.83032465308E+03  0.00000000000E+00 0. -1.
         23    2    1    2    0    0  0.76701479162E+03  0.47119887248E+03  0.10231743266E+02  0.90486438998E+03  0.91295168002E+02 0.  0.
        254    2    1    2    0    0 -0.76701479162E+03 -0.47119887248E+03  0.66975660283E+03  0.14357732623E+04  0.89584088190E+03 0.  0.
         23    2    4    4    0    0 -0.64799373620E+03 -0.67777288154E+03  0.30889735673E+03  0.99154117482E+03  0.92001974283E+02 0.  0.
         23    2    4    4    0    0 -0.11902105541E+03  0.20657400906E+03  0.36085924609E+03  0.44423208746E+03  0.10140966022E+03 0.  0.
         11    1    3    3    0    0  0.58959722765E+02  0.65952451710E+02  0.10121775679E+02  0.89041704488E+02  0.00000000000E+00 0.  1.
        -11    1    3    3    0    0  0.70805506885E+03  0.40524642076E+03  0.10996758718E+00  0.81582268549E+03  0.00000000000E+00 0. -1.
          4    1    5    5  502    0 -0.21242371706E+03 -0.28563915293E+03  0.10818899953E+03  0.37204626174E+03  0.00000000000E+00 0. -1.
          1    1    6    6  503    0 -0.88893163614E+02  0.17219980661E+03  0.20625350982E+03  0.28301109209E+03  0.00000000000E+00 0. -1.
         -4    1    5    5    0  502 -0.43557001914E+03 -0.39213372861E+03  0.20070835720E+03  0.61949491308E+03  0.00000000000E+00 0.  1.
         -1    1    6    6    0  503 -0.30127891801E+02  0.34374202448E+02  0.15460573627E+03  0.16122099537E+03  0.00000000000E+00 0.  1.
<mgrwt>
<rscale>  0 0.22396876E+04</rscale>
<asrwt>0</asrwt>
<pdfrwt beam="1">  1        2 0.12774225E+00 0.22396876E+04</pdfrwt>
<pdfrwt beam="2">  1       -2 0.23235585E+00 0.22396876E+04</pdfrwt>
<totfact> 0.24664968E+00</totfact>
</mgrwt>
</event>
<event>
12    1  0.4247462E-008  0.1071804E+04  0.7818608E-02  0.9233118E-01
         -2   -1    0    0    0  501 -0.00000000000E+00  0.00000000000E+00  0.21351810642E+03  0.21351810642E+03  0.00000000000E+00 0.  1.
          2   -1    0    0  501    0  0.00000000000E+00 -0.00000000000E+00 -0.13450431167E+04  0.13450431167E+04  0.00000000000E+00 0. -1.
         23    2    1    2    0    0 -0.87995692513E+02  0.61001435014E+02 -0.56626638134E+02  0.15134632656E+03  0.90745343912E+02 0.  0.
        254    2    1    2    0    0  0.87995692513E+02 -0.61001435014E+02 -0.10748983722E+04  0.14072148966E+04  0.90187739617E+03 0.  0.
         23    2    4    4    0    0  0.41494896306E+03 -0.16318651149E+03 -0.90775586392E+03  0.10153058240E+04  0.89513843626E+02 0.  0.
         23    2    4    4    0    0 -0.32695327055E+03  0.10218507647E+03 -0.16714250826E+03  0.39190907264E+03  0.91191404055E+02 0.  0.
         11    1    3    3    0    0 -0.19343755405E+02 -0.15379609969E+02 -0.40420081017E+02  0.47376114503E+02  0.00000000000E+00 0. -1.
        -11    1    3    3    0    0 -0.68651937108E+02  0.76381044983E+02 -0.16206557117E+02  0.10397021206E+03  0.00000000000E+00 0.  1.
          4    1    5    5  502    0  0.81859165186E+02 -0.49369564139E+02 -0.12778000162E+03  0.15958071814E+03  0.00000000000E+00 0. -1.
          1    1    6    6  503    0 -0.85655847773E+02  0.64215109138E+02 -0.75580929906E+02  0.13104572280E+03  0.00000000000E+00 0. -1.
         -4    1    5    5    0  502  0.33308979788E+03 -0.11381694735E+03 -0.77997586230E+03  0.85572510582E+03  0.00000000000E+00 0.  1.
         -1    1    6    6    0  503 -0.24129742278E+03  0.37969967335E+02 -0.91561578353E+02  0.26086334984E+03  0.00000000000E+00 0.  1.
<mgrwt>
<rscale>  0 0.10718042E+04</rscale>
<asrwt>0</asrwt>
<pdfrwt beam="1">  1        2 0.20692972E+00 0.10718042E+04</pdfrwt>
<pdfrwt beam="2">  1       -2 0.32848938E-01 0.10718042E+04</pdfrwt>
<totfact> 0.13367060E+02</totfact>
</mgrwt>
</event>
<event>
12    1  0.4247462E-008  0.1531649E+04  0.7818608E-02  0.8863675E-01
          2   -1    0    0  501    0  0.00000000000E+00  0.00000000000E+00  0.11483285427E+04  0.11483285427E+04  0.00000000000E+00 0. -1.
         -2   -1    0    0    0  501 -0.00000000000E+00 -0.00000000000E+00 -0.51073130491E+03  0.51073130491E+03  0.00000000000E+00 0.  1.
         23    2    1    2    0    0  0.35481846338E+03 -0.35506111876E+03  0.29355767807E+03  0.58938192263E+03  0.96074972542E+02 0.  0.
        254    2    1    2    0    0 -0.35481846338E+03  0.35506111876E+03  0.34403955969E+03  0.10696779250E+04  0.87970626035E+03 0.  0.
         23    2    4    4    0    0 -0.16488490149E+03  0.25894251790E+03  0.62709760828E+03  0.70406873625E+03  0.90681402341E+02 0.  0.
         23    2    4    4    0    0 -0.18993356189E+03  0.96118600866E+02 -0.28305804859E+03  0.36560918871E+03  0.90745119064E+02 0.  0.
         11    1    3    3    0    0  0.34287261940E+03 -0.35692556285E+03  0.29648658500E+03  0.57694175237E+03  0.00000000000E+00 0.  1.
        -11    1    3    3    0    0  0.11945843984E+02  0.18644440830E+01 -0.29289069232E+01  0.12440170255E+02  0.00000000000E+00 0. -1.
          2    1    5    5  502    0 -0.15191126044E+03  0.24617692200E+03  0.51655862356E+03  0.59204131575E+03  0.00000000000E+00 0.  1.
          3    1    6    6  503    0 -0.36815959861E+02 -0.71000796499E+01 -0.94610131245E+02  0.10176887032E+03  0.00000000000E+00 0. -1.
         -2    1    5    5    0  502 -0.12973641054E+02  0.12765595894E+02  0.11053898472E+03  0.11202742050E+03  0.00000000000E+00 0. -1.
         -3    1    6    6    0  503 -0.15311760203E+03  0.10321868052E+03 -0.18844791735E+03  0.26384031839E+03  0.00000000000E+00 0.  1.
<mgrwt>
<rscale>  0 0.15316492E+04</rscale>
<asrwt>0</asrwt>
<pdfrwt beam="1">  1        2 0.17666593E+00 0.15316492E+04</pdfrwt>
<pdfrwt beam="2">  1       -2 0.78574047E-01 0.15316492E+04</pdfrwt>
<totfact> 0.28236761E+01</totfact>
</mgrwt>
</event>
<event>
12    1  0.4247462E-008  0.4156343E+04  0.7818608E-02  0.7973729E-01
         -1   -1    0    0    0  501 -0.00000000000E+00  0.00000000000E+00  0.23759597034E+04  0.23759597034E+04  0.00000000000E+00 0.  1.
          1   -1    0    0  501    0  0.00000000000E+00 -0.00000000000E+00 -0.18177065182E+04  0.18177065182E+04  0.00000000000E+00 0. -1.
         23    2    1    2    0    0  0.38314965303E+03  0.51727593164E+03 -0.16248187583E+04  0.17501518741E+04  0.92830700716E+02 0.  0.
        254    2    1    2    0    0 -0.38314965303E+03 -0.51727593164E+03  0.21830719435E+04  0.24435143475E+04  0.88914633791E+03 0.  0.
         23    2    4    4    0    0 -0.30703680848E+03 -0.60596205540E+03  0.21902466814E+04  0.22949202678E+04  0.89537121380E+02 0.  0.
         23    2    4    4    0    0 -0.76112844552E+02  0.88686123754E+02 -0.71747379061E+01  0.14859407971E+03  0.91489507639E+02 0.  0.
         13    1    3    3    0    0  0.17141689798E+03  0.25039701189E+03 -0.64542986297E+03  0.71320552752E+03  0.00000000000E+00 0.  1.
        -13    1    3    3    0    0  0.21173275505E+03  0.26687891975E+03 -0.97938889534E+03  0.10369463466E+04  0.00000000000E+00 0. -1.
          1    1    5    5  502    0 -0.25228266267E+03 -0.40742352627E+03  0.15410979646E+04  0.16138845709E+04  0.00000000000E+00 0. -1.
          3    1    6    6  503    0 -0.16210674102E+02  0.19984960430E+02 -0.43444822567E+02  0.50493932369E+02  0.00000000000E+00 0. -1.
         -1    1    5    5    0  502 -0.54754145802E+02 -0.19853852913E+03  0.64914871681E+03  0.68103569698E+03  0.00000000000E+00 0.  1.
         -3    1    6    6    0  503 -0.59902170450E+02  0.68701163324E+02  0.36270084661E+02  0.98100147339E+02  0.00000000000E+00 0.  1.
<mgrwt>
<rscale>  0 0.41563433E+04</rscale>
<asrwt>0</asrwt>
<pdfrwt beam="1">  1        1 0.27964715E+00 0.41563433E+04</pdfrwt>
<pdfrwt beam="2">  1       -1 0.36553227E+00 0.41563433E+04</pdfrwt>
<totfact> 0.37471684E-02</totfact>
</mgrwt>
</event>
<event>
12    1  0.4247462E-008  0.5651040E+04  0.7818608E-02  0.7735241E-01
          1   -1    0    0  501    0  0.00000000000E+00  0.00000000000E+00  0.33034619331E+04  0.33034619331E+04  0.00000000000E+00 0. -1.
         -1   -1    0    0    0  501 -0.00000000000E+00 -0.00000000000E+00 -0.24167261228E+04  0.24167261228E+04  0.00000000000E+00 0.  1.
         23    2    1    2    0    0  0.12956641799E+04 -0.21401000129E+04  0.15909481914E+04  0.29661442763E+04  0.90122072630E+02 0.  0.
        254    2    1    2    0    0 -0.12956641799E+04  0.21401000129E+04 -0.70421238105E+03  0.27540437796E+04  0.91108085793E+03 0.  0.
         23    2    4    4    0    0 -0.11367115331E+04  0.10407925831E+04 -0.48457991297E+03  0.16180527384E+04  0.88964383587E+02 0.  0.
         23    2    4    4    0    0 -0.15895264679E+03  0.10993074298E+04 -0.21963246808E+03  0.11359910412E+04  0.92165369993E+02 0.  0.
         13    1    3    3    0    0  0.76025246875E+03 -0.12827999200E+04  0.89834075712E+03  0.17408548380E+04  0.00000000000E+00 0. -1.
        -13    1    3    3    0    0  0.53541171115E+03 -0.85730009292E+03  0.69260743423E+03  0.12252894383E+04  0.00000000000E+00 0.  1.
          2    1    6    6  502    0 -0.48552689038E+02  0.25475001634E+03 -0.13645635871E+02  0.25969431610E+03  0.00000000000E+00 0. -1.
          2    1    5    5  503    0 -0.86787176709E+03  0.80986570027E+03 -0.41022275809E+03  0.12559325491E+04  0.00000000000E+00 0. -1.
         -2    1    5    5    0  503 -0.26883976603E+03  0.23092688283E+03 -0.74357154877E+02  0.36212018930E+03  0.00000000000E+00 0.  1.
         -2    1    6    6    0  502 -0.11039995775E+03  0.84455741349E+03 -0.20598683221E+03  0.87629672508E+03  0.00000000000E+00 0.  1.
<mgrwt>
<rscale>  0 0.56510398E+04</rscale>
<asrwt>0</asrwt>
<pdfrwt beam="1">  1        1 0.50822491E+00 0.56510398E+04</pdfrwt>
<pdfrwt beam="2">  1       -1 0.37180402E+00 0.56510398E+04</pdfrwt>
<totfact> 0.27050415E-03</totfact>
</mgrwt>
</event>
<event>
12    1  0.4406636E-008  0.1676996E+04  0.7818608E-02  0.8774594E-01
          1   -1    0    0  501    0  0.00000000000E+00  0.00000000000E+00  0.24852872542E+04  0.24852872542E+04  0.00000000000E+00 0. -1.
         -1   -1    0    0    0  501 -0.00000000000E+00 -0.00000000000E+00 -0.28289650480E+03  0.28289650480E+03  0.00000000000E+00 0.  1.
         23    2    1    2    0    0  0.48550141982E+03 -0.27882440997E+03  0.86914143723E+03  0.10379439388E+04  0.92011422433E+02 0.  0.
        254    2    1    2    0    0 -0.48550141982E+03  0.27882440997E+03  0.13332493122E+04  0.17302398202E+04  0.95011653331E+03 0.  0.
         23    2    4    4    0    0  0.24142313185E+03  0.15073836088E+03  0.15120184626E+03  0.33367023249E+03  0.86409743119E+02 0.  0.
         23    2    4    4    0    0 -0.72692455167E+03  0.12808604909E+03  0.11820474659E+04  0.13965695877E+04  0.91351310520E+02 0.  0.
         13    1    3    3    0    0  0.47693392093E+03 -0.26545241423E+03  0.81027692613E+03  0.97697474183E+03  0.00000000000E+00 0. -1.
        -13    1    3    3    0    0  0.85674988859E+01 -0.13371995741E+02  0.58864511098E+02  0.60969196928E+02  0.00000000000E+00 0.  1.
          4    1    5    5  502    0  0.19390640799E+03  0.13255447248E+03  0.15691082251E+03  0.28247369693E+03  0.00000000000E+00 0. -1.
          3    1    6    6  503    0 -0.62008099849E+03  0.75683097021E+02  0.98584680967E+03  0.11670999563E+04  0.00000000000E+00 0. -1.
         -4    1    5    5    0  502  0.47516723861E+02  0.18183888404E+02 -0.57089762580E+01  0.51196535565E+02  0.00000000000E+00 0.  1.
         -3    1    6    6    0  503 -0.10684355318E+03  0.52402952072E+02  0.19620065624E+03  0.22946963144E+03  0.00000000000E+00 0.  1.
<mgrwt>
<rscale>  0 0.16769962E+04</rscale>
<asrwt>0</asrwt>
<pdfrwt beam="1">  1        1 0.38235187E+00 0.16769962E+04</pdfrwt>
<pdfrwt beam="2">  1       -1 0.43522541E-01 0.16769962E+04</pdfrwt>
<totfact> 0.69032706E+00</totfact>
</mgrwt>
</event>
<event>
12    1  0.4247462E-008  0.1943464E+04  0.7818608E-02  0.8633519E-01
          2   -1    0    0  501    0  0.00000000000E+00  0.00000000000E+00  0.21365797753E+04  0.21365797753E+04  0.00000000000E+00 0. -1.
         -2   -1    0    0    0  501 -0.00000000000E+00 -0.00000000000E+00 -0.44195084931E+03  0.44195084931E+03  0.00000000000E+00 0.  1.
         23    2    1    2    0    0  0.42888843476E+03  0.11443890268E+03  0.14933618721E+04  0.15603171751E+04  0.86130447742E+02 0.  0.
        254    2    1    2    0    0 -0.42888843476E+03 -0.11443890268E+03  0.20126705386E+03  0.10182134495E+04  0.89398470331E+03 0.  0.
         23    2    4    4    0    0  0.15130956069E+03  0.13682271991E+03 -0.16779073682E+03  0.28057761214E+03  0.94630995090E+02 0.  0.
         23    2    4    4    0    0 -0.58019799546E+03 -0.25126162259E+03  0.36905779068E+03  0.73763583731E+03  0.90226707220E+02 0.  0.
         11    1    3    3    0    0  0.19075420455E+03  0.72882670536E+01  0.65049124621E+03  0.67792267022E+03  0.00000000000E+00 0.  1.
        -11    1    3    3    0    0  0.23813423021E+03  0.10715063563E+03  0.84287062591E+03  0.88239450493E+03  0.00000000000E+00 0. -1.
          4    1    5    5  502    0  0.13230653736E+03  0.15110227967E+03 -0.15409105344E+03  0.25314219621E+03  0.00000000000E+00 0. -1.
          3    1    6    6  503    0 -0.41879246791E+03 -0.16179073473E+03  0.21767560991E+03  0.49894493100E+03  0.00000000000E+00 0. -1.
         -4    1    5    5    0  502  0.19003023339E+02 -0.14279559761E+02 -0.13699683379E+02  0.27435415938E+02  0.00000000000E+00 0.  1.
         -3    1    6    6    0  503 -0.16140552755E+03 -0.89470887856E+02  0.15138218077E+03  0.23869090630E+03  0.00000000000E+00 0.  1.
<mgrwt>
<rscale>  0 0.19434642E+04</rscale>
<asrwt>0</asrwt>
<pdfrwt beam="1">  1        2 0.32870458E+00 0.19434642E+04</pdfrwt>
<pdfrwt beam="2">  1       -2 0.67992439E-01 0.19434642E+04</pdfrwt>
<totfact> 0.10361714E+01</totfact>
</mgrwt>
</event>
<event>
12    1  0.4247462E-008  0.1744089E+04  0.7818608E-02  0.8736611E-01
         -2   -1    0    0    0  501 -0.00000000000E+00  0.00000000000E+00  0.31060617539E+03  0.31060617539E+03  0.00000000000E+00 0.  1.
          2   -1    0    0  501    0  0.00000000000E+00 -0.00000000000E+00 -0.24483146571E+04  0.24483146571E+04  0.00000000000E+00 0. -1.
         23    2    1    2    0    0 -0.14110537223E+03 -0.44610260075E+03 -0.11357236426E+03  0.48945590370E+03  0.88034898046E+02 0.  0.
        254    2    1    2    0    0  0.14110537223E+03  0.44610260075E+03 -0.20241361174E+04  0.22694649287E+04  0.91346909337E+03 0.  0.
         23    2    4    4    0    0  0.44787505828E+03  0.52807742998E+01 -0.11723156342E+04  0.12583475590E+04  0.92166581179E+02 0.  0.
         23    2    4    4    0    0 -0.30676968604E+03  0.44082182645E+03 -0.85182048321E+03  0.10111173697E+04  0.91261584501E+02 0.  0.
         11    1    3    3    0    0 -0.98190262982E+01 -0.81614760321E+02  0.10011087230E+02  0.82810652981E+02  0.00000000000E+00 0. -1.
        -11    1    3    3    0    0 -0.13128634594E+03 -0.36448784043E+03 -0.12358345149E+03  0.40664525072E+03  0.00000000000E+00 0.  1.
          2    1    5    5  502    0  0.85248284189E+02  0.33600601343E+02 -0.19245873134E+03  0.21315870528E+03  0.00000000000E+00 0. -1.
          3    1    6    6  503    0 -0.85158407514E+00 -0.22355485215E+01 -0.20721934519E+02  0.20859564781E+02  0.00000000000E+00 0. -1.
         -2    1    5    5    0  502  0.36262677409E+03 -0.28319827043E+02 -0.97985690286E+03  0.10451888537E+04  0.00000000000E+00 0.  1.
         -3    1    6    6    0  503 -0.30591810197E+03  0.44305737498E+03 -0.83109854869E+03  0.99025780495E+03  0.00000000000E+00 0.  1.
<mgrwt>
<rscale>  0 0.17440890E+04</rscale>
<asrwt>0</asrwt>
<pdfrwt beam="1">  1        2 0.37666379E+00 0.17440890E+04</pdfrwt>
<pdfrwt beam="2">  1       -2 0.47785566E-01 0.17440890E+04</pdfrwt>
<totfact> 0.14691517E+01</totfact>
</mgrwt>
</event>
<event>
12    1  0.4247462E-008  0.1610144E+04  0.7818608E-02  0.8814340E-01
         -2   -1    0    0    0  501 -0.00000000000E+00  0.00000000000E+00  0.26821389073E+03  0.26821389073E+03  0.00000000000E+00 0.  1.
          2   -1    0    0  501    0  0.00000000000E+00 -0.00000000000E+00 -0.24165076683E+04  0.24165076683E+04  0.00000000000E+00 0. -1.
         23    2    1    2    0    0  0.24541929689E+03  0.47926433404E+03 -0.56164747621E+03  0.78276691270E+03  0.85739249554E+02 0.  0.
        254    2    1    2    0    0 -0.24541929689E+03 -0.47926433404E+03 -0.15866463013E+04  0.19019546463E+04  0.90003336490E+03 0.  0.
         23    2    4    4    0    0  0.70376841604E+02 -0.53582779604E+03 -0.14335255727E+04  0.15346501408E+04  0.89950877118E+02 0.  0.
         23    2    4    4    0    0 -0.31579613850E+03  0.56563462004E+02 -0.15312072866E+03  0.36730450551E+03  0.92412206457E+02 0.  0.
         11    1    3    3    0    0  0.21670642150E+03  0.43594176019E+03 -0.46602974735E+03  0.67393665638E+03  0.00000000000E+00 0.  1.
        -11    1    3    3    0    0  0.28712875395E+02  0.43322573849E+02 -0.95617728860E+02  0.10883025632E+03  0.00000000000E+00 0. -1.
          2    1    5    5  502    0  0.85665992044E+02 -0.49708409910E+03 -0.13534758141E+04  0.14444126983E+04  0.00000000000E+00 0. -1.
          4    1    6    6  503    0 -0.26557280280E+03  0.47590687251E+02 -0.16316868534E+03  0.31530589429E+03  0.00000000000E+00 0. -1.
         -2    1    5    5    0  502 -0.15289150440E+02 -0.38743696940E+02 -0.80049758603E+02  0.90237442485E+02  0.00000000000E+00 0.  1.
         -4    1    6    6    0  503 -0.50223335700E+02  0.89727747533E+01  0.10047956683E+02  0.51998611223E+02  0.00000000000E+00 0.  1.
<mgrwt>
<rscale>  0 0.16101440E+04</rscale>
<asrwt>0</asrwt>
<pdfrwt beam="1">  1        2 0.37177039E+00 0.16101440E+04</pdfrwt>
<pdfrwt beam="2">  1       -2 0.41263677E-01 0.16101440E+04</pdfrwt>
<totfact> 0.20769606E+01</totfact>
</mgrwt>
</event>
<event>
12    1  0.4247462E-008  0.1182370E+04  0.7818608E-02  0.9128430E-01
         -2   -1    0    0    0  501 -0.00000000000E+00  0.00000000000E+00  0.19683879148E+03  0.19683879148E+03  0.00000000000E+00 0.  1.
          2   -1    0    0  501    0  0.00000000000E+00 -0.00000000000E+00 -0.17755627905E+04  0.17755627905E+04  0.00000000000E+00 0. -1.
         23    2    1    2    0    0  0.44674511827E+02  0.15939588367E+03 -0.49475138318E+02  0.19487918245E+03  0.90151243506E+02 0.  0.
        254    2    1    2    0    0 -0.44674511827E+02 -0.15939588367E+03 -0.15292488607E+04  0.17775223996E+04  0.89083160202E+03 0.  0.
         23    2    4    4    0    0 -0.35721377844E+03 -0.33124051833E+03 -0.11325235162E+04  0.12364552414E+04  0.94287245254E+02 0.  0.
         23    2    4    4    0    0  0.31253926662E+03  0.17184463466E+03 -0.39672534450E+03  0.54106715819E+03  0.90284544971E+02 0.  0.
         13    1    3    3    0    0  0.44505811858E+02  0.25364862378E+02  0.20950003146E+01  0.51269216484E+02  0.00000000000E+00 0. -1.
        -13    1    3    3    0    0  0.16869996923E+00  0.13403102129E+03 -0.51570138632E+02  0.14360996597E+03  0.00000000000E+00 0.  1.
          2    1    5    5  502    0 -0.23656882283E+03 -0.16574589043E+03 -0.72328887135E+03  0.77883457779E+03  0.00000000000E+00 0. -1.
          3    1    6    6  503    0  0.80429510692E+02  0.23499707469E+02 -0.47649600722E+02  0.96393085282E+02  0.00000000000E+00 0. -1.
         -2    1    5    5    0  502 -0.12064495561E+03 -0.16549462789E+03 -0.40923464488E+03  0.45762066359E+03  0.00000000000E+00 0.  1.
         -3    1    6    6    0  503  0.23210975592E+03  0.14834492719E+03 -0.34907574378E+03  0.44467407291E+03  0.00000000000E+00 0.  1.
<mgrwt>
<rscale>  0 0.11823699E+04</rscale>
<asrwt>0</asrwt>
<pdfrwt beam="1">  1        2 0.27316350E+00 0.11823699E+04</pdfrwt>
<pdfrwt beam="2">  1       -2 0.30282892E-01 0.11823699E+04</pdfrwt>
<totfact> 0.88629427E+01</totfact>
</mgrwt>
</event>
<event>
12    1  0.4247462E-008  0.2000059E+04  0.7818608E-02  0.8606593E-01
          1   -1    0    0  501    0  0.00000000000E+00  0.00000000000E+00  0.35688345066E+04  0.35688345066E+04  0.00000000000E+00 0. -1.
         -1   -1    0    0    0  501 -0.00000000000E+00 -0.00000000000E+00 -0.28022007171E+03  0.28022007171E+03  0.00000000000E+00 0.  1.
         23    2    1    2    0    0 -0.74834753386E+03  0.14291492697E+03  0.91206950017E+03  0.11920320901E+04  0.92849463861E+02 0.  0.
        254    2    1    2    0    0  0.74834753386E+03 -0.14291492697E+03  0.23765449347E+04  0.26570224882E+04  0.91178614170E+03 0.  0.
         23    2    4    4    0    0  0.14567115853E+03 -0.29587255286E+03  0.16985759351E+04  0.17326499011E+04  0.90304033428E+02 0.  0.
         23    2    4    4    0    0  0.60267637533E+03  0.15295762588E+03  0.67796899962E+03  0.92437258710E+03  0.90597277283E+02 0.  0.
         13    1    3    3    0    0 -0.68933005135E+03  0.11903732211E+03  0.86705831321E+03  0.11140628000E+04  0.00000000000E+00 0.  1.
        -13    1    3    3    0    0 -0.59017482505E+02  0.23877604868E+02  0.45011186964E+02  0.77969290156E+02  0.00000000000E+00 0. -1.
          3    1    5    5  502    0  0.25544316535E+02 -0.56124925973E+02  0.17244626753E+03  0.18313993176E+03  0.00000000000E+00 0. -1.
          3    1    6    6  503    0  0.12287005548E+03  0.51467574207E+02  0.19420330608E+03  0.23550134994E+03  0.00000000000E+00 0. -1.
         -3    1    5    5    0  502  0.12012684200E+03 -0.23974762688E+03  0.15261296676E+04  0.15495099693E+04  0.00000000000E+00 0.  1.
         -3    1    6    6    0  503  0.47980631984E+03  0.10149005167E+03  0.48376569353E+03  0.68887123716E+03  0.00000000000E+00 0.  1.
<mgrwt>
<rscale>  0 0.20000591E+04</rscale>
<asrwt>0</asrwt>
<pdfrwt beam="1">  1        1 0.54905143E+00 0.20000591E+04</pdfrwt>
<pdfrwt beam="2">  1       -1 0.43110783E-01 0.20000591E+04</pdfrwt>
<totfact> 0.10895984E+00</totfact>
</mgrwt>
</event>
<event>
12    1  0.4247462E-008  0.3359137E+04  0.7818608E-02  0.8148009E-01
         -1   -1    0    0    0  501 -0.00000000000E+00  0.00000000000E+00  0.16460714127E+04  0.16460714127E+04  0.00000000000E+00 0.  1.
          1   -1    0    0  501    0  0.00000000000E+00 -0.00000000000E+00 -0.17137467528E+04  0.17137467528E+04  0.00000000000E+00 0. -1.
         23    2    1    2    0    0  0.12212099349E+04  0.64071699205E+03  0.68568465933E+03  0.15427431424E+04  0.89559938060E+02 0.  0.
        254    2    1    2    0    0 -0.12212099349E+04 -0.64071699205E+03 -0.75335999943E+03  0.18170750231E+04  0.91232580903E+03 0.  0.
         23    2    4    4    0    0 -0.12901919871E+04 -0.41939771862E+03 -0.46684527768E+03  0.14375910085E+04  0.90739101390E+02 0.  0.
         23    2    4    4    0    0  0.68982052187E+02 -0.22131927343E+03 -0.28651472174E+03  0.37948401459E+03  0.90425036584E+02 0.  0.
         13    1    3    3    0    0  0.39044446823E+03  0.17829390715E+03  0.17551429937E+03  0.46372499327E+03  0.00000000000E+00 0.  1.
        -13    1    3    3    0    0  0.83076546664E+03  0.46242308490E+03  0.51017035996E+03  0.10790181492E+04  0.00000000000E+00 0. -1.
          4    1    5    5  502    0 -0.12588662120E+04 -0.39820808333E+03 -0.46460948136E+03  0.13997056074E+04  0.00000000000E+00 0. -1.
          1    1    6    6  503    0 -0.49026204774E+01 -0.75792940821E+02 -0.14403701818E+03  0.16283509503E+03  0.00000000000E+00 0. -1.
         -4    1    5    5    0  502 -0.31325775086E+02 -0.21189635290E+02 -0.22357963250E+01  0.37885401063E+02  0.00000000000E+00 0.  1.
         -1    1    6    6    0  503  0.73884672664E+02 -0.14552633261E+03 -0.14247770356E+03  0.21664891956E+03  0.00000000000E+00 0.  1.
<mgrwt>
<rscale>  0 0.33591365E+04</rscale>
<asrwt>0</asrwt>
<pdfrwt beam="1">  1        1 0.26365335E+00 0.33591365E+04</pdfrwt>
<pdfrwt beam="2">  1       -1 0.25324176E+00 0.33591365E+04</pdfrwt>
<totfact> 0.25567444E-01</totfact>
</mgrwt>
</event>
<event>
12    1  0.4247462E-008  0.2128969E+04  0.7818608E-02  0.8548589E-01
          1   -1    0    0  501    0  0.00000000000E+00  0.00000000000E+00  0.61379188962E+03  0.61379188962E+03  0.00000000000E+00 0. -1.
         -1   -1    0    0    0  501 -0.00000000000E+00 -0.00000000000E+00 -0.18461098174E+04  0.18461098174E+04  0.00000000000E+00 0.  1.
         23    2    1    2    0    0 -0.38230106530E+03 -0.46055593550E+03 -0.12106354100E+04  0.13537471784E+04  0.93420836972E+02 0.  0.
        254    2    1    2    0    0  0.38230106530E+03  0.46055593550E+03 -0.21682517779E+02  0.11061545286E+04  0.92996872818E+03 0.  0.
         23    2    4    4    0    0  0.11013590961E+03 -0.27429368530E+03 -0.64487630610E+02  0.31575071178E+03  0.90404165327E+02 0.  0.
         23    2    4    4    0    0  0.27216515569E+03  0.73484962080E+03  0.42805112831E+02  0.79040381685E+03  0.93957856784E+02 0.  0.
         13    1    3    3    0    0 -0.28288121407E+03 -0.38757429775E+03 -0.90894698382E+03  0.10278230572E+04  0.00000000000E+00 0.  1.
        -13    1    3    3    0    0 -0.99419851227E+02 -0.72981637749E+02 -0.30168842619E+03  0.32592412117E+03  0.00000000000E+00 0. -1.
          1    1    5    5  502    0 -0.66726516814E+01 -0.80060793155E+02 -0.87909037876E+00  0.80343186898E+02  0.00000000000E+00 0. -1.
          3    1    6    6  503    0 -0.12678629591E+01 -0.25134290242E+01  0.18822908544E+00  0.28213883340E+01  0.00000000000E+00 0. -1.
         -1    1    5    5    0  502  0.11680856129E+03 -0.19423289214E+03 -0.63608540231E+02  0.23540752488E+03  0.00000000000E+00 0.  1.
         -3    1    6    6    0  503  0.27343301865E+03  0.73736304982E+03  0.42616883745E+02  0.78758242852E+03  0.00000000000E+00 0.  1.
<mgrwt>
<rscale>  0 0.21289690E+04</rscale>
<asrwt>0</asrwt>
<pdfrwt beam="1">  1        1 0.94429522E-01 0.21289690E+04</pdfrwt>
<pdfrwt beam="2">  1       -1 0.28401689E+00 0.21289690E+04</pdfrwt>
<totfact> 0.12746220E+00</totfact>
</mgrwt>
</event>
<event>
12    1  0.4247462E-008  0.2718798E+04  0.7818608E-02  0.8328931E-01
          1   -1    0    0  501    0  0.00000000000E+00  0.00000000000E+00  0.22700756925E+04  0.22700756925E+04  0.00000000000E+00 0. -1.
         -1   -1    0    0    0  501 -0.00000000000E+00 -0.00000000000E+00 -0.81405469657E+03  0.81405469657E+03  0.00000000000E+00 0.  1.
         23    2    1    2    0    0 -0.35300296583E+03  0.10540180465E+04  0.11087327377E+04  0.15724563655E+04  0.88122650385E+02 0.  0.
        254    2    1    2    0    0  0.35300296583E+03 -0.10540180465E+04  0.34728825819E+03  0.15116740236E+04  0.96383820373E+03 0.  0.
         23    2    4    4    0    0  0.20677379257E+03  0.11967654696E+03 -0.48847743564E+02  0.26098655248E+03  0.93005383380E+02 0.  0.
         23    2    4    4    0    0  0.14622917326E+03 -0.11736945935E+04  0.39613600176E+03  0.12506874711E+04  0.91397202342E+02 0.  0.
         13    1    3    3    0    0 -0.19559230403E+03  0.60663063986E+03  0.57458646860E+03  0.85814141755E+03  0.00000000000E+00 0. -1.
        -13    1    3    3    0    0 -0.15741066180E+03  0.44738740664E+03  0.53414626913E+03  0.71431494797E+03  0.00000000000E+00 0.  1.
          4    1    5    5  502    0  0.12487545895E+03  0.21710469948E+02 -0.40341321054E+02  0.13301370959E+03  0.00000000000E+00 0. -1.
          3    1    6    6  503    0  0.15533143980E+03 -0.11298622756E+04  0.37083163302E+03  0.11992634064E+04  0.00000000000E+00 0.  1.
         -4    1    5    5    0  502  0.81898333622E+02  0.97966077008E+02 -0.85064225108E+01  0.12797284289E+03  0.00000000000E+00 0.  1.
         -3    1    6    6    0  503 -0.91022665408E+01 -0.43832317860E+02  0.25304368741E+02  0.51424064625E+02  0.00000000000E+00 0. -1.
<mgrwt>
<rscale>  0 0.27187981E+04</rscale>
<asrwt>0</asrwt>
<pdfrwt beam="1">  1        1 0.34924241E+00 0.27187981E+04</pdfrwt>
<pdfrwt beam="2">  1       -1 0.12523919E+00 0.27187981E+04</pdfrwt>
<totfact> 0.94704635E-01</totfact>
</mgrwt>
</event>
<event>
12    1  0.4247462E-008  0.4254838E+04  0.7818608E-02  0.7955022E-01
         -2   -1    0    0    0  501 -0.00000000000E+00  0.00000000000E+00  0.11497395053E+04  0.11497395053E+04  0.00000000000E+00 0.  1.
          2   -1    0    0  501    0  0.00000000000E+00 -0.00000000000E+00 -0.39364675904E+04  0.39364675904E+04  0.00000000000E+00 0. -1.
         23    2    1    2    0    0 -0.13335650536E+04 -0.12148966944E+04 -0.21522049672E+03  0.18190663888E+04  0.91175294379E+02 0.  0.
        254    2    1    2    0    0  0.13335650536E+04  0.12148966944E+04 -0.25715075883E+04  0.32671407069E+04  0.89843608091E+03 0.  0.
         23    2    4    4    0    0  0.51877691694E+02 -0.14968915573E+02 -0.61240213694E+03  0.62105082548E+03  0.88047641457E+02 0.  0.
         23    2    4    4    0    0  0.12816873619E+04  0.12298656100E+04 -0.19591054514E+04  0.26460898814E+04  0.91681942325E+02 0.  0.
         13    1    3    3    0    0 -0.27896617156E+03 -0.27831956054E+03 -0.13711629766E+02  0.39429926635E+03  0.00000000000E+00 0. -1.
        -13    1    3    3    0    0 -0.10545988821E+04 -0.93657713384E+03 -0.20150886696E+03  0.14247671224E+04  0.00000000000E+00 0.  1.
          1    1    5    5  502    0  0.64815325832E+02 -0.10574604706E+02 -0.59641756460E+03  0.60002229966E+03  0.00000000000E+00 0. -1.
          3    1    6    6  503    0  0.11107757389E+04  0.10394610439E+04 -0.16372262439E+04  0.22349075547E+04  0.00000000000E+00 0. -1.
         -1    1    5    5    0  502 -0.12937634138E+02 -0.43943108676E+01 -0.15984572346E+02  0.21028525820E+02  0.00000000000E+00 0.  1.
         -3    1    6    6    0  503  0.17091162302E+03  0.19040456601E+03 -0.32187920748E+03  0.41118232677E+03  0.00000000000E+00 0.  1.
<mgrwt>
<rscale>  0 0.42548383E+04</rscale>
<asrwt>0</asrwt>
<pdfrwt beam="1">  1        2 0.60561039E+00 0.42548383E+04</pdfrwt>
<pdfrwt beam="2">  1       -2 0.17688300E+00 0.42548383E+04</pdfrwt>
<totfact> 0.56463859E-02</totfact>
</mgrwt>
</event>
<event>
12    1  0.4247462E-008  0.1474362E+04  0.7818608E-02  0.8901683E-01
          1   -1    0    0  501    0  0.00000000000E+00  0.00000000000E+00  0.41109256000E+03  0.41109256000E+03  0.00000000000E+00 0. -1.
         -1   -1    0    0    0  501 -0.00000000000E+00 -0.00000000000E+00 -0.13219313977E+04  0.13219313977E+04  0.00000000000E+00 0.  1.
         23    2    1    2    0    0 -0.12836516844E+03  0.41841800365E+03 -0.48063351795E+03  0.65632990435E+03  0.90604208059E+02 0.  0.
        254    2    1    2    0    0  0.12836516844E+03 -0.41841800365E+03 -0.43020531970E+03  0.10766940533E+04  0.88467068736E+03 0.  0.
         23    2    4    4    0    0  0.23145839610E+03  0.16435653282E+03  0.58194227467E+02  0.30379628526E+03  0.91211599158E+02 0.  0.
         23    2    4    4    0    0 -0.10309322766E+03 -0.58277453647E+03 -0.48839954717E+03  0.77289776804E+03  0.92641611730E+02 0.  0.
         13    1    3    3    0    0 -0.78325029546E+01  0.61434913078E+02 -0.11863771987E+03  0.13383013570E+03  0.00000000000E+00 0.  1.
        -13    1    3    3    0    0 -0.12053266549E+03  0.35698309057E+03 -0.36199579808E+03  0.52249976865E+03  0.00000000000E+00 0. -1.
          2    1    5    5  502    0  0.80475597556E+00 -0.93051472242E+01  0.40135109169E+00  0.93485014704E+01  0.00000000000E+00 0. -1.
          4    1    6    6  503    0 -0.59144093960E+02 -0.50871386017E+03 -0.43142107677E+03  0.66963569264E+03  0.00000000000E+00 0.  1.
         -2    1    5    5    0  502  0.23065364013E+03  0.17366168004E+03  0.57792876375E+02  0.29444778379E+03  0.00000000000E+00 0.  1.
         -4    1    6    6    0  503 -0.43949133699E+02 -0.74060676304E+02 -0.56978470392E+02  0.10326207540E+03  0.00000000000E+00 0. -1.
<mgrwt>
<rscale>  0 0.14743625E+04</rscale>
<asrwt>0</asrwt>
<pdfrwt beam="1">  1        1 0.63245009E-01 0.14743625E+04</pdfrwt>
<pdfrwt beam="2">  1       -1 0.20337406E+00 0.14743625E+04</pdfrwt>
<totfact> 0.79981828E+00</totfact>
</mgrwt>
</event>
<event>
12    1  0.4247462E-008  0.2897981E+04  0.7818608E-02  0.8273479E-01
          1   -1    0    0  501    0  0.00000000000E+00  0.00000000000E+00  0.11524461631E+04  0.11524461631E+04  0.00000000000E+00 0. -1.
         -1   -1    0    0    0  501 -0.00000000000E+00 -0.00000000000E+00 -0.18218403128E+04  0.18218403128E+04  0.00000000000E+00 0.  1.
         23    2    1    2    0    0  0.82758548589E+03  0.10108945757E+04 -0.26413400197E+03  0.13369137296E+04  0.10375919069E+03 0.  0.
        254    2    1    2    0    0 -0.82758548589E+03 -0.10108945757E+04 -0.40526014779E+03  0.16373727463E+04  0.89997119027E+03 0.  0.
         23    2    4    4    0    0 -0.44408007595E+03 -0.81646137270E+03  0.13201111885E+03  0.94311362864E+03  0.90664734419E+02 0.  0.
         23    2    4    4    0    0 -0.38350540995E+03 -0.19443320303E+03 -0.53727126664E+03  0.69425911768E+03  0.91949108895E+02 0.  0.
         13    1    3    3    0    0  0.18767677917E+03  0.16502603043E+03 -0.50449357839E+02  0.25495352884E+03  0.00000000000E+00 0.  1.
        -13    1    3    3    0    0  0.63990870672E+03  0.84586854530E+03 -0.21368464414E+03  0.10819602007E+04  0.00000000000E+00 0. -1.
          4    1    5    5  502    0 -0.17040222218E+02 -0.86214116069E+02  0.12868649993E+02  0.88819170991E+02  0.00000000000E+00 0. -1.
          1    1    6    6  503    0 -0.30845905180E+03 -0.15554576134E+03 -0.36611682121E+03  0.50337162940E+03  0.00000000000E+00 0. -1.
         -4    1    5    5    0  502 -0.42703985373E+03 -0.73024725663E+03  0.11914246886E+03  0.85429445765E+03  0.00000000000E+00 0.  1.
         -1    1    6    6    0  503 -0.75046358142E+02 -0.38887441688E+02 -0.17115444543E+03  0.19088748828E+03  0.00000000000E+00 0.  1.
<mgrwt>
<rscale>  0 0.28979806E+04</rscale>
<asrwt>0</asrwt>
<pdfrwt beam="1">  1        1 0.17729941E+00 0.28979806E+04</pdfrwt>
<pdfrwt beam="2">  1       -1 0.28028313E+00 0.28979806E+04</pdfrwt>
<totfact> 0.44071393E-01</totfact>
</mgrwt>
</event>
<event>
12    1  0.4247462E-008  0.1533069E+04  0.7818608E-02  0.8862756E-01
          2   -1    0    0  501    0  0.00000000000E+00  0.00000000000E+00  0.14020971597E+04  0.14020971597E+04  0.00000000000E+00 0. -1.
         -2   -1    0    0    0  501 -0.00000000000E+00 -0.00000000000E+00 -0.41906853273E+03  0.41906853273E+03  0.00000000000E+00 0.  1.
         23    2    1    2    0    0 -0.30265297181E+03 -0.39572881378E+03  0.33214728141E+03  0.60216853577E+03  0.63914110444E+02 0.  0.
        254    2    1    2    0    0  0.30265297181E+03  0.39572881378E+03  0.65088134554E+03  0.12189971566E+04  0.90227901812E+03 0.  0.
         23    2    4    4    0    0 -0.11649439023E+03  0.33083444000E+03  0.69500684361E+03  0.78327958341E+03  0.86429297634E+02 0.  0.
         23    2    4    4    0    0  0.41914736204E+03  0.64894373784E+02 -0.44125498064E+02  0.43571757323E+03  0.89481580167E+02 0.  0.
         11    1    3    3    0    0 -0.20628540872E+03 -0.23362197745E+03  0.18038013606E+03  0.36009705870E+03  0.00000000000E+00 0.  1.
        -11    1    3    3    0    0 -0.96367563094E+02 -0.16210683633E+03  0.15176714535E+03  0.24207147707E+03  0.00000000000E+00 0. -1.
          2    1    5    5  502    0 -0.32090687542E+02  0.16343319155E+03  0.40549159842E+03  0.43836475305E+03  0.00000000000E+00 0. -1.
          4    1    6    6  503    0  0.54588828662E+02  0.24766498773E+02  0.20407872054E+02  0.63322988858E+02  0.00000000000E+00 0. -1.
         -2    1    5    5    0  502 -0.84403702689E+02  0.16740124845E+03  0.28951524518E+03  0.34491483036E+03  0.00000000000E+00 0.  1.
         -4    1    6    6    0  503  0.36455853338E+03  0.40127875010E+02 -0.64533370118E+02  0.37239458438E+03  0.00000000000E+00 0.  1.
<mgrwt>
<rscale>  0 0.15330686E+04</rscale>
<asrwt>0</asrwt>
<pdfrwt beam="1">  1        2 0.21570725E+00 0.15330686E+04</pdfrwt>
<pdfrwt beam="2">  1       -2 0.64472083E-01 0.15330686E+04</pdfrwt>
<totfact> 0.30898851E+01</totfact>
</mgrwt>
</event>
<event>
12    1  0.4247462E-008  0.2937691E+04  0.7818608E-02  0.8261751E-01
         -1   -1    0    0    0  501 -0.00000000000E+00  0.00000000000E+00  0.60516635462E+03  0.60516635462E+03  0.00000000000E+00 0.  1.
          1   -1    0    0  501    0  0.00000000000E+00 -0.00000000000E+00 -0.35651480886E+04  0.35651480886E+04  0.00000000000E+00 0. -1.
         23    2    1    2    0    0  0.89338901153E+03 -0.61817266545E+03 -0.25479015985E+03  0.11197995482E+04  0.93550159216E+02 0.  0.
        254    2    1    2    0    0 -0.89338901153E+03  0.61817266545E+03 -0.27051915742E+04  0.30505148951E+04  0.89849780302E+03 0.  0.
         23    2    4    4    0    0 -0.10430455846E+04  0.60020097410E+03 -0.21116955884E+04  0.24320940001E+04  0.87393743427E+02 0.  0.
         23    2    4    4    0    0  0.14965657308E+03  0.17971691342E+02 -0.59349598581E+03  0.61842089503E+03  0.86526566314E+02 0.  0.
         11    1    3    3    0    0  0.26199708298E+03 -0.22032326239E+03 -0.50234544123E+02  0.34598890281E+03  0.00000000000E+00 0. -1.
        -11    1    3    3    0    0  0.63139192854E+03 -0.39784940305E+03 -0.20455561573E+03  0.77381064535E+03  0.00000000000E+00 0.  1.
          4    1    5    5  502    0 -0.23849839784E+03  0.16679277057E+03 -0.56653980962E+03  0.63692124315E+03  0.00000000000E+00 0. -1.
          1    1    6    6  503    0  0.11123493167E+03 -0.27021566541E+02 -0.40386969355E+03  0.41977863744E+03  0.00000000000E+00 0. -1.
         -4    1    5    5    0  502 -0.80454718677E+03  0.43340820354E+03 -0.15451557787E+04  0.17951727569E+04  0.00000000000E+00 0.  1.
         -1    1    6    6    0  503  0.38421641413E+02  0.44993257883E+02 -0.18962629226E+03  0.19864225759E+03  0.00000000000E+00 0.  1.
<mgrwt>
<rscale>  0 0.29376914E+04</rscale>
<asrwt>0</asrwt>
<pdfrwt beam="1">  1        1 0.54848432E+00 0.29376914E+04</pdfrwt>
<pdfrwt beam="2">  1       -1 0.93102517E-01 0.29376914E+04</pdfrwt>
<totfact> 0.21249332E-01</totfact>
</mgrwt>
</event>
<event>
12    1  0.4247462E-008  0.3959183E+04  0.7818608E-02  0.8012832E-01
          2   -1    0    0  501    0  0.00000000000E+00  0.00000000000E+00  0.37234495854E+04  0.37234495854E+04  0.00000000000E+00 0. -1.
         -2   -1    0    0    0  501 -0.00000000000E+00 -0.00000000000E+00 -0.10524604316E+04  0.10524604316E+04  0.00000000000E+00 0.  1.
         23    2    1    2    0    0 -0.83945966169E+03 -0.10336713119E+04 -0.33918736608E+03  0.13771535155E+04  0.91295298117E+02 0.  0.
        254    2    1    2    0    0  0.83945966169E+03  0.10336713119E+04  0.30101765199E+04  0.33987565015E+04  0.84688498074E+03 0.  0.
         23    2    4    4    0    0  0.73150191919E+03  0.25192656718E+03  0.15768938626E+04  0.17593448677E+04  0.10068791619E+03 0.  0.
         23    2    4    4    0    0  0.10795774250E+03  0.78174474471E+03  0.14332826573E+04  0.16394116338E+04  0.10291554413E+03 0.  0.
         11    1    3    3    0    0 -0.37126183985E+03 -0.49576930194E+03 -0.19740569216E+03  0.65007042832E+03  0.00000000000E+00 0. -1.
        -11    1    3    3    0    0 -0.46819782184E+03 -0.53790200994E+03 -0.14178167393E+03  0.72708308723E+03  0.00000000000E+00 0.  1.
          2    1    5    5  502    0  0.56588271626E+03  0.20731680530E+03  0.11299940516E+04  0.12806600107E+04  0.00000000000E+00 0.  1.
          1    1    6    6  503    0  0.16349989152E+02  0.55802098814E+02  0.61189177610E+02  0.84411562205E+02  0.00000000000E+00 0. -1.
         -2    1    5    5    0  502  0.16561920293E+03  0.44609761875E+02  0.44689981100E+03  0.47868485698E+03  0.00000000000E+00 0. -1.
         -1    1    6    6    0  503  0.91607753344E+02  0.72594264589E+03  0.13720934797E+04  0.15550000716E+04  0.00000000000E+00 0.  1.
<mgrwt>
<rscale>  0 0.39591834E+04</rscale>
<asrwt>0</asrwt>
<pdfrwt beam="1">  1        2 0.57283839E+00 0.39591834E+04</pdfrwt>
<pdfrwt beam="2">  1       -2 0.16191699E+00 0.39591834E+04</pdfrwt>
<totfact> 0.10794883E-01</totfact>
</mgrwt>
</event>
<event>
12    1  0.4247462E-008  0.1715965E+04  0.7818608E-02  0.8752311E-01
         -2   -1    0    0    0  501 -0.00000000000E+00  0.00000000000E+00  0.31760484636E+03  0.31760484636E+03  0.00000000000E+00 0.  1.
          2   -1    0    0  501    0  0.00000000000E+00 -0.00000000000E+00 -0.23177667778E+04  0.23177667778E+04  0.00000000000E+00 0. -1.
         23    2    1    2    0    0  0.51172170227E+02 -0.35603792442E+03 -0.14929120717E+04  0.15382368647E+04  0.89468449888E+02 0.  0.
        254    2    1    2    0    0 -0.51172170227E+02  0.35603792442E+03 -0.50724985979E+03  0.10971347595E+04  0.90389195460E+03 0.  0.
         23    2    4    4    0    0 -0.46360264141E+03  0.14359162473E+03 -0.19502975461E+03  0.53112264907E+03  0.92242611424E+02 0.  0.
         23    2    4    4    0    0  0.41243047118E+03  0.21244629969E+03 -0.31222010518E+03  0.56601211042E+03  0.87498521438E+02 0.  0.
         11    1    3    3    0    0  0.49031140277E+02 -0.96594003354E+02 -0.53181409134E+03  0.54273444883E+03  0.00000000000E+00 0.  1.
        -11    1    3    3    0    0  0.21410299504E+01 -0.25944392107E+03 -0.96109798033E+03  0.99550241586E+03  0.00000000000E+00 0. -1.
          1    1    5    5  502    0 -0.11195593676E+02  0.12468873719E+02 -0.25508090175E+02  0.30520104750E+02  0.00000000000E+00 0. -1.
          3    1    6    6  503    0  0.88266256691E+02  0.44821076959E+02 -0.26362932837E+02  0.10244444952E+03  0.00000000000E+00 0. -1.
         -1    1    5    5    0  502 -0.45240704773E+03  0.13112275101E+03 -0.16952166444E+03  0.50060254432E+03  0.00000000000E+00 0.  1.
         -3    1    6    6    0  503  0.32416421449E+03  0.16762522273E+03 -0.28585717234E+03  0.46356766090E+03  0.00000000000E+00 0.  1.
<mgrwt>
<rscale>  0 0.17159650E+04</rscale>
<asrwt>0</asrwt>
<pdfrwt beam="1">  1        2 0.35657949E+00 0.17159650E+04</pdfrwt>
<pdfrwt beam="2">  1       -2 0.48862286E-01 0.17159650E+04</pdfrwt>
<totfact> 0.16709258E+01</totfact>
</mgrwt>
</event>
<event>
12    1  0.4247462E-008  0.1948376E+04  0.7818608E-02  0.8631144E-01
          2   -1    0    0  501    0  0.00000000000E+00  0.00000000000E+00  0.40575290123E+04  0.40575290123E+04  0.00000000000E+00 0. -1.
         -2   -1    0    0    0  501 -0.00000000000E+00 -0.00000000000E+00 -0.23389655729E+03  0.23389655729E+03  0.00000000000E+00 0.  1.
         23    2    1    2    0    0  0.58265801664E+03 -0.34696481890E+03  0.22731843001E+04  0.23739759674E+04  0.92304289296E+02 0.  0.
        254    2    1    2    0    0 -0.58265801664E+03  0.34696481890E+03  0.15504481550E+04  0.19174496022E+04  0.90158113660E+03 0.  0.
         23    2    4    4    0    0  0.20136924545E+03  0.11009797799E+03  0.13886428466E+03  0.28297358103E+03  0.90108935380E+02 0.  0.
         23    2    4    4    0    0 -0.78402726209E+03  0.23686684091E+03  0.14115838703E+04  0.16344760212E+04  0.90211933178E+02 0.  0.
         11    1    3    3    0    0  0.36886194030E+03 -0.20697701723E+03  0.15627870984E+04  0.16190127027E+04  0.00000000000E+00 0. -1.
        -11    1    3    3    0    0  0.21379607634E+03 -0.13998780167E+03  0.71039720169E+03  0.75496326470E+03  0.00000000000E+00 0.  1.
          4    1    5    5  502    0  0.19052170669E+02  0.24614102963E+02  0.58306303257E+02  0.66094358847E+02  0.00000000000E+00 0. -1.
          4    1    6    6  503    0 -0.43142237252E+03  0.85333180483E+02  0.77950989889E+03  0.89500988691E+03  0.00000000000E+00 0. -1.
         -4    1    5    5    0  502  0.18231707478E+03  0.85483875025E+02  0.80557981403E+02  0.21687922218E+03  0.00000000000E+00 0.  1.
         -4    1    6    6    0  503 -0.35260488958E+03  0.15153366043E+03  0.63207397142E+03  0.73946613428E+03  0.00000000000E+00 0.  1.
<mgrwt>
<rscale>  0 0.19483758E+04</rscale>
<asrwt>0</asrwt>
<pdfrwt beam="1">  1        2 0.62423518E+00 0.19483758E+04</pdfrwt>
<pdfrwt beam="2">  1       -2 0.35984089E-01 0.19483758E+04</pdfrwt>
<totfact> 0.21058351E+00</totfact>
</mgrwt>
</event>
<event>
12    1  0.4247462E-008  0.1546572E+04  0.7818608E-02  0.8854060E-01
          2   -1    0    0  501    0  0.00000000000E+00  0.00000000000E+00  0.85682531317E+03  0.85682531317E+03  0.00000000000E+00 0.  1.
         -2   -1    0    0    0  501 -0.00000000000E+00 -0.00000000000E+00 -0.69789142325E+03  0.69789142325E+03  0.00000000000E+00 0. -1.
         23    2    1    2    0    0 -0.26213817475E+03 -0.10097989810E+03  0.47644589270E+03  0.56081167517E+03  0.92712910922E+02 0.  0.
        254    2    1    2    0    0  0.26213817475E+03  0.10097989810E+03 -0.31751200278E+03  0.99390506124E+03  0.89895496904E+03 0.  0.
         23    2    4    4    0    0  0.41470691812E+03 -0.26437694655E+03 -0.30869543871E+03  0.58776571839E+03  0.91097025382E+02 0.  0.
         23    2    4    4    0    0 -0.15256874337E+03  0.36535684465E+03 -0.88165640763E+01  0.40613934285E+03  0.90047701908E+02 0.  0.
         11    1    3    3    0    0 -0.23435446763E+03 -0.97272196061E+02  0.46654938043E+03  0.53108588854E+03  0.00000000000E+00 0.  1.
        -11    1    3    3    0    0 -0.27783707118E+02 -0.37077020359E+01  0.98965122730E+01  0.29725786630E+02  0.00000000000E+00 0. -1.
          4    1    5    5  502    0  0.34049444378E+03 -0.19248687448E+03 -0.20591465671E+03  0.44202772417E+03  0.00000000000E+00 0. -1.
          1    1    6    6  503    0 -0.12138751733E+03  0.17557443722E+03 -0.11973871194E+02  0.21378654298E+03  0.00000000000E+00 0. -1.
         -4    1    5    5    0  502  0.74212474343E+02 -0.71890072077E+02 -0.10278078200E+03  0.14573799422E+03  0.00000000000E+00 0.  1.
         -1    1    6    6    0  503 -0.31181226043E+02  0.18978240744E+03  0.31573071175E+01  0.19235279987E+03  0.00000000000E+00 0.  1.
<mgrwt>
<rscale>  0 0.15465717E+04</rscale>
<asrwt>0</asrwt>
<pdfrwt beam="1">  1        2 0.13181928E+00 0.15465717E+04</pdfrwt>
<pdfrwt beam="2">  1       -2 0.10736791E+00 0.15465717E+04</pdfrwt>
<totfact> 0.21059649E+01</totfact>
</mgrwt>
</event>
<event>
12    1  0.4247462E-008  0.2015944E+04  0.7818608E-02  0.8599202E-01
          1   -1    0    0  501    0  0.00000000000E+00  0.00000000000E+00  0.46037589238E+03  0.46037589238E+03  0.00000000000E+00 0. -1.
         -1   -1    0    0    0  501 -0.00000000000E+00 -0.00000000000E+00 -0.22069082646E+04  0.22069082646E+04  0.00000000000E+00 0.  1.
         23    2    1    2    0    0  0.29525412152E+03 -0.26163854597E+03 -0.16262473897E+04  0.16758657752E+04  0.90641044180E+02 0.  0.
        254    2    1    2    0    0 -0.29525412152E+03  0.26163854597E+03 -0.12028498256E+03  0.99141838183E+03  0.90156098285E+03 0.  0.
         23    2    4    4    0    0 -0.49415129233E+03 -0.48449664570E+02  0.14875624199E+03  0.52621682279E+03  0.90790172101E+02 0.  0.
         23    2    4    4    0    0  0.19889717080E+03  0.31008821054E+03 -0.26904122455E+03  0.46520155905E+03  0.91184029087E+02 0.  0.
         11    1    3    3    0    0  0.37547192692E+02 -0.82625678082E+02 -0.38948570024E+03  0.39991987329E+03  0.00000000000E+00 0. -1.
        -11    1    3    3    0    0  0.25770692883E+03 -0.17901286789E+03 -0.12367616895E+04  0.12759459019E+04  0.00000000000E+00 0.  1.
          2    1    5    5  502    0 -0.12454957076E+03  0.28522963691E+01  0.18668669482E+00  0.12458236642E+03  0.00000000000E+00 0. -1.
          1    1    6    6  503    0 -0.21406384667E+01  0.49718470413E+02 -0.25565539956E+02  0.55947345482E+02  0.00000000000E+00 0. -1.
         -2    1    5    5    0  502 -0.36960172156E+03 -0.51301960939E+02  0.14856955530E+03  0.40163445637E+03  0.00000000000E+00 0.  1.
         -1    1    6    6    0  503  0.20103780927E+03  0.26036974013E+03 -0.24347568460E+03  0.40925421356E+03  0.00000000000E+00 0.  1.
<mgrwt>
<rscale>  0 0.20159438E+04</rscale>
<asrwt>0</asrwt>
<pdfrwt beam="1">  1        1 0.70827062E-01 0.20159438E+04</pdfrwt>
<pdfrwt beam="2">  1       -1 0.33952434E+00 0.20159438E+04</pdfrwt>
<totfact> 0.83923532E-01</totfact>
</mgrwt>
</event>
<event>
12    1  0.4247462E-008  0.2430164E+04  0.7818608E-02  0.8428296E-01
          2   -1    0    0  501    0  0.00000000000E+00  0.00000000000E+00  0.90237016361E+03  0.90237016361E+03  0.00000000000E+00 0. -1.
         -2   -1    0    0    0  501 -0.00000000000E+00 -0.00000000000E+00 -0.16361628952E+04  0.16361628952E+04  0.00000000000E+00 0.  1.
         23    2    1    2    0    0 -0.73334085223E+03 -0.64234599240E+03 -0.68300003827E+03  0.11964984430E+04  0.12133545392E+03 0.  0.
        254    2    1    2    0    0  0.73334085223E+03  0.64234599240E+03 -0.50792693341E+02  0.13420346158E+04  0.92091250009E+03 0.  0.
         23    2    4    4    0    0 -0.11653324361E+03  0.22954894611E+03 -0.25225035494E+03  0.37177854983E+03  0.91193930840E+02 0.  0.
         23    2    4    4    0    0  0.84987409585E+03  0.41279704630E+03  0.20145766160E+03  0.97025606597E+03  0.90134698766E+02 0.  0.
         11    1    3    3    0    0 -0.10131599866E+03 -0.14814243577E+03 -0.10862026276E+03  0.20978435199E+03  0.00000000000E+00 0. -1.
        -11    1    3    3    0    0 -0.63202485358E+03 -0.49420355663E+03 -0.57437977551E+03  0.98671409103E+03  0.00000000000E+00 0.  1.
          2    1    5    5  502    0 -0.14232585306E+02  0.11064276826E+03 -0.71706818304E+02  0.13261318352E+03  0.00000000000E+00 0. -1.
          1    1    6    6  503    0  0.37413480873E+03  0.14784542212E+03  0.11889753461E+03  0.41948986600E+03  0.00000000000E+00 0. -1.
         -2    1    5    5    0  502 -0.10230065831E+03  0.11890617784E+03 -0.18054353664E+03  0.23916536631E+03  0.00000000000E+00 0.  1.
         -1    1    6    6    0  503  0.47573928712E+03  0.26495162418E+03  0.82560126993E+02  0.55076619997E+03  0.00000000000E+00 0.  1.
<mgrwt>
<rscale>  0 0.24301643E+04</rscale>
<asrwt>0</asrwt>
<pdfrwt beam="1">  1        2 0.13882618E+00 0.24301643E+04</pdfrwt>
<pdfrwt beam="2">  1       -2 0.25171737E+00 0.24301643E+04</pdfrwt>
<totfact> 0.16432589E+00</totfact>
</mgrwt>
</event>
<event>
12    1  0.4247462E-008  0.1869016E+04  0.7818608E-02  0.8670435E-01
          1   -1    0    0  501    0  0.00000000000E+00  0.00000000000E+00  0.95511736591E+03  0.95511736591E+03  0.00000000000E+00 0. -1.
         -1   -1    0    0    0  501 -0.00000000000E+00 -0.00000000000E+00 -0.91434318380E+03  0.91434318380E+03  0.00000000000E+00 0.  1.
         23    2    1    2    0    0 -0.41487333731E+03 -0.30496369140E+03  0.49528046617E+03  0.72003827173E+03  0.89608222270E+02 0.  0.
        254    2    1    2    0    0  0.41487333731E+03  0.30496369140E+03 -0.45450628406E+03  0.11494222780E+04  0.92166852599E+03 0.  0.
         23    2    4    4    0    0  0.48358307210E+03  0.51148819452E+03 -0.90661734553E+02  0.71571165422E+03  0.92470866287E+02 0.  0.
         23    2    4    4    0    0 -0.68709734784E+02 -0.20652450313E+03 -0.36384454951E+03  0.43371062377E+03  0.91370952293E+02 0.  0.
         13    1    3    3    0    0 -0.37038968169E+03 -0.23931390956E+03  0.39355179618E+03  0.59105218034E+03  0.00000000000E+00 0. -1.
        -13    1    3    3    0    0 -0.44483655628E+02 -0.65649781840E+02  0.10172866999E+03  0.12898609139E+03  0.00000000000E+00 0.  1.
          3    1    5    5  502    0  0.30167317026E+03  0.25579287398E+03 -0.35642900938E+02  0.39712354806E+03  0.00000000000E+00 0. -1.
          3    1    6    6  503    0 -0.79491423993E+02 -0.95441184611E+02 -0.18184857235E+03  0.22021991162E+03  0.00000000000E+00 0. -1.
         -3    1    5    5    0  502  0.18190990184E+03  0.25569532054E+03 -0.55018833615E+02  0.31858810616E+03  0.00000000000E+00 0.  1.
         -3    1    6    6    0  503  0.10781689209E+02 -0.11108331851E+03 -0.18199597716E+03  0.21349071216E+03  0.00000000000E+00 0.  1.
<mgrwt>
<rscale>  0 0.18690158E+04</rscale>
<asrwt>0</asrwt>
<pdfrwt beam="1">  1        1 0.14694113E+00 0.18690158E+04</pdfrwt>
<pdfrwt beam="2">  1       -1 0.14066818E+00 0.18690158E+04</pdfrwt>
<totfact> 0.63768244E+00</totfact>
</mgrwt>
</event>
<event>
12    1  0.4247462E-008  0.1359493E+04  0.7818608E-02  0.8983673E-01
          2   -1    0    0  501    0  0.00000000000E+00  0.00000000000E+00  0.44351190751E+03  0.44351190751E+03  0.00000000000E+00 0. -1.
         -2   -1    0    0    0  501 -0.00000000000E+00 -0.00000000000E+00 -0.10418102105E+04  0.10418102105E+04  0.00000000000E+00 0.  1.
         23    2    1    2    0    0  0.10221466516E+03 -0.24668051709E+03 -0.43533429196E+03  0.51815578370E+03  0.87580563724E+02 0.  0.
        254    2    1    2    0    0 -0.10221466516E+03  0.24668051709E+03 -0.16296401106E+03  0.96716633434E+03  0.91517994629E+03 0.  0.
         23    2    4    4    0    0 -0.26412606850E+03  0.52224231852E+03  0.10128515068E+02  0.59240543270E+03  0.91334498218E+02 0.  0.
         23    2    4    4    0    0  0.16191140334E+03 -0.27556180143E+03 -0.17309252613E+03  0.37476090164E+03  0.91296779022E+02 0.  0.
         13    1    3    3    0    0  0.76063935944E+02 -0.22928767191E+03 -0.33497707705E+03  0.41299903268E+03  0.00000000000E+00 0.  1.
        -13    1    3    3    0    0  0.26150729218E+02 -0.17392845176E+02 -0.10035721491E+03  0.10515675102E+03  0.00000000000E+00 0. -1.
          4    1    5    5  502    0 -0.27447121265E+02  0.14051626742E+03  0.30211861847E+01  0.14320367817E+03  0.00000000000E+00 0. -1.
          1    1    6    6  503    0  0.89023546430E+02 -0.22070611265E+03 -0.10117543456E+03  0.25859785100E+03  0.00000000000E+00 0. -1.
         -4    1    5    5    0  502 -0.23667894723E+03  0.38172605110E+03  0.71073288833E+01  0.44920175453E+03  0.00000000000E+00 0.  1.
         -1    1    6    6    0  503  0.72887856906E+02 -0.54855688777E+02 -0.71917091569E+02  0.11616305065E+03  0.00000000000E+00 0.  1.
<mgrwt>
<rscale>  0 0.13594929E+04</rscale>
<asrwt>0</asrwt>
<pdfrwt beam="1">  1        2 0.68232602E-01 0.13594929E+04</pdfrwt>
<pdfrwt beam="2">  1       -2 0.16027849E+00 0.13594929E+04</pdfrwt>
<totfact> 0.17285793E+01</totfact>
</mgrwt>
</event>
<event>
12    1  0.4247462E-008  0.2774855E+04  0.7818608E-02  0.8311118E-01
          2   -1    0    0  501    0  0.00000000000E+00  0.00000000000E+00  0.10875029718E+04  0.10875029718E+04  0.00000000000E+00 0. -1.
         -2   -1    0    0    0  501 -0.00000000000E+00 -0.00000000000E+00 -0.17700683066E+04  0.17700683066E+04  0.00000000000E+00 0.  1.
         23    2    1    2    0    0 -0.84603607431E+03  0.61314354867E+03  0.37791123962E+03  0.11179214980E+04  0.12332688410E+03 0.  0.
        254    2    1    2    0    0  0.84603607431E+03 -0.61314354867E+03 -0.10604765744E+04  0.17396497804E+04  0.90002707928E+03 0.  0.
         23    2    4    4    0    0  0.27012074410E+03  0.10917721545E+03  0.31437278284E+02  0.30637301484E+03  0.89393741329E+02 0.  0.
         23    2    4    4    0    0  0.57591533022E+03 -0.72232076412E+03 -0.10919138527E+04  0.14332767656E+04  0.92631912932E+02 0.  0.
         13    1    3    3    0    0 -0.51331891238E+03  0.37966339033E+03  0.29390637732E+03  0.70286666900E+03  0.00000000000E+00 0. -1.
        -13    1    3    3    0    0 -0.33271716193E+03  0.23348015833E+03  0.84004862296E+02  0.41505482899E+03  0.00000000000E+00 0.  1.
          3    1    6    6  502    0  0.39933817005E+03 -0.56538814622E+03 -0.81094622155E+03  0.10661934647E+04  0.00000000000E+00 0. -1.
          3    1    5    5  503    0  0.20292080653E+03  0.93951426617E+02 -0.13646312320E+02  0.22403112759E+03  0.00000000000E+00 0. -1.
         -3    1    5    5    0  503  0.67199937563E+02  0.15225788834E+02  0.45083590604E+02  0.82341887250E+02  0.00000000000E+00 0.  1.
         -3    1    6    6    0  502  0.17657716016E+03 -0.15693261790E+03 -0.28096763112E+03  0.36708330089E+03  0.00000000000E+00 0.  1.
<mgrwt>
<rscale>  0 0.27748546E+04</rscale>
<asrwt>0</asrwt>
<pdfrwt beam="1">  1        2 0.16730815E+00 0.27748546E+04</pdfrwt>
<pdfrwt beam="2">  1       -2 0.27231820E+00 0.27748546E+04</pdfrwt>
<totfact> 0.90716363E-01</totfact>
</mgrwt>
</event>
<event>
12    1  0.4247462E-008  0.1504689E+04  0.7818608E-02  0.8881340E-01
          2   -1    0    0  501    0  0.00000000000E+00  0.00000000000E+00  0.92307796795E+03  0.92307796795E+03  0.00000000000E+00 0. -1.
         -2   -1    0    0    0  501 -0.00000000000E+00 -0.00000000000E+00 -0.61319043653E+03  0.61319043653E+03  0.00000000000E+00 0.  1.
         23    2    1    2    0    0  0.43130492839E+03  0.21133510810E+03  0.25200447919E+03  0.54995297407E+03  0.90860040642E+02 0.  0.
        254    2    1    2    0    0 -0.43130492839E+03 -0.21133510810E+03  0.57883052223E+02  0.98631543042E+03  0.85952382828E+03 0.  0.
         23    2    4    4    0    0 -0.64004763284E+02 -0.16388077248E+03 -0.36614807651E+03  0.41593479034E+03  0.89352216357E+02 0.  0.
         23    2    4    4    0    0 -0.36730016510E+03 -0.47454335621E+02  0.42403112874E+03  0.57038064008E+03  0.91489623366E+02 0.  0.
         11    1    3    3    0    0  0.35053300654E+03  0.20124577113E+03  0.18498785559E+03  0.44451519185E+03  0.00000000000E+00 0. -1.
        -11    1    3    3    0    0  0.80771921844E+02  0.10089336972E+02  0.67016623604E+02  0.10543778221E+03  0.00000000000E+00 0.  1.
          4    1    6    6  502    0 -0.23197905613E+03  0.96711301769E+01  0.22785320378E+03  0.32530738650E+03  0.00000000000E+00 0. -1.
          4    1    5    5  503    0 -0.23360230703E+02 -0.60352208405E+02 -0.53086609216E+02  0.83703509579E+02  0.00000000000E+00 0. -1.
         -4    1    5    5    0  503 -0.40644532581E+02 -0.10352856407E+03 -0.31306146730E+03  0.33223128076E+03  0.00000000000E+00 0.  1.
         -4    1    6    6    0  502 -0.13532110897E+03 -0.57125465798E+02  0.19617792496E+03  0.24507325358E+03  0.00000000000E+00 0.  1.
<mgrwt>
<rscale>  0 0.15046894E+04</rscale>
<asrwt>0</asrwt>
<pdfrwt beam="1">  1        2 0.14201199E+00 0.15046894E+04</pdfrwt>
<pdfrwt beam="2">  1       -2 0.94336991E-01 0.15046894E+04</pdfrwt>
<totfact> 0.25893780E+01</totfact>
</mgrwt>
</event>
<event>
12    1  0.4247462E-008  0.1565661E+04  0.7818608E-02  0.8841926E-01
         -1   -1    0    0    0  501 -0.00000000000E+00  0.00000000000E+00  0.22013470393E+04  0.22013470393E+04  0.00000000000E+00 0.  1.
          1   -1    0    0  501    0  0.00000000000E+00 -0.00000000000E+00 -0.27838574817E+03  0.27838574817E+03  0.00000000000E+00 0. -1.
         23    2    1    2    0    0 -0.22537288457E+03  0.19898453631E+03 -0.24500809607E+02  0.31492321660E+03  0.90490661890E+02 0.  0.
        254    2    1    2    0    0  0.22537288457E+03 -0.19898453631E+03  0.19474621008E+04  0.21648095709E+04  0.89632809925E+03 0.  0.
         23    2    4    4    0    0  0.23665626046E+03  0.15842062791E+03  0.16876507938E+04  0.17139363009E+04  0.91154596518E+02 0.  0.
         23    2    4    4    0    0 -0.11283375883E+02 -0.35740516422E+03  0.25981130695E+03  0.45087327006E+03  0.88988900708E+02 0.  0.
         13    1    3    3    0    0 -0.89252546085E+02  0.49210145013E+02 -0.45172222730E+02  0.11148177009E+03  0.00000000000E+00 0. -1.
        -13    1    3    3    0    0 -0.13612033849E+03  0.14977439130E+03  0.20671413123E+02  0.20344144652E+03  0.00000000000E+00 0.  1.
          1    1    5    5  502    0  0.15722681695E+03  0.10781179397E+03  0.13500761170E+04  0.13634695364E+04  0.00000000000E+00 0. -1.
          1    1    6    6  503    0  0.22526924594E+01 -0.16261241346E+03  0.65261663404E+02  0.17523400453E+03  0.00000000000E+00 0. -1.
         -1    1    5    5    0  502  0.79429443511E+02  0.50608833937E+02  0.33757467680E+03  0.35046676445E+03  0.00000000000E+00 0.  1.
         -1    1    6    6    0  503 -0.13536068342E+02 -0.19479275077E+03  0.19454964354E+03  0.27563926553E+03  0.00000000000E+00 0.  1.
<mgrwt>
<rscale>  0 0.15656611E+04</rscale>
<asrwt>0</asrwt>
<pdfrwt beam="1">  1        1 0.42828578E-01 0.15656611E+04</pdfrwt>
<pdfrwt beam="2">  1       -1 0.33866876E+00 0.15656611E+04</pdfrwt>
<totfact> 0.17239678E+00</totfact>
</mgrwt>
</event>
<event>
12    1  0.4247462E-008  0.1466985E+04  0.7818608E-02  0.8906709E-01
         -1   -1    0    0    0  501 -0.00000000000E+00  0.00000000000E+00  0.28580248312E+03  0.28580248312E+03  0.00000000000E+00 0.  1.
          1   -1    0    0  501    0  0.00000000000E+00 -0.00000000000E+00 -0.18824579458E+04  0.18824579458E+04  0.00000000000E+00 0. -1.
         23    2    1    2    0    0 -0.11087516690E+03 -0.42987665599E+03 -0.70895738965E+03  0.84146232338E+03  0.91383911747E+02 0.  0.
        254    2    1    2    0    0  0.11087516690E+03  0.42987665599E+03 -0.88769807304E+03  0.13267981055E+04  0.88051013736E+03 0.  0.
         23    2    4    4    0    0 -0.79510068574E+02 -0.16327093973E+03  0.38891466742E+02  0.20665206440E+03  0.90627141463E+02 0.  0.
         23    2    4    4    0    0  0.19038523548E+03  0.59314759573E+03 -0.92658953978E+03  0.11201460411E+04  0.89935365964E+02 0.  0.
         11    1    3    3    0    0  0.58450794359E+01 -0.15938194091E+02 -0.72874518318E+01  0.18474250693E+02  0.00000000000E+00 0.  1.
        -11    1    3    3    0    0 -0.11672024634E+03 -0.41393846190E+03 -0.70166993782E+03  0.82298807268E+03  0.00000000000E+00 0. -1.
          2    1    5    5  502    0 -0.89602588442E+02 -0.98564419128E+02  0.45662282066E+02  0.14081410646E+03  0.00000000000E+00 0.  1.
          4    1    6    6  503    0  0.89372489069E+02  0.24709591663E+03 -0.31486480695E+03  0.41010203666E+03  0.00000000000E+00 0. -1.
         -2    1    5    5    0  502  0.10092519868E+02 -0.64706520607E+02 -0.67708153235E+01  0.65837957946E+02  0.00000000000E+00 0. -1.
         -4    1    6    6    0  503  0.10101274641E+03  0.34605167910E+03 -0.61172473284E+03  0.71004400449E+03  0.00000000000E+00 0.  1.
<mgrwt>
<rscale>  0 0.14669849E+04</rscale>
<asrwt>0</asrwt>
<pdfrwt beam="1">  1        1 0.28960891E+00 0.14669849E+04</pdfrwt>
<pdfrwt beam="2">  1       -1 0.43969614E-01 0.14669849E+04</pdfrwt>
<totfact> 0.17768908E+01</totfact>
</mgrwt>
</event>
<event>
12    1  0.4247462E-008  0.2164383E+04  0.7818608E-02  0.8533401E-01
          1   -1    0    0  501    0  0.00000000000E+00  0.00000000000E+00  0.28394506657E+04  0.28394506657E+04  0.00000000000E+00 0. -1.
         -1   -1    0    0    0  501 -0.00000000000E+00 -0.00000000000E+00 -0.41245228057E+03  0.41245228057E+03  0.00000000000E+00 0.  1.
         23    2    1    2    0    0  0.85955316298E+03 -0.14958951257E+03  0.12778779033E+04  0.15499883195E+04  0.91012046672E+02 0.  0.
        254    2    1    2    0    0 -0.85955316298E+03  0.14958951257E+03  0.11491204818E+04  0.17019146267E+04  0.90267760176E+03 0.  0.
         23    2    4    4    0    0 -0.93085223460E+03 -0.13532049351E+03  0.82027703150E+03  0.12515042913E+04  0.92795819523E+02 0.  0.
         23    2    4    4    0    0  0.71299071620E+02  0.28491000608E+03  0.32884345028E+03  0.45041033541E+03  0.92055343550E+02 0.  0.
         11    1    3    3    0    0  0.70172174346E+03 -0.14692338008E+03  0.10007590403E+04  0.12310639877E+04  0.00000000000E+00 0.  1.
        -11    1    3    3    0    0  0.15783141952E+03 -0.26661324848E+01  0.27711886298E+03  0.31892433188E+03  0.00000000000E+00 0. -1.
          2    1    5    5  502    0 -0.89747931919E+03 -0.11194365455E+03  0.78311491322E+03  0.11963567518E+04  0.00000000000E+00 0. -1.
          3    1    6    6  503    0  0.86311322601E+02  0.15949311729E+03  0.18754981844E+03  0.26088816238E+03  0.00000000000E+00 0. -1.
         -2    1    5    5    0  502 -0.33372915405E+02 -0.23376838964E+02  0.37162118281E+02  0.55147539544E+02  0.00000000000E+00 0.  1.
         -3    1    6    6    0  503 -0.15012250981E+02  0.12541688878E+03  0.14129363184E+03  0.18952217303E+03  0.00000000000E+00 0.  1.
<mgrwt>
<rscale>  0 0.21643825E+04</rscale>
<asrwt>0</asrwt>
<pdfrwt beam="1">  1        1 0.43683855E+00 0.21643825E+04</pdfrwt>
<pdfrwt beam="2">  1       -1 0.63454199E-01 0.21643825E+04</pdfrwt>
<totfact> 0.18003200E+00</totfact>
</mgrwt>
</event>
<event>
12    1  0.4247462E-008  0.2094175E+04  0.7818608E-02  0.8563814E-01
          2   -1    0    0  501    0  0.00000000000E+00  0.00000000000E+00  0.17419042170E+04  0.17419042170E+04  0.00000000000E+00 0. -1.
         -2   -1    0    0    0  501 -0.00000000000E+00 -0.00000000000E+00 -0.62942157525E+03  0.62942157525E+03  0.00000000000E+00 0.  1.
         23    2    1    2    0    0 -0.39494388077E+03 -0.39494257456E+03 -0.23023232615E+03  0.61339670709E+03  0.10624636520E+03 0.  0.
        254    2    1    2    0    0  0.39494388077E+03  0.39494257456E+03  0.13427149679E+04  0.17579290852E+04  0.98765929211E+03 0.  0.
         23    2    4    4    0    0  0.56710763972E+03  0.10278468199E+03  0.12718994538E+04  0.13999460738E+04  0.99724736864E+02 0.  0.
         23    2    4    4    0    0 -0.17216375895E+03  0.29215789256E+03  0.70815514057E+02  0.35798301131E+03  0.90224194475E+02 0.  0.
         11    1    3    3    0    0 -0.30999308471E+03 -0.29005504217E+03 -0.21969984304E+03  0.47801219764E+03  0.00000000000E+00 0.  1.
        -11    1    3    3    0    0 -0.84950796062E+02 -0.10488753238E+03 -0.10532483103E+02  0.13538450946E+03  0.00000000000E+00 0. -1.
          2    1    5    5  502    0  0.16096620790E+03  0.54665978362E+02  0.28797680136E+03  0.33440862339E+03  0.00000000000E+00 0. -1.
          1    1    6    6  503    0 -0.83118070191E+02  0.72695545996E+02  0.46793155286E+02  0.11992854281E+03  0.00000000000E+00 0. -1.
         -2    1    5    5    0  502  0.40614143182E+03  0.48118703629E+02  0.98392265247E+03  0.10655374505E+04  0.00000000000E+00 0.  1.
         -1    1    6    6    0  503 -0.89045688763E+02  0.21946234657E+03  0.24022358770E+02  0.23805446849E+03  0.00000000000E+00 0.  1.
<mgrwt>
<rscale>  0 0.20941749E+04</rscale>
<asrwt>0</asrwt>
<pdfrwt beam="1">  1        2 0.26798526E+00 0.20941749E+04</pdfrwt>
<pdfrwt beam="2">  1       -2 0.96834089E-01 0.20941749E+04</pdfrwt>
<totfact> 0.76366379E+00</totfact>
</mgrwt>
</event>
<event>
12    1  0.4247462E-008  0.1246380E+04  0.7818608E-02  0.9073201E-01
          2   -1    0    0  501    0  0.00000000000E+00  0.00000000000E+00  0.10872533711E+04  0.10872533711E+04  0.00000000000E+00 0. -1.
         -2   -1    0    0    0  501 -0.00000000000E+00 -0.00000000000E+00 -0.35719900638E+03  0.35719900638E+03  0.00000000000E+00 0.  1.
         23    2    1    2    0    0  0.16061035817E+02  0.20872134366E+02  0.65460128308E+03  0.66148138361E+03  0.91439478345E+02 0.  0.
        254    2    1    2    0    0 -0.16061035817E+02 -0.20872134366E+02  0.75453081669E+02  0.78297099390E+03  0.77888176695E+03 0.  0.
         23    2    4    4    0    0  0.20895911371E+03  0.99802545073E+02  0.32803489341E+03  0.41166097443E+03  0.90738125236E+02 0.  0.
         23    2    4    4    0    0 -0.22502014952E+03 -0.12067467944E+03 -0.25258181174E+03  0.37131001946E+03  0.94218432276E+02 0.  0.
         13    1    3    3    0    0  0.28758417304E+02 -0.27143707583E+02  0.18024422323E+03  0.18453131830E+03  0.00000000000E+00 0.  1.
        -13    1    3    3    0    0 -0.12697381487E+02  0.48015841949E+02  0.47435705984E+03  0.47695006531E+03  0.00000000000E+00 0. -1.
          2    1    5    5  502    0  0.24439855317E+02  0.46315573410E+02  0.42160952460E+02  0.67230832068E+02  0.00000000000E+00 0. -1.
          1    1    6    6  503    0 -0.10308621687E+03 -0.46772665212E+02 -0.17654718420E+03  0.20972209843E+03  0.00000000000E+00 0. -1.
         -2    1    5    5    0  502  0.18451925839E+03  0.53486971663E+02  0.28587394095E+03  0.34443014236E+03  0.00000000000E+00 0.  1.
         -1    1    6    6    0  503 -0.12193393265E+03 -0.73902014226E+02 -0.76034627541E+02  0.16158792103E+03  0.00000000000E+00 0.  1.
<mgrwt>
<rscale>  0 0.12463801E+04</rscale>
<asrwt>0</asrwt>
<pdfrwt beam="1">  1        2 0.16726975E+00 0.12463801E+04</pdfrwt>
<pdfrwt beam="2">  1       -2 0.54953694E-01 0.12463801E+04</pdfrwt>
<totfact> 0.67968546E+01</totfact>
</mgrwt>
</event>
<event>
12    1  0.4247462E-008  0.2258305E+04  0.7818608E-02  0.8494545E-01
         -1   -1    0    0    0  501 -0.00000000000E+00  0.00000000000E+00  0.54783410629E+03  0.54783410629E+03  0.00000000000E+00 0.  1.
          1   -1    0    0  501    0  0.00000000000E+00 -0.00000000000E+00 -0.23273197067E+04  0.23273197067E+04  0.00000000000E+00 0. -1.
         23    2    1    2    0    0 -0.37444213726E+03  0.79648086859E+02  0.35372650052E+03  0.52916224411E+03  0.91320925985E+02 0.  0.
        254    2    1    2    0    0  0.37444213726E+03 -0.79648086859E+02 -0.21332121009E+04  0.23459915689E+04  0.89807117861E+03 0.  0.
         23    2    4    4    0    0 -0.28203864246E+03  0.49986494020E+02 -0.68248370537E+03  0.74579234636E+03  0.91530160963E+02 0.  0.
         23    2    4    4    0    0  0.65648077972E+03 -0.12963458088E+03 -0.14507283956E+04  0.16001992225E+04  0.90843466447E+02 0.  0.
         13    1    3    3    0    0 -0.78799286391E+02  0.17101651789E+01  0.31252024088E+02  0.84787624157E+02  0.00000000000E+00 0. -1.
        -13    1    3    3    0    0 -0.29564285087E+03  0.77937921680E+02  0.32247447643E+03  0.44437461995E+03  0.00000000000E+00 0.  1.
          4    1    5    5  502    0 -0.56214044370E+02  0.13377634768E+02 -0.63353738979E+02  0.85747747137E+02  0.00000000000E+00 0. -1.
          3    1    6    6  503    0  0.10945403881E+03 -0.50667580432E+02 -0.21548219510E+03  0.24694122119E+03  0.00000000000E+00 0. -1.
         -4    1    5    5    0  502 -0.22582459809E+03  0.36608859251E+02 -0.61912996639E+03  0.66004459922E+03  0.00000000000E+00 0.  1.
         -3    1    6    6    0  503  0.54702674091E+03 -0.78967000446E+02 -0.12352462005E+04  0.13532580013E+04  0.00000000000E+00 0.  1.
<mgrwt>
<rscale>  0 0.22583048E+04</rscale>
<asrwt>0</asrwt>
<pdfrwt beam="1">  1        1 0.35804918E+00 0.22583048E+04</pdfrwt>
<pdfrwt beam="2">  1       -1 0.84282171E-01 0.22583048E+04</pdfrwt>
<totfact> 0.22545876E+00</totfact>
</mgrwt>
</event>
<event>
12    1  0.4247462E-008  0.1834438E+04  0.7818608E-02  0.8688197E-01
          1   -1    0    0  501    0  0.00000000000E+00  0.00000000000E+00  0.17923112432E+04  0.17923112432E+04  0.00000000000E+00 0.  1.
         -1   -1    0    0    0  501 -0.00000000000E+00 -0.00000000000E+00 -0.46938850229E+03  0.46938850229E+03  0.00000000000E+00 0. -1.
         23    2    1    2    0    0  0.27433964798E+03  0.58462296365E+02 -0.27879287490E+03  0.40573298831E+03  0.90629510385E+02 0.  0.
        254    2    1    2    0    0 -0.27433964798E+03 -0.58462296365E+02  0.16017156158E+04  0.18559667571E+04  0.89467290517E+03 0.  0.
         23    2    4    4    0    0  0.28864293738E+03 -0.13847818774E+03  0.81920410513E+03  0.88416673395E+03  0.90357588417E+02 0.  0.
         23    2    4    4    0    0 -0.56298258536E+03  0.80015891371E+02  0.78251151064E+03  0.97180002319E+03  0.93376048792E+02 0.  0.
         11    1    3    3    0    0  0.10021757125E+03 -0.20722471649E+02 -0.11462902137E+03  0.15366455336E+03  0.00000000000E+00 0.  1.
        -11    1    3    3    0    0  0.17412207673E+03  0.79184768014E+02 -0.16416385354E+03  0.25206843495E+03  0.00000000000E+00 0. -1.
          4    1    5    5  502    0  0.23007861704E+03 -0.14710543947E+03  0.65679544087E+03  0.71130614470E+03  0.00000000000E+00 0. -1.
          3    1    6    6  503    0 -0.35125136874E+03  0.56292701646E+01  0.49786278711E+03  0.60932468152E+03  0.00000000000E+00 0. -1.
         -4    1    5    5    0  502  0.58564320339E+02  0.86272517317E+01  0.16240866427E+03  0.17286058925E+03  0.00000000000E+00 0.  1.
         -3    1    6    6    0  503 -0.21173121662E+03  0.74386621206E+02  0.28464872354E+03  0.36247534167E+03  0.00000000000E+00 0.  1.
<mgrwt>
<rscale>  0 0.18344376E+04</rscale>
<asrwt>0</asrwt>
<pdfrwt beam="1">  1        1 0.27574019E+00 0.18344376E+04</pdfrwt>
<pdfrwt beam="2">  1       -1 0.72213617E-01 0.18344376E+04</pdfrwt>
<totfact> 0.75051301E+00</totfact>
</mgrwt>
</event>
<event>
12    1  0.4247462E-008  0.3326413E+04  0.7818608E-02  0.8156207E-01
          1   -1    0    0  501    0  0.00000000000E+00  0.00000000000E+00  0.20570318533E+04  0.20570318533E+04  0.00000000000E+00 0. -1.
         -1   -1    0    0    0  501 -0.00000000000E+00 -0.00000000000E+00 -0.13447799564E+04  0.13447799564E+04  0.00000000000E+00 0.  1.
         23    2    1    2    0    0  0.11306927353E+04  0.92528798963E+03  0.85020901361E+03  0.16928778838E+04  0.91412456158E+02 0.  0.
        254    2    1    2    0    0 -0.11306927353E+04 -0.92528798963E+03 -0.13795711669E+03  0.17089339258E+04  0.87567064091E+03 0.  0.
         23    2    4    4    0    0 -0.65798240203E+03 -0.11903560325E+03 -0.32857142327E+03  0.75073273886E+03  0.92358804590E+02 0.  0.
         23    2    4    4    0    0 -0.47271033331E+03 -0.80625238637E+03  0.19061430657E+03  0.95820118698E+03  0.91201595969E+02 0.  0.
         11    1    3    3    0    0  0.11184097222E+04  0.89935619268E+03  0.83180350333E+03  0.16587883940E+04  0.00000000000E+00 0. -1.
        -11    1    3    3    0    0  0.12283013170E+02  0.25931796947E+02  0.18405510279E+02  0.34089489788E+02  0.00000000000E+00 0.  1.
          4    1    5    5  502    0 -0.54415610943E+03 -0.13222693745E+03 -0.26252521769E+03  0.61847338208E+03  0.00000000000E+00 0. -1.
          3    1    6    6  503    0 -0.46295468179E+03 -0.80042105418E+03  0.17876911339E+03  0.94178516514E+03  0.00000000000E+00 0. -1.
         -4    1    5    5    0  502 -0.11382629261E+03  0.13191334197E+02 -0.66046205576E+02  0.13225935679E+03  0.00000000000E+00 0.  1.
         -3    1    6    6    0  503 -0.97556515193E+01 -0.58313321966E+01  0.11845193182E+02  0.16416021847E+02  0.00000000000E+00 0.  1.
<mgrwt>
<rscale>  0 0.33264126E+04</rscale>
<asrwt>0</asrwt>
<pdfrwt beam="1">  1        1 0.31646644E+00 0.33264126E+04</pdfrwt>
<pdfrwt beam="2">  1       -1 0.20688922E+00 0.33264126E+04</pdfrwt>
<totfact> 0.30457563E-01</totfact>
</mgrwt>
</event>
<event>
12    1  0.4247462E-008  0.1565398E+04  0.7818608E-02  0.8842092E-01
         -2   -1    0    0    0  501 -0.00000000000E+00  0.00000000000E+00  0.63045038132E+03  0.63045038132E+03  0.00000000000E+00 0.  1.
          2   -1    0    0  501    0  0.00000000000E+00 -0.00000000000E+00 -0.97171404841E+03  0.97171404841E+03  0.00000000000E+00 0. -1.
         23    2    1    2    0    0 -0.38682200965E+03  0.42543617209E+02  0.23676339701E+03  0.46380546833E+03  0.87277601760E+02 0.  0.
        254    2    1    2    0    0  0.38682200965E+03 -0.42543617209E+02 -0.57802706410E+03  0.11383589614E+04  0.90016921279E+03 0.  0.
         23    2    4    4    0    0  0.31123759828E+03 -0.44568704829E+03 -0.40442830287E+03  0.68371705120E+03  0.91656785615E+02 0.  0.
         23    2    4    4    0    0  0.75584411370E+02  0.40314343108E+03 -0.17359876123E+03  0.45464191020E+03  0.91242026208E+02 0.  0.
         11    1    3    3    0    0 -0.46416867413E+02 -0.16439344056E+02  0.91428464646E+01  0.50083622621E+02  0.00000000000E+00 0. -1.
        -11    1    3    3    0    0 -0.34040514224E+03  0.58982961265E+02  0.22762055055E+03  0.41372184571E+03  0.00000000000E+00 0.  1.
          1    1    5    5  502    0  0.16964114309E+03 -0.25308530995E+03 -0.28192913090E+03  0.41510760820E+03  0.00000000000E+00 0. -1.
          3    1    6    6  503    0  0.53679051692E+02  0.80189913146E+02 -0.39716951162E+02  0.10435180387E+03  0.00000000000E+00 0. -1.
         -1    1    5    5    0  502  0.14159645519E+03 -0.19260173834E+03 -0.12249917197E+03  0.26860944300E+03  0.00000000000E+00 0.  1.
         -3    1    6    6    0  503  0.21905359678E+02  0.32295351793E+03 -0.13388181007E+03  0.35029010633E+03  0.00000000000E+00 0.  1.
<mgrwt>
<rscale>  0 0.15653977E+04</rscale>
<asrwt>0</asrwt>
<pdfrwt beam="1">  1        2 0.14949447E+00 0.15653977E+04</pdfrwt>
<pdfrwt beam="2">  1       -2 0.96992367E-01 0.15653977E+04</pdfrwt>
<totfact> 0.22430162E+01</totfact>
</mgrwt>
</event>
<event>
12    1  0.4247462E-008  0.2243436E+04  0.7818608E-02  0.8500564E-01
         -2   -1    0    0    0  501 -0.00000000000E+00  0.00000000000E+00  0.14045331456E+04  0.14045331456E+04  0.00000000000E+00 0.  1.
          2   -1    0    0  501    0  0.00000000000E+00 -0.00000000000E+00 -0.89584979209E+03  0.89584979209E+03  0.00000000000E+00 0. -1.
         23    2    1    2    0    0 -0.15686218166E+03 -0.20192844397E+03 -0.71049194908E+03  0.76073025704E+03  0.92362729176E+02 0.  0.
        254    2    1    2    0    0  0.15686218166E+03  0.20192844397E+03  0.12191753026E+04  0.15396526806E+04  0.90485419711E+03 0.  0.
         23    2    4    4    0    0  0.76333506608E+02  0.52117936505E+03  0.45048617145E+03  0.69852769253E+03  0.86881596309E+02 0.  0.
         23    2    4    4    0    0  0.80528675055E+02 -0.31925092108E+03  0.76868913110E+03  0.84112498808E+03  0.90566258488E+02 0.  0.
         11    1    3    3    0    0 -0.16423050918E+03 -0.16816032140E+03 -0.64805209750E+03  0.68936280355E+03  0.00000000000E+00 0. -1.
        -11    1    3    3    0    0  0.73683275166E+01 -0.33768122566E+02 -0.62439851580E+02  0.71367453488E+02  0.00000000000E+00 0.  1.
          2    1    5    5  502    0  0.50144085744E+02  0.30941758163E+03  0.21143077174E+03  0.37809607297E+03  0.00000000000E+00 0. -1.
          1    1    6    6  503    0  0.60651781863E+02 -0.23037598691E+03  0.44359753343E+03  0.50351812842E+03  0.00000000000E+00 0. -1.
         -2    1    5    5    0  502  0.26189420864E+02  0.21176178342E+03  0.23905539971E+03  0.32043161956E+03  0.00000000000E+00 0.  1.
         -1    1    6    6    0  503  0.19876893193E+02 -0.88874934171E+02  0.32509159768E+03  0.33760685966E+03  0.00000000000E+00 0.  1.
<mgrwt>
<rscale>  0 0.22434355E+04</rscale>
<asrwt>0</asrwt>
<pdfrwt beam="1">  1        2 0.13782305E+00 0.22434355E+04</pdfrwt>
<pdfrwt beam="2">  1       -2 0.21608202E+00 0.22434355E+04</pdfrwt>
<totfact> 0.28126641E+00</totfact>
</mgrwt>
</event>
<event>
12    1  0.4247462E-008  0.1298238E+04  0.7818608E-02  0.9030964E-01
         -1   -1    0    0    0  501 -0.00000000000E+00  0.00000000000E+00  0.25491703885E+03  0.25491703885E+03  0.00000000000E+00 0.  1.
          1   -1    0    0  501    0  0.00000000000E+00 -0.00000000000E+00 -0.16529114039E+04  0.16529114039E+04  0.00000000000E+00 0. -1.
         23    2    1    2    0    0 -0.20283849653E+02  0.15865534522E+03 -0.77723758185E+03  0.79874794361E+03  0.91197947679E+02 0.  0.
        254    2    1    2    0    0  0.20283849653E+02 -0.15865534522E+03 -0.62075678318E+03  0.11090804991E+04  0.90506221694E+03 0.  0.
         23    2    4    4    0    0  0.37004100836E+03  0.13682863108E+03 -0.46543284258E+03  0.61698559672E+03  0.91602802684E+02 0.  0.
         23    2    4    4    0    0 -0.34975715870E+03 -0.29548397630E+03 -0.15532394060E+03  0.49209490240E+03  0.91602489735E+02 0.  0.
         11    1    3    3    0    0  0.35403529312E+02  0.73602445289E+02 -0.31002605730E+03  0.32060393954E+03  0.00000000000E+00 0. -1.
        -11    1    3    3    0    0 -0.55687378965E+02  0.85052899930E+02 -0.46721152454E+03  0.47814400407E+03  0.00000000000E+00 0.  1.
          2    1    5    5  502    0  0.13235825904E+03  0.28102730294E+02 -0.22097747111E+03  0.25911293855E+03  0.00000000000E+00 0.  1.
          4    1    6    6  503    0 -0.10479469653E+03 -0.14607220500E+03 -0.67380456500E+02  0.19198735222E+03  0.00000000000E+00 0. -1.
         -2    1    5    5    0  502  0.23768274932E+03  0.10872590079E+03 -0.24445537147E+03  0.35787265817E+03  0.00000000000E+00 0. -1.
         -4    1    6    6    0  503 -0.24496246218E+03 -0.14941177131E+03 -0.87943484104E+02  0.30010755018E+03  0.00000000000E+00 0.  1.
<mgrwt>
<rscale>  0 0.12982377E+04</rscale>
<asrwt>0</asrwt>
<pdfrwt beam="1">  1        1 0.25429406E+00 0.12982377E+04</pdfrwt>
<pdfrwt beam="2">  1       -1 0.39218006E-01 0.12982377E+04</pdfrwt>
<totfact> 0.31854110E+01</totfact>
</mgrwt>
</event>
<event>
12    1  0.4247462E-008  0.1611888E+04  0.7818608E-02  0.8813278E-01
          2   -1    0    0  501    0  0.00000000000E+00  0.00000000000E+00  0.93990391935E+03  0.93990391935E+03  0.00000000000E+00 0.  1.
         -2   -1    0    0    0  501 -0.00000000000E+00 -0.00000000000E+00 -0.69107689999E+03  0.69107689999E+03  0.00000000000E+00 0. -1.
         23    2    1    2    0    0 -0.24402983485E+03 -0.43202737222E+03  0.32118992760E+03  0.59808790138E+03  0.91367157906E+02 0.  0.
        254    2    1    2    0    0  0.24402983485E+03  0.43202737222E+03 -0.72362908238E+02  0.10328929180E+04  0.90301338796E+03 0.  0.
         23    2    4    4    0    0 -0.17700645252E+03  0.43396669551E+03 -0.27846081633E+03  0.55374019374E+03  0.97105091985E+02 0.  0.
         23    2    4    4    0    0  0.42103628737E+03 -0.19393232923E+01  0.20609790809E+03  0.47915272421E+03  0.99174942108E+02 0.  0.
         13    1    3    3    0    0 -0.12726126422E+03 -0.18494620980E+03  0.19376810683E+03  0.29655793552E+03  0.00000000000E+00 0.  1.
        -13    1    3    3    0    0 -0.11676857062E+03 -0.24708116241E+03  0.12742182077E+03  0.30152996586E+03  0.00000000000E+00 0. -1.
          4    1    5    5  502    0 -0.52665740251E+02  0.25032183393E+03 -0.16738690461E+03  0.30570095939E+03  0.00000000000E+00 0. -1.
          1    1    6    6  503    0  0.37374480342E+03 -0.33586546232E+02  0.18586575625E+03  0.41875925485E+03  0.00000000000E+00 0. -1.
         -4    1    5    5    0  502 -0.12434071227E+03  0.18364486158E+03 -0.11107391172E+03  0.24803923435E+03  0.00000000000E+00 0.  1.
         -1    1    6    6    0  503  0.47291483946E+02  0.31647222940E+02  0.20232151841E+02  0.60393469363E+02  0.00000000000E+00 0.  1.
<mgrwt>
<rscale>  0 0.16118882E+04</rscale>
<asrwt>0</asrwt>
<pdfrwt beam="1">  1        2 0.14460060E+00 0.16118882E+04</pdfrwt>
<pdfrwt beam="2">  1       -2 0.10631952E+00 0.16118882E+04</pdfrwt>
<totfact> 0.18844825E+01</totfact>
</mgrwt>
</event>
<event>
12    1  0.4247462E-008  0.2516896E+04  0.7818608E-02  0.8396991E-01
          1   -1    0    0  501    0  0.00000000000E+00  0.00000000000E+00  0.23807180776E+04  0.23807180776E+04  0.00000000000E+00 0. -1.
         -1   -1    0    0    0  501 -0.00000000000E+00 -0.00000000000E+00 -0.66521565623E+03  0.66521565623E+03  0.00000000000E+00 0.  1.
         23    2    1    2    0    0  0.10790409221E+03  0.88469915836E+03 -0.22430098753E+02  0.89561345227E+03  0.85349004888E+02 0.  0.
        254    2    1    2    0    0 -0.10790409221E+03 -0.88469915836E+03  0.17379325201E+04  0.21503202815E+04  0.89951763452E+03 0.  0.
         23    2    4    4    0    0  0.37195340122E+03 -0.51403601554E+03  0.10354999854E+04  0.12179215488E+04  0.92142939250E+02 0.  0.
         23    2    4    4    0    0 -0.47985749343E+03 -0.37066314281E+03  0.70243253467E+03  0.93239873273E+03  0.91112850810E+02 0.  0.
         11    1    3    3    0    0 -0.76686081316E+01  0.15073159385E+03 -0.22553628361E+02  0.15260238231E+03  0.00000000000E+00 0. -1.
        -11    1    3    3    0    0  0.11557270034E+03  0.73396756451E+03  0.12352960828E+00  0.74301106995E+03  0.00000000000E+00 0.  1.
          2    1    5    5  502    0  0.20029718420E+03 -0.26857166410E+03  0.63302795196E+03  0.71622209455E+03  0.00000000000E+00 0. -1.
          1    1    6    6  503    0 -0.54952528744E+02 -0.70013181684E+02  0.69498909790E+02  0.11292353380E+03  0.00000000000E+00 0. -1.
         -2    1    5    5    0  502  0.17165621702E+03 -0.24546435144E+03  0.40247203345E+03  0.50169945424E+03  0.00000000000E+00 0.  1.
         -1    1    6    6    0  503 -0.42490496469E+03 -0.30064996113E+03  0.63293362488E+03  0.81947519892E+03  0.00000000000E+00 0.  1.
<mgrwt>
<rscale>  0 0.25168957E+04</rscale>
<asrwt>0</asrwt>
<pdfrwt beam="1">  1        1 0.36626432E+00 0.25168957E+04</pdfrwt>
<pdfrwt beam="2">  1       -1 0.10234087E+00 0.25168957E+04</pdfrwt>
<totfact> 0.13126726E+00</totfact>
</mgrwt>
</event>
<event>
12    1  0.4247462E-008  0.1649287E+04  0.7818608E-02  0.8790828E-01
         -1   -1    0    0    0  501 -0.00000000000E+00  0.00000000000E+00  0.14032666015E+04  0.14032666015E+04  0.00000000000E+00 0.  1.
          1   -1    0    0  501    0  0.00000000000E+00 -0.00000000000E+00 -0.48460980321E+03  0.48460980321E+03  0.00000000000E+00 0. -1.
         23    2    1    2    0    0  0.38100090094E+01  0.41505901466E+03 -0.12474668733E+03  0.44268947613E+03  0.90131761622E+02 0.  0.
        254    2    1    2    0    0 -0.38100090094E+01 -0.41505901466E+03  0.10434034856E+04  0.14451869285E+04  0.90971749619E+03 0.  0.
         23    2    4    4    0    0  0.68514935596E+02 -0.67364640478E+03  0.55102882678E+03  0.87773025493E+03  0.91015698654E+02 0.  0.
         23    2    4    4    0    0 -0.72324944605E+02  0.25858739012E+03  0.49237465879E+03  0.56745667360E+03  0.86463494373E+02 0.  0.
         13    1    3    3    0    0 -0.13276068612E+02  0.23526373343E+03 -0.26588411775E+02  0.23713334204E+03  0.00000000000E+00 0. -1.
        -13    1    3    3    0    0  0.17086077622E+02  0.17979528123E+03 -0.98158275556E+02  0.20555613409E+03  0.00000000000E+00 0.  1.
          4    1    5    5  502    0  0.49050999499E+02 -0.22607795787E+03  0.23294766299E+03  0.32830147317E+03  0.00000000000E+00 0. -1.
          3    1    6    6  503    0 -0.65322878463E+02  0.18361419926E+03  0.42000744555E+03  0.46301998546E+03  0.00000000000E+00 0.  1.
         -4    1    5    5    0  502  0.19463936097E+02 -0.44756844691E+03  0.31808116379E+03  0.54942878177E+03  0.00000000000E+00 0.  1.
         -3    1    6    6    0  503 -0.70020661425E+01  0.74973190861E+02  0.72367213242E+02  0.10443668814E+03  0.00000000000E+00 0. -1.
<mgrwt>
<rscale>  0 0.16492868E+04</rscale>
<asrwt>0</asrwt>
<pdfrwt beam="1">  1        1 0.74555355E-01 0.16492868E+04</pdfrwt>
<pdfrwt beam="2">  1       -1 0.21588717E+00 0.16492868E+04</pdfrwt>
<totfact> 0.51859955E+00</totfact>
</mgrwt>
</event>
<event>
12    1  0.4247462E-008  0.1581374E+04  0.7818608E-02  0.8832073E-01
          1   -1    0    0  501    0  0.00000000000E+00  0.00000000000E+00  0.76465839408E+03  0.76465839408E+03  0.00000000000E+00 0. -1.
         -1   -1    0    0    0  501 -0.00000000000E+00 -0.00000000000E+00 -0.81760169516E+03  0.81760169516E+03  0.00000000000E+00 0.  1.
         23    2    1    2    0    0 -0.14135652038E+03 -0.25476437561E+03  0.41924874413E+03  0.51857826295E+03  0.90924982320E+02 0.  0.
        254    2    1    2    0    0  0.14135652038E+03  0.25476437561E+03 -0.47219204521E+03  0.10636818263E+04  0.90750600389E+03 0.  0.
         23    2    4    4    0    0 -0.33687456859E+03  0.29400675022E+03 -0.14621969470E+03  0.47739400128E+03  0.81242779411E+02 0.  0.
         23    2    4    4    0    0  0.47823108897E+03 -0.39242374607E+02 -0.32597235051E+03  0.58628782501E+03  0.85032358792E+02 0.  0.
         11    1    3    3    0    0 -0.85020726335E+02 -0.10415953039E+03  0.25757933115E+03  0.29055953523E+03  0.00000000000E+00 0. -1.
        -11    1    3    3    0    0 -0.56335794048E+02 -0.15060484523E+03  0.16166941298E+03  0.22801872772E+03  0.00000000000E+00 0.  1.
          2    1    5    5  502    0 -0.31346999522E+03  0.29436693647E+03 -0.13122061556E+03  0.44959335086E+03  0.00000000000E+00 0. -1.
          1    1    6    6  503    0  0.32094621133E+03 -0.63570088346E+02 -0.23649553540E+03  0.40370504699E+03  0.00000000000E+00 0. -1.
         -2    1    5    5    0  502 -0.23404573367E+02 -0.36018625428E+00 -0.14999079143E+02  0.27800650420E+02  0.00000000000E+00 0.  1.
         -1    1    6    6    0  503  0.15728487764E+03  0.24327713738E+02 -0.89476815112E+02  0.18258277803E+03  0.00000000000E+00 0.  1.
<mgrwt>
<rscale>  0 0.15813741E+04</rscale>
<asrwt>0</asrwt>
<pdfrwt beam="1">  1        1 0.11763975E+00 0.15813741E+04</pdfrwt>
<pdfrwt beam="2">  1       -1 0.12578488E+00 0.15813741E+04</pdfrwt>
<totfact> 0.12582956E+01</totfact>
</mgrwt>
</event>
<event>
12    1  0.4247462E-008  0.1852745E+04  0.7818608E-02  0.8678742E-01
          2   -1    0    0  501    0  0.00000000000E+00  0.00000000000E+00  0.10625711970E+04  0.10625711970E+04  0.00000000000E+00 0. -1.
         -2   -1    0    0    0  501 -0.00000000000E+00 -0.00000000000E+00 -0.80763192175E+03  0.80763192175E+03  0.00000000000E+00 0.  1.
         23    2    1    2    0    0 -0.29520290676E+03  0.29635145274E+03 -0.48320956558E+03  0.64569098885E+03  0.91958844635E+02 0.  0.
        254    2    1    2    0    0  0.29520290676E+03 -0.29635145274E+03  0.73814884081E+03  0.12245121299E+04  0.88294807625E+03 0.  0.
         23    2    4    4    0    0 -0.18908241520E+03 -0.41483108163E+03  0.30385104087E+03  0.55678601045E+03  0.99238200137E+02 0.  0.
         23    2    4    4    0    0  0.48428532197E+03  0.11847962889E+03  0.43429779994E+03  0.66772611944E+03  0.93133753384E+02 0.  0.
         11    1    3    3    0    0 -0.19405859766E+02  0.19792233129E+02 -0.48597972080E+01  0.28141384372E+02  0.00000000000E+00 0. -1.
        -11    1    3    3    0    0 -0.27579704700E+03  0.27655921961E+03 -0.47834976837E+03  0.61754960448E+03  0.00000000000E+00 0.  1.
          2    1    5    5  502    0 -0.18004628475E+03 -0.41841283909E+03  0.29044197823E+03  0.54022450082E+03  0.00000000000E+00 0. -1.
          4    1    6    6  503    0  0.38371231353E+03  0.98657296558E+02  0.39038207761E+03  0.55620730689E+03  0.00000000000E+00 0. -1.
         -2    1    5    5    0  502 -0.90361304569E+01  0.35817574643E+01  0.13409062643E+02  0.16561509627E+02  0.00000000000E+00 0.  1.
         -4    1    6    6    0  503  0.10057300844E+03  0.19822332329E+02  0.43915722328E+02  0.11151881256E+03  0.00000000000E+00 0.  1.
<mgrwt>
<rscale>  0 0.18527454E+04</rscale>
<asrwt>0</asrwt>
<pdfrwt beam="1">  1        2 0.16347249E+00 0.18527454E+04</pdfrwt>
<pdfrwt beam="2">  1       -2 0.12425106E+00 0.18527454E+04</pdfrwt>
<totfact> 0.10519800E+01</totfact>
</mgrwt>
</event>
<event>
12    1  0.4247462E-008  0.1326254E+04  0.7818608E-02  0.9009001E-01
          1   -1    0    0  501    0  0.00000000000E+00  0.00000000000E+00  0.13285157126E+04  0.13285157126E+04  0.00000000000E+00 0. -1.
         -1   -1    0    0    0  501 -0.00000000000E+00 -0.00000000000E+00 -0.33099883298E+03  0.33099883298E+03  0.00000000000E+00 0.  1.
         23    2    1    2    0    0 -0.16182520675E+03  0.29579892541E+03  0.21695371662E+03  0.41140152470E+03  0.92184041782E+02 0.  0.
        254    2    1    2    0    0  0.16182520675E+03 -0.29579892541E+03  0.78056316303E+03  0.12481130209E+04  0.91368641210E+03 0.  0.
         23    2    4    4    0    0 -0.33222706026E+03 -0.26185676984E+03  0.19058261744E+03  0.47244211403E+03  0.89084395723E+02 0.  0.
         23    2    4    4    0    0  0.49405226701E+03 -0.33942155572E+02  0.58998054559E+03  0.77567090688E+03  0.91370668911E+02 0.  0.
         11    1    3    3    0    0 -0.70305744181E+02  0.70505402215E+02  0.10160271705E+03  0.14225688566E+03  0.00000000000E+00 0. -1.
        -11    1    3    3    0    0 -0.91519462574E+02  0.22529352319E+03  0.11535099956E+03  0.26914463904E+03  0.00000000000E+00 0.  1.
          2    1    5    5  502    0 -0.18673144332E+03 -0.17377936586E+03  0.15562221111E+03  0.29880791909E+03  0.00000000000E+00 0. -1.
          1    1    6    6  503    0  0.36066164895E+03  0.95821696080E+01  0.38898293174E+03  0.53054346116E+03  0.00000000000E+00 0. -1.
         -2    1    5    5    0  502 -0.14549561694E+03 -0.88077403973E+02  0.34960406330E+02  0.17363419493E+03  0.00000000000E+00 0.  1.
         -1    1    6    6    0  503  0.13339061806E+03 -0.43524325180E+02  0.20099761385E+03  0.24512744571E+03  0.00000000000E+00 0.  1.
<mgrwt>
<rscale>  0 0.13262536E+04</rscale>
<asrwt>0</asrwt>
<pdfrwt beam="1">  1        1 0.20438703E+00 0.13262536E+04</pdfrwt>
<pdfrwt beam="2">  1       -1 0.50922898E-01 0.13262536E+04</pdfrwt>
<totfact> 0.32801310E+01</totfact>
</mgrwt>
</event>
<event>
12    1  0.4247462E-008  0.1382467E+04  0.7818608E-02  0.8966608E-01
         -2   -1    0    0    0  501 -0.00000000000E+00  0.00000000000E+00  0.38320825313E+03  0.38320825313E+03  0.00000000000E+00 0. -1.
          2   -1    0    0  501    0  0.00000000000E+00 -0.00000000000E+00 -0.12468515085E+04  0.12468515085E+04  0.00000000000E+00 0.  1.
         23    2    1    2    0    0 -0.19669973328E+03 -0.81975346560E+02 -0.61708729113E+03  0.65894703855E+03  0.89463580441E+02 0.  0.
        254    2    1    2    0    0  0.19669973328E+03  0.81975346560E+02 -0.24655596421E+03  0.97111272304E+03  0.91480016116E+03 0.  0.
         23    2    4    4    0    0 -0.25491159635E+03 -0.10416762379E+03  0.15827519401E+03  0.33001315217E+03  0.89592565336E+02 0.  0.
         23    2    4    4    0    0  0.45161132964E+03  0.18614297035E+03 -0.40483115823E+03  0.64109957088E+03  0.92295149597E+02 0.  0.
         13    1    3    3    0    0 -0.75560775908E+01 -0.22814563564E+02 -0.25469816566E+02  0.35018711785E+02  0.00000000000E+00 0. -1.
        -13    1    3    3    0    0 -0.18914365569E+03 -0.59160782996E+02 -0.59161747456E+03  0.62392832677E+03  0.00000000000E+00 0.  1.
          1    1    6    6  502    0  0.11469137011E+02 -0.50406628311E+01 -0.28934953483E+02  0.31530634605E+02  0.00000000000E+00 0. -1.
          1    1    5    5  503    0 -0.17735573231E+02  0.15153593929E+02  0.66017250761E+01  0.24243859857E+02  0.00000000000E+00 0. -1.
         -1    1    5    5    0  503 -0.23717602312E+03 -0.11932121772E+03  0.15167346894E+03  0.30576929231E+03  0.00000000000E+00 0.  1.
         -1    1    6    6    0  502  0.44014219263E+03  0.19118363318E+03 -0.37589620474E+03  0.60956893627E+03  0.00000000000E+00 0.  1.
<mgrwt>
<rscale>  0 0.13824671E+04</rscale>
<asrwt>0</asrwt>
<pdfrwt beam="1">  1        2 0.19182331E+00 0.13824671E+04</pdfrwt>
<pdfrwt beam="2">  1       -2 0.58955116E-01 0.13824671E+04</pdfrwt>
<totfact> 0.46528445E+01</totfact>
</mgrwt>
</event>
<event>
12    1  0.4247462E-008  0.1742197E+04  0.7818608E-02  0.8737657E-01
         -2   -1    0    0    0  501 -0.00000000000E+00  0.00000000000E+00  0.16912153850E+04  0.16912153850E+04  0.00000000000E+00 0.  1.
          2   -1    0    0  501    0  0.00000000000E+00 -0.00000000000E+00 -0.44867897166E+03  0.44867897166E+03  0.00000000000E+00 0. -1.
         23    2    1    2    0    0 -0.39587071756E+03 -0.25078139183E+03  0.98700744884E+03  0.10960479968E+04  0.86790412738E+02 0.  0.
        254    2    1    2    0    0  0.39587071756E+03  0.25078139183E+03  0.25552896454E+03  0.10438463599E+04  0.89705921756E+03 0.  0.
         23    2    4    4    0    0  0.12905967321E+03  0.37043227477E+03 -0.23421550850E+03  0.46609361607E+03  0.92249038360E+02 0.  0.
         23    2    4    4    0    0  0.26681104435E+03 -0.11965088295E+03  0.48974447304E+03  0.57775274381E+03  0.91891876305E+02 0.  0.
         13    1    3    3    0    0 -0.33978779675E+03 -0.24541008685E+03  0.84411972938E+03  0.94245422970E+03  0.00000000000E+00 0.  1.
        -13    1    3    3    0    0 -0.56082920816E+02 -0.53713049753E+01  0.14288771946E+03  0.15359376711E+03  0.00000000000E+00 0. -1.
          2    1    5    5  502    0  0.73352234827E+02  0.30281749708E+03 -0.20808937008E+03  0.37467342158E+03  0.00000000000E+00 0. -1.
          3    1    6    6  503    0  0.26192829848E+03 -0.91625134328E+02  0.43319130109E+03  0.51444756985E+03  0.00000000000E+00 0. -1.
         -2    1    5    5    0  502  0.55707438382E+02  0.67614777690E+02 -0.26126138419E+02  0.91420194497E+02  0.00000000000E+00 0.  1.
         -3    1    6    6    0  503  0.48827458762E+01 -0.28025748619E+02  0.56553171949E+02  0.63305173962E+02  0.00000000000E+00 0.  1.
<mgrwt>
<rscale>  0 0.17421972E+04</rscale>
<asrwt>0</asrwt>
<pdfrwt beam="1">  1        2 0.69027535E-01 0.17421972E+04</pdfrwt>
<pdfrwt beam="2">  1       -2 0.26018698E+00 0.17421972E+04</pdfrwt>
<totfact> 0.36840433E+00</totfact>
</mgrwt>
</event>
<event>
12    1  0.4247462E-008  0.1395933E+04  0.7818608E-02  0.8956768E-01
         -1   -1    0    0    0  501 -0.00000000000E+00  0.00000000000E+00  0.23719622206E+03  0.23719622206E+03  0.00000000000E+00 0.  1.
          1   -1    0    0  501    0  0.00000000000E+00 -0.00000000000E+00 -0.20538152274E+04  0.20538152274E+04  0.00000000000E+00 0. -1.
         23    2    1    2    0    0 -0.75753200246E+02 -0.36830016429E+03 -0.80246973897E+03  0.89078169388E+03  0.90281702562E+02 0.  0.
        254    2    1    2    0    0  0.75753200246E+02  0.36830016429E+03 -0.10141492664E+04  0.14002297556E+04  0.88924747713E+03 0.  0.
         23    2    4    4    0    0 -0.29520284116E+03  0.47228917131E+03 -0.66508866597E+03  0.87230986941E+03  0.91541225180E+02 0.  0.
         23    2    4    4    0    0  0.37095604141E+03 -0.10398900702E+03 -0.34906060041E+03  0.52791988618E+03  0.91836840246E+02 0.  0.
         11    1    3    3    0    0 -0.10541241532E+02 -0.21985151354E+02 -0.12267496324E+03  0.12507442288E+03  0.00000000000E+00 0.  1.
        -11    1    3    3    0    0 -0.65211958715E+02 -0.34631501293E+03 -0.67979477573E+03  0.76570727100E+03  0.00000000000E+00 0. -1.
          2    1    5    5  502    0 -0.26330877438E+03  0.39465498005E+03 -0.51407989170E+03  0.69954427951E+03  0.00000000000E+00 0. -1.
          4    1    6    6  503    0  0.15655895946E+03 -0.81941922825E+02 -0.19396752120E+03  0.26239014041E+03  0.00000000000E+00 0. -1.
         -2    1    5    5    0  502 -0.31894066785E+02  0.77634191251E+02 -0.15100877426E+03  0.17276558990E+03  0.00000000000E+00 0.  1.
         -4    1    6    6    0  503  0.21439708195E+03 -0.22047084191E+02 -0.15509307921E+03  0.26552974577E+03  0.00000000000E+00 0.  1.
<mgrwt>
<rscale>  0 0.13959330E+04</rscale>
<asrwt>0</asrwt>
<pdfrwt beam="1">  1        1 0.31597158E+00 0.13959330E+04</pdfrwt>
<pdfrwt beam="2">  1       -1 0.36491726E-01 0.13959330E+04</pdfrwt>
<totfact> 0.19254889E+01</totfact>
</mgrwt>
</event>
<event>
12    1  0.4247462E-008  0.1272091E+04  0.7818608E-02  0.9051995E-01
         -2   -1    0    0    0  501 -0.00000000000E+00  0.00000000000E+00  0.98359232423E+03  0.98359232423E+03  0.00000000000E+00 0. -1.
          2   -1    0    0  501    0  0.00000000000E+00 -0.00000000000E+00 -0.41130220863E+03  0.41130220863E+03  0.00000000000E+00 0.  1.
         23    2    1    2    0    0 -0.10764466848E+03  0.28065480861E+03  0.19669471647E+03  0.37176258646E+03  0.95729373537E+02 0.  0.
        254    2    1    2    0    0  0.10764466848E+03 -0.28065480861E+03  0.37559539913E+03  0.10231319464E+04  0.90297983347E+03 0.  0.
         23    2    4    4    0    0 -0.17506982464E+02 -0.63612079559E+00 -0.27823552164E+03  0.29361622080E+03  0.92133493014E+02 0.  0.
         23    2    4    4    0    0  0.12515165094E+03 -0.28001868781E+03  0.65383092076E+03  0.72951572560E+03  0.10307725107E+03 0.  0.
         11    1    3    3    0    0 -0.45350897693E+02  0.44089698439E+02  0.76313104164E+02  0.99117583188E+02  0.00000000000E+00 0.  1.
        -11    1    3    3    0    0 -0.62293770788E+02  0.23656511017E+03  0.12038161231E+03  0.27264500328E+03  0.00000000000E+00 0. -1.
          2    1    5    5  502    0 -0.20556802092E+02 -0.43388685364E+02 -0.18275924834E+03  0.18896058580E+03  0.00000000000E+00 0. -1.
          3    1    6    6  503    0  0.41135127828E+02 -0.14684819114E+03  0.42678874005E+03  0.45321641476E+03  0.00000000000E+00 0. -1.
         -2    1    5    5    0  502  0.30498196281E+01  0.42752564569E+02 -0.95476273292E+02  0.10465563501E+03  0.00000000000E+00 0.  1.
         -3    1    6    6    0  503  0.84016523117E+02 -0.13317049668E+03  0.22704218072E+03  0.27629931083E+03  0.00000000000E+00 0.  1.
<mgrwt>
<rscale>  0 0.12720907E+04</rscale>
<asrwt>0</asrwt>
<pdfrwt beam="1">  1        2 0.63277263E-01 0.12720907E+04</pdfrwt>
<pdfrwt beam="2">  1       -2 0.15132190E+00 0.12720907E+04</pdfrwt>
<totfact> 0.22125520E+01</totfact>
</mgrwt>
</event>
<event>
12    1  0.4247462E-008  0.1455694E+04  0.7818608E-02  0.8914462E-01
         -2   -1    0    0    0  501 -0.00000000000E+00  0.00000000000E+00  0.91907192055E+03  0.91907192055E+03  0.00000000000E+00 0. -1.
          2   -1    0    0  501    0  0.00000000000E+00 -0.00000000000E+00 -0.57640909892E+03  0.57640909892E+03  0.00000000000E+00 0.  1.
         23    2    1    2    0    0 -0.29254376869E+03 -0.48646512499E+02  0.45619147991E+03  0.55161180150E+03  0.90645316678E+02 0.  0.
        254    2    1    2    0    0  0.29254376869E+03  0.48646512499E+02 -0.11352865828E+03  0.94386921797E+03  0.88884869612E+03 0.  0.
         23    2    4    4    0    0 -0.40564735926E+02  0.39742637677E+03  0.78237106121E+02  0.41738082784E+03  0.92154695596E+02 0.  0.
         23    2    4    4    0    0  0.33310850462E+03 -0.34877986427E+03 -0.19176576440E+03  0.52648839012E+03  0.88358627009E+02 0.  0.
         11    1    3    3    0    0 -0.23134351701E+03 -0.48745553139E+02  0.41570165327E+03  0.47822987814E+03  0.00000000000E+00 0. -1.
        -11    1    3    3    0    0 -0.61200251686E+02  0.99040639730E-01  0.40489826640E+02  0.73381923365E+02  0.00000000000E+00 0.  1.
          4    1    5    5  502    0 -0.26607378635E+02  0.38917915683E+03  0.85924256470E+02  0.39943878950E+03  0.00000000000E+00 0. -1.
          3    1    6    6  503    0  0.16988552794E+03 -0.23928458749E+03 -0.10556418137E+03  0.31186856655E+03  0.00000000000E+00 0. -1.
         -4    1    5    5    0  502 -0.13957357291E+02  0.82472199433E+01 -0.76871503491E+01  0.17942038341E+02  0.00000000000E+00 0.  1.
         -3    1    6    6    0  503  0.16322297668E+03 -0.10949527678E+03 -0.86201583032E+02  0.21461982357E+03  0.00000000000E+00 0.  1.
<mgrwt>
<rscale>  0 0.14556942E+04</rscale>
<asrwt>0</asrwt>
<pdfrwt beam="1">  1        2 0.88678323E-01 0.14556942E+04</pdfrwt>
<pdfrwt beam="2">  1       -2 0.14139568E+00 0.14556942E+04</pdfrwt>
<totfact> 0.17649662E+01</totfact>
</mgrwt>
</event>
<event>
12    1  0.4247462E-008  0.5210585E+04  0.7818608E-02  0.7796819E-01
         -2   -1    0    0    0  501 -0.00000000000E+00  0.00000000000E+00  0.21788506410E+04  0.21788506410E+04  0.00000000000E+00 0.  1.
          2   -1    0    0  501    0  0.00000000000E+00 -0.00000000000E+00 -0.31151964740E+04  0.31151964740E+04  0.00000000000E+00 0. -1.
         23    2    1    2    0    0 -0.17810152538E+04 -0.13785724755E+04 -0.16165635714E+04  0.27737710501E+04  0.89725433887E+02 0.  0.
        254    2    1    2    0    0  0.17810152538E+04  0.13785724755E+04  0.68021773829E+03  0.25202760649E+04  0.90366911367E+03 0.  0.
         23    2    4    4    0    0  0.65731178528E+02 -0.97819784105E+02  0.11078961807E+03  0.18469985108E+03  0.89165001673E+02 0.  0.
         23    2    4    4    0    0  0.17152840753E+04  0.14763922596E+04  0.56942812022E+03  0.23355762138E+04  0.93457493153E+02 0.  0.
         11    1    3    3    0    0 -0.61328692967E+03 -0.50419287117E+03 -0.61425461954E+03  0.10038127550E+04  0.00000000000E+00 0. -1.
        -11    1    3    3    0    0 -0.11677283242E+04 -0.87437960435E+03 -0.10023089518E+04  0.17699582951E+04  0.00000000000E+00 0.  1.
          1    1    5    5  502    0  0.72674712417E+02 -0.61373591955E+02  0.36920053413E+02  0.10203637566E+03  0.00000000000E+00 0. -1.
          3    1    6    6  503    0  0.28973441661E+02  0.17420750260E+02  0.19049557191E+02  0.38805005998E+02  0.00000000000E+00 0. -1.
         -1    1    5    5    0  502 -0.69435338889E+01 -0.36446192149E+02  0.73869564659E+02  0.82663475417E+02  0.00000000000E+00 0.  1.
         -3    1    6    6    0  503  0.16863106337E+04  0.14589715094E+04  0.55037856303E+03  0.22967712078E+04  0.00000000000E+00 0.  1.
<mgrwt>
<rscale>  0 0.52105845E+04</rscale>
<asrwt>0</asrwt>
<pdfrwt beam="1">  1        2 0.47926100E+00 0.52105845E+04</pdfrwt>
<pdfrwt beam="2">  1       -2 0.33520779E+00 0.52105845E+04</pdfrwt>
<totfact> 0.20282613E-02</totfact>
</mgrwt>
</event>
<event>
12    1  0.4247462E-008  0.1315784E+04  0.7818608E-02  0.9017141E-01
          1   -1    0    0  501    0  0.00000000000E+00  0.00000000000E+00  0.22899588705E+04  0.22899588705E+04  0.00000000000E+00 0. -1.
         -1   -1    0    0    0  501 -0.00000000000E+00 -0.00000000000E+00 -0.18900864417E+03  0.18900864417E+03  0.00000000000E+00 0.  1.
         23    2    1    2    0    0  0.29478928249E+03  0.17188443166E+03  0.55030077228E+03  0.65385729953E+03  0.90848496142E+02 0.  0.
        254    2    1    2    0    0 -0.29478928249E+03 -0.17188443166E+03  0.15506494540E+04  0.18251102151E+04  0.90003810426E+03 0.  0.
         23    2    4    4    0    0 -0.89225122181E+02 -0.11923778975E+03  0.15824299731E+04  0.15922247311E+04  0.94425640984E+02 0.  0.
         23    2    4    4    0    0 -0.20556416031E+03 -0.52646641917E+02 -0.31780519029E+02  0.23288548404E+03  0.90539242212E+02 0.  0.
         13    1    3    3    0    0  0.42184713730E+02  0.51451558055E+02  0.16280717335E+03  0.17587776605E+03  0.00000000000E+00 0. -1.
        -13    1    3    3    0    0  0.25260456876E+03  0.12043287361E+03  0.38749359894E+03  0.47797953348E+03  0.00000000000E+00 0.  1.
          2    1    5    5  502    0 -0.83407083723E+02 -0.60570488517E+02  0.12772248233E+04  0.12813776863E+04  0.00000000000E+00 0. -1.
          4    1    6    6  503    0 -0.94541551965E+02 -0.17906237106E+02 -0.59717167734E+02  0.11324698008E+03  0.00000000000E+00 0. -1.
         -2    1    5    5    0  502 -0.58180384580E+01 -0.58667301228E+02  0.30520514976E+03  0.31084704477E+03  0.00000000000E+00 0.  1.
         -4    1    6    6    0  503 -0.11102260834E+03 -0.34740404812E+02  0.27936648705E+02  0.11963850396E+03  0.00000000000E+00 0.  1.
<mgrwt>
<rscale>  0 0.13157842E+04</rscale>
<asrwt>0</asrwt>
<pdfrwt beam="1">  1        1 0.35230134E+00 0.13157842E+04</pdfrwt>
<pdfrwt beam="2">  1       -1 0.29078255E-01 0.13157842E+04</pdfrwt>
<totfact> 0.20057661E+01</totfact>
</mgrwt>
</event>
<event>
12    1  0.4247462E-008  0.1177382E+04  0.7818608E-02  0.9132888E-01
          1   -1    0    0  501    0  0.00000000000E+00  0.00000000000E+00  0.22334427313E+04  0.22334427313E+04  0.00000000000E+00 0. -1.
         -1   -1    0    0    0  501 -0.00000000000E+00 -0.00000000000E+00 -0.15516720143E+03  0.15516720143E+03  0.00000000000E+00 0.  1.
         23    2    1    2    0    0  0.88779444504E+02  0.26233914169E+02  0.85912795957E+03  0.86887328190E+03  0.90939106327E+02 0.  0.
        254    2    1    2    0    0 -0.88779444504E+02 -0.26233914169E+02  0.12191475703E+04  0.15197366508E+04  0.90261214355E+03 0.  0.
         23    2    4    4    0    0 -0.40082003073E+03  0.88435645171E+02  0.10604255281E+04  0.11407370444E+04  0.91110611330E+02 0.  0.
         23    2    4    4    0    0  0.31204058623E+03 -0.11466955934E+03  0.15872204222E+03  0.37899960642E+03  0.89048187453E+02 0.  0.
         13    1    3    3    0    0  0.64615171257E+02 -0.11710049419E+02  0.71199754770E+03  0.71501940781E+03  0.00000000000E+00 0. -1.
        -13    1    3    3    0    0  0.24164273247E+02  0.37943963589E+02  0.14713041187E+03  0.15385387409E+03  0.00000000000E+00 0.  1.
          1    1    5    5  502    0 -0.15650358513E+03  0.55240259436E+02  0.32233230039E+03  0.36255064514E+03  0.00000000000E+00 0. -1.
          3    1    6    6  503    0  0.16964566136E+03 -0.90880522024E+02  0.12875749185E+03  0.23155433792E+03  0.00000000000E+00 0. -1.
         -1    1    5    5    0  502 -0.24431644560E+03  0.33195385735E+02  0.73809322771E+03  0.77818639928E+03  0.00000000000E+00 0.  1.
         -3    1    6    6    0  503  0.14239492487E+03 -0.23789037316E+02  0.29964550366E+02  0.14744526850E+03  0.00000000000E+00 0.  1.
<mgrwt>
<rscale>  0 0.11773819E+04</rscale>
<asrwt>0</asrwt>
<pdfrwt beam="1">  1        1 0.34360655E+00 0.11773819E+04</pdfrwt>
<pdfrwt beam="2">  1       -1 0.23871879E-01 0.11773819E+04</pdfrwt>
<totfact> 0.31188262E+01</totfact>
</mgrwt>
</event>
<event>
12    1  0.4247462E-008  0.2244287E+04  0.7818608E-02  0.8500218E-01
          1   -1    0    0  501    0  0.00000000000E+00  0.00000000000E+00  0.24400485143E+04  0.24400485143E+04  0.00000000000E+00 0. -1.
         -1   -1    0    0    0  501 -0.00000000000E+00 -0.00000000000E+00 -0.51605786887E+03  0.51605786887E+03  0.00000000000E+00 0.  1.
         23    2    1    2    0    0 -0.15585321432E+03 -0.72454795220E+03  0.31935307547E+02  0.74737386331E+03  0.91037729776E+02 0.  0.
        254    2    1    2    0    0  0.15585321432E+03  0.72454795220E+03  0.18920553379E+04  0.22087325199E+04  0.86565927666E+03 0.  0.
         23    2    4    4    0    0  0.30799897270E+03  0.31035149904E+03  0.26274496616E+03  0.51835575613E+03  0.92067108883E+02 0.  0.
         23    2    4    4    0    0 -0.15214575838E+03  0.41419645316E+03  0.16293103717E+04  0.16903767637E+04  0.89522524293E+02 0.  0.
         11    1    3    3    0    0 -0.33123882402E+02 -0.55768442359E+02 -0.12177460204E+02  0.65996979366E+02  0.00000000000E+00 0. -1.
        -11    1    3    3    0    0 -0.12272933191E+03 -0.66877950984E+03  0.44112767750E+02  0.68137688394E+03  0.00000000000E+00 0.  1.
          1    1    5    5  502    0  0.11333139695E+03  0.13192117444E+03  0.55136649637E+02  0.18244794308E+03  0.00000000000E+00 0. -1.
          3    1    6    6  503    0 -0.42306474567E+02  0.14463606676E+03  0.41040055452E+03  0.43719337226E+03  0.00000000000E+00 0. -1.
         -1    1    5    5    0  502  0.19466757574E+03  0.17843032460E+03  0.20760831652E+03  0.33590781306E+03  0.00000000000E+00 0.  1.
         -3    1    6    6    0  503 -0.10983928381E+03  0.26956038640E+03  0.12189098172E+04  0.12531833915E+04  0.00000000000E+00 0.  1.
<mgrwt>
<rscale>  0 0.22442872E+04</rscale>
<asrwt>0</asrwt>
<pdfrwt beam="1">  1        1 0.37539207E+00 0.22442872E+04</pdfrwt>
<pdfrwt beam="2">  1       -1 0.79393520E-01 0.22442872E+04</pdfrwt>
<totfact> 0.21462908E+00</totfact>
</mgrwt>
</event>
<event>
12    1  0.4247462E-008  0.2570369E+04  0.7818608E-02  0.8378336E-01
         -2   -1    0    0    0  501 -0.00000000000E+00  0.00000000000E+00  0.74463861073E+03  0.74463861073E+03  0.00000000000E+00 0.  1.
          2   -1    0    0  501    0  0.00000000000E+00 -0.00000000000E+00 -0.22181223305E+04  0.22181223305E+04  0.00000000000E+00 0. -1.
         23    2    1    2    0    0  0.48438002345E+03 -0.72779157751E+03  0.16134074287E+03  0.89372327310E+03  0.91683510819E+02 0.  0.
        254    2    1    2    0    0 -0.48438002345E+03  0.72779157751E+03 -0.16348244626E+04  0.20690376681E+04  0.91867364233E+03 0.  0.
         23    2    4    4    0    0 -0.68182121095E+03  0.55798174465E+03 -0.81726568804E+03  0.12052110111E+04  0.91578301237E+02 0.  0.
         23    2    4    4    0    0  0.19744118750E+03  0.16980983286E+03 -0.81755877461E+03  0.86382665709E+03  0.99878634875E+02 0.  0.
         13    1    3    3    0    0  0.44542818041E+02 -0.67313124587E+02  0.42884683640E+02  0.91401397536E+02  0.00000000000E+00 0. -1.
        -13    1    3    3    0    0  0.43983720541E+03 -0.66047845292E+03  0.11845605923E+03  0.80232187556E+03  0.00000000000E+00 0.  1.
          3    1    6    6  502    0  0.31763305327E+02  0.43378350934E+02 -0.73074585180E+02  0.90722014386E+02  0.00000000000E+00 0.  1.
          3    1    5    5  503    0 -0.59209655652E+03  0.52079315948E+03 -0.72160592691E+03  0.10688867858E+04  0.00000000000E+00 0. -1.
         -3    1    5    5    0  503 -0.89724654421E+02  0.37188585166E+02 -0.95659761132E+02  0.13632422520E+03  0.00000000000E+00 0.  1.
         -3    1    6    6    0  502  0.16567788217E+03  0.12643148193E+03 -0.74448418943E+03  0.77310464271E+03  0.00000000000E+00 0. -1.
<mgrwt>
<rscale>  0 0.25703693E+04</rscale>
<asrwt>0</asrwt>
<pdfrwt beam="1">  1        2 0.34124959E+00 0.25703693E+04</pdfrwt>
<pdfrwt beam="2">  1       -2 0.11455979E+00 0.25703693E+04</pdfrwt>
<totfact> 0.26617285E+00</totfact>
</mgrwt>
</event>
<event>
12    1  0.4247462E-008  0.1790221E+04  0.7818608E-02  0.8711517E-01
         -2   -1    0    0    0  501 -0.00000000000E+00  0.00000000000E+00  0.62975281404E+03  0.62975281404E+03  0.00000000000E+00 0.  1.
          2   -1    0    0  501    0  0.00000000000E+00 -0.00000000000E+00 -0.12722817690E+04  0.12722817690E+04  0.00000000000E+00 0. -1.
         23    2    1    2    0    0 -0.10665582092E+03  0.90641447475E+02  0.44818924051E+03  0.47840273296E+03  0.91674660935E+02 0.  0.
        254    2    1    2    0    0  0.10665582092E+03 -0.90641447475E+02 -0.10907181955E+04  0.14236318501E+04  0.90414054578E+03 0.  0.
         23    2    4    4    0    0  0.12339041271E+03 -0.16372362370E+03 -0.12248945731E+04  0.12453198006E+04  0.91782740790E+02 0.  0.
         23    2    4    4    0    0 -0.16734591793E+02  0.73082176229E+02  0.13417637762E+03  0.17831204955E+03  0.90392674807E+02 0.  0.
         11    1    3    3    0    0 -0.38895261295E+02  0.54274348883E+02  0.90079771616E+02  0.11212899514E+03  0.00000000000E+00 0. -1.
        -11    1    3    3    0    0 -0.67760559625E+02  0.36367098591E+02  0.35810946889E+03  0.36627373781E+03  0.00000000000E+00 0.  1.
          4    1    5    5  502    0  0.12621349753E+03 -0.17335927012E+03 -0.11786192881E+04  0.11979677416E+04  0.00000000000E+00 0.  1.
          1    1    6    6  503    0 -0.52850152674E+02  0.33422981019E+02  0.59086813778E+02  0.86031888625E+02  0.00000000000E+00 0. -1.
         -4    1    5    5    0  502 -0.28230848169E+01  0.96356464168E+01 -0.46275284988E+02  0.47352058988E+02  0.00000000000E+00 0. -1.
         -1    1    6    6    0  503  0.36115560881E+02  0.39659195209E+02  0.75089563844E+02  0.92280160927E+02  0.00000000000E+00 0.  1.
<mgrwt>
<rscale>  0 0.17902212E+04</rscale>
<asrwt>0</asrwt>
<pdfrwt beam="1">  1        2 0.19573566E+00 0.17902212E+04</pdfrwt>
<pdfrwt beam="2">  1       -2 0.96885048E-01 0.17902212E+04</pdfrwt>
<totfact> 0.14433322E+01</totfact>
</mgrwt>
</event>
<event>
12    1  0.4247462E-008  0.1114108E+04  0.7818608E-02  0.9191549E-01
          1   -1    0    0  501    0  0.00000000000E+00  0.00000000000E+00  0.11226433485E+04  0.11226433485E+04  0.00000000000E+00 0. -1.
         -1   -1    0    0    0  501 -0.00000000000E+00 -0.00000000000E+00 -0.27640940059E+03  0.27640940059E+03  0.00000000000E+00 0.  1.
         23    2    1    2    0    0  0.47211800918E+02  0.33025263868E+02 -0.54403637145E+02  0.12435541287E+03  0.95837835831E+02 0.  0.
        254    2    1    2    0    0 -0.47211800918E+02 -0.33025263868E+02  0.90063758502E+03  0.12746973362E+04  0.90021420623E+03 0.  0.
         23    2    4    4    0    0  0.31912775864E+03  0.92266401401E+02  0.66059267686E+02  0.35030833170E+03  0.89423068868E+02 0.  0.
         23    2    4    4    0    0 -0.36633955956E+03 -0.12529166527E+03  0.83457831733E+03  0.92438900448E+03  0.89840912471E+02 0.  0.
         11    1    3    3    0    0 -0.23335182031E+02  0.30764412889E+02 -0.32447020485E+02  0.50435988730E+02  0.00000000000E+00 0. -1.
        -11    1    3    3    0    0  0.70546982950E+02  0.22608509785E+01 -0.21956616660E+02  0.73919424143E+02  0.00000000000E+00 0.  1.
          4    1    5    5  502    0  0.24976007181E+03  0.10020446478E+03  0.27408371330E+02  0.27050369138E+03  0.00000000000E+00 0. -1.
          1    1    6    6  503    0 -0.27489895849E+03 -0.13330193387E+03  0.65245818891E+03  0.72044467604E+03  0.00000000000E+00 0. -1.
         -4    1    5    5    0  502  0.69367686831E+02 -0.79380633791E+01  0.38650896356E+02  0.79804640314E+02  0.00000000000E+00 0.  1.
         -1    1    6    6    0  503 -0.91440601065E+02  0.80102686030E+01  0.18212012842E+03  0.20394432843E+03  0.00000000000E+00 0.  1.
<mgrwt>
<rscale>  0 0.11141080E+04</rscale>
<asrwt>0</asrwt>
<pdfrwt beam="1">  1        1 0.17271436E+00 0.11141080E+04</pdfrwt>
<pdfrwt beam="2">  1       -1 0.42524524E-01 0.11141080E+04</pdfrwt>
<totfact> 0.66002984E+01</totfact>
</mgrwt>
</event>
<event>
12    1  0.4247462E-008  0.2604529E+04  0.7818608E-02  0.8366664E-01
          1   -1    0    0  501    0  0.00000000000E+00  0.00000000000E+00  0.11533498231E+04  0.11533498231E+04  0.00000000000E+00 0. -1.
         -1   -1    0    0    0  501 -0.00000000000E+00 -0.00000000000E+00 -0.14704066184E+04  0.14704066184E+04  0.00000000000E+00 0.  1.
         23    2    1    2    0    0  0.52299395546E+02 -0.45276088999E+03 -0.11983763954E+04  0.12853106514E+04  0.90497707866E+02 0.  0.
        254    2    1    2    0    0 -0.52299395546E+02  0.45276088999E+03  0.88131960008E+03  0.13384457901E+04  0.89832357496E+03 0.  0.
         23    2    4    4    0    0 -0.18965406382E+03  0.33102834625E+03 -0.39582204291E+02  0.39482384920E+03  0.93651967703E+02 0.  0.
         23    2    4    4    0    0  0.13735466827E+03  0.12173254374E+03  0.92090180437E+03  0.94362194093E+03  0.93151044000E+02 0.  0.
         13    1    3    3    0    0  0.20696752129E+02 -0.12219605282E+03 -0.44621881309E+03  0.46311063476E+03  0.00000000000E+00 0. -1.
        -13    1    3    3    0    0  0.31602643417E+02 -0.33056483717E+03 -0.75215758235E+03  0.82220001662E+03  0.00000000000E+00 0.  1.
          4    1    5    5  502    0 -0.11402415442E+03  0.11368325290E+03  0.17003191810E+01  0.16102260980E+03  0.00000000000E+00 0. -1.
          1    1    6    6  503    0  0.15055525770E+03  0.11910576880E+03  0.87350094522E+03  0.89434723183E+03  0.00000000000E+00 0. -1.
         -4    1    5    5    0  502 -0.75629909391E+02  0.21734509335E+03 -0.41282523472E+02  0.23380123939E+03  0.00000000000E+00 0.  1.
         -1    1    6    6    0  503 -0.13200589434E+02  0.26267749471E+01  0.47400859153E+02  0.49274709096E+02  0.00000000000E+00 0.  1.
<mgrwt>
<rscale>  0 0.26045293E+04</rscale>
<asrwt>0</asrwt>
<pdfrwt beam="1">  1        1 0.17743843E+00 0.26045293E+04</pdfrwt>
<pdfrwt beam="2">  1       -1 0.22621640E+00 0.26045293E+04</pdfrwt>
<totfact> 0.10184178E+00</totfact>
</mgrwt>
</event>
<event>
12    1  0.4247462E-008  0.1531570E+04  0.7818608E-02  0.8863727E-01
         -2   -1    0    0    0  501 -0.00000000000E+00  0.00000000000E+00  0.89780971477E+03  0.89780971477E+03  0.00000000000E+00 0.  1.
          2   -1    0    0  501    0  0.00000000000E+00 -0.00000000000E+00 -0.65317469403E+03  0.65317469403E+03  0.00000000000E+00 0. -1.
         23    2    1    2    0    0 -0.20545100152E+03 -0.44523291778E+03  0.15550239176E+03  0.52147179796E+03  0.85494895312E+02 0.  0.
        254    2    1    2    0    0  0.20545100152E+03  0.44523291778E+03  0.89132628992E+02  0.10295126108E+04  0.90083801276E+03 0.  0.
         23    2    4    4    0    0  0.54397317064E+03  0.20083110162E+03 -0.22832082860E+02  0.58715603466E+03  0.89392187978E+02 0.  0.
         23    2    4    4    0    0 -0.33852216913E+03  0.24440181616E+03  0.11196471185E+03  0.44235657619E+03  0.93881505419E+02 0.  0.
         13    1    3    3    0    0 -0.19914898385E+03 -0.43836594899E+03  0.13674108118E+03  0.50052287289E+03  0.00000000000E+00 0.  1.
        -13    1    3    3    0    0 -0.63020176637E+01 -0.68669687917E+01  0.18761310577E+02  0.20948925070E+02  0.00000000000E+00 0. -1.
          2    1    6    6  502    0 -0.44973420351E+02  0.76650524774E+02  0.11277517113E+02  0.89582888312E+02  0.00000000000E+00 0. -1.
          2    1    5    5  503    0  0.28106079998E+03  0.13843215057E+03  0.18256370795E+02  0.31383423757E+03  0.00000000000E+00 0. -1.
         -2    1    5    5    0  503  0.26291237066E+03  0.62398951046E+02 -0.41088453655E+02  0.27332179709E+03  0.00000000000E+00 0.  1.
         -2    1    6    6    0  502 -0.29354874878E+03  0.16775129139E+03  0.10068719474E+03  0.35277368787E+03  0.00000000000E+00 0.  1.
<mgrwt>
<rscale>  0 0.15315699E+04</rscale>
<asrwt>0</asrwt>
<pdfrwt beam="1">  1        2 0.10048841E+00 0.15315699E+04</pdfrwt>
<pdfrwt beam="2">  1       -2 0.13812457E+00 0.15315699E+04</pdfrwt>
<totfact> 0.16015671E+01</totfact>
</mgrwt>
</event>
<event>
12    1  0.4247462E-008  0.3532074E+04  0.7818608E-02  0.8106231E-01
          1   -1    0    0  501    0  0.00000000000E+00  0.00000000000E+00  0.13505569785E+04  0.13505569785E+04  0.00000000000E+00 0. -1.
         -1   -1    0    0    0  501 -0.00000000000E+00 -0.00000000000E+00 -0.23093335787E+04  0.23093335787E+04  0.00000000000E+00 0.  1.
         23    2    1    2    0    0 -0.65374143451E+03 -0.12333778130E+04 -0.13546319175E+04  0.19472812532E+04  0.90983262505E+02 0.  0.
        254    2    1    2    0    0  0.65374143451E+03  0.12333778130E+04  0.39585531733E+03  0.17126093041E+04  0.90979695720E+03 0.  0.
         23    2    4    4    0    0  0.17062200385E+03  0.40521449736E+02  0.37311252695E+03  0.42194837867E+03  0.89853327211E+02 0.  0.
         23    2    4    4    0    0  0.48311943066E+03  0.11928563633E+04  0.22742790385E+02  0.12906609254E+04  0.94750737020E+02 0.  0.
         11    1    3    3    0    0 -0.12112065278E+03 -0.22205797286E+03 -0.19859834726E+03  0.32159175887E+03  0.00000000000E+00 0. -1.
        -11    1    3    3    0    0 -0.53262078173E+03 -0.10113198402E+04 -0.11560335703E+04  0.16256894943E+04  0.00000000000E+00 0.  1.
          2    1    6    6  502    0  0.33419306278E+03  0.90856534380E+03  0.43483641590E+02  0.96905459818E+03  0.00000000000E+00 0. -1.
          2    1    5    5  503    0  0.16253713000E+03  0.36918829763E+02  0.37706010192E+03  0.41225676353E+03  0.00000000000E+00 0. -1.
         -2    1    5    5    0  503  0.80848738457E+01  0.36026199731E+01 -0.39475749718E+01  0.96916151353E+01  0.00000000000E+00 0.  1.
         -2    1    6    6    0  502  0.14892636788E+03  0.28429101949E+03 -0.20740851204E+02  0.32160632724E+03  0.00000000000E+00 0.  1.
<mgrwt>
<rscale>  0 0.35320739E+04</rscale>
<asrwt>0</asrwt>
<pdfrwt beam="1">  1        1 0.20777800E+00 0.35320739E+04</pdfrwt>
<pdfrwt beam="2">  1       -1 0.35528209E+00 0.35320739E+04</pdfrwt>
<totfact> 0.97041459E-02</totfact>
</mgrwt>
</event>
<event>
12    1  0.4247462E-008  0.2262410E+04  0.7818608E-02  0.8492892E-01
         -2   -1    0    0    0  501 -0.00000000000E+00  0.00000000000E+00  0.75934865846E+03  0.75934865846E+03  0.00000000000E+00 0.  1.
          2   -1    0    0  501    0  0.00000000000E+00 -0.00000000000E+00 -0.16851606381E+04  0.16851606381E+04  0.00000000000E+00 0. -1.
         23    2    1    2    0    0  0.33357787839E+03 -0.38504919010E+03 -0.12565428393E+04  0.13591859944E+04  0.94602224105E+02 0.  0.
        254    2    1    2    0    0 -0.33357787839E+03  0.38504919010E+03  0.33073085965E+03  0.10853233021E+04  0.89944799116E+03 0.  0.
         23    2    4    4    0    0  0.83079142282E+02 -0.13775860119E+03  0.36558403746E+03  0.40971022795E+03  0.91275442222E+02 0.  0.
         23    2    4    4    0    0 -0.41665702068E+03  0.52280779129E+03 -0.34853177816E+02  0.67561307415E+03  0.91143965503E+02 0.  0.
         11    1    3    3    0    0  0.24666254057E+03 -0.29787369293E+03 -0.10471835456E+04  0.11163173940E+04  0.00000000000E+00 0. -1.
        -11    1    3    3    0    0  0.86915337828E+02 -0.87175497169E+02 -0.20935929364E+03  0.24286860047E+03  0.00000000000E+00 0.  1.
          2    1    5    5  502    0  0.80517841854E+02 -0.14765973914E+03  0.30526299187E+03  0.34852835699E+03  0.00000000000E+00 0. -1.
          4    1    6    6  503    0 -0.12882639167E+03  0.10169810846E+03  0.27203140960E+01  0.16415280858E+03  0.00000000000E+00 0.  1.
         -2    1    5    5    0  502  0.25613004283E+01  0.99011379498E+01  0.60321045594E+02  0.61181870960E+02  0.00000000000E+00 0.  1.
         -4    1    6    6    0  503 -0.28783062901E+03  0.42110968283E+03 -0.37573491912E+02  0.51146026558E+03  0.00000000000E+00 0. -1.
<mgrwt>
<rscale>  0 0.22624098E+04</rscale>
<asrwt>0</asrwt>
<pdfrwt beam="1">  1        2 0.25925548E+00 0.22624098E+04</pdfrwt>
<pdfrwt beam="2">  1       -2 0.11682287E+00 0.22624098E+04</pdfrwt>
<totfact> 0.51578947E+00</totfact>
</mgrwt>
</event>
<event>
12    1  0.4247462E-008  0.2071481E+04  0.7818608E-02  0.8573911E-01
         -2   -1    0    0    0  501 -0.00000000000E+00  0.00000000000E+00  0.13953371043E+04  0.13953371043E+04  0.00000000000E+00 0.  1.
          2   -1    0    0  501    0  0.00000000000E+00 -0.00000000000E+00 -0.76881644214E+03  0.76881644214E+03  0.00000000000E+00 0. -1.
         23    2    1    2    0    0  0.17786379447E+03 -0.39223891189E+03  0.99713465594E+03  0.10893981955E+04  0.83809384384E+02 0.  0.
        254    2    1    2    0    0 -0.17786379447E+03  0.39223891189E+03 -0.37061399383E+03  0.10747553509E+04  0.91228144696E+03 0.  0.
         23    2    4    4    0    0 -0.32511523224E+03  0.43097047562E+03  0.11338804371E+03  0.55919047436E+03  0.91660640796E+02 0.  0.
         23    2    4    4    0    0  0.14725143777E+03 -0.38731563729E+02 -0.48400203754E+03  0.51556487653E+03  0.91466111862E+02 0.  0.
         11    1    3    3    0    0  0.73334394911E+02 -0.15955378771E+03  0.30760983018E+03  0.35420213476E+03  0.00000000000E+00 0. -1.
        -11    1    3    3    0    0  0.10452939956E+03 -0.23268512418E+03  0.68952482577E+03  0.73519606074E+03  0.00000000000E+00 0.  1.
          4    1    5    5  502    0 -0.95530494625E+02  0.14055760611E+03  0.78948462112E+02  0.18739097019E+03  0.00000000000E+00 0. -1.
          1    1    6    6  503    0  0.18854149757E+02 -0.27454624616E+01 -0.70371436818E+01  0.20311029476E+02  0.00000000000E+00 0. -1.
         -4    1    5    5    0  502 -0.22958473762E+03  0.29041286951E+03  0.34439581596E+02  0.37179950417E+03  0.00000000000E+00 0.  1.
         -1    1    6    6    0  503  0.12839728802E+03 -0.35986101267E+02 -0.47696489385E+03  0.49525384706E+03  0.00000000000E+00 0.  1.
<mgrwt>
<rscale>  0 0.20714807E+04</rscale>
<asrwt>0</asrwt>
<pdfrwt beam="1">  1        2 0.11827945E+00 0.20714807E+04</pdfrwt>
<pdfrwt beam="2">  1       -2 0.21466725E+00 0.20714807E+04</pdfrwt>
<totfact> 0.35823159E+00</totfact>
</mgrwt>
</event>
<event>
12    1  0.4247462E-008  0.1354141E+04  0.7818608E-02  0.8987699E-01
          1   -1    0    0  501    0  0.00000000000E+00  0.00000000000E+00  0.13154553657E+04  0.13154553657E+04  0.00000000000E+00 0. -1.
         -1   -1    0    0    0  501 -0.00000000000E+00 -0.00000000000E+00 -0.34849128124E+03  0.34849128124E+03  0.00000000000E+00 0.  1.
         23    2    1    2    0    0  0.33112681455E+03 -0.12127111766E+03  0.14028275325E+03  0.39073074064E+03  0.92949499884E+02 0.  0.
        254    2    1    2    0    0 -0.33112681455E+03  0.12127111766E+03  0.82668133121E+03  0.12732159063E+04  0.90184536891E+03 0.  0.
         23    2    4    4    0    0 -0.61697891899E+03  0.88689433547E+02  0.38585184515E+03  0.73860579186E+03  0.90155794420E+02 0.  0.
         23    2    4    4    0    0  0.28585210444E+03  0.32581684112E+02  0.44082948606E+03  0.53461011445E+03  0.93297089681E+02 0.  0.
         11    1    3    3    0    0  0.20341216231E+03 -0.26595729416E+02  0.68302274742E+02  0.21621526619E+03  0.00000000000E+00 0.  1.
        -11    1    3    3    0    0  0.12771465224E+03 -0.94675388243E+02  0.71980478510E+02  0.17451547445E+03  0.00000000000E+00 0. -1.
          1    1    5    5  502    0 -0.52249540267E+03  0.86040853157E+02  0.28894670610E+03  0.60323683010E+03  0.00000000000E+00 0. -1.
          3    1    6    6  503    0  0.26607638906E+03  0.68005356811E+01  0.41537335182E+03  0.49333347089E+03  0.00000000000E+00 0. -1.
         -1    1    5    5    0  502 -0.94483516319E+02  0.26485803898E+01  0.96905139054E+02  0.13536896176E+03  0.00000000000E+00 0.  1.
         -3    1    6    6    0  503  0.19775715376E+02  0.25781148430E+02  0.25456134243E+02  0.41276643561E+02  0.00000000000E+00 0.  1.
<mgrwt>
<rscale>  0 0.13541414E+04</rscale>
<asrwt>0</asrwt>
<pdfrwt beam="1">  1        1 0.20237775E+00 0.13541414E+04</pdfrwt>
<pdfrwt beam="2">  1       -1 0.53614044E-01 0.13541414E+04</pdfrwt>
<totfact> 0.30288555E+01</totfact>
</mgrwt>
</event>
<event>
12    1  0.4247462E-008  0.1812760E+04  0.7818608E-02  0.8699543E-01
         -1   -1    0    0    0  501 -0.00000000000E+00  0.00000000000E+00  0.54753823084E+03  0.54753823084E+03  0.00000000000E+00 0.  1.
          1   -1    0    0  501    0  0.00000000000E+00 -0.00000000000E+00 -0.15003973661E+04  0.15003973661E+04  0.00000000000E+00 0. -1.
         23    2    1    2    0    0  0.12426209176E+03 -0.24326222561E+03 -0.10619049591E+04  0.11003007417E+04  0.91662435943E+02 0.  0.
        254    2    1    2    0    0 -0.12426209176E+03  0.24326222561E+03  0.10904582376E+03  0.94763485531E+03  0.90083475148E+03 0.  0.
         23    2    4    4    0    0 -0.48954593549E+03  0.13019529489E+03 -0.61582897252E+02  0.51809929452E+03  0.89601272228E+02 0.  0.
         23    2    4    4    0    0  0.36528384373E+03  0.11306693072E+03  0.17062872102E+03  0.42953556079E+03  0.95761266909E+02 0.  0.
         13    1    3    3    0    0  0.10699325931E+03 -0.16210048097E+03 -0.86660623648E+03  0.88810500087E+03  0.00000000000E+00 0. -1.
        -13    1    3    3    0    0  0.17268832446E+02 -0.81161744638E+02 -0.19529872259E+03  0.21219574080E+03  0.00000000000E+00 0.  1.
          4    1    5    5  502    0 -0.51676585842E+02  0.51821263929E+01 -0.33636740508E+02  0.61876928417E+02  0.00000000000E+00 0. -1.
          1    1    6    6  503    0  0.81699268841E+02 -0.14181587794E+02  0.27722696240E+02  0.87432464499E+02  0.00000000000E+00 0. -1.
         -4    1    5    5    0  502 -0.43786934964E+03  0.12501316850E+03 -0.27946156743E+02  0.45622236610E+03  0.00000000000E+00 0.  1.
         -1    1    6    6    0  503  0.28358457489E+03  0.12724851851E+03  0.14290602478E+03  0.34210309629E+03  0.00000000000E+00 0.  1.
<mgrwt>
<rscale>  0 0.18127602E+04</rscale>
<asrwt>0</asrwt>
<pdfrwt beam="1">  1        1 0.23083036E+00 0.18127602E+04</pdfrwt>
<pdfrwt beam="2">  1       -1 0.84236651E-01 0.18127602E+04</pdfrwt>
<totfact> 0.86028428E+00</totfact>
</mgrwt>
</event>
<event>
12    1  0.4247462E-008  0.1355135E+04  0.7818608E-02  0.8986950E-01
          1   -1    0    0  501    0  0.00000000000E+00  0.00000000000E+00  0.29732453017E+04  0.29732453017E+04  0.00000000000E+00 0. -1.
         -1   -1    0    0    0  501 -0.00000000000E+00 -0.00000000000E+00 -0.15440964734E+03  0.15440964734E+03  0.00000000000E+00 0.  1.
         23    2    1    2    0    0 -0.20781029925E+03 -0.77102818229E+02  0.14729680143E+04  0.14920511347E+04  0.86324111961E+02 0.  0.
        254    2    1    2    0    0  0.20781029925E+03  0.77102818229E+02  0.13458676401E+04  0.16356038144E+04  0.90261296686E+03 0.  0.
         23    2    4    4    0    0 -0.13715244891E+03 -0.31018885124E+03  0.28684508062E+03  0.45289002831E+03  0.88325306608E+02 0.  0.
         23    2    4    4    0    0  0.34496274815E+03  0.38729166947E+03  0.10590225595E+04  0.11827137861E+04  0.91043854656E+02 0.  0.
         11    1    3    3    0    0 -0.15321679402E+03 -0.90155796863E+02  0.12233757418E+04  0.12362247609E+04  0.00000000000E+00 0. -1.
        -11    1    3    3    0    0 -0.54593505224E+02  0.13052978634E+02  0.24959227246E+03  0.25582637381E+03  0.00000000000E+00 0.  1.
          1    1    5    5  502    0  0.41809391104E+01 -0.81571450459E+02  0.65110956426E+02  0.10445486312E+03  0.00000000000E+00 0. -1.
          3    1    6    6  503    0  0.17506764728E+02  0.97323675567E+01  0.92251679414E+02  0.94401155417E+02  0.00000000000E+00 0. -1.
         -1    1    5    5    0  502 -0.14133338802E+03 -0.22861740078E+03  0.22173412420E+03  0.34843516519E+03  0.00000000000E+00 0.  1.
         -3    1    6    6    0  503  0.32745598343E+03  0.37755930191E+03  0.96677088009E+03  0.10883126307E+04  0.00000000000E+00 0.  1.
<mgrwt>
<rscale>  0 0.13551351E+04</rscale>
<asrwt>0</asrwt>
<pdfrwt beam="1">  1        1 0.45742231E+00 0.13551351E+04</pdfrwt>
<pdfrwt beam="2">  1       -1 0.23755333E-01 0.13551351E+04</pdfrwt>
<totfact> 0.94319963E+00</totfact>
</mgrwt>
</event>
<event>
12    1  0.4247462E-008  0.1847801E+04  0.7818608E-02  0.8681285E-01
         -1   -1    0    0    0  501 -0.00000000000E+00  0.00000000000E+00  0.23967359041E+03  0.23967359041E+03  0.00000000000E+00 0.  1.
          1   -1    0    0  501    0  0.00000000000E+00 -0.00000000000E+00 -0.35614760450E+04  0.35614760450E+04  0.00000000000E+00 0. -1.
         23    2    1    2    0    0 -0.18543821411E+03  0.46598902691E+02 -0.25910534745E+04  0.25994985803E+04  0.85299309180E+02 0.  0.
        254    2    1    2    0    0  0.18543821411E+03 -0.46598902691E+02 -0.73074898002E+03  0.12016510551E+04  0.93456535211E+03 0.  0.
         23    2    4    4    0    0  0.54752638608E+03 -0.12638570139E+03 -0.38376856919E+03  0.68533238422E+03  0.81508730780E+02 0.  0.
         23    2    4    4    0    0 -0.36208817197E+03  0.79786798699E+02 -0.34698041083E+03  0.51631867085E+03  0.93358378507E+02 0.  0.
         13    1    3    3    0    0 -0.10017167776E+03 -0.15205076798E+02 -0.10616505952E+04  0.10664743530E+04  0.00000000000E+00 0.  1.
        -13    1    3    3    0    0 -0.85266536344E+02  0.61803979489E+02 -0.15294028794E+04  0.15330242273E+04  0.00000000000E+00 0. -1.
          2    1    5    5  502    0  0.49095389746E+03 -0.87247568345E+02 -0.32900332085E+03  0.59740359285E+03  0.00000000000E+00 0. -1.
          2    1    6    6  503    0 -0.97960535573E+02  0.63509420193E+02 -0.12352689534E+03  0.16996648745E+03  0.00000000000E+00 0.  1.
         -2    1    5    5    0  502  0.56572488616E+02 -0.39138133044E+02 -0.54765248344E+02  0.87928791375E+02  0.00000000000E+00 0.  1.
         -2    1    6    6    0  503 -0.26412763640E+03  0.16277378505E+02 -0.22345351549E+03  0.34635218340E+03  0.00000000000E+00 0. -1.
<mgrwt>
<rscale>  0 0.18478006E+04</rscale>
<asrwt>0</asrwt>
<pdfrwt beam="1">  1        1 0.54791937E+00 0.18478006E+04</pdfrwt>
<pdfrwt beam="2">  1       -1 0.36872862E-01 0.18478006E+04</pdfrwt>
<totfact> 0.14922530E+00</totfact>
</mgrwt>
</event>
<event>
12    1  0.4247462E-008  0.1455572E+04  0.7818608E-02  0.8914547E-01
         -2   -1    0    0    0  501 -0.00000000000E+00  0.00000000000E+00  0.25914187034E+03  0.25914187034E+03  0.00000000000E+00 0.  1.
          2   -1    0    0  501    0  0.00000000000E+00 -0.00000000000E+00 -0.20439471357E+04  0.20439471357E+04  0.00000000000E+00 0. -1.
         23    2    1    2    0    0 -0.31574151188E+03 -0.29764503820E+03 -0.53194222437E+03  0.69211720861E+03  0.88195404056E+02 0.  0.
        254    2    1    2    0    0  0.31574151188E+03  0.29764503820E+03 -0.12528630410E+04  0.16109717974E+04  0.91502954134E+03 0.  0.
         23    2    4    4    0    0 -0.28390640405E+03  0.60855485184E+02 -0.67455903396E+03  0.74014788064E+03  0.92101892406E+02 0.  0.
         23    2    4    4    0    0  0.59964791593E+03  0.23678955302E+03 -0.57830400706E+03  0.87082391680E+03  0.90839716008E+02 0.  0.
         11    1    3    3    0    0 -0.23793932414E+03 -0.19433496942E+03 -0.31827401106E+03  0.44235681121E+03  0.00000000000E+00 0.  1.
        -11    1    3    3    0    0 -0.77802187743E+02 -0.10331006879E+03 -0.21366821331E+03  0.24976039740E+03  0.00000000000E+00 0. -1.
          2    1    5    5  502    0 -0.21924186965E+03  0.62743253249E+01 -0.50796580686E+03  0.55329524261E+03  0.00000000000E+00 0. -1.
          3    1    6    6  503    0  0.23069858150E+03  0.13807291770E+03 -0.25169278642E+03  0.36828687846E+03  0.00000000000E+00 0. -1.
         -2    1    5    5    0  502 -0.64664534399E+02  0.54581159859E+02 -0.16659322710E+03  0.18685263802E+03  0.00000000000E+00 0.  1.
         -3    1    6    6    0  503  0.36894933443E+03  0.98716635318E+02 -0.32661122063E+03  0.50253703834E+03  0.00000000000E+00 0.  1.
<mgrwt>
<rscale>  0 0.14555718E+04</rscale>
<asrwt>0</asrwt>
<pdfrwt beam="1">  1        2 0.31445341E+00 0.14555718E+04</pdfrwt>
<pdfrwt beam="2">  1       -2 0.39867979E-01 0.14555718E+04</pdfrwt>
<totfact> 0.36463005E+01</totfact>
</mgrwt>
</event>
<event>
12    1  0.4247462E-008  0.1942182E+04  0.7818608E-02  0.8634140E-01
         -2   -1    0    0    0  501 -0.00000000000E+00  0.00000000000E+00  0.23504066130E+03  0.23504066130E+03  0.00000000000E+00 0.  1.
          2   -1    0    0  501    0  0.00000000000E+00 -0.00000000000E+00 -0.40121471169E+04  0.40121471169E+04  0.00000000000E+00 0. -1.
         23    2    1    2    0    0 -0.64446087323E+03  0.11857099317E+03 -0.65222439449E+03  0.92907915186E+03  0.91665217565E+02 0.  0.
        254    2    1    2    0    0  0.64446087323E+03 -0.11857099317E+03 -0.31248820611E+04  0.33181086263E+04  0.90308807037E+03 0.  0.
         23    2    4    4    0    0  0.12096246658E+03  0.97420564750E+02 -0.23352925734E+04  0.23422514114E+04  0.91801884098E+02 0.  0.
         23    2    4    4    0    0  0.52349840665E+03 -0.21599155792E+03 -0.78958948770E+03  0.97585721497E+03  0.90237520276E+02 0.  0.
         11    1    3    3    0    0 -0.58502782247E+03  0.10194611133E+03 -0.62336684249E+03  0.86095109210E+03  0.00000000000E+00 0.  1.
        -11    1    3    3    0    0 -0.59433050761E+02  0.16624881841E+02 -0.28857551999E+02  0.68128059758E+02  0.00000000000E+00 0. -1.
          2    1    5    5  502    0  0.61867094586E+02 -0.29663124092E+01 -0.65317121329E+03  0.65610134146E+03  0.00000000000E+00 0. -1.
          1    1    6    6  503    0  0.12876800937E+03 -0.49835333158E+02 -0.13146085027E+03  0.19064814666E+03  0.00000000000E+00 0. -1.
         -2    1    5    5    0  502  0.59095371995E+02  0.10038687716E+03 -0.16821213601E+04  0.16861500699E+04  0.00000000000E+00 0.  1.
         -1    1    6    6    0  503  0.39473039727E+03 -0.16615622476E+03 -0.65812863743E+03  0.78520906832E+03  0.00000000000E+00 0.  1.
<mgrwt>
<rscale>  0 0.19421820E+04</rscale>
<asrwt>0</asrwt>
<pdfrwt beam="1">  1        2 0.61725339E+00 0.19421820E+04</pdfrwt>
<pdfrwt beam="2">  1       -2 0.36160102E-01 0.19421820E+04</pdfrwt>
<totfact> 0.22728652E+00</totfact>
</mgrwt>
</event>
<event>
12    1  0.4247462E-008  0.1551399E+04  0.7818608E-02  0.8850974E-01
          1   -1    0    0  501    0  0.00000000000E+00  0.00000000000E+00  0.72269284681E+03  0.72269284681E+03  0.00000000000E+00 0. -1.
         -1   -1    0    0    0  501 -0.00000000000E+00 -0.00000000000E+00 -0.83259435057E+03  0.83259435057E+03  0.00000000000E+00 0.  1.
         23    2    1    2    0    0 -0.19965385780E+02  0.77908070872E+02 -0.54455392494E+03  0.55796545739E+03  0.91204113633E+02 0.  0.
        254    2    1    2    0    0  0.19965385780E+02 -0.77908070872E+02  0.43465242118E+03  0.99732173998E+03  0.89401322231E+03 0.  0.
         23    2    4    4    0    0  0.23761190040E+03 -0.39494371783E+03  0.36650408874E+03  0.59628551230E+03  0.93761450804E+02 0.  0.
         23    2    4    4    0    0 -0.21764651462E+03  0.31703564696E+03  0.68148332440E+02  0.40103622768E+03  0.91127679286E+02 0.  0.
         11    1    3    3    0    0 -0.93754034701E+01 -0.71483577158E+01 -0.71913221263E+01  0.13809863221E+02  0.00000000000E+00 0. -1.
        -11    1    3    3    0    0 -0.10589982310E+02  0.85056428588E+02 -0.53736260281E+03  0.54415559417E+03  0.00000000000E+00 0.  1.
          2    1    5    5  502    0  0.23919071891E+03 -0.34381940968E+03  0.33373723744E+03  0.53554134307E+03  0.00000000000E+00 0. -1.
          3    1    6    6  503    0 -0.10588569027E+03  0.79556345612E+02  0.30224617338E+02  0.13584741081E+03  0.00000000000E+00 0. -1.
         -2    1    5    5    0  502 -0.15788185091E+01 -0.51124308152E+02  0.32766851299E+02  0.60744169234E+02  0.00000000000E+00 0.  1.
         -3    1    6    6    0  503 -0.11176082435E+03  0.23747930134E+03  0.37923715101E+02  0.26518881687E+03  0.00000000000E+00 0.  1.
<mgrwt>
<rscale>  0 0.15513993E+04</rscale>
<asrwt>0</asrwt>
<pdfrwt beam="1">  1        1 0.11118352E+00 0.15513993E+04</pdfrwt>
<pdfrwt beam="2">  1       -1 0.12809144E+00 0.15513993E+04</pdfrwt>
<totfact> 0.13160149E+01</totfact>
</mgrwt>
</event>
<event>
12    1  0.4506426E-008  0.1832248E+04  0.7818608E-02  0.8689336E-01
         -1   -1    0    0    0  501 -0.00000000000E+00  0.00000000000E+00  0.40119285952E+03  0.40119285952E+03  0.00000000000E+00 0.  1.
          1   -1    0    0  501    0  0.00000000000E+00 -0.00000000000E+00 -0.20919688956E+04  0.20919688956E+04  0.00000000000E+00 0. -1.
         23    2    1    2    0    0 -0.34961054896E+02  0.66526832564E+03 -0.92394254991E+03  0.11429662359E+04  0.94327940174E+02 0.  0.
        254    2    1    2    0    0  0.34961054896E+02 -0.66526832564E+03 -0.76683348615E+03  0.13501955192E+04  0.88948868696E+03 0.  0.
         23    2    4    4    0    0  0.32251845508E+03 -0.48513942628E+03 -0.80478481978E+03  0.99760282038E+03  0.90301518789E+02 0.  0.
         23    2    4    4    0    0 -0.28755740019E+03 -0.18012889937E+03  0.37951333626E+02  0.35259269886E+03  0.88009253919E+02 0.  0.
         13    1    3    3    0    0 -0.50676435804E+01  0.13235851687E+03 -0.25338403523E+03  0.28591594448E+03  0.00000000000E+00 0. -1.
        -13    1    3    3    0    0 -0.29893411315E+02  0.53290980877E+03 -0.67055851469E+03  0.85705029137E+03  0.00000000000E+00 0.  1.
          2    1    5    5  502    0  0.12202961891E+03 -0.22216324219E+03 -0.41671969453E+03  0.48775305010E+03  0.00000000000E+00 0. -1.
          3    1    6    6  503    0 -0.15904674341E+03 -0.14350326002E+03  0.44554802346E+02  0.21880169707E+03  0.00000000000E+00 0. -1.
         -2    1    5    5    0  502  0.20048883617E+03 -0.26297618408E+03 -0.38806512525E+03  0.50984977028E+03  0.00000000000E+00 0.  1.
         -3    1    6    6    0  503 -0.12851065677E+03 -0.36625639349E+02 -0.66034687194E+01  0.13379100179E+03  0.00000000000E+00 0.  1.
<mgrwt>
<rscale>  0 0.18322478E+04</rscale>
<asrwt>0</asrwt>
<pdfrwt beam="1">  1        1 0.32184137E+00 0.18322478E+04</pdfrwt>
<pdfrwt beam="2">  1       -1 0.61721979E-01 0.18322478E+04</pdfrwt>
<totfact> 0.64666550E+00</totfact>
</mgrwt>
</event>
<event>
12    1  0.4247462E-008  0.1500096E+04  0.7818608E-02  0.8884389E-01
          1   -1    0    0  501    0  0.00000000000E+00  0.00000000000E+00  0.76221756619E+03  0.76221756619E+03  0.00000000000E+00 0. -1.
         -1   -1    0    0    0  501 -0.00000000000E+00 -0.00000000000E+00 -0.73807293615E+03  0.73807293615E+03  0.00000000000E+00 0.  1.
         23    2    1    2    0    0  0.25933258308E+03  0.39274615172E+03 -0.86681032188E+02  0.48733081017E+03  0.92058616431E+02 0.  0.
        254    2    1    2    0    0 -0.25933258308E+03 -0.39274615172E+03  0.11082566223E+03  0.10129596922E+04  0.89011352210E+03 0.  0.
         23    2    4    4    0    0 -0.91724400550E+01 -0.19269417434E+03 -0.37057444280E+03  0.42776195723E+03  0.91867817627E+02 0.  0.
         23    2    4    4    0    0 -0.25016014303E+03 -0.20005197738E+03  0.48140010503E+03  0.58519773495E+03  0.90052412796E+02 0.  0.
         11    1    3    3    0    0  0.24299991871E+03  0.39271756038E+03 -0.76573170630E+02  0.46812337390E+03  0.00000000000E+00 0.  1.
        -11    1    3    3    0    0  0.16332664366E+02  0.28591335432E-01 -0.10107861558E+02  0.19207436269E+02  0.00000000000E+00 0. -1.
          4    1    5    5  502    0  0.12112990244E+01  0.58644417907E+01  0.12472157567E+01  0.61167368741E+01  0.00000000000E+00 0. -1.
          3    1    6    6  503    0 -0.75426426935E+01 -0.17109352933E+00  0.54649553655E+02  0.55167875131E+02  0.00000000000E+00 0. -1.
         -4    1    5    5    0  502 -0.10383739079E+02 -0.19855861613E+03 -0.37182165856E+03  0.42164522036E+03  0.00000000000E+00 0.  1.
         -3    1    6    6    0  503 -0.24261750033E+03 -0.19988088385E+03  0.42675055138E+03  0.53002985982E+03  0.00000000000E+00 0.  1.
<mgrwt>
<rscale>  0 0.15000962E+04</rscale>
<asrwt>0</asrwt>
<pdfrwt beam="1">  1        1 0.11726424E+00 0.15000962E+04</pdfrwt>
<pdfrwt beam="2">  1       -1 0.11354968E+00 0.15000962E+04</pdfrwt>
<totfact> 0.16351189E+01</totfact>
</mgrwt>
</event>
<event>
12    1  0.4247462E-008  0.1759768E+04  0.7818608E-02  0.8727992E-01
         -2   -1    0    0    0  501 -0.00000000000E+00  0.00000000000E+00  0.69618913352E+03  0.69618913352E+03  0.00000000000E+00 0.  1.
          2   -1    0    0  501    0  0.00000000000E+00 -0.00000000000E+00 -0.11120482988E+04  0.11120482988E+04  0.00000000000E+00 0. -1.
         23    2    1    2    0    0  0.13549615958E+03 -0.95249597030E+02 -0.78945073875E+03  0.81062164994E+03  0.80270140453E+02 0.  0.
        254    2    1    2    0    0 -0.13549615958E+03  0.95249597030E+02  0.37359157350E+03  0.99761578235E+03  0.91007411259E+03 0.  0.
         23    2    4    4    0    0 -0.33116051510E+03  0.39793766111E+03  0.33275444617E+03  0.62225269803E+03  0.91930570934E+02 0.  0.
         23    2    4    4    0    0  0.19566435552E+03 -0.30268806408E+03  0.40837127327E+02  0.37536308432E+03  0.96566919519E+02 0.  0.
         13    1    3    3    0    0  0.12682899991E+03 -0.52776612687E+02 -0.65871843819E+03  0.67288999612E+03  0.00000000000E+00 0. -1.
        -13    1    3    3    0    0  0.86671596760E+01 -0.42472984344E+02 -0.13073230056E+03  0.13773165383E+03  0.00000000000E+00 0.  1.
          4    1    6    6  502    0  0.14878911888E+03 -0.20593581736E+03 -0.14445443558E+02  0.25447285436E+03  0.00000000000E+00 0. -1.
          4    1    5    5  503    0 -0.10876029872E+02  0.12207162011E+02 -0.57265876138E+01  0.17323297487E+02  0.00000000000E+00 0.  1.
         -4    1    5    5    0  503 -0.32028448523E+03  0.38573049910E+03  0.33848103378E+03  0.60492940054E+03  0.00000000000E+00 0. -1.
         -4    1    6    6    0  502  0.46875236640E+02 -0.96752246716E+02  0.55282570885E+02  0.12089022995E+03  0.00000000000E+00 0.  1.
<mgrwt>
<rscale>  0 0.17597681E+04</rscale>
<asrwt>0</asrwt>
<pdfrwt beam="1">  1        2 0.17108435E+00 0.17597681E+04</pdfrwt>
<pdfrwt beam="2">  1       -2 0.10710602E+00 0.17597681E+04</pdfrwt>
<totfact> 0.14216388E+01</totfact>
</mgrwt>
</event>
<event>
12    1  0.4247462E-008  0.1459677E+04  0.7818608E-02  0.8911719E-01
         -1   -1    0    0    0  501 -0.00000000000E+00  0.00000000000E+00  0.43232795310E+03  0.43232795310E+03  0.00000000000E+00 0.  1.
          1   -1    0    0  501    0  0.00000000000E+00 -0.00000000000E+00 -0.12320835693E+04  0.12320835693E+04  0.00000000000E+00 0. -1.
         23    2    1    2    0    0 -0.14290263217E+03  0.16731117286E+03 -0.69805690911E+03  0.73765670479E+03  0.91868247628E+02 0.  0.
        254    2    1    2    0    0  0.14290263217E+03 -0.16731117286E+03 -0.10169870707E+03  0.92675481758E+03  0.89449297037E+03 0.  0.
         23    2    4    4    0    0 -0.32511322075E+03 -0.12448905012E+03  0.14587759139E+03  0.38827002340E+03  0.90979170684E+02 0.  0.
         23    2    4    4    0    0  0.46801585291E+03 -0.42822122744E+02 -0.24757629846E+03  0.53848479418E+03  0.88313516680E+02 0.  0.
         13    1    3    3    0    0 -0.51984679990E+02  0.78502312789E+02 -0.44047852610E+03  0.45042907546E+03  0.00000000000E+00 0. -1.
        -13    1    3    3    0    0 -0.90917952175E+02  0.88808860074E+02 -0.25757838301E+03  0.28722762932E+03  0.00000000000E+00 0.  1.
          4    1    6    6  502    0  0.45975068208E+03 -0.44195626846E+02 -0.22372072260E+03  0.51320064773E+03  0.00000000000E+00 0. -1.
          4    1    5    5  503    0 -0.12615685732E+03 -0.11673632810E+02  0.23446837760E+02  0.12884712086E+03  0.00000000000E+00 0.  1.
         -4    1    5    5    0  503 -0.19895636343E+03 -0.11281541731E+03  0.12243075363E+03  0.25942290254E+03  0.00000000000E+00 0. -1.
         -4    1    6    6    0  502  0.82651708308E+01  0.13735041019E+01 -0.23855575851E+02  0.25284146447E+02  0.00000000000E+00 0.  1.
<mgrwt>
<rscale>  0 0.14596769E+04</rscale>
<asrwt>0</asrwt>
<pdfrwt beam="1">  1        1 0.18955132E+00 0.14596769E+04</pdfrwt>
<pdfrwt beam="2">  1       -1 0.66511993E-01 0.14596769E+04</pdfrwt>
<totfact> 0.22507232E+01</totfact>
</mgrwt>
</event>
<event>
12    1  0.4247462E-008  0.2126553E+04  0.7818608E-02  0.8549636E-01
         -1   -1    0    0    0  501 -0.00000000000E+00  0.00000000000E+00  0.12448708246E+04  0.12448708246E+04  0.00000000000E+00 0.  1.
          1   -1    0    0  501    0  0.00000000000E+00 -0.00000000000E+00 -0.90817241253E+03  0.90817241253E+03  0.00000000000E+00 0. -1.
         23    2    1    2    0    0 -0.85119290609E+03 -0.30051187646E+02 -0.40896558330E+02  0.85759025458E+03  0.91411591257E+02 0.  0.
        254    2    1    2    0    0  0.85119290609E+03  0.30051187646E+02  0.37759497036E+03  0.12954529825E+04  0.90010445559E+03 0.  0.
         23    2    4    4    0    0 -0.12313427185E+03  0.17197512970E+03 -0.18364777129E+02  0.23062113982E+03  0.90063038789E+02 0.  0.
         23    2    4    4    0    0  0.97432717793E+03 -0.14192394205E+03  0.39595974749E+03  0.10648318427E+04  0.87331990472E+02 0.  0.
         13    1    3    3    0    0 -0.80333718038E+03 -0.25031936038E+02 -0.59670945836E+02  0.80593910749E+03  0.00000000000E+00 0.  1.
        -13    1    3    3    0    0 -0.47855725706E+02 -0.50192516078E+01  0.18774387506E+02  0.51651147091E+02  0.00000000000E+00 0. -1.
          4    1    5    5  502    0 -0.13141026185E+02  0.23667834730E+02  0.29332596786E+02  0.39915588486E+02  0.00000000000E+00 0.  1.
          1    1    6    6  503    0  0.69467726406E+03 -0.13950972148E+03  0.29501010471E+03  0.76750923478E+03  0.00000000000E+00 0. -1.
         -4    1    5    5    0  502 -0.10999324566E+03  0.14830729497E+03 -0.47697373914E+02  0.19070555134E+03  0.00000000000E+00 0. -1.
         -1    1    6    6    0  503  0.27964991388E+03 -0.24142205752E+01  0.10094964277E+03  0.29732260790E+03  0.00000000000E+00 0.  1.
<mgrwt>
<rscale>  0 0.21265534E+04</rscale>
<asrwt>0</asrwt>
<pdfrwt beam="1">  1        1 0.13971883E+00 0.21265534E+04</pdfrwt>
<pdfrwt beam="2">  1       -1 0.19151859E+00 0.21265534E+04</pdfrwt>
<totfact> 0.28345863E+00</totfact>
</mgrwt>
</event>
<event>
12    1  0.4247462E-008  0.1304146E+04  0.7818608E-02  0.9026283E-01
          1   -1    0    0  501    0  0.00000000000E+00  0.00000000000E+00  0.28380444452E+04  0.28380444452E+04  0.00000000000E+00 0. -1.
         -1   -1    0    0    0  501 -0.00000000000E+00 -0.00000000000E+00 -0.14982130443E+03  0.14982130443E+03  0.00000000000E+00 0.  1.
         23    2    1    2    0    0 -0.88003592096E+02 -0.18112234752E+03  0.13450362869E+03  0.26737368580E+03  0.11334692204E+03 0.  0.
        254    2    1    2    0    0  0.88003592096E+02  0.18112234752E+03  0.25537195120E+04  0.27204920638E+04  0.91599333294E+03 0.  0.
         23    2    4    4    0    0  0.15894633711E+03  0.76836671658E+02  0.25569687098E+04  0.25646016434E+04  0.89021314300E+02 0.  0.
         23    2    4    4    0    0 -0.70942745009E+02  0.10428567586E+03 -0.32491977724E+01  0.15589042035E+03  0.91558126955E+02 0.  0.
         11    1    3    3    0    0 -0.59305323467E+02 -0.18412856651E+03  0.13895320765E+03  0.23817733795E+03  0.00000000000E+00 0.  1.
        -11    1    3    3    0    0 -0.28698268629E+02  0.30062189936E+01 -0.44495789579E+01  0.29196347851E+02  0.00000000000E+00 0. -1.
          2    1    5    5  502    0  0.72685603852E+02 -0.44662949894E+01  0.67855088233E+03  0.68244739337E+03  0.00000000000E+00 0.  1.
          3    1    6    6  503    0 -0.89151918669E+02  0.99570206534E+02 -0.13737551315E+02  0.13435405073E+03  0.00000000000E+00 0. -1.
         -2    1    5    5    0  502  0.86260733253E+02  0.81302966647E+02  0.18784178275E+04  0.18821542501E+04  0.00000000000E+00 0. -1.
         -3    1    6    6    0  503  0.18209173660E+02  0.47154693260E+01  0.10488353542E+02  0.21536369619E+02  0.00000000000E+00 0.  1.
<mgrwt>
<rscale>  0 0.13041465E+04</rscale>
<asrwt>0</asrwt>
<pdfrwt beam="1">  1        1 0.43662218E+00 0.13041465E+04</pdfrwt>
<pdfrwt beam="2">  1       -1 0.23049433E-01 0.13041465E+04</pdfrwt>
<totfact> 0.12474437E+01</totfact>
</mgrwt>
</event>
<event>
12    1  0.4247462E-008  0.2162241E+04  0.7818608E-02  0.8534311E-01
          2   -1    0    0  501    0  0.00000000000E+00  0.00000000000E+00  0.38806803602E+04  0.38806803602E+04  0.00000000000E+00 0.  1.
         -2   -1    0    0    0  501 -0.00000000000E+00 -0.00000000000E+00 -0.30118973527E+03  0.30118973527E+03  0.00000000000E+00 0. -1.
         23    2    1    2    0    0 -0.80785198393E+03  0.13883974054E+03  0.80553382575E+03  0.11531808451E+04  0.95078996989E+02 0.  0.
        254    2    1    2    0    0  0.80785198393E+03 -0.13883974054E+03  0.27739567992E+04  0.30286892504E+04  0.89789807324E+03 0.  0.
         23    2    4    4    0    0 -0.16239337875E+03 -0.31921985201E+02  0.20527284715E+03  0.27921495259E+03  0.91833683207E+02 0.  0.
         23    2    4    4    0    0  0.97024536268E+03 -0.10691775534E+03  0.25686839521E+04  0.27494742978E+04  0.93081675759E+02 0.  0.
         11    1    3    3    0    0 -0.16621278641E+03  0.68081340869E+02  0.17028507986E+03  0.24750508634E+03  0.00000000000E+00 0.  1.
        -11    1    3    3    0    0 -0.64163919752E+03  0.70758399673E+02  0.63524874589E+03  0.90567575880E+03  0.00000000000E+00 0. -1.
          1    1    5    5  502    0 -0.13112848029E+03  0.14568243482E+02  0.15854568212E+03  0.20626110971E+03  0.00000000000E+00 0. -1.
          3    1    6    6  503    0  0.74625201858E+03 -0.89823460493E+02  0.18636168824E+04  0.20094845641E+04  0.00000000000E+00 0. -1.
         -1    1    5    5    0  502 -0.31264898460E+02 -0.46490228683E+02  0.46727165038E+02  0.72953842882E+02  0.00000000000E+00 0.  1.
         -3    1    6    6    0  503  0.22399334410E+03 -0.17094294848E+02  0.70506706971E+03  0.73998973365E+03  0.00000000000E+00 0.  1.
<mgrwt>
<rscale>  0 0.21622406E+04</rscale>
<asrwt>0</asrwt>
<pdfrwt beam="1">  1        2 0.59702771E+00 0.21622406E+04</pdfrwt>
<pdfrwt beam="2">  1       -2 0.46336885E-01 0.21622406E+04</pdfrwt>
<totfact> 0.17348675E+00</totfact>
</mgrwt>
</event>
<event>
12    1  0.4247462E-008  0.2945033E+04  0.7818608E-02  0.8259604E-01
          1   -1    0    0  501    0  0.00000000000E+00  0.00000000000E+00  0.10346710584E+04  0.10346710584E+04  0.00000000000E+00 0. -1.
         -1   -1    0    0    0  501 -0.00000000000E+00 -0.00000000000E+00 -0.20956458805E+04  0.20956458805E+04  0.00000000000E+00 0.  1.
         23    2    1    2    0    0 -0.48904794909E+03 -0.86313052010E+03 -0.14340420757E+04  0.17460192908E+04  0.89131912432E+02 0.  0.
        254    2    1    2    0    0  0.48904794909E+03  0.86313052010E+03  0.37306725359E+03  0.13842976481E+04  0.89047100543E+03 0.  0.
         23    2    4    4    0    0  0.27512129580E+03  0.39522099788E+03  0.63252496553E+03  0.80064904351E+03  0.95182426300E+02 0.  0.
         23    2    4    4    0    0  0.21392665328E+03  0.46790952222E+03 -0.25945771194E+03  0.58364860456E+03  0.92862561623E+02 0.  0.
         13    1    3    3    0    0 -0.13834458048E+03 -0.32990397829E+03 -0.52635653759E+03  0.63641736502E+03  0.00000000000E+00 0. -1.
        -13    1    3    3    0    0 -0.35070336861E+03 -0.53322654181E+03 -0.90768553808E+03  0.11096019258E+04  0.00000000000E+00 0.  1.
          2    1    5    5  502    0  0.25298935258E+03  0.34603364209E+03  0.50632676075E+03  0.66340762931E+03  0.00000000000E+00 0. -1.
          3    1    6    6  503    0  0.11542217978E+03  0.29255773456E+03 -0.20452296364E+03  0.37515590132E+03  0.00000000000E+00 0. -1.
         -2    1    5    5    0  502  0.22131943225E+02  0.49187355794E+02  0.12619820478E+03  0.13724141419E+03  0.00000000000E+00 0.  1.
         -3    1    6    6    0  503  0.98504473497E+02  0.17535178766E+03 -0.54934748300E+02  0.20849270324E+03  0.00000000000E+00 0.  1.
<mgrwt>
<rscale>  0 0.29450325E+04</rscale>
<asrwt>0</asrwt>
<pdfrwt beam="1">  1        1 0.15918016E+00 0.29450325E+04</pdfrwt>
<pdfrwt beam="2">  1       -1 0.32240705E+00 0.29450325E+04</pdfrwt>
<totfact> 0.28697712E-01</totfact>
</mgrwt>
</event>
<event>
12    1  0.4247462E-008  0.3356707E+04  0.7818608E-02  0.8148614E-01
          2   -1    0    0  501    0  0.00000000000E+00  0.00000000000E+00  0.24721714352E+04  0.24721714352E+04  0.00000000000E+00 0.  1.
         -2   -1    0    0    0  501 -0.00000000000E+00 -0.00000000000E+00 -0.11394314427E+04  0.11394314427E+04  0.00000000000E+00 0. -1.
         23    2    1    2    0    0  0.61510518221E+03  0.10167329898E+03 -0.91423363448E+03  0.11102537494E+04  0.90268515111E+02 0.  0.
        254    2    1    2    0    0 -0.61510518221E+03 -0.10167329898E+03  0.22469736269E+04  0.25013491285E+04  0.90507742077E+03 0.  0.
         23    2    4    4    0    0  0.49074378936E+02  0.27867602201E+03  0.38777622195E+03  0.48867068883E+03  0.91433166322E+02 0.  0.
         23    2    4    4    0    0 -0.66417956115E+03 -0.38034932099E+03  0.18591974050E+04  0.20126784397E+04  0.91975080091E+02 0.  0.
         11    1    3    3    0    0  0.11317949982E+03  0.37798183594E+02 -0.23180016731E+03  0.26070983761E+03  0.00000000000E+00 0.  1.
        -11    1    3    3    0    0  0.50192568239E+03  0.63875115385E+02 -0.68243346717E+03  0.84954391183E+03  0.00000000000E+00 0. -1.
          4    1    5    5  502    0  0.73646182355E+02  0.19281270642E+03  0.29350775618E+03  0.35881374398E+03  0.00000000000E+00 0. -1.
          1    1    6    6  503    0 -0.64117188980E+03 -0.38101429888E+03  0.17735939511E+04  0.19240345089E+04  0.00000000000E+00 0. -1.
         -4    1    5    5    0  502 -0.24571803419E+02  0.85863315591E+02  0.94268465767E+02  0.12985694485E+03  0.00000000000E+00 0.  1.
         -1    1    6    6    0  503 -0.23007671343E+02  0.66497788613E+00  0.85603453925E+02  0.88643930758E+02  0.00000000000E+00 0.  1.
<mgrwt>
<rscale>  0 0.33567066E+04</rscale>
<asrwt>0</asrwt>
<pdfrwt beam="1">  1        2 0.38033407E+00 0.33567066E+04</pdfrwt>
<pdfrwt beam="2">  1       -2 0.17529714E+00 0.33567066E+04</pdfrwt>
<totfact> 0.58721613E-01</totfact>
</mgrwt>
</event>
<event>
12    1  0.4247462E-008  0.1428910E+04  0.7818608E-02  0.8933154E-01
         -1   -1    0    0    0  501 -0.00000000000E+00  0.00000000000E+00  0.40267885197E+03  0.40267885197E+03  0.00000000000E+00 0.  1.
          1   -1    0    0  501    0  0.00000000000E+00 -0.00000000000E+00 -0.12676258805E+04  0.12676258805E+04  0.00000000000E+00 0. -1.
         23    2    1    2    0    0  0.17324102182E+03 -0.38770231890E+03 -0.28803452430E+03  0.52301526640E+03  0.10126964982E+03 0.  0.
        254    2    1    2    0    0 -0.17324102182E+03  0.38770231890E+03 -0.57691250428E+03  0.11472894661E+04  0.89616937113E+03 0.  0.
         23    2    4    4    0    0 -0.17785261381E+03  0.52087829679E+03 -0.73443497301E+03  0.92206438834E+03  0.88669354075E+02 0.  0.
         23    2    4    4    0    0  0.46115919910E+01 -0.13317597789E+03  0.15752246873E+03  0.22522507778E+03  0.90310019606E+02 0.  0.
         13    1    3    3    0    0  0.31800399646E+02 -0.97569293968E+02 -0.12398484859E+03  0.16094494469E+03  0.00000000000E+00 0.  1.
        -13    1    3    3    0    0  0.14144062217E+03 -0.29013302494E+03 -0.16404967571E+03  0.36207032170E+03  0.00000000000E+00 0. -1.
          4    1    5    5  502    0 -0.13979647536E+03  0.46715342700E+03 -0.60679080716E+03  0.77844104628E+03  0.00000000000E+00 0. -1.
          3    1    6    6  503    0 -0.33441321844E+01  0.40968366188E+01 -0.82796025585E+01  0.98244139201E+01  0.00000000000E+00 0.  1.
         -4    1    5    5    0  502 -0.38056138446E+02  0.53724869787E+02 -0.12764416585E+03  0.14362334205E+03  0.00000000000E+00 0.  1.
         -3    1    6    6    0  503  0.79557241754E+01 -0.13727281450E+03  0.16580207129E+03  0.21540066386E+03  0.00000000000E+00 0. -1.
<mgrwt>
<rscale>  0 0.14289103E+04</rscale>
<asrwt>0</asrwt>
<pdfrwt beam="1">  1        1 0.19501937E+00 0.14289103E+04</pdfrwt>
<pdfrwt beam="2">  1       -1 0.61950592E-01 0.14289103E+04</pdfrwt>
<totfact> 0.24535060E+01</totfact>
</mgrwt>
</event>
<event>
12    1  0.4247462E-008  0.1346272E+04  0.7818608E-02  0.8993655E-01
         -2   -1    0    0    0  501 -0.00000000000E+00  0.00000000000E+00  0.35402658666E+03  0.35402658666E+03  0.00000000000E+00 0.  1.
          2   -1    0    0  501    0  0.00000000000E+00 -0.00000000000E+00 -0.12798817005E+04  0.12798817005E+04  0.00000000000E+00 0. -1.
         23    2    1    2    0    0  0.72513629802E+02 -0.13879143859E+02 -0.69409140530E+03  0.70394270957E+03  0.91222816802E+02 0.  0.
        254    2    1    2    0    0 -0.72513629802E+02  0.13879143859E+02 -0.23176370857E+03  0.92996557762E+03  0.89759161193E+03 0.  0.
         23    2    4    4    0    0 -0.23184127133E+03 -0.38549835610E+03 -0.14439998530E+03  0.48207065927E+03  0.95819659384E+02 0.  0.
         23    2    4    4    0    0  0.15932764153E+03  0.39937749996E+03 -0.87363723271E+02  0.44789491835E+03  0.89943053713E+02 0.  0.
         13    1    3    3    0    0  0.72841876558E+02  0.22891738917E+02 -0.54803298387E+03  0.55332641551E+03  0.00000000000E+00 0. -1.
        -13    1    3    3    0    0 -0.32824675686E+00 -0.36770882776E+02 -0.14605842142E+03  0.15061629405E+03  0.00000000000E+00 0.  1.
          2    1    5    5  502    0 -0.20297759811E+03 -0.37706984800E+03 -0.14464751587E+03  0.45200053036E+03  0.00000000000E+00 0. -1.
          4    1    6    6  503    0  0.16060903220E+03  0.39784446445E+03 -0.95480258639E+02  0.43953607236E+03  0.00000000000E+00 0. -1.
         -2    1    5    5    0  502 -0.28863673226E+02 -0.84285081006E+01  0.24753056874E+00  0.30070128904E+02  0.00000000000E+00 0.  1.
         -4    1    6    6    0  503 -0.12813906658E+01  0.15330355095E+01  0.81165353677E+01  0.83588459902E+01  0.00000000000E+00 0.  1.
<mgrwt>
<rscale>  0 0.13462721E+04</rscale>
<asrwt>0</asrwt>
<pdfrwt beam="1">  1        2 0.19690487E+00 0.13462721E+04</pdfrwt>
<pdfrwt beam="2">  1       -2 0.54465630E-01 0.13462721E+04</pdfrwt>
<totfact> 0.52645630E+01</totfact>
</mgrwt>
</event>
<event>
12    1  0.4247462E-008  0.1565639E+04  0.7818608E-02  0.8841940E-01
          1   -1    0    0  501    0  0.00000000000E+00  0.00000000000E+00  0.61984698943E+03  0.61984698943E+03  0.00000000000E+00 0. -1.
         -1   -1    0    0    0  501 -0.00000000000E+00 -0.00000000000E+00 -0.98864082605E+03  0.98864082605E+03  0.00000000000E+00 0.  1.
         23    2    1    2    0    0  0.15213340921E+02  0.14086642050E+03  0.38734456757E+03  0.42096743700E+03  0.84279148229E+02 0.  0.
        254    2    1    2    0    0 -0.15213340921E+02 -0.14086642050E+03 -0.75613840418E+03  0.11875203785E+04  0.90464610145E+03 0.  0.
         23    2    4    4    0    0 -0.14826607083E+03 -0.39311253759E+03 -0.77646641825E+03  0.88762912684E+03  0.92005832360E+02 0.  0.
         23    2    4    4    0    0  0.13305272991E+03  0.25224611710E+03  0.20328014067E+02  0.29989125163E+03  0.90500840459E+02 0.  0.
         13    1    3    3    0    0 -0.27613516688E+02  0.75958294781E+02  0.25462066196E+03  0.26714013241E+03  0.00000000000E+00 0. -1.
        -13    1    3    3    0    0  0.42826857609E+02  0.64908125715E+02  0.13272390561E+03  0.15382730459E+03  0.00000000000E+00 0.  1.
          2    1    5    5  502    0 -0.79435215367E+02 -0.20934959603E+03 -0.50738128496E+03  0.55459262087E+03  0.00000000000E+00 0. -1.
          3    1    6    6  503    0  0.10608673959E+03  0.15917574788E+03  0.51504606770E+02  0.19810108416E+03  0.00000000000E+00 0. -1.
         -2    1    5    5    0  502 -0.68830855463E+02 -0.18376294156E+03 -0.26908513329E+03  0.33303650598E+03  0.00000000000E+00 0.  1.
         -3    1    6    6    0  503  0.26965990318E+02  0.93070369221E+02 -0.31176592703E+02  0.10179016747E+03  0.00000000000E+00 0.  1.
<mgrwt>
<rscale>  0 0.15656386E+04</rscale>
<asrwt>0</asrwt>
<pdfrwt beam="1">  1        1 0.95361076E-01 0.15656386E+04</pdfrwt>
<pdfrwt beam="2">  1       -1 0.15209859E+00 0.15656386E+04</pdfrwt>
<totfact> 0.10561655E+01</totfact>
</mgrwt>
</event>
<event>
12    1  0.4247462E-008  0.4555599E+04  0.7818608E-02  0.7900975E-01
          1   -1    0    0  501    0  0.00000000000E+00  0.00000000000E+00  0.29923484677E+04  0.29923484677E+04  0.00000000000E+00 0. -1.
         -1   -1    0    0    0  501 -0.00000000000E+00 -0.00000000000E+00 -0.17338790098E+04  0.17338790098E+04  0.00000000000E+00 0.  1.
         23    2    1    2    0    0  0.16743209792E+04  0.67301171379E+02 -0.85270134928E+03  0.18823278002E+04  0.90433220941E+02 0.  0.
        254    2    1    2    0    0 -0.16743209792E+04 -0.67301171379E+02  0.21111708072E+04  0.28438996773E+04  0.90710694429E+03 0.  0.
         23    2    4    4    0    0 -0.14316704067E+03 -0.26864725322E+02  0.82218558944E+03  0.83994178386E+03  0.91074375059E+02 0.  0.
         23    2    4    4    0    0 -0.15311539385E+04 -0.40436446057E+02  0.12889852177E+04  0.20039578934E+04  0.91087087352E+02 0.  0.
         13    1    3    3    0    0  0.10033725297E+04  0.43730489860E+01 -0.48088624490E+03  0.11126666785E+04  0.00000000000E+00 0.  1.
        -13    1    3    3    0    0  0.67094844943E+03  0.62928122393E+02 -0.37181510438E+03  0.76966112168E+03  0.00000000000E+00 0. -1.
          1    1    5    5  502    0 -0.12770170688E+03  0.67087887356E+01  0.72018290539E+03  0.73144798243E+03  0.00000000000E+00 0. -1.
          1    1    6    6  503    0 -0.71875832824E+03 -0.56107332847E+02  0.57174661309E+03  0.92013898776E+03  0.00000000000E+00 0. -1.
         -1    1    5    5    0  502 -0.15465333789E+02 -0.33573514058E+02  0.10200268405E+03  0.10849380143E+03  0.00000000000E+00 0.  1.
         -1    1    6    6    0  503 -0.81239561025E+03  0.15670886790E+02  0.71723860464E+03  0.10838189056E+04  0.00000000000E+00 0.  1.
<mgrwt>
<rscale>  0 0.45555988E+04</rscale>
<asrwt>0</asrwt>
<pdfrwt beam="1">  1        1 0.46036130E+00 0.45555988E+04</pdfrwt>
<pdfrwt beam="2">  1       -1 0.26675062E+00 0.45555988E+04</pdfrwt>
<totfact> 0.24561261E-02</totfact>
</mgrwt>
</event>
<event>
12    1  0.4247462E-008  0.1824709E+04  0.7818608E-02  0.8693269E-01
          1   -1    0    0  501    0  0.00000000000E+00  0.00000000000E+00  0.30338760361E+04  0.30338760361E+04  0.00000000000E+00 0. -1.
         -1   -1    0    0    0  501 -0.00000000000E+00 -0.00000000000E+00 -0.27436550182E+03  0.27436550182E+03  0.00000000000E+00 0.  1.
         23    2    1    2    0    0 -0.54038055714E+03 -0.42467679413E+03  0.10411462616E+04  0.12504489335E+04  0.85296373427E+02 0.  0.
        254    2    1    2    0    0  0.54038055714E+03  0.42467679413E+03  0.17183642727E+04  0.20577926044E+04  0.89965165651E+03 0.  0.
         23    2    4    4    0    0  0.43376288004E+03 -0.65344309082E+02  0.27101870251E+03  0.52343284604E+03  0.90059382452E+02 0.  0.
         23    2    4    4    0    0  0.10661767710E+03  0.49002110321E+03  0.14473455702E+04  0.15343597584E+04  0.89233726216E+02 0.  0.
         13    1    3    3    0    0 -0.50447701629E+03 -0.41945959894E+03  0.97969231318E+03  0.11790845787E+04  0.00000000000E+00 0.  1.
        -13    1    3    3    0    0 -0.35903540855E+02 -0.52171951878E+01  0.61453948381E+02  0.71364354850E+02  0.00000000000E+00 0. -1.
          4    1    5    5  502    0  0.19182060868E+03 -0.42723255101E+02  0.71855508705E+02  0.20924539797E+03  0.00000000000E+00 0. -1.
          3    1    6    6  503    0  0.60673742608E+02  0.21426415002E+03  0.77099385392E+03  0.80250978300E+03  0.00000000000E+00 0. -1.
         -4    1    5    5    0  502  0.24194227136E+03 -0.22621053980E+02  0.19916319380E+03  0.31418744806E+03  0.00000000000E+00 0.  1.
         -3    1    6    6    0  503  0.45943934491E+02  0.27575695320E+03  0.67635171629E+03  0.73184997539E+03  0.00000000000E+00 0.  1.
<mgrwt>
<rscale>  0 0.18247092E+04</rscale>
<asrwt>0</asrwt>
<pdfrwt beam="1">  1        1 0.46675014E+00 0.18247092E+04</pdfrwt>
<pdfrwt beam="2">  1       -1 0.42210079E-01 0.18247092E+04</pdfrwt>
<totfact> 0.29418876E+00</totfact>
</mgrwt>
</event>
<event>
12    1  0.4247462E-008  0.1146687E+04  0.7818608E-02  0.9160846E-01
          1   -1    0    0  501    0  0.00000000000E+00  0.00000000000E+00  0.40901768797E+03  0.40901768797E+03  0.00000000000E+00 0. -1.
         -1   -1    0    0    0  501 -0.00000000000E+00 -0.00000000000E+00 -0.80368809738E+03  0.80368809738E+03  0.00000000000E+00 0.  1.
         23    2    1    2    0    0 -0.64219657829E+02  0.17986084938E+03 -0.13647452235E+03  0.25166084319E+03  0.90740262012E+02 0.  0.
        254    2    1    2    0    0  0.64219657829E+02 -0.17986084938E+03 -0.25819588706E+03  0.96104494217E+03  0.90579698342E+03 0.  0.
         23    2    4    4    0    0 -0.37412747229E+02  0.30422336023E+03 -0.32106961782E+03  0.45316954538E+03  0.91243469944E+02 0.  0.
         23    2    4    4    0    0  0.10163240506E+03 -0.48408420962E+03  0.62873730764E+02  0.50787539678E+03  0.96527948709E+02 0.  0.
         13    1    3    3    0    0  0.12142833610E+02  0.27014069064E+02  0.47428775931E+01  0.29995053314E+02  0.00000000000E+00 0. -1.
        -13    1    3    3    0    0 -0.76362491439E+02  0.15284678032E+03 -0.14121739995E+03  0.22166578987E+03  0.00000000000E+00 0.  1.
          1    1    6    6  502    0  0.51136256866E+02 -0.37681874962E+03  0.78507785373E+02  0.38829210550E+03  0.00000000000E+00 0. -1.
          1    1    5    5  503    0 -0.72833781718E+01  0.28261150790E+03 -0.28557621811E+03  0.40184087440E+03  0.00000000000E+00 0. -1.
         -1    1    5    5    0  503 -0.30129369057E+02  0.21611852337E+02 -0.35493399713E+02  0.51328670978E+02  0.00000000000E+00 0.  1.
         -1    1    6    6    0  502  0.50496148192E+02 -0.10726545999E+03 -0.15634054609E+02  0.11958329128E+03  0.00000000000E+00 0.  1.
<mgrwt>
<rscale>  0 0.11466868E+04</rscale>
<asrwt>0</asrwt>
<pdfrwt beam="1">  1        1 0.62925799E-01 0.11466868E+04</pdfrwt>
<pdfrwt beam="2">  1       -1 0.12364432E+00 0.11466868E+04</pdfrwt>
<totfact> 0.33276209E+01</totfact>
</mgrwt>
</event>
<event>
12    1  0.4247462E-008  0.1926633E+04  0.7818608E-02  0.8641712E-01
         -2   -1    0    0    0  501 -0.00000000000E+00  0.00000000000E+00  0.21863068667E+04  0.21863068667E+04  0.00000000000E+00 0.  1.
          2   -1    0    0  501    0  0.00000000000E+00 -0.00000000000E+00 -0.42445052706E+03  0.42445052706E+03  0.00000000000E+00 0. -1.
         23    2    1    2    0    0 -0.62213311084E+03 -0.40027068292E+03  0.78918052875E+03  0.10854293429E+04  0.89915094602E+02 0.  0.
        254    2    1    2    0    0  0.62213311084E+03  0.40027068292E+03  0.97267581089E+03  0.15253280509E+04  0.91283142061E+03 0.  0.
         23    2    4    4    0    0  0.68172712274E+02 -0.27039101422E+03  0.17140532816E+03  0.33951883416E+03  0.90191091334E+02 0.  0.
         23    2    4    4    0    0  0.55396039857E+03  0.67066169715E+03  0.80127048273E+03  0.11858092167E+04  0.86312668429E+02 0.  0.
         11    1    3    3    0    0 -0.47693103352E+03 -0.27007022208E+03  0.61688282438E+03  0.82519425265E+03  0.00000000000E+00 0.  1.
        -11    1    3    3    0    0 -0.14520207732E+03 -0.13020046084E+03  0.17229770437E+03  0.26023509024E+03  0.00000000000E+00 0. -1.
          1    1    5    5  502    0  0.65882058373E+02 -0.27271075100E+03  0.15052508146E+03  0.31838561442E+03  0.00000000000E+00 0. -1.
          3    1    6    6  503    0  0.43201131122E+03  0.56926592677E+03  0.63438645139E+03  0.95558549493E+03  0.00000000000E+00 0. -1.
         -1    1    5    5    0  502  0.22906539009E+01  0.23197367747E+01  0.20880246702E+02  0.21133219734E+02  0.00000000000E+00 0.  1.
         -3    1    6    6    0  503  0.12194908734E+03  0.10139577038E+03  0.16688403134E+03  0.23022372178E+03  0.00000000000E+00 0.  1.
<mgrwt>
<rscale>  0 0.19266334E+04</rscale>
<asrwt>0</asrwt>
<pdfrwt beam="1">  1        2 0.65300083E-01 0.19266334E+04</pdfrwt>
<pdfrwt beam="2">  1       -2 0.33635489E+00 0.19266334E+04</pdfrwt>
<totfact> 0.13198539E+00</totfact>
</mgrwt>
</event>
<event>
12    1  0.4247462E-008  0.1541916E+04  0.7818608E-02  0.8857048E-01
          1   -1    0    0  501    0  0.00000000000E+00  0.00000000000E+00  0.14102705230E+04  0.14102705230E+04  0.00000000000E+00 0. -1.
         -1   -1    0    0    0  501 -0.00000000000E+00 -0.00000000000E+00 -0.42146243843E+03  0.42146243843E+03  0.00000000000E+00 0.  1.
         23    2    1    2    0    0 -0.27584824976E+03 -0.30922937318E+03  0.67956051200E+03  0.80122278123E+03  0.91871614590E+02 0.  0.
        254    2    1    2    0    0  0.27584824976E+03  0.30922937318E+03  0.30924757258E+03  0.10305101802E+04  0.89140457046E+03 0.  0.
         23    2    4    4    0    0 -0.15158975443E+03  0.48119425744E+03  0.15696490149E+03  0.53662065291E+03  0.93789006720E+02 0.  0.
         23    2    4    4    0    0  0.42743800419E+03 -0.17196488426E+03  0.15228267108E+03  0.49388952730E+03  0.91987414502E+02 0.  0.
         13    1    3    3    0    0 -0.21981772321E+03 -0.22363556950E+03  0.57494778859E+03  0.65490278590E+03  0.00000000000E+00 0. -1.
        -13    1    3    3    0    0 -0.56030526548E+02 -0.85593803680E+02  0.10461272341E+03  0.14631999533E+03  0.00000000000E+00 0.  1.
          2    1    5    5  502    0 -0.12583833992E+03  0.41174383435E+03  0.16715131949E+03  0.46185261342E+03  0.00000000000E+00 0. -1.
          1    1    6    6  503    0  0.27349750458E+03 -0.85185791765E+02  0.13394355546E+03  0.31622520485E+03  0.00000000000E+00 0. -1.
         -2    1    5    5    0  502 -0.25751414508E+02  0.69450423094E+02 -0.10186417990E+02  0.74768039486E+02  0.00000000000E+00 0.  1.
         -1    1    6    6    0  503  0.15394049960E+03 -0.86779092495E+02  0.18339115628E+02  0.17766432246E+03  0.00000000000E+00 0.  1.
<mgrwt>
<rscale>  0 0.15419158E+04</rscale>
<asrwt>0</asrwt>
<pdfrwt beam="1">  1        1 0.21696469E+00 0.15419158E+04</pdfrwt>
<pdfrwt beam="2">  1       -1 0.64840376E-01 0.15419158E+04</pdfrwt>
<totfact> 0.17567450E+01</totfact>
</mgrwt>
</event>
<event>
12    1  0.4247462E-008  0.1576136E+04  0.7818608E-02  0.8835344E-01
         -1   -1    0    0    0  501 -0.00000000000E+00  0.00000000000E+00  0.22222380684E+03  0.22222380684E+03  0.00000000000E+00 0.  1.
          1   -1    0    0  501    0  0.00000000000E+00 -0.00000000000E+00 -0.27947099139E+04  0.27947099139E+04  0.00000000000E+00 0. -1.
         23    2    1    2    0    0 -0.79161860580E+02 -0.12124358297E+03  0.91760471988E+02  0.19312575255E+03  0.88943608525E+02 0.  0.
        254    2    1    2    0    0  0.79161860580E+02  0.12124358297E+03 -0.26642465791E+04  0.28238079682E+04  0.92450797757E+03 0.  0.
         23    2    4    4    0    0 -0.14398821040E+03  0.39893573101E+03 -0.68573859343E+03  0.81144777330E+03  0.91256496038E+02 0.  0.
         23    2    4    4    0    0  0.22315007098E+03 -0.27769214804E+03 -0.19785079856E+04  0.20123601949E+04  0.90503157345E+02 0.  0.
         13    1    3    3    0    0 -0.14266313547E+02 -0.32984643042E+02 -0.16108893332E+02  0.39382874745E+02  0.00000000000E+00 0. -1.
        -13    1    3    3    0    0 -0.64895547032E+02 -0.88258939932E+02  0.10786936532E+03  0.15374287781E+03  0.00000000000E+00 0.  1.
          2    1    5    5  502    0 -0.55373964304E+02  0.60471087496E+02 -0.16245890496E+03  0.18197781223E+03  0.00000000000E+00 0. -1.
          4    1    6    6  503    0  0.71634885513E+02 -0.42218858830E+02 -0.33468078329E+03  0.34485535456E+03  0.00000000000E+00 0. -1.
         -2    1    5    5    0  502 -0.88614246094E+02  0.33846464352E+03 -0.52327968847E+03  0.62946996107E+03  0.00000000000E+00 0.  1.
         -4    1    6    6    0  503  0.15151518546E+03 -0.23547328921E+03 -0.16438272023E+04  0.16675048403E+04  0.00000000000E+00 0.  1.
<mgrwt>
<rscale>  0 0.15761359E+04</rscale>
<asrwt>0</asrwt>
<pdfrwt beam="1">  1        1 0.42995534E+00 0.15761359E+04</pdfrwt>
<pdfrwt beam="2">  1       -1 0.34188280E-01 0.15761359E+04</pdfrwt>
<totfact> 0.65658939E+00</totfact>
</mgrwt>
</event>
<event>
12    1  0.4247462E-008  0.1510629E+04  0.7818608E-02  0.8877415E-01
          2   -1    0    0  501    0  0.00000000000E+00  0.00000000000E+00  0.12250172715E+04  0.12250172715E+04  0.00000000000E+00 0. -1.
         -2   -1    0    0    0  501 -0.00000000000E+00 -0.00000000000E+00 -0.46570793851E+03  0.46570793851E+03  0.00000000000E+00 0.  1.
         23    2    1    2    0    0  0.40583147535E+02  0.40677290192E+03  0.48962802493E+03  0.64304475476E+03  0.81607403028E+02 0.  0.
        254    2    1    2    0    0 -0.40583147535E+02 -0.40677290192E+03  0.26968130808E+03  0.10476804553E+04  0.92617230730E+03 0.  0.
         23    2    4    4    0    0 -0.54371452403E+02 -0.52604844679E+03  0.52517337156E+03  0.75083505692E+03  0.90900986238E+02 0.  0.
         23    2    4    4    0    0  0.13788304869E+02  0.11927554487E+03 -0.25549206348E+03  0.29684539834E+03  0.91783566372E+02 0.  0.
         13    1    3    3    0    0  0.44094874573E+02  0.36646823989E+03  0.47127828221E+03  0.59862053765E+03  0.00000000000E+00 0.  1.
        -13    1    3    3    0    0 -0.35117270386E+01  0.40304662031E+02  0.18349742719E+02  0.44424217112E+02  0.00000000000E+00 0. -1.
          2    1    5    5  502    0 -0.79817568043E+01 -0.42158625984E+03  0.42789636287E+03  0.60074452165E+03  0.00000000000E+00 0.  1.
          1    1    6    6  503    0  0.47558729993E+02  0.95189947936E+02 -0.15383318852E+03  0.18704974973E+03  0.00000000000E+00 0. -1.
         -2    1    5    5    0  502 -0.46389695599E+02 -0.10446218695E+03  0.97277008693E+02  0.15009053528E+03  0.00000000000E+00 0. -1.
         -1    1    6    6    0  503 -0.33770425124E+02  0.24085596936E+02 -0.10165887497E+03  0.10979564860E+03  0.00000000000E+00 0.  1.
<mgrwt>
<rscale>  0 0.15106294E+04</rscale>
<asrwt>0</asrwt>
<pdfrwt beam="1">  1        2 0.18846419E+00 0.15106294E+04</pdfrwt>
<pdfrwt beam="2">  1       -2 0.71647376E-01 0.15106294E+04</pdfrwt>
<totfact> 0.31213657E+01</totfact>
</mgrwt>
</event>
<event>
12    1  0.4247462E-008  0.3784062E+04  0.7818608E-02  0.8049584E-01
          2   -1    0    0  501    0  0.00000000000E+00  0.00000000000E+00  0.39419828640E+04  0.39419828640E+04  0.00000000000E+00 0. -1.
         -2   -1    0    0    0  501 -0.00000000000E+00 -0.00000000000E+00 -0.90811680939E+03  0.90811680939E+03  0.00000000000E+00 0.  1.
         23    2    1    2    0    0  0.25217671055E+03 -0.11035998649E+04  0.31989077953E+04  0.33946039556E+04  0.93803928608E+02 0.  0.
        254    2    1    2    0    0 -0.25217671055E+03  0.11035998649E+04 -0.16504174074E+03  0.14554957178E+04  0.89983512563E+03 0.  0.
         23    2    4    4    0    0 -0.50623610787E+03  0.99058824630E+03  0.72322108766E+01  0.11161805314E+04  0.90920861702E+02 0.  0.
         23    2    4    4    0    0  0.25405939732E+03  0.11301161857E+03 -0.17227395161E+03  0.33931518646E+03  0.90214622221E+02 0.  0.
         11    1    3    3    0    0  0.81221401957E+02 -0.30856793889E+03  0.10282041926E+04  0.10765755667E+04  0.00000000000E+00 0.  1.
        -11    1    3    3    0    0  0.17095530860E+03 -0.79503192598E+03  0.21707036027E+04  0.23180283889E+04  0.00000000000E+00 0. -1.
          4    1    5    5  502    0 -0.17379653186E+02  0.46025001692E+02 -0.17794974619E+02  0.52316481603E+02  0.00000000000E+00 0. -1.
          4    1    6    6  503    0  0.25978290699E+03  0.10246516663E+03 -0.17047436279E+03  0.32718156658E+03  0.00000000000E+00 0.  1.
         -4    1    5    5    0  502 -0.48885645468E+03  0.94456324460E+03  0.25027185496E+02  0.10638640498E+04  0.00000000000E+00 0.  1.
         -4    1    6    6    0  503 -0.57235096775E+01  0.10546451943E+02 -0.17995888239E+01  0.12133619887E+02  0.00000000000E+00 0. -1.
<mgrwt>
<rscale>  0 0.37840618E+04</rscale>
<asrwt>0</asrwt>
<pdfrwt beam="1">  1        2 0.60645889E+00 0.37840618E+04</pdfrwt>
<pdfrwt beam="2">  1       -2 0.13971028E+00 0.37840618E+04</pdfrwt>
<totfact> 0.11006991E-01</totfact>
</mgrwt>
</event>
<event>
12    1  0.4247462E-008  0.1509113E+04  0.7818608E-02  0.8878415E-01
         -2   -1    0    0    0  501 -0.00000000000E+00  0.00000000000E+00  0.15681648228E+03  0.15681648228E+03  0.00000000000E+00 0.  1.
          2   -1    0    0  501    0  0.00000000000E+00 -0.00000000000E+00 -0.36307125796E+04  0.36307125796E+04  0.00000000000E+00 0. -1.
         23    2    1    2    0    0 -0.18184104178E+03  0.32432258993E+03 -0.18714781254E+04  0.19103002608E+04  0.92549477702E+02 0.  0.
        254    2    1    2    0    0  0.18184104178E+03 -0.32432258993E+03 -0.16024179719E+04  0.18772288011E+04  0.90442982482E+03 0.  0.
         23    2    4    4    0    0 -0.33581897295E+03 -0.17201215541E+02 -0.77627890068E+03  0.85105563876E+03  0.92825127097E+02 0.  0.
         23    2    4    4    0    0  0.51766001474E+03 -0.30712137439E+03 -0.82613907127E+03  0.10261731623E+04  0.90720254304E+02 0.  0.
         11    1    3    3    0    0 -0.11733446205E+03  0.17960625982E+03 -0.85264697256E+03  0.87922275014E+03  0.00000000000E+00 0. -1.
        -11    1    3    3    0    0 -0.64506579729E+02  0.14471633011E+03 -0.10188311528E+04  0.10310775107E+04  0.00000000000E+00 0.  1.
          4    1    5    5  502    0 -0.11919978743E+03  0.18315420555E+02 -0.19013500570E+03  0.22515631092E+03  0.00000000000E+00 0.  1.
          3    1    6    6  503    0  0.44504093490E+03 -0.25749443405E+03 -0.64541729874E+03  0.82518380184E+03  0.00000000000E+00 0. -1.
         -4    1    5    5    0  502 -0.21661918552E+03 -0.35516636096E+02 -0.58614389498E+03  0.62589932785E+03  0.00000000000E+00 0. -1.
         -3    1    6    6    0  503  0.72619079834E+02 -0.49626940341E+02 -0.18072177253E+03  0.20098936049E+03  0.00000000000E+00 0.  1.
<mgrwt>
<rscale>  0 0.15091131E+04</rscale>
<asrwt>0</asrwt>
<pdfrwt beam="1">  1        2 0.55857116E+00 0.15091131E+04</pdfrwt>
<pdfrwt beam="2">  1       -2 0.24125613E-01 0.15091131E+04</pdfrwt>
<totfact> 0.98500808E+00</totfact>
</mgrwt>
</event>
<event>
12    1  0.4247462E-008  0.1498243E+04  0.7818608E-02  0.8885622E-01
         -2   -1    0    0    0  501 -0.00000000000E+00  0.00000000000E+00  0.14333934624E+03  0.14333934624E+03  0.00000000000E+00 0.  1.
          2   -1    0    0  501    0  0.00000000000E+00 -0.00000000000E+00 -0.39150654879E+04  0.39150654879E+04  0.00000000000E+00 0. -1.
         23    2    1    2    0    0  0.35304018822E+03 -0.42089226985E+02 -0.20519295522E+04  0.20845128513E+04  0.91488046354E+02 0.  0.
        254    2    1    2    0    0 -0.35304018822E+03  0.42089226985E+02 -0.17197965895E+04  0.19738919828E+04  0.90118831171E+03 0.  0.
         23    2    4    4    0    0 -0.38057639814E+03  0.16240004926E+03 -0.17631494850E+04  0.18134986471E+04  0.94175717072E+02 0.  0.
         23    2    4    4    0    0  0.27536209919E+02 -0.12031082227E+03  0.43352895511E+02  0.16039333575E+03  0.92809545805E+02 0.  0.
         11    1    3    3    0    0  0.48322707899E+02 -0.18001126207E+02 -0.16156291513E+03  0.16959274805E+03  0.00000000000E+00 0.  1.
        -11    1    3    3    0    0  0.30471748032E+03 -0.24088100779E+02 -0.18903666370E+04  0.19149201032E+04  0.00000000000E+00 0. -1.
          2    1    5    5  502    0 -0.22046358104E+03  0.13926816489E+03 -0.11678491406E+04  0.11966083016E+04  0.00000000000E+00 0. -1.
          1    1    6    6  503    0 -0.20698837849E+02 -0.32729821239E+02 -0.18400665563E+02  0.42875022797E+02  0.00000000000E+00 0. -1.
         -2    1    5    5    0  502 -0.16011281709E+03  0.23131884364E+02 -0.59530034443E+03  0.61689034548E+03  0.00000000000E+00 0.  1.
         -1    1    6    6    0  503  0.48235047768E+02 -0.87581001033E+02  0.61753561074E+02  0.11751831296E+03  0.00000000000E+00 0.  1.
<mgrwt>
<rscale>  0 0.14982429E+04</rscale>
<asrwt>0</asrwt>
<pdfrwt beam="1">  1        2 0.60231772E+00 0.14982429E+04</pdfrwt>
<pdfrwt beam="2">  1       -2 0.22052209E-01 0.14982429E+04</pdfrwt>
<totfact> 0.71043183E+00</totfact>
</mgrwt>
</event>
<event>
12    1  0.4247462E-008  0.1809890E+04  0.7818608E-02  0.8701057E-01
         -1   -1    0    0    0  501 -0.00000000000E+00  0.00000000000E+00  0.41363992961E+03  0.41363992961E+03  0.00000000000E+00 0.  1.
          1   -1    0    0  501    0  0.00000000000E+00 -0.00000000000E+00 -0.19798035600E+04  0.19798035600E+04  0.00000000000E+00 0. -1.
         23    2    1    2    0    0  0.34710243920E+03 -0.38554067449E+03 -0.11758641684E+04  0.12884595551E+04  0.91377063453E+02 0.  0.
        254    2    1    2    0    0 -0.34710243920E+03  0.38554067449E+03 -0.39029946197E+03  0.11049839345E+04  0.89416671287E+03 0.  0.
         23    2    4    4    0    0  0.13592738610E+03 -0.16040541814E+03  0.67891239155E+02  0.23940035928E+03  0.92180036923E+02 0.  0.
         23    2    4    4    0    0 -0.48302982530E+03  0.54594609263E+03 -0.45819070112E+03  0.86558357517E+03  0.89001454045E+02 0.  0.
         11    1    3    3    0    0  0.30825257693E+03 -0.37636182743E+03 -0.10735590136E+04  0.11786419439E+04  0.00000000000E+00 0. -1.
        -11    1    3    3    0    0  0.38849862269E+02 -0.91788470577E+01 -0.10230515477E+03  0.10981761117E+03  0.00000000000E+00 0.  1.
          4    1    5    5  502    0  0.95274264046E+02 -0.16137860354E+03  0.44983477964E+02  0.19272714484E+03  0.00000000000E+00 0. -1.
          3    1    6    6  503    0 -0.27084000385E+03  0.29814983007E+03 -0.20101440843E+03  0.45017154647E+03  0.00000000000E+00 0. -1.
         -4    1    5    5    0  502  0.40653122057E+02  0.97318540056E+00  0.22907761191E+02  0.46673214434E+02  0.00000000000E+00 0.  1.
         -3    1    6    6    0  503 -0.21218982146E+03  0.24779626257E+03 -0.25717629269E+03  0.41541202870E+03  0.00000000000E+00 0.  1.
<mgrwt>
<rscale>  0 0.18098904E+04</rscale>
<asrwt>0</asrwt>
<pdfrwt beam="1">  1        1 0.30458516E+00 0.18098904E+04</pdfrwt>
<pdfrwt beam="2">  1       -1 0.63636912E-01 0.18098904E+04</pdfrwt>
<totfact> 0.72624877E+00</totfact>
</mgrwt>
</event>
<event>
12    1  0.4247462E-008  0.1109423E+04  0.7818608E-02  0.9196056E-01
         -2   -1    0    0    0  501 -0.00000000000E+00  0.00000000000E+00  0.46357763454E+03  0.46357763454E+03  0.00000000000E+00 0.  1.
          2   -1    0    0  501    0  0.00000000000E+00 -0.00000000000E+00 -0.66376121654E+03  0.66376121654E+03  0.00000000000E+00 0. -1.
         23    2    1    2    0    0 -0.10529608413E+03  0.33004627460E+02  0.89420874396E+02  0.17103765527E+03  0.95295414241E+02 0.  0.
        254    2    1    2    0    0  0.10529608413E+03 -0.33004627460E+02 -0.28960445640E+03  0.95630119581E+03  0.90469036978E+03 0.  0.
         23    2    4    4    0    0 -0.25463823991E+02  0.11201992119E+03  0.29706203658E+03  0.33140889638E+03  0.91592215520E+02 0.  0.
         23    2    4    4    0    0  0.13075990812E+03 -0.14502454865E+03 -0.58666649298E+03  0.62489229944E+03  0.90457385658E+02 0.  0.
         11    1    3    3    0    0  0.22058977898E+01 -0.23672841603E+02  0.20072485683E+02  0.31115496077E+02  0.00000000000E+00 0.  1.
        -11    1    3    3    0    0 -0.10750198192E+03  0.56677469063E+02  0.69348388713E+02  0.13992215919E+03  0.00000000000E+00 0. -1.
          3    1    5    5  502    0 -0.33200431813E+02  0.13405833411E+01  0.98480403990E+02  0.10393486329E+03  0.00000000000E+00 0. -1.
          3    1    6    6  503    0  0.18431953598E+02  0.10868297935E+02 -0.38812647129E+02  0.44320180399E+02  0.00000000000E+00 0. -1.
         -3    1    5    5    0  502  0.77366078223E+01  0.11067933785E+03  0.19858163259E+03  0.22747403309E+03  0.00000000000E+00 0.  1.
         -3    1    6    6    0  503  0.11232795452E+03 -0.15589284659E+03 -0.54785384585E+03  0.58057211904E+03  0.00000000000E+00 0.  1.
<mgrwt>
<rscale>  0 0.11094230E+04</rscale>
<asrwt>0</asrwt>
<pdfrwt beam="1">  1        2 0.10211711E+00 0.11094230E+04</pdfrwt>
<pdfrwt beam="2">  1       -2 0.71319637E-01 0.11094230E+04</pdfrwt>
<totfact> 0.77614067E+01</totfact>
</mgrwt>
</event>
<event>
12    1  0.4247462E-008  0.1813851E+04  0.7818608E-02  0.8698968E-01
          1   -1    0    0  501    0  0.00000000000E+00  0.00000000000E+00  0.64142734076E+03  0.64142734076E+03  0.00000000000E+00 0. -1.
         -1   -1    0    0    0  501 -0.00000000000E+00 -0.00000000000E+00 -0.12823174797E+04  0.12823174797E+04  0.00000000000E+00 0.  1.
         23    2    1    2    0    0 -0.20296433301E+03 -0.61439020422E+03 -0.37804959463E+03  0.75464659363E+03  0.88882741720E+02 0.  0.
        254    2    1    2    0    0  0.20296433301E+03  0.61439020422E+03 -0.26284054432E+03  0.11690982268E+04  0.93756902078E+03 0.  0.
         23    2    4    4    0    0  0.47460740919E+03  0.98419827426E+02 -0.30037173636E+03  0.57750864878E+03  0.91402429495E+02 0.  0.
         23    2    4    4    0    0 -0.27164307618E+03  0.51597037679E+03  0.37531192043E+02  0.59158957805E+03  0.92489177310E+02 0.  0.
         13    1    3    3    0    0 -0.15155736375E+03 -0.38124443455E+03 -0.19755830213E+03  0.45535286989E+03  0.00000000000E+00 0.  1.
        -13    1    3    3    0    0 -0.51406969263E+02 -0.23314576967E+03 -0.18049129250E+03  0.29929372374E+03  0.00000000000E+00 0. -1.
          3    1    5    5  502    0  0.42179110233E+03  0.10048485909E+03 -0.29488431898E+03  0.52436790757E+03  0.00000000000E+00 0. -1.
          3    1    6    6  503    0 -0.10826692661E+03  0.13929932668E+03  0.40448101479E+02  0.18100297987E+03  0.00000000000E+00 0. -1.
         -3    1    5    5    0  502  0.52816306864E+02 -0.20650316693E+01 -0.54874173836E+01  0.53140741207E+02  0.00000000000E+00 0.  1.
         -3    1    6    6    0  503 -0.16337614958E+03  0.37667105011E+03 -0.29169094361E+01  0.41058659818E+03  0.00000000000E+00 0.  1.
<mgrwt>
<rscale>  0 0.18138506E+04</rscale>
<asrwt>0</asrwt>
<pdfrwt beam="1">  1        1 0.98681131E-01 0.18138506E+04</pdfrwt>
<pdfrwt beam="2">  1       -1 0.19727961E+00 0.18138506E+04</pdfrwt>
<totfact> 0.46005331E+00</totfact>
</mgrwt>
</event>
<event>
12    1  0.4247462E-008  0.2656007E+04  0.7818608E-02  0.8349422E-01
          2   -1    0    0  501    0  0.00000000000E+00  0.00000000000E+00  0.21286985968E+04  0.21286985968E+04  0.00000000000E+00 0. -1.
         -2   -1    0    0    0  501 -0.00000000000E+00 -0.00000000000E+00 -0.82848416471E+03  0.82848416471E+03  0.00000000000E+00 0.  1.
         23    2    1    2    0    0  0.15241096555E+03 -0.54162237518E+03 -0.56989208718E+03  0.80596792825E+03  0.90683022807E+02 0.  0.
        254    2    1    2    0    0 -0.15241096555E+03  0.54162237518E+03  0.18701065193E+04  0.21512148333E+04  0.90213245462E+03 0.  0.
         23    2    4    4    0    0 -0.19224605048E+03  0.50249802274E+02  0.15303524305E+04  0.15459434800E+04  0.92082002466E+02 0.  0.
         23    2    4    4    0    0  0.39835084935E+02  0.49137257291E+03  0.33975408877E+03  0.60527135328E+03  0.88807268073E+02 0.  0.
         11    1    3    3    0    0  0.10027167448E+03 -0.44972775048E+03 -0.49624757921E+03  0.67717879332E+03  0.00000000000E+00 0.  1.
        -11    1    3    3    0    0  0.52139291065E+02 -0.91894624699E+02 -0.73644507972E+02  0.12878913493E+03  0.00000000000E+00 0. -1.
          4    1    5    5  502    0 -0.18654526852E+03  0.54356818405E+02  0.12089887348E+04  0.12245029856E+04  0.00000000000E+00 0. -1.
          1    1    6    6  503    0  0.68529374928E+02  0.33536807372E+03  0.23196913241E+03  0.41349449633E+03  0.00000000000E+00 0. -1.
         -4    1    5    5    0  502 -0.57007819574E+01 -0.41070161308E+01  0.32136369572E+03  0.32144049437E+03  0.00000000000E+00 0.  1.
         -1    1    6    6    0  503 -0.28694289993E+02  0.15600449919E+03  0.10778495636E+03  0.19177685695E+03  0.00000000000E+00 0.  1.
<mgrwt>
<rscale>  0 0.26560068E+04</rscale>
<asrwt>0</asrwt>
<pdfrwt beam="1">  1        2 0.32749209E+00 0.26560068E+04</pdfrwt>
<pdfrwt beam="2">  1       -2 0.12745910E+00 0.26560068E+04</pdfrwt>
<totfact> 0.22760473E+00</totfact>
</mgrwt>
</event>
<event>
12    1  0.4247462E-008  0.3303485E+04  0.7818608E-02  0.8162009E-01
          2   -1    0    0  501    0  0.00000000000E+00  0.00000000000E+00  0.22595442078E+04  0.22595442078E+04  0.00000000000E+00 0. -1.
         -2   -1    0    0    0  501 -0.00000000000E+00 -0.00000000000E+00 -0.12074352219E+04  0.12074352219E+04  0.00000000000E+00 0.  1.
         23    2    1    2    0    0  0.47062462857E+03  0.12538747328E+04 -0.28088462672E+03  0.13714506139E+04  0.91056170354E+02 0.  0.
        254    2    1    2    0    0 -0.47062462857E+03 -0.12538747328E+04  0.13329936127E+04  0.20955288158E+04  0.90591371537E+03 0.  0.
         23    2    4    4    0    0  0.20347460195E+03 -0.13715780605E+03  0.56361646731E+02  0.26820616555E+03  0.92432324536E+02 0.  0.
         23    2    4    4    0    0 -0.67409923051E+03 -0.11167169268E+04  0.12766319659E+04  0.18273226502E+04  0.88613906625E+02 0.  0.
         13    1    3    3    0    0  0.38170490100E+03  0.11038265914E+04 -0.24509157979E+03  0.11933992030E+04  0.00000000000E+00 0.  1.
        -13    1    3    3    0    0  0.88919727568E+02  0.15004814145E+03 -0.35793046931E+02  0.17805141087E+03  0.00000000000E+00 0. -1.
          4    1    5    5  502    0  0.20727908736E+03 -0.11636401033E+03  0.63239389882E+02  0.24597646918E+03  0.00000000000E+00 0. -1.
          4    1    6    6  503    0 -0.40225159551E+03 -0.73778548754E+03  0.85010700252E+03  0.11953307858E+04  0.00000000000E+00 0. -1.
         -4    1    5    5    0  502 -0.38044854153E+01 -0.20793795727E+02 -0.68777431508E+01  0.22229696373E+02  0.00000000000E+00 0.  1.
         -4    1    6    6    0  503 -0.27184763501E+03 -0.37893143923E+03  0.42652496341E+03  0.63199186443E+03  0.00000000000E+00 0.  1.
<mgrwt>
<rscale>  0 0.33034850E+04</rscale>
<asrwt>0</asrwt>
<pdfrwt beam="1">  1        2 0.34762219E+00 0.33034850E+04</pdfrwt>
<pdfrwt beam="2">  1       -2 0.18575926E+00 0.33034850E+04</pdfrwt>
<totfact> 0.66072274E-01</totfact>
</mgrwt>
</event>
<event>
12    1  0.4247462E-008  0.1572919E+04  0.7818608E-02  0.8837360E-01
          3   -1    0    0  501    0  0.00000000000E+00  0.00000000000E+00  0.71665570541E+03  0.71665570541E+03  0.00000000000E+00 0. -1.
         -3   -1    0    0    0  501 -0.00000000000E+00 -0.00000000000E+00 -0.86306183237E+03  0.86306183237E+03  0.00000000000E+00 0.  1.
         23    2    1    2    0    0  0.49697153802E+03  0.11570007149E+03  0.77876363784E+02  0.52767924724E+03  0.10960585653E+03 0.  0.
        254    2    1    2    0    0 -0.49697153802E+03 -0.11570007149E+03 -0.22428249074E+03  0.10520382905E+04  0.89225260604E+03 0.  0.
         23    2    4    4    0    0 -0.52029782177E+03  0.25395604904E+03  0.36631716252E+02  0.58752781352E+03  0.92970698827E+02 0.  0.
         23    2    4    4    0    0  0.23326283749E+02 -0.36965612052E+03 -0.26091420699E+03  0.46451047703E+03  0.10248900870E+03 0.  0.
         13    1    3    3    0    0  0.92451344061E+02  0.13687084609E+02  0.58057393213E+02  0.11002385292E+03  0.00000000000E+00 0. -1.
        -13    1    3    3    0    0  0.40452019396E+03  0.10201298688E+03  0.19818970572E+02  0.41765539432E+03  0.00000000000E+00 0.  1.
          4    1    5    5  502    0 -0.41076475595E+03  0.16980836847E+03 -0.57333055592E+00  0.44448047813E+03  0.00000000000E+00 0.  1.
          3    1    6    6  503    0 -0.17921936917E+02 -0.15793833587E+03 -0.16285508397E+03  0.22756865367E+03  0.00000000000E+00 0. -1.
         -4    1    5    5    0  502 -0.10953306582E+03  0.84147680570E+02  0.37205046808E+02  0.14304733539E+03  0.00000000000E+00 0. -1.
         -3    1    6    6    0  503  0.41248220666E+02 -0.21171778465E+03 -0.98059123024E+02  0.23694182336E+03  0.00000000000E+00 0.  1.
<mgrwt>
<rscale>  0 0.15729185E+04</rscale>
<asrwt>0</asrwt>
<pdfrwt beam="1">  1        3 0.11025472E+00 0.15729185E+04</pdfrwt>
<pdfrwt beam="2">  1       -3 0.13277874E+00 0.15729185E+04</pdfrwt>
<totfact> 0.76927761E-01</totfact>
</mgrwt>
</event>
<event>
12    1  0.4247462E-008  0.2783767E+04  0.7818608E-02  0.8308326E-01
         -1   -1    0    0    0  501 -0.00000000000E+00  0.00000000000E+00  0.11131914820E+04  0.11131914820E+04  0.00000000000E+00 0.  1.
          1   -1    0    0  501    0  0.00000000000E+00 -0.00000000000E+00 -0.17403467241E+04  0.17403467241E+04  0.00000000000E+00 0. -1.
         23    2    1    2    0    0  0.87103883445E+03  0.64980463673E+03 -0.89663273723E+03  0.14118552215E+04  0.91816033099E+02 0.  0.
        254    2    1    2    0    0 -0.87103883445E+03 -0.64980463673E+03  0.26947749512E+03  0.14416829847E+04  0.90822738944E+03 0.  0.
         23    2    4    4    0    0 -0.90066275684E+03 -0.19081964905E+03  0.58131465192E+02  0.92696441912E+03  0.90984762630E+02 0.  0.
         23    2    4    4    0    0  0.29623922391E+02 -0.45898498767E+03  0.21134602993E+03  0.51471856557E+03  0.93398403059E+02 0.  0.
         13    1    3    3    0    0  0.85876501530E+03  0.62952587054E+03 -0.88848613814E+03  0.13867904639E+04  0.00000000000E+00 0. -1.
        -13    1    3    3    0    0  0.12273819158E+02  0.20278766187E+02 -0.81465990863E+01  0.25064757558E+02  0.00000000000E+00 0.  1.
          1    1    5    5  502    0 -0.68413360628E+03 -0.13910641880E+03  0.82611990634E+02  0.70300364720E+03  0.00000000000E+00 0. -1.
          3    1    6    6  503    0 -0.93498450985E+01 -0.21093545315E+03  0.52404382065E+02  0.21754862505E+03  0.00000000000E+00 0. -1.
         -1    1    5    5    0  502 -0.21652915057E+03 -0.51713230250E+02 -0.24480525442E+02  0.22396077191E+03  0.00000000000E+00 0.  1.
         -3    1    6    6    0  503  0.38973767489E+02 -0.24804953452E+03  0.15894164786E+03  0.29716994053E+03  0.00000000000E+00 0.  1.
<mgrwt>
<rscale>  0 0.27837666E+04</rscale>
<asrwt>0</asrwt>
<pdfrwt beam="1">  1        1 0.26774565E+00 0.27837666E+04</pdfrwt>
<pdfrwt beam="2">  1       -1 0.17126023E+00 0.27837666E+04</pdfrwt>
<totfact> 0.93414259E-01</totfact>
</mgrwt>
</event>
<event>
12    1  0.4247462E-008  0.1786276E+04  0.7818608E-02  0.8713632E-01
         -1   -1    0    0    0  501 -0.00000000000E+00  0.00000000000E+00  0.72743050243E+03  0.72743050243E+03  0.00000000000E+00 0. -1.
          1   -1    0    0  501    0  0.00000000000E+00 -0.00000000000E+00 -0.10965928311E+04  0.10965928311E+04  0.00000000000E+00 0.  1.
         23    2    1    2    0    0  0.34008525125E+03  0.53180615782E+03  0.11087625709E+03  0.64710580626E+03  0.89311883257E+02 0.  0.
        254    2    1    2    0    0 -0.34008525125E+03 -0.53180615782E+03 -0.48003858571E+03  0.11769175272E+04  0.86961028885E+03 0.  0.
         23    2    4    4    0    0  0.14567245694E+03 -0.22540191831E+03  0.14875522858E+03  0.32052923513E+03  0.92651945759E+02 0.  0.
         23    2    4    4    0    0 -0.48575770819E+03 -0.30640423951E+03 -0.62879381429E+03  0.85638829209E+03  0.90416463532E+02 0.  0.
         13    1    3    3    0    0  0.12208291278E+03  0.22971363179E+03  0.84981347742E+02  0.27366844847E+03  0.00000000000E+00 0. -1.
        -13    1    3    3    0    0  0.21800233847E+03  0.30209252604E+03  0.25894909345E+02  0.37343735779E+03  0.00000000000E+00 0.  1.
          3    1    6    6  502    0 -0.26441401728E+02 -0.89410742935E+00 -0.51539204388E+02  0.57933036709E+02  0.00000000000E+00 0. -1.
          3    1    5    5  503    0  0.61660571713E+02 -0.86999463193E+02  0.11172101297E+03  0.15444260241E+03  0.00000000000E+00 0. -1.
         -3    1    5    5    0  503  0.84011885230E+02 -0.13840245512E+03  0.37034215609E+02  0.16608663272E+03  0.00000000000E+00 0.  1.
         -3    1    6    6    0  502 -0.45931630647E+03 -0.30551013208E+03 -0.57725460990E+03  0.79845525538E+03  0.00000000000E+00 0.  1.
<mgrwt>
<rscale>  0 0.17862755E+04</rscale>
<asrwt>0</asrwt>
<pdfrwt beam="1">  1        1 0.16870659E+00 0.17862755E+04</pdfrwt>
<pdfrwt beam="2">  1       -1 0.11191239E+00 0.17862755E+04</pdfrwt>
<totfact> 0.88280475E+00</totfact>
</mgrwt>
</event>
<event>
12    1  0.4247462E-008  0.1895127E+04  0.7818608E-02  0.8657286E-01
          2   -1    0    0  501    0  0.00000000000E+00  0.00000000000E+00  0.26704694645E+04  0.26704694645E+04  0.00000000000E+00 0. -1.
         -2   -1    0    0    0  501 -0.00000000000E+00 -0.00000000000E+00 -0.33622431096E+03  0.33622431096E+03  0.00000000000E+00 0.  1.
         23    2    1    2    0    0 -0.46056477302E+03 -0.43129107013E+03  0.14849294702E+04  0.16162133040E+04  0.94857868141E+02 0.  0.
        254    2    1    2    0    0  0.46056477302E+03  0.43129107013E+03  0.84931568330E+03  0.13904804714E+04  0.90220114954E+03 0.  0.
         23    2    4    4    0    0 -0.10521003424E+03  0.40692186327E+03  0.65829886632E+03  0.78598957583E+03  0.88134339540E+02 0.  0.
         23    2    4    4    0    0  0.56577480726E+03  0.24369206857E+02  0.19101681698E+03  0.60449089561E+03  0.90701861826E+02 0.  0.
         13    1    3    3    0    0 -0.13100490493E+03 -0.13967180582E+03  0.35011282773E+03  0.39906076054E+03  0.00000000000E+00 0.  1.
        -13    1    3    3    0    0 -0.32955986809E+03 -0.29161926431E+03  0.11348166425E+04  0.12171525434E+04  0.00000000000E+00 0. -1.
          4    1    5    5  502    0 -0.10243026198E+03  0.22267607326E+03  0.36864549997E+03  0.44269187571E+03  0.00000000000E+00 0. -1.
          3    1    6    6  503    0  0.68842271403E+02  0.25435018600E+02  0.46841099370E+02  0.87064844187E+02  0.00000000000E+00 0. -1.
         -4    1    5    5    0  502 -0.27797722548E+01  0.18424579002E+03  0.28965336635E+03  0.34329770012E+03  0.00000000000E+00 0.  1.
         -3    1    6    6    0  503  0.49693253585E+03 -0.10658117423E+01  0.14417571761E+03  0.51742605142E+03  0.00000000000E+00 0.  1.
<mgrwt>
<rscale>  0 0.18951272E+04</rscale>
<asrwt>0</asrwt>
<pdfrwt beam="1">  1        2 0.41084144E+00 0.18951272E+04</pdfrwt>
<pdfrwt beam="2">  1       -2 0.51726819E-01 0.18951272E+04</pdfrwt>
<totfact> 0.91581206E+00</totfact>
</mgrwt>
</event>
<event>
12    1  0.4247462E-008  0.1584744E+04  0.7818608E-02  0.8829976E-01
          1   -1    0    0  501    0  0.00000000000E+00  0.00000000000E+00  0.91644667707E+03  0.91644667707E+03  0.00000000000E+00 0. -1.
         -1   -1    0    0    0  501 -0.00000000000E+00 -0.00000000000E+00 -0.68509506699E+03  0.68509506699E+03  0.00000000000E+00 0.  1.
         23    2    1    2    0    0 -0.19054768322E+03  0.12824387674E+03  0.55461054010E+03  0.60700363835E+03  0.90031407216E+02 0.  0.
        254    2    1    2    0    0  0.19054768322E+03 -0.12824387674E+03 -0.32325893002E+03  0.99453810571E+03  0.91206074160E+03 0.  0.
         23    2    4    4    0    0  0.20333790593E+02 -0.39815643922E+03 -0.47741976494E+03  0.62830841422E+03  0.88880921984E+02 0.  0.
         23    2    4    4    0    0  0.17021389263E+03  0.26991256249E+03  0.15416083492E+03  0.36622969149E+03  0.92374581314E+02 0.  0.
         11    1    3    3    0    0 -0.13464778486E+03  0.12729575807E+03  0.47374733230E+03  0.50869516496E+03  0.00000000000E+00 0. -1.
        -11    1    3    3    0    0 -0.55899898362E+02  0.94811866348E+00  0.80863207796E+02  0.98308473393E+02  0.00000000000E+00 0.  1.
          4    1    5    5  502    0 -0.31900592466E+02 -0.85238191093E+02 -0.98320620972E+02  0.13397813825E+03  0.00000000000E+00 0. -1.
          4    1    6    6  503    0  0.99007207651E+02  0.11072336962E+03  0.28399211359E+02  0.15122369838E+03  0.00000000000E+00 0. -1.
         -4    1    5    5    0  502  0.52234383059E+02 -0.31291824813E+03 -0.37909914397E+03  0.49433027597E+03  0.00000000000E+00 0.  1.
         -4    1    6    6    0  503  0.71206684982E+02  0.15918919286E+03  0.12576162356E+03  0.21500599311E+03  0.00000000000E+00 0.  1.
<mgrwt>
<rscale>  0 0.15847436E+04</rscale>
<asrwt>0</asrwt>
<pdfrwt beam="1">  1        1 0.14099180E+00 0.15847436E+04</pdfrwt>
<pdfrwt beam="2">  1       -1 0.10539924E+00 0.15847436E+04</pdfrwt>
<totfact> 0.14306326E+01</totfact>
</mgrwt>
</event>
<event>
12    1  0.4247462E-008  0.1803828E+04  0.7818608E-02  0.8704266E-01
          2   -1    0    0  501    0  0.00000000000E+00  0.00000000000E+00  0.71609146150E+03  0.71609146150E+03  0.00000000000E+00 0. -1.
         -2   -1    0    0    0  501 -0.00000000000E+00 -0.00000000000E+00 -0.11359568809E+04  0.11359568809E+04  0.00000000000E+00 0.  1.
         23    2    1    2    0    0 -0.49498119026E+03 -0.37743306561E+03 -0.42016999445E+03  0.75650490186E+03  0.91075488360E+02 0.  0.
        254    2    1    2    0    0  0.49498119026E+03  0.37743306561E+03  0.30457509479E+00  0.10955434405E+04  0.90152827993E+03 0.  0.
         23    2    4    4    0    0  0.36490039647E+03 -0.22911809779E+03  0.12208450611E+03  0.45681840638E+03  0.90172211339E+02 0.  0.
         23    2    4    4    0    0  0.13008079379E+03  0.60655116341E+03 -0.12177993102E+03  0.63872503411E+03  0.91181088258E+02 0.  0.
         13    1    3    3    0    0 -0.14017588619E+03 -0.58107855969E+02 -0.10293471497E+03  0.18336127601E+03  0.00000000000E+00 0. -1.
        -13    1    3    3    0    0 -0.35480530407E+03 -0.31932520964E+03 -0.31723527947E+03  0.57314362585E+03  0.00000000000E+00 0.  1.
          1    1    6    6  502    0  0.13400762626E+03  0.58097012012E+03 -0.13240223499E+03  0.61074927441E+03  0.00000000000E+00 0. -1.
          1    1    5    5  503    0  0.12284296701E+03 -0.12921807067E+03  0.46093854208E+02  0.18415305517E+03  0.00000000000E+00 0. -1.
         -1    1    5    5    0  503  0.24205742946E+03 -0.99900027117E+02  0.75990651906E+02  0.27266535122E+03  0.00000000000E+00 0.  1.
         -1    1    6    6    0  502 -0.39268324732E+01  0.25581043285E+02  0.10622303967E+02  0.27975759693E+02  0.00000000000E+00 0.  1.
<mgrwt>
<rscale>  0 0.18038282E+04</rscale>
<asrwt>0</asrwt>
<pdfrwt beam="1">  1        2 0.11016792E+00 0.18038282E+04</pdfrwt>
<pdfrwt beam="2">  1       -2 0.17476260E+00 0.18038282E+04</pdfrwt>
<totfact> 0.74043803E+00</totfact>
</mgrwt>
</event>
<event>
12    1  0.4247462E-008  0.1457175E+04  0.7818608E-02  0.8913441E-01
         -2   -1    0    0    0  501 -0.00000000000E+00  0.00000000000E+00  0.30511471566E+03  0.30511471566E+03  0.00000000000E+00 0.  1.
          2   -1    0    0  501    0  0.00000000000E+00 -0.00000000000E+00 -0.17398048760E+04  0.17398048760E+04  0.00000000000E+00 0. -1.
         23    2    1    2    0    0 -0.24131128036E+03 -0.12581216656E+03 -0.60646377982E+02  0.29310871277E+03  0.90415148383E+02 0.  0.
        254    2    1    2    0    0  0.24131128036E+03  0.12581216656E+03 -0.13740437824E+04  0.17518108789E+04  0.10520385945E+04 0.  0.
         23    2    4    4    0    0 -0.55746246597E+02  0.53971511810E+03 -0.87442097543E+03  0.10330582579E+04  0.90538771525E+02 0.  0.
         23    2    4    4    0    0  0.29705752696E+03 -0.41390295155E+03 -0.49962280694E+03  0.71875262103E+03  0.86160045299E+02 0.  0.
         13    1    3    3    0    0 -0.86078846186E+02 -0.39846312366E+02 -0.66041681796E+02  0.11558027559E+03  0.00000000000E+00 0.  1.
        -13    1    3    3    0    0 -0.15523243417E+03 -0.85965854190E+02  0.53953038139E+01  0.17752843719E+03  0.00000000000E+00 0. -1.
          1    1    5    5  502    0  0.46130167178E+01  0.36615141243E+03 -0.59347672272E+03  0.69735411174E+03  0.00000000000E+00 0. -1.
          3    1    6    6  503    0  0.17958445517E+03 -0.30076392121E+03 -0.37758146776E+03  0.51505075248E+03  0.00000000000E+00 0. -1.
         -1    1    5    5    0  502 -0.60359263315E+02  0.17356370567E+03 -0.28094425271E+03  0.33570414613E+03  0.00000000000E+00 0.  1.
         -3    1    6    6    0  503  0.11747307179E+03 -0.11313903034E+03 -0.12204133918E+03  0.20370186855E+03  0.00000000000E+00 0.  1.
<mgrwt>
<rscale>  0 0.14571754E+04</rscale>
<asrwt>0</asrwt>
<pdfrwt beam="1">  1        2 0.26766229E+00 0.14571754E+04</pdfrwt>
<pdfrwt beam="2">  1       -2 0.46940725E-01 0.14571754E+04</pdfrwt>
<totfact> 0.38856601E+01</totfact>
</mgrwt>
</event>
<event>
12    1  0.4247462E-008  0.1408454E+04  0.7818608E-02  0.8947722E-01
          2   -1    0    0  501    0  0.00000000000E+00  0.00000000000E+00  0.22239732780E+04  0.22239732780E+04  0.00000000000E+00 0. -1.
         -2   -1    0    0    0  501 -0.00000000000E+00 -0.00000000000E+00 -0.22299539985E+03  0.22299539985E+03  0.00000000000E+00 0.  1.
         23    2    1    2    0    0 -0.24421758083E+03 -0.26883286066E+02  0.20707372548E+02  0.26280073189E+03  0.90942242924E+02 0.  0.
        254    2    1    2    0    0  0.24421758083E+03  0.26883286066E+02  0.19802705056E+04  0.21841679460E+04  0.88811789926E+03 0.  0.
         23    2    4    4    0    0  0.40631580720E+03  0.70650083146E+02  0.36699246466E+03  0.55957664940E+03  0.91425313856E+02 0.  0.
         23    2    4    4    0    0 -0.16209822637E+03 -0.43766797080E+02  0.16132780410E+04  0.16245912966E+04  0.91866620532E+02 0.  0.
         13    1    3    3    0    0 -0.97738392242E+02 -0.42561601709E+02  0.40752557011E+02  0.11412735939E+03  0.00000000000E+00 0. -1.
        -13    1    3    3    0    0 -0.14647918859E+03  0.15678315644E+02 -0.20045184463E+02  0.14867337250E+03  0.00000000000E+00 0.  1.
          2    1    6    6  502    0  0.45065064187E+01 -0.22844182014E+02  0.17375282829E+03  0.17530604836E+03  0.00000000000E+00 0. -1.
          2    1    5    5  503    0  0.18805770946E+03  0.53359873322E+02  0.22761284970E+03  0.30003431057E+03  0.00000000000E+00 0. -1.
         -2    1    5    5    0  503  0.21825809773E+03  0.17290209824E+02  0.13937961496E+03  0.25954233884E+03  0.00000000000E+00 0.  1.
         -2    1    6    6    0  502 -0.16660473279E+03 -0.20922615066E+02  0.14395252127E+04  0.14492852482E+04  0.00000000000E+00 0.  1.
<mgrwt>
<rscale>  0 0.14084542E+04</rscale>
<asrwt>0</asrwt>
<pdfrwt beam="1">  1        2 0.34214972E+00 0.14084542E+04</pdfrwt>
<pdfrwt beam="2">  1       -2 0.34306986E-01 0.14084542E+04</pdfrwt>
<totfact> 0.38818979E+01</totfact>
</mgrwt>
</event>
<event>
12    1  0.4247462E-008  0.2176625E+04  0.7818608E-02  0.8528221E-01
         -2   -1    0    0    0  501 -0.00000000000E+00  0.00000000000E+00  0.65531765986E+03  0.65531765986E+03  0.00000000000E+00 0.  1.
          2   -1    0    0  501    0  0.00000000000E+00 -0.00000000000E+00 -0.18074040203E+04  0.18074040203E+04  0.00000000000E+00 0. -1.
         23    2    1    2    0    0  0.81228919637E+03  0.38495363324E+03 -0.40754911374E+03  0.99125824699E+03  0.92160695681E+02 0.  0.
        254    2    1    2    0    0 -0.81228919637E+03 -0.38495363324E+03 -0.74453724668E+03  0.14714634332E+04  0.89602783724E+03 0.  0.
         23    2    4    4    0    0 -0.40131539778E+03 -0.26316793292E+03 -0.88460326188E+03  0.10105230679E+04  0.91227904133E+02 0.  0.
         23    2    4    4    0    0 -0.41097379860E+03 -0.12178570032E+03  0.14006601520E+03  0.46094036521E+03  0.95479378582E+02 0.  0.
         13    1    3    3    0    0  0.30700335195E+03  0.13907440060E+03 -0.20186098209E+03  0.39286206625E+03  0.00000000000E+00 0. -1.
        -13    1    3    3    0    0  0.50528584443E+03  0.24587923265E+03 -0.20568813165E+03  0.59839618074E+03  0.00000000000E+00 0.  1.
          4    1    5    5  502    0 -0.38739074155E+03 -0.22528004081E+03 -0.81043198218E+03  0.92607919811E+03  0.00000000000E+00 0. -1.
          4    1    6    6  503    0 -0.25796753021E+03 -0.29168104704E+02  0.70305758291E+02  0.26896268259E+03  0.00000000000E+00 0. -1.
         -4    1    5    5    0  502 -0.13924656229E+02 -0.37887892109E+02 -0.74171279705E+02  0.84443869834E+02  0.00000000000E+00 0.  1.
         -4    1    6    6    0  503 -0.15300626839E+03 -0.92617595617E+02  0.69760256909E+02  0.19197768263E+03  0.00000000000E+00 0.  1.
<mgrwt>
<rscale>  0 0.21766247E+04</rscale>
<asrwt>0</asrwt>
<pdfrwt beam="1">  1        2 0.27806215E+00 0.21766247E+04</pdfrwt>
<pdfrwt beam="2">  1       -2 0.10081810E+00 0.21766247E+04</pdfrwt>
<totfact> 0.63417505E+00</totfact>
</mgrwt>
</event>
<event>
12    1  0.4247462E-008  0.1536318E+04  0.7818608E-02  0.8860654E-01
         -1   -1    0    0    0  501 -0.00000000000E+00  0.00000000000E+00  0.12450972328E+04  0.12450972328E+04  0.00000000000E+00 0.  1.
          1   -1    0    0  501    0  0.00000000000E+00 -0.00000000000E+00 -0.47391366729E+03  0.47391366729E+03  0.00000000000E+00 0. -1.
         23    2    1    2    0    0 -0.42003168028E+03 -0.72834293096E+02  0.56161838937E+03  0.71078510738E+03  0.89826537931E+02 0.  0.
        254    2    1    2    0    0  0.42003168028E+03  0.72834293096E+02  0.20956517610E+03  0.10082257927E+04  0.88930885483E+03 0.  0.
         23    2    4    4    0    0 -0.13342579237E+03  0.33050780241E+03  0.10704670786E+03  0.38296721746E+03  0.90371690612E+02 0.  0.
         23    2    4    4    0    0  0.55345747265E+03 -0.25767350931E+03  0.10251846825E+03  0.62525857521E+03  0.87905848004E+02 0.  0.
         11    1    3    3    0    0 -0.26140647807E+03 -0.65334918883E+02  0.28778182428E+03  0.39423391126E+03  0.00000000000E+00 0. -1.
        -11    1    3    3    0    0 -0.15862520221E+03 -0.74993742128E+01  0.27383656508E+03  0.31655119612E+03  0.00000000000E+00 0.  1.
          2    1    5    5  502    0 -0.14477373539E+03  0.27987954680E+03  0.83451272432E+02  0.32596949251E+03  0.00000000000E+00 0.  1.
          3    1    6    6  503    0  0.19812950579E+03 -0.46943136911E+02  0.29564564952E+02  0.20574990321E+03  0.00000000000E+00 0. -1.
         -2    1    5    5    0  502  0.11347943022E+02  0.50628255602E+02  0.23595435424E+02  0.56997724945E+02  0.00000000000E+00 0. -1.
         -3    1    6    6    0  503  0.35532796685E+03 -0.21073037240E+03  0.72953903296E+02  0.41950867200E+03  0.00000000000E+00 0.  1.
<mgrwt>
<rscale>  0 0.15363185E+04</rscale>
<asrwt>0</asrwt>
<pdfrwt beam="1">  1        1 0.72909795E-01 0.15363185E+04</pdfrwt>
<pdfrwt beam="2">  1       -1 0.19155342E+00 0.15363185E+04</pdfrwt>
<totfact> 0.79289932E+00</totfact>
</mgrwt>
</event>
<event>
12    1  0.4247462E-008  0.2626781E+04  0.7818608E-02  0.8359161E-01
          1   -1    0    0  501    0  0.00000000000E+00  0.00000000000E+00  0.21652714800E+04  0.21652714800E+04  0.00000000000E+00 0. -1.
         -1   -1    0    0    0  501 -0.00000000000E+00 -0.00000000000E+00 -0.79666460470E+03  0.79666460470E+03  0.00000000000E+00 0.  1.
         23    2    1    2    0    0  0.72081183722E+03  0.45804454377E+03 -0.27473915004E+03  0.90186741526E+03  0.92242752500E+02 0.  0.
        254    2    1    2    0    0 -0.72081183722E+03 -0.45804454377E+03  0.16433460253E+04  0.20600686694E+04  0.90217639908E+03 0.  0.
         23    2    4    4    0    0 -0.22539231166E+03 -0.44504392878E+03  0.14215352468E+04  0.15094084699E+04  0.93196987790E+02 0.  0.
         23    2    4    4    0    0 -0.49541952556E+03 -0.13000614991E+02  0.22181077859E+03  0.55066019955E+03  0.91744817680E+02 0.  0.
         13    1    3    3    0    0  0.86683606822E+02  0.72518291752E+02 -0.81442581134E+01  0.11331054351E+03  0.00000000000E+00 0. -1.
        -13    1    3    3    0    0  0.63412823040E+03  0.38552625202E+03 -0.26659489192E+03  0.78855687175E+03  0.00000000000E+00 0.  1.
          4    1    5    5  502    0 -0.18392164031E+03 -0.28014612014E+03  0.87250860055E+03  0.93465516445E+03  0.00000000000E+00 0. -1.
          4    1    6    6  503    0 -0.21008278477E+03  0.32335295814E+02  0.66910217635E+02  0.22283923585E+03  0.00000000000E+00 0. -1.
         -4    1    5    5    0  502 -0.41470671344E+02 -0.16489780864E+03  0.54902664621E+03  0.57475330544E+03  0.00000000000E+00 0.  1.
         -4    1    6    6    0  503 -0.28533674079E+03 -0.45335910805E+02  0.15490056095E+03  0.32782096370E+03  0.00000000000E+00 0.  1.
<mgrwt>
<rscale>  0 0.26267814E+04</rscale>
<asrwt>0</asrwt>
<pdfrwt beam="1">  1        1 0.33311869E+00 0.26267814E+04</pdfrwt>
<pdfrwt beam="2">  1       -1 0.12256379E+00 0.26267814E+04</pdfrwt>
<totfact> 0.11876872E+00</totfact>
</mgrwt>
</event>
<event>
12    1  0.4247462E-008  0.2378436E+04  0.7818608E-02  0.8447621E-01
         -2   -1    0    0    0  501 -0.00000000000E+00  0.00000000000E+00  0.10387772814E+04  0.10387772814E+04  0.00000000000E+00 0.  1.
          2   -1    0    0  501    0  0.00000000000E+00 -0.00000000000E+00 -0.13614462521E+04  0.13614462521E+04  0.00000000000E+00 0. -1.
         23    2    1    2    0    0  0.50506121626E+03  0.87406160230E+03 -0.34129165609E+02  0.10141046477E+04  0.90404202234E+02 0.  0.
        254    2    1    2    0    0 -0.50506121626E+03 -0.87406160230E+03 -0.28853980514E+03  0.13861188858E+04  0.90498609360E+03 0.  0.
         23    2    4    4    0    0 -0.42755462184E+03 -0.10101846082E+04 -0.40191643806E+03  0.11715039480E+04  0.87228320483E+02 0.  0.
         23    2    4    4    0    0 -0.77506594426E+02  0.13612300585E+03  0.11337663292E+03  0.21461493775E+03  0.93105132573E+02 0.  0.
         11    1    3    3    0    0  0.67368669805E+02  0.11611230652E+03  0.26217686307E+02  0.13677709045E+03  0.00000000000E+00 0. -1.
        -11    1    3    3    0    0  0.43769254646E+03  0.75794929578E+03 -0.60346851916E+02  0.87732755726E+03  0.00000000000E+00 0.  1.
          2    1    5    5  502    0 -0.17877217274E+03 -0.49890719022E+03 -0.16007827699E+03  0.55361803526E+03  0.00000000000E+00 0. -1.
          3    1    6    6  503    0  0.11221843947E+02 -0.72971207401E+01  0.58749342963E+01  0.14618228540E+02  0.00000000000E+00 0. -1.
         -2    1    5    5    0  502 -0.24878244910E+03 -0.51127741793E+03 -0.24183816107E+03  0.61788591278E+03  0.00000000000E+00 0.  1.
         -3    1    6    6    0  503 -0.88728438373E+02  0.14342012659E+03  0.10750169862E+03  0.19999670921E+03  0.00000000000E+00 0.  1.
<mgrwt>
<rscale>  0 0.23784360E+04</rscale>
<asrwt>0</asrwt>
<pdfrwt beam="1">  1        2 0.20945327E+00 0.23784360E+04</pdfrwt>
<pdfrwt beam="2">  1       -2 0.15981189E+00 0.23784360E+04</pdfrwt>
<totfact> 0.34670090E+00</totfact>
</mgrwt>
</event>
<event>
12    1  0.4247462E-008  0.2488341E+04  0.7818608E-02  0.8407151E-01
         -1   -1    0    0    0  501 -0.00000000000E+00  0.00000000000E+00  0.67675177469E+03  0.67675177469E+03  0.00000000000E+00 0.  1.
          1   -1    0    0  501    0  0.00000000000E+00 -0.00000000000E+00 -0.22873390988E+04  0.22873390988E+04  0.00000000000E+00 0. -1.
         23    2    1    2    0    0 -0.66536600184E+02 -0.61715843021E+03 -0.17403657722E+04  0.18499687622E+04  0.90552486338E+02 0.  0.
        254    2    1    2    0    0  0.66536600184E+02  0.61715843021E+03  0.12977844810E+03  0.11141221113E+04  0.91603165131E+03 0.  0.
         23    2    4    4    0    0  0.18883547545E+03  0.34878595462E+03 -0.35379758292E+03  0.53916392964E+03  0.90634068771E+02 0.  0.
         23    2    4    4    0    0 -0.12229887526E+03  0.26837247560E+03  0.48357603102E+03  0.57495818168E+03  0.98743771257E+02 0.  0.
         11    1    3    3    0    0  0.11742006519E+02 -0.30126717016E+03 -0.80552325804E+03  0.86009737924E+03  0.00000000000E+00 0. -1.
        -11    1    3    3    0    0 -0.78278606703E+02 -0.31589126005E+03 -0.93484251416E+03  0.98987138292E+03  0.00000000000E+00 0.  1.
          4    1    5    5  502    0  0.42086129921E+02  0.14833159276E+03 -0.98623398569E+02  0.18303026659E+03  0.00000000000E+00 0. -1.
          1    1    6    6  503    0 -0.75013288072E+02  0.11522521768E+03  0.30759998006E+03  0.33692965425E+03  0.00000000000E+00 0. -1.
         -4    1    5    5    0  502  0.14674934552E+03  0.20045436185E+03 -0.25517418435E+03  0.35613366305E+03  0.00000000000E+00 0.  1.
         -1    1    6    6    0  503 -0.47285587190E+02  0.15314725792E+03  0.17597605095E+03  0.23802852744E+03  0.00000000000E+00 0.  1.
<mgrwt>
<rscale>  0 0.24883415E+04</rscale>
<asrwt>0</asrwt>
<pdfrwt beam="1">  1        1 0.35189833E+00 0.24883415E+04</pdfrwt>
<pdfrwt beam="2">  1       -1 0.10411566E+00 0.24883415E+04</pdfrwt>
<totfact> 0.14657196E+00</totfact>
</mgrwt>
</event>
<event>
12    1  0.4247462E-008  0.1265971E+04  0.7818608E-02  0.9056994E-01
          2   -1    0    0  501    0  0.00000000000E+00  0.00000000000E+00  0.33015148476E+03  0.33015148476E+03  0.00000000000E+00 0. -1.
         -2   -1    0    0    0  501 -0.00000000000E+00 -0.00000000000E+00 -0.12135967741E+04  0.12135967741E+04  0.00000000000E+00 0.  1.
         23    2    1    2    0    0  0.77265869539E+02  0.25894236397E+02 -0.57687715518E+03  0.59053157252E+03  0.96435262693E+02 0.  0.
        254    2    1    2    0    0 -0.77265869539E+02 -0.25894236397E+02 -0.30656813412E+03  0.95321668631E+03  0.89888681386E+03 0.  0.
         23    2    4    4    0    0  0.15553802041E+03 -0.33082065893E+03 -0.39799387386E+03  0.54846655393E+03  0.93712608462E+02 0.  0.
         23    2    4    4    0    0 -0.23280388995E+03  0.30492642254E+03  0.91425739740E+02  0.40475013238E+03  0.91028728621E+02 0.  0.
         13    1    3    3    0    0  0.89078051924E+01 -0.14376480679E+02 -0.13621849918E+02  0.21716053630E+02  0.00000000000E+00 0. -1.
        -13    1    3    3    0    0  0.68358064346E+02  0.40270717076E+02 -0.56325530527E+03  0.56881551889E+03  0.00000000000E+00 0.  1.
          1    1    5    5  502    0  0.14640532735E+03 -0.22399840728E+03 -0.25408025921E+03  0.36900756695E+03  0.00000000000E+00 0. -1.
          3    1    6    6  503    0 -0.56238618702E+02  0.32206538464E+02 -0.72419604199E+01  0.65211113654E+02  0.00000000000E+00 0. -1.
         -1    1    5    5    0  502  0.91326930596E+01 -0.10682225165E+03 -0.14391361464E+03  0.17945898699E+03  0.00000000000E+00 0.  1.
         -3    1    6    6    0  503 -0.17656527125E+03  0.27271988407E+03  0.98667700160E+02  0.33953901872E+03  0.00000000000E+00 0.  1.
<mgrwt>
<rscale>  0 0.12659712E+04</rscale>
<asrwt>0</asrwt>
<pdfrwt beam="1">  1        2 0.50792538E-01 0.12659712E+04</pdfrwt>
<pdfrwt beam="2">  1       -2 0.18670719E+00 0.12659712E+04</pdfrwt>
<totfact> 0.15794098E+01</totfact>
</mgrwt>
</event>
<event>
12    1  0.4247462E-008  0.2075923E+04  0.7818608E-02  0.8571924E-01
         -2   -1    0    0    0  501 -0.00000000000E+00  0.00000000000E+00  0.16854927399E+04  0.16854927399E+04  0.00000000000E+00 0.  1.
          2   -1    0    0  501    0  0.00000000000E+00 -0.00000000000E+00 -0.63919857044E+03  0.63919857044E+03  0.00000000000E+00 0. -1.
         23    2    1    2    0    0  0.23873751634E+03 -0.47808518055E+03  0.11495060322E+04  0.12707949214E+04  0.89412373070E+02 0.  0.
        254    2    1    2    0    0 -0.23873751634E+03  0.47808518055E+03 -0.10321186276E+03  0.10538963890E+04  0.90248760022E+03 0.  0.
         23    2    4    4    0    0  0.33427003307E+03  0.23957809209E+03 -0.21933255641E+02  0.42158102767E+03  0.90085392663E+02 0.  0.
         23    2    4    4    0    0 -0.57300754941E+03  0.23850708846E+03 -0.81278607115E+02  0.63231536132E+03  0.89404816778E+02 0.  0.
         11    1    3    3    0    0  0.14329668669E+02 -0.54792743980E+02  0.19102729731E+03  0.19924611042E+03  0.00000000000E+00 0. -1.
        -11    1    3    3    0    0  0.22440784767E+03 -0.42329243657E+03  0.95847873491E+03  0.10715488109E+04  0.00000000000E+00 0.  1.
          4    1    5    5  502    0  0.14332608788E+03  0.13686749375E+03  0.24981249844E+02  0.19974769375E+03  0.00000000000E+00 0. -1.
          3    1    6    6  503    0 -0.41017871850E+03  0.14803562510E+03 -0.92220790300E+02  0.44571942023E+03  0.00000000000E+00 0. -1.
         -4    1    5    5    0  502  0.19094394519E+03  0.10271059834E+03 -0.46914505485E+02  0.22183333393E+03  0.00000000000E+00 0.  1.
         -3    1    6    6    0  503 -0.16282883091E+03  0.90471463365E+02  0.10942183184E+02  0.18659594109E+03  0.00000000000E+00 0.  1.
<mgrwt>
<rscale>  0 0.20759235E+04</rscale>
<asrwt>0</asrwt>
<pdfrwt beam="1">  1        2 0.98338242E-01 0.20759235E+04</pdfrwt>
<pdfrwt beam="2">  1       -2 0.25930657E+00 0.20759235E+04</pdfrwt>
<totfact> 0.23879162E+00</totfact>
</mgrwt>
</event>
<event>
12    1  0.4247462E-008  0.1408614E+04  0.7818608E-02  0.8947607E-01
          2   -1    0    0  501    0  0.00000000000E+00  0.00000000000E+00  0.15432499453E+04  0.15432499453E+04  0.00000000000E+00 0. -1.
         -2   -1    0    0    0  501 -0.00000000000E+00 -0.00000000000E+00 -0.32143103697E+03  0.32143103697E+03  0.00000000000E+00 0.  1.
         23    2    1    2    0    0  0.76619160869E+02  0.39509147140E+03  0.50910878120E+03  0.65522484801E+03  0.90333181918E+02 0.  0.
        254    2    1    2    0    0 -0.76619160869E+02 -0.39509147140E+03  0.71271012709E+03  0.12094561342E+04  0.89042722824E+03 0.  0.
         23    2    4    4    0    0  0.14235038862E+03 -0.55487133315E+03  0.71751655957E+03  0.92265328222E+03  0.91176951247E+02 0.  0.
         23    2    4    4    0    0 -0.21896954949E+03  0.15977986175E+03 -0.48064324786E+01  0.28680285202E+03  0.93570862504E+02 0.  0.
         11    1    3    3    0    0  0.58594961293E+02  0.14562241714E+03  0.14644993364E+03  0.21467845939E+03  0.00000000000E+00 0.  1.
        -11    1    3    3    0    0  0.18024199576E+02  0.24946905427E+03  0.36265884756E+03  0.44054638862E+03  0.00000000000E+00 0. -1.
          1    1    5    5  502    0  0.63814340770E+02 -0.41282559209E+03  0.51929403963E+03  0.66645595441E+03  0.00000000000E+00 0. -1.
          3    1    6    6  503    0 -0.72719749095E+02  0.97227066658E+02  0.27501616801E+02  0.12448937033E+03  0.00000000000E+00 0. -1.
         -1    1    5    5    0  502  0.78536047847E+02 -0.14204574106E+03  0.19822251994E+03  0.25619732781E+03  0.00000000000E+00 0.  1.
         -3    1    6    6    0  503 -0.14624980039E+03  0.62552795090E+02 -0.32308049280E+02  0.16231348168E+03  0.00000000000E+00 0.  1.
<mgrwt>
<rscale>  0 0.14086141E+04</rscale>
<asrwt>0</asrwt>
<pdfrwt beam="1">  1        2 0.23742306E+00 0.14086141E+04</pdfrwt>
<pdfrwt beam="2">  1       -2 0.49450930E-01 0.14086141E+04</pdfrwt>
<totfact> 0.45170463E+01</totfact>
</mgrwt>
</event>
<event>
12    1  0.4247462E-008  0.1297692E+04  0.7818608E-02  0.9031397E-01
         -1   -1    0    0    0  501 -0.00000000000E+00  0.00000000000E+00  0.76416476327E+03  0.76416476327E+03  0.00000000000E+00 0.  1.
          1   -1    0    0  501    0  0.00000000000E+00 -0.00000000000E+00 -0.55093018598E+03  0.55093018598E+03  0.00000000000E+00 0. -1.
         23    2    1    2    0    0  0.21392093759E+03  0.83723126815E+02  0.29201777863E+03  0.38250024632E+03  0.90886335023E+02 0.  0.
        254    2    1    2    0    0 -0.21392093759E+03 -0.83723126815E+02 -0.78783201344E+02  0.93259470293E+03  0.90041899003E+03 0.  0.
         23    2    4    4    0    0 -0.53229622586E+03 -0.54258162076E+02 -0.19938240371E+03  0.57808983912E+03  0.90284544428E+02 0.  0.
         23    2    4    4    0    0  0.31837528827E+03 -0.29464964739E+02  0.12059920237E+03  0.35450486381E+03  0.94331980401E+02 0.  0.
         11    1    3    3    0    0  0.17412817502E+03  0.75488880332E+02  0.17324681819E+03  0.25697013913E+03  0.00000000000E+00 0. -1.
        -11    1    3    3    0    0  0.39792762576E+02  0.82342464830E+01  0.11877096044E+03  0.12553010720E+03  0.00000000000E+00 0.  1.
          2    1    6    6  502    0  0.81007432000E+02 -0.49846900617E+02  0.33591566619E+02  0.10087274601E+03  0.00000000000E+00 0. -1.
          2    1    5    5  503    0 -0.14016516646E+03  0.13082324037E+02 -0.83547071661E+02  0.16369952435E+03  0.00000000000E+00 0. -1.
         -2    1    5    5    0  503 -0.39213105941E+03 -0.67340486113E+02 -0.11583533205E+03  0.41439031477E+03  0.00000000000E+00 0.  1.
         -2    1    6    6    0  502  0.23736785627E+03  0.20381935878E+02  0.87007635750E+02  0.25363211780E+03  0.00000000000E+00 0.  1.
<mgrwt>
<rscale>  0 0.12976925E+04</rscale>
<asrwt>0</asrwt>
<pdfrwt beam="1">  1        1 0.84758490E-01 0.12976925E+04</pdfrwt>
<pdfrwt beam="2">  1       -1 0.11756381E+00 0.12976925E+04</pdfrwt>
<totfact> 0.24761054E+01</totfact>
</mgrwt>
</event>
<event>
12    1  0.4247462E-008  0.1601537E+04  0.7818608E-02  0.8819605E-01
          2   -1    0    0  501    0  0.00000000000E+00  0.00000000000E+00  0.29677806716E+04  0.29677806716E+04  0.00000000000E+00 0.  1.
         -2   -1    0    0    0  501 -0.00000000000E+00 -0.00000000000E+00 -0.21606374216E+03  0.21606374216E+03  0.00000000000E+00 0. -1.
         23    2    1    2    0    0  0.35420285312E+03  0.26366802446E+03  0.31692074857E+03  0.55153241282E+03  0.93641621256E+02 0.  0.
        254    2    1    2    0    0 -0.35420285312E+03 -0.26366802446E+03  0.24347961808E+04  0.26323120009E+04  0.89769345529E+03 0.  0.
         23    2    4    4    0    0  0.27409429443E+03  0.40485336344E+02  0.62350288338E+03  0.68860694049E+03  0.93042615014E+02 0.  0.
         23    2    4    4    0    0 -0.62829714755E+03 -0.30415336081E+03  0.18112932974E+04  0.19437050604E+04  0.99696439330E+02 0.  0.
         11    1    3    3    0    0  0.24407630637E+03  0.18325860168E+03  0.26948252802E+03  0.40715818956E+03  0.00000000000E+00 0. -1.
        -11    1    3    3    0    0  0.11012654675E+03  0.80409422785E+02  0.47438220556E+02  0.14437422326E+03  0.00000000000E+00 0.  1.
          3    1    5    5  502    0  0.29723070735E+02 -0.76739627924E+01  0.15500873942E+03  0.15801917584E+03  0.00000000000E+00 0. -1.
          3    1    6    6  503    0 -0.17662254231E+03 -0.58285638200E+02  0.38593656483E+03  0.42841541772E+03  0.00000000000E+00 0. -1.
         -3    1    5    5    0  502  0.24437122369E+03  0.48159299137E+02  0.46849414397E+03  0.53058776465E+03  0.00000000000E+00 0.  1.
         -3    1    6    6    0  503 -0.45167460524E+03 -0.24586772261E+03  0.14253567326E+04  0.15152896427E+04  0.00000000000E+00 0.  1.
<mgrwt>
<rscale>  0 0.16015365E+04</rscale>
<asrwt>0</asrwt>
<pdfrwt beam="1">  1        2 0.45658161E+00 0.16015365E+04</pdfrwt>
<pdfrwt beam="2">  1       -2 0.33240578E-01 0.16015365E+04</pdfrwt>
<totfact> 0.14865528E+01</totfact>
</mgrwt>
</event>
<event>
12    1  0.4247462E-008  0.3649377E+04  0.7818608E-02  0.8079274E-01
         -2   -1    0    0    0  501 -0.00000000000E+00  0.00000000000E+00  0.21010384213E+04  0.21010384213E+04  0.00000000000E+00 0.  1.
          2   -1    0    0  501    0  0.00000000000E+00 -0.00000000000E+00 -0.15846868157E+04  0.15846868157E+04  0.00000000000E+00 0. -1.
         23    2    1    2    0    0  0.71407529211E+03 -0.51969951523E+03  0.17240464836E+04  0.19395358933E+04  0.97324689403E+02 0.  0.
        254    2    1    2    0    0 -0.71407529211E+03  0.51969951523E+03 -0.12076948779E+04  0.17461893437E+04  0.90036614595E+03 0.  0.
         23    2    4    4    0    0 -0.21455084855E+03  0.59422835599E+03 -0.10120734369E+04  0.11964920089E+04  0.90338695815E+02 0.  0.
         23    2    4    4    0    0 -0.49952444356E+03 -0.74528840766E+02 -0.19562144099E+03  0.54969733473E+03  0.93915886930E+02 0.  0.
         11    1    3    3    0    0  0.69557868131E+03 -0.50817441425E+03  0.17063374761E+04  0.19114545560E+04  0.00000000000E+00 0.  1.
        -11    1    3    3    0    0  0.18496610803E+02 -0.11525100975E+02  0.17709007465E+02  0.28081337380E+02  0.00000000000E+00 0. -1.
          2    1    5    5  502    0  0.58980051710E+01  0.52199856164E+02 -0.70695621334E+02  0.88076570803E+02  0.00000000000E+00 0.  1.
          1    1    6    6  503    0 -0.49852610154E+03 -0.82563177773E+02 -0.19478156112E+03  0.54155776127E+03  0.00000000000E+00 0. -1.
         -2    1    5    5    0  502 -0.22044885372E+03  0.54202849983E+03 -0.94137781561E+03  0.11084154381E+04  0.00000000000E+00 0. -1.
         -1    1    6    6    0  503 -0.99834202091E+00  0.80343370073E+01 -0.83987986479E+00  0.81395734609E+01  0.00000000000E+00 0.  1.
<mgrwt>
<rscale>  0 0.36493769E+04</rscale>
<asrwt>0</asrwt>
<pdfrwt beam="1">  1        2 0.24379797E+00 0.36493769E+04</pdfrwt>
<pdfrwt beam="2">  1       -2 0.32323668E+00 0.36493769E+04</pdfrwt>
<totfact> 0.21107571E-01</totfact>
</mgrwt>
</event>
<event>
12    1  0.4247462E-008  0.1624138E+04  0.7818608E-02  0.8805855E-01
         -2   -1    0    0    0  501 -0.00000000000E+00  0.00000000000E+00  0.40410107694E+03  0.40410107694E+03  0.00000000000E+00 0.  1.
          2   -1    0    0  501    0  0.00000000000E+00 -0.00000000000E+00 -0.16319091500E+04  0.16319091500E+04  0.00000000000E+00 0. -1.
         23    2    1    2    0    0  0.18475904652E+03  0.35850571760E+02 -0.11043892360E+04  0.11241266168E+04  0.92541327403E+02 0.  0.
        254    2    1    2    0    0 -0.18475904652E+03 -0.35850571760E+02 -0.12341883707E+03  0.91188361013E+03  0.88367320901E+03 0.  0.
         23    2    4    4    0    0  0.15403104342E+03 -0.34062531187E+03  0.98101498754E+02  0.39705006504E+03  0.90959796961E+02 0.  0.
         23    2    4    4    0    0 -0.33879008994E+03  0.30477474011E+03 -0.22152033582E+03  0.51483354510E+03  0.91191845681E+02 0.  0.
         11    1    3    3    0    0  0.14907593415E+03  0.36101557719E+01 -0.63471660271E+03  0.65199833828E+03  0.00000000000E+00 0.  1.
        -11    1    3    3    0    0  0.35683112379E+02  0.32240415988E+02 -0.46967263329E+03  0.47212827854E+03  0.00000000000E+00 0. -1.
          2    1    5    5  502    0  0.63512761444E+02 -0.65954036494E+02  0.48534140046E+02  0.10363092466E+03  0.00000000000E+00 0. -1.
          4    1    6    6  503    0 -0.85095595912E+02  0.68968770803E+02 -0.12389379267E+02  0.11023360880E+03  0.00000000000E+00 0. -1.
         -2    1    5    5    0  502  0.90518281976E+02 -0.27467127538E+03  0.49567358708E+02  0.29341914038E+03  0.00000000000E+00 0.  1.
         -4    1    6    6    0  503 -0.25369449403E+03  0.23580596931E+03 -0.20913095655E+03  0.40459993630E+03  0.00000000000E+00 0.  1.
<mgrwt>
<rscale>  0 0.16241382E+04</rscale>
<asrwt>0</asrwt>
<pdfrwt beam="1">  1        2 0.25106294E+00 0.16241382E+04</pdfrwt>
<pdfrwt beam="2">  1       -2 0.62169397E-01 0.16241382E+04</pdfrwt>
<totfact> 0.24600702E+01</totfact>
</mgrwt>
</event>
<event>
12    1  0.4247462E-008  0.1760787E+04  0.7818608E-02  0.8727435E-01
         -2   -1    0    0    0  501 -0.00000000000E+00  0.00000000000E+00  0.25205263962E+03  0.25205263962E+03  0.00000000000E+00 0.  1.
          2   -1    0    0  501    0  0.00000000000E+00 -0.00000000000E+00 -0.30751223382E+04  0.30751223382E+04  0.00000000000E+00 0. -1.
         23    2    1    2    0    0 -0.16607041471E+03 -0.38540296771E+03 -0.11906890738E+03  0.44561356596E+03  0.90990193442E+02 0.  0.
        254    2    1    2    0    0  0.16607041471E+03  0.38540296771E+03 -0.27040007912E+04  0.28815614119E+04  0.90313955806E+03 0.  0.
         23    2    4    4    0    0  0.46491787923E+03  0.45359953576E+03 -0.20761909479E+04  0.21773019061E+04  0.90407770787E+02 0.  0.
         23    2    4    4    0    0 -0.29884746452E+03 -0.68196568048E+02 -0.62780984333E+03  0.70425950576E+03  0.88744989293E+02 0.  0.
         13    1    3    3    0    0 -0.61892655992E+01 -0.21139198411E+02  0.14048579793E+02  0.26125376788E+02  0.00000000000E+00 0. -1.
        -13    1    3    3    0    0 -0.15988114911E+03 -0.36426376930E+03 -0.13311748717E+03  0.41948818917E+03  0.00000000000E+00 0.  1.
          2    1    5    5  502    0  0.15009928366E+02  0.46201834914E+01 -0.10501480354E+03  0.10618263986E+03  0.00000000000E+00 0. -1.
          3    1    6    6  503    0 -0.73999326111E+02 -0.44925582084E+02 -0.24309368551E+03  0.25804795703E+03  0.00000000000E+00 0. -1.
         -2    1    5    5    0  502  0.44990795087E+03  0.44897935227E+03 -0.19711761443E+04  0.20711192662E+04  0.00000000000E+00 0.  1.
         -3    1    6    6    0  503 -0.22484813841E+03 -0.23270985964E+02 -0.38471615782E+03  0.44621154873E+03  0.00000000000E+00 0.  1.
<mgrwt>
<rscale>  0 0.17607870E+04</rscale>
<asrwt>0</asrwt>
<pdfrwt beam="1">  1        2 0.47309572E+00 0.17607870E+04</pdfrwt>
<pdfrwt beam="2">  1       -2 0.38777332E-01 0.17607870E+04</pdfrwt>
<totfact> 0.93341416E+00</totfact>
</mgrwt>
</event>
<event>
12    1  0.4247462E-008  0.1950616E+04  0.7818608E-02  0.8630064E-01
          1   -1    0    0  501    0  0.00000000000E+00  0.00000000000E+00  0.12156019493E+04  0.12156019493E+04  0.00000000000E+00 0. -1.
         -1   -1    0    0    0  501 -0.00000000000E+00 -0.00000000000E+00 -0.78251423070E+03  0.78251423070E+03  0.00000000000E+00 0.  1.
         23    2    1    2    0    0  0.26462527404E+03  0.57690601749E+03  0.59756892876E+03  0.87647814068E+03  0.90984711914E+02 0.  0.
        254    2    1    2    0    0 -0.26462527404E+03 -0.57690601749E+03 -0.16448121011E+03  0.11216380394E+04  0.91003886411E+03 0.  0.
         23    2    4    4    0    0 -0.25939089939E+03 -0.47951913570E+02  0.30165848532E+03  0.41089431401E+03  0.90847514076E+02 0.  0.
         23    2    4    4    0    0 -0.52343746439E+01 -0.52895410392E+03 -0.46613969543E+03  0.71074372536E+03  0.89725050808E+02 0.  0.
         11    1    3    3    0    0  0.24728986230E+03  0.46105540195E+03  0.50533562492E+03  0.72738466679E+03  0.00000000000E+00 0. -1.
        -11    1    3    3    0    0  0.17335411730E+02  0.11585061554E+03  0.92233303839E+02  0.14909347389E+03  0.00000000000E+00 0.  1.
          1    1    5    5  502    0 -0.81459465619E+02  0.26984233452E+02  0.98232393907E+02  0.13043541163E+03  0.00000000000E+00 0. -1.
          3    1    6    6  503    0 -0.41072625753E+02 -0.19549282941E+03 -0.14954810745E+03  0.24953765924E+03  0.00000000000E+00 0. -1.
         -1    1    5    5    0  502 -0.17793143377E+03 -0.74936147021E+02  0.20342609141E+03  0.28045890238E+03  0.00000000000E+00 0.  1.
         -3    1    6    6    0  503  0.35838251109E+02 -0.33346127451E+03 -0.31659158798E+03  0.46120606612E+03  0.00000000000E+00 0.  1.
<mgrwt>
<rscale>  0 0.19506161E+04</rscale>
<asrwt>0</asrwt>
<pdfrwt beam="1">  1        1 0.18701568E+00 0.19506161E+04</pdfrwt>
<pdfrwt beam="2">  1       -1 0.12038680E+00 0.19506161E+04</pdfrwt>
<totfact> 0.59563195E+00</totfact>
</mgrwt>
</event>
<event>
12    1  0.4247462E-008  0.1609362E+04  0.7818608E-02  0.8814817E-01
         -2   -1    0    0    0  501 -0.00000000000E+00  0.00000000000E+00  0.22246194005E+03  0.22246194005E+03  0.00000000000E+00 0.  1.
          2   -1    0    0  501    0  0.00000000000E+00 -0.00000000000E+00 -0.29106636915E+04  0.29106636915E+04  0.00000000000E+00 0. -1.
         23    2    1    2    0    0 -0.20527398780E+03 -0.33086713286E+03 -0.16595904903E+03  0.43273150157E+03  0.90020424484E+02 0.  0.
        254    2    1    2    0    0  0.20527398780E+03  0.33086713286E+03 -0.25222427024E+04  0.27003941300E+04  0.88250197604E+03 0.  0.
         23    2    4    4    0    0  0.54317364193E+02  0.33061856461E+03 -0.24985024557E+04  0.25225270570E+04  0.91483445108E+02 0.  0.
         23    2    4    4    0    0  0.15095662361E+03  0.24856824941E+00 -0.23740246714E+02  0.17786707301E+03  0.91022702383E+02 0.  0.
         13    1    3    3    0    0 -0.10462066697E+03 -0.15831727332E+03 -0.12932063607E+03  0.22963812815E+03  0.00000000000E+00 0. -1.
        -13    1    3    3    0    0 -0.10065332083E+03 -0.17254985954E+03 -0.36638412954E+02  0.20309337341E+03  0.00000000000E+00 0.  1.
          2    1    5    5  502    0  0.42437792321E+02  0.32493624285E+03 -0.22569226561E+04  0.22805886091E+04  0.00000000000E+00 0. -1.
          4    1    6    6  503    0  0.13784369578E+03 -0.17376254036E+02  0.81152489999E+01  0.13917139051E+03  0.00000000000E+00 0. -1.
         -2    1    5    5    0  502  0.11879571871E+02  0.56823217610E+01 -0.24157979963E+03  0.24193844795E+03  0.00000000000E+00 0.  1.
         -4    1    6    6    0  503  0.13112927830E+02  0.17624822285E+02 -0.31855495714E+02  0.38695682499E+02  0.00000000000E+00 0.  1.
<mgrwt>
<rscale>  0 0.16093625E+04</rscale>
<asrwt>0</asrwt>
<pdfrwt beam="1">  1        2 0.44779438E+00 0.16093625E+04</pdfrwt>
<pdfrwt beam="2">  1       -2 0.34224916E-01 0.16093625E+04</pdfrwt>
<totfact> 0.15239071E+01</totfact>
</mgrwt>
</event>
<event>
12    1  0.5119517E-008  0.1973940E+04  0.7818608E-02  0.8618902E-01
         -1   -1    0    0    0  501 -0.00000000000E+00  0.00000000000E+00  0.53417959144E+03  0.53417959144E+03  0.00000000000E+00 0.  1.
          1   -1    0    0  501    0  0.00000000000E+00 -0.00000000000E+00 -0.18235624927E+04  0.18235624927E+04  0.00000000000E+00 0. -1.
         23    2    1    2    0    0  0.22649772437E+03 -0.58990042615E+03 -0.10379196698E+04  0.12186059242E+04  0.91866347069E+02 0.  0.
        254    2    1    2    0    0 -0.22649772437E+03  0.58990042615E+03 -0.25146323149E+03  0.11391361599E+04  0.91384555705E+03 0.  0.
         23    2    4    4    0    0 -0.43417268254E+03  0.44493514500E+02  0.91584397607E+02  0.45654363680E+03  0.97769112297E+02 0.  0.
         23    2    4    4    0    0  0.20767495817E+03  0.54540691165E+03 -0.34304762910E+03  0.68259252312E+03  0.87483079878E+02 0.  0.
         13    1    3    3    0    0  0.23301459457E+03 -0.56889569875E+03 -0.10162594355E+04  0.11877379162E+04  0.00000000000E+00 0. -1.
        -13    1    3    3    0    0 -0.65168701904E+01 -0.21004727393E+02 -0.21660234250E+02  0.30868007997E+02  0.00000000000E+00 0.  1.
          2    1    5    5  502    0 -0.36985189484E+03  0.30282369052E+02  0.11192755864E+03  0.38760188902E+03  0.00000000000E+00 0. -1.
          1    1    6    6  503    0  0.20521779954E+03  0.48192943197E+03 -0.28389288740E+03  0.59578980703E+03  0.00000000000E+00 0. -1.
         -2    1    5    5    0  502 -0.64320787708E+02  0.14211145448E+02 -0.20343161033E+02  0.68941747781E+02  0.00000000000E+00 0.  1.
         -1    1    6    6    0  503  0.24571586291E+01  0.63477479674E+02 -0.59154741697E+02  0.86802716084E+02  0.00000000000E+00 0.  1.
<mgrwt>
<rscale>  0 0.19739401E+04</rscale>
<asrwt>0</asrwt>
<pdfrwt beam="1">  1        1 0.28054807E+00 0.19739401E+04</pdfrwt>
<pdfrwt beam="2">  1       -1 0.82181476E-01 0.19739401E+04</pdfrwt>
<totfact> 0.53751663E+00</totfact>
</mgrwt>
</event>
<event>
12    1  0.4247462E-008  0.1401404E+04  0.7818608E-02  0.8952803E-01
         -2   -1    0    0    0  501 -0.00000000000E+00  0.00000000000E+00  0.38670668118E+03  0.38670668118E+03  0.00000000000E+00 0.  1.
          2   -1    0    0  501    0  0.00000000000E+00 -0.00000000000E+00 -0.12696530431E+04  0.12696530431E+04  0.00000000000E+00 0. -1.
         23    2    1    2    0    0 -0.13576709888E+02  0.91147114436E+01 -0.73353650183E+03  0.73934418578E+03  0.91030876656E+02 0.  0.
        254    2    1    2    0    0  0.13576709888E+02 -0.91147114436E+01 -0.14940986004E+03  0.91701553845E+03  0.90461416442E+03 0.  0.
         23    2    4    4    0    0 -0.28153709049E+03  0.13520163175E+03  0.23628353535E+03  0.40240440282E+03  0.92502863640E+02 0.  0.
         23    2    4    4    0    0  0.29511380038E+03 -0.14431634319E+03 -0.38569339540E+03  0.51461113563E+03  0.90254437966E+02 0.  0.
         13    1    3    3    0    0 -0.11145221825E+02 -0.35631541678E+02 -0.50973314707E+03  0.51109852666E+03  0.00000000000E+00 0.  1.
        -13    1    3    3    0    0 -0.24314880631E+01  0.44746253122E+02 -0.22380335476E+03  0.22824565912E+03  0.00000000000E+00 0. -1.
          2    1    6    6  502    0  0.26984162830E+03 -0.10475387359E+03 -0.29985741840E+03  0.41677613867E+03  0.00000000000E+00 0.  1.
          2    1    5    5  503    0 -0.34520413429E+02 -0.13714495068E+02  0.30948765638E+02  0.48348447884E+02  0.00000000000E+00 0. -1.
         -2    1    5    5    0  503 -0.24701667707E+03  0.14891612682E+03  0.20533476971E+03  0.35405595494E+03  0.00000000000E+00 0.  1.
         -2    1    6    6    0  502  0.25272172080E+02 -0.39562469603E+02 -0.85835976996E+02  0.97834996957E+02  0.00000000000E+00 0. -1.
<mgrwt>
<rscale>  0 0.14014040E+04</rscale>
<asrwt>0</asrwt>
<pdfrwt beam="1">  1        2 0.19533124E+00 0.14014040E+04</pdfrwt>
<pdfrwt beam="2">  1       -2 0.59493336E-01 0.14014040E+04</pdfrwt>
<totfact> 0.44192843E+01</totfact>
</mgrwt>
</event>
<event>
12    1  0.4247462E-008  0.1213257E+04  0.7818608E-02  0.9101331E-01
          1   -1    0    0  501    0  0.00000000000E+00  0.00000000000E+00  0.53498115050E+03  0.53498115050E+03  0.00000000000E+00 0. -1.
         -1   -1    0    0    0  501 -0.00000000000E+00 -0.00000000000E+00 -0.68787169635E+03  0.68787169635E+03  0.00000000000E+00 0.  1.
         23    2    1    2    0    0 -0.18367307381E+02 -0.14766006404E+03  0.17605102729E+03  0.24791038861E+03  0.91240035495E+02 0.  0.
        254    2    1    2    0    0  0.18367307381E+02  0.14766006404E+03 -0.32894157314E+03  0.97494245824E+03  0.90563203667E+03 0.  0.
         23    2    4    4    0    0 -0.40067375630E+03  0.36732264438E+02 -0.33266333679E+03  0.52969295558E+03  0.89560110041E+02 0.  0.
         23    2    4    4    0    0  0.41904106368E+03  0.11092779961E+03  0.37217636473E+01  0.44524950266E+03  0.10165076641E+03 0.  0.
         11    1    3    3    0    0  0.16934898778E+02 -0.42115826837E+02  0.76142130419E+01  0.46027273513E+02  0.00000000000E+00 0.  1.
        -11    1    3    3    0    0 -0.35302206159E+02 -0.10554423721E+03  0.16843681425E+03  0.20188311510E+03  0.00000000000E+00 0. -1.
          4    1    5    5  502    0 -0.18305638937E+03 -0.27036789383E+02 -0.16097900796E+03  0.24526489898E+03  0.00000000000E+00 0. -1.
          1    1    6    6  503    0  0.67154206547E+01  0.22482505057E+02  0.18983465023E+01  0.23540680271E+02  0.00000000000E+00 0. -1.
         -4    1    5    5    0  502 -0.21761736694E+03  0.63769053822E+02 -0.17168432883E+03  0.28442805660E+03  0.00000000000E+00 0.  1.
         -1    1    6    6    0  503  0.41232564303E+03  0.88445294549E+02  0.18234171450E+01  0.42170882238E+03  0.00000000000E+00 0.  1.
<mgrwt>
<rscale>  0 0.12132574E+04</rscale>
<asrwt>0</asrwt>
<pdfrwt beam="1">  1        1 0.82304792E-01 0.12132574E+04</pdfrwt>
<pdfrwt beam="2">  1       -1 0.10582641E+00 0.12132574E+04</pdfrwt>
<totfact> 0.33356261E+01</totfact>
</mgrwt>
</event>
<event>
12    1  0.4247462E-008  0.1742444E+04  0.7818608E-02  0.8737520E-01
         -1   -1    0    0    0  501 -0.00000000000E+00  0.00000000000E+00  0.14530444054E+04  0.14530444054E+04  0.00000000000E+00 0.  1.
          1   -1    0    0  501    0  0.00000000000E+00 -0.00000000000E+00 -0.52237077675E+03  0.52237077675E+03  0.00000000000E+00 0. -1.
         23    2    1    2    0    0 -0.56809261023E+03  0.24297342609E+03  0.49642055189E+03  0.79764479284E+03  0.89657970170E+02 0.  0.
        254    2    1    2    0    0  0.56809261023E+03 -0.24297342609E+03  0.43425307678E+03  0.11777703893E+04  0.90377101953E+03 0.  0.
         23    2    4    4    0    0  0.68791176582E+03 -0.23563498296E+03  0.15834793841E+02  0.73270816038E+03  0.88679562669E+02 0.  0.
         23    2    4    4    0    0 -0.11981915559E+03 -0.73384431365E+01  0.41841828294E+03  0.44506222897E+03  0.92714860528E+02 0.  0.
         13    1    3    3    0    0 -0.40816811577E+03  0.17754515727E+03  0.30393685365E+03  0.53898154384E+03  0.00000000000E+00 0.  1.
        -13    1    3    3    0    0 -0.15992449446E+03  0.65428268827E+02  0.19248369825E+03  0.25866324900E+03  0.00000000000E+00 0. -1.
          1    1    5    5  502    0  0.51944723756E+03 -0.21480584244E+03  0.25484313872E+02  0.56268679815E+03  0.00000000000E+00 0. -1.
          3    1    6    6  503    0 -0.11947027541E+03  0.11434518894E+02  0.40382435667E+03  0.42128138574E+03  0.00000000000E+00 0. -1.
         -1    1    5    5    0  502  0.16846452826E+03 -0.20829140515E+02 -0.96495200309E+01  0.17002136222E+03  0.00000000000E+00 0.  1.
         -3    1    6    6    0  503 -0.34888018338E+00 -0.18772962030E+02  0.14593926263E+02  0.23780843226E+02  0.00000000000E+00 0.  1.
<mgrwt>
<rscale>  0 0.17424442E+04</rscale>
<asrwt>0</asrwt>
<pdfrwt beam="1">  1        1 0.80364736E-01 0.17424442E+04</pdfrwt>
<pdfrwt beam="2">  1       -1 0.22354529E+00 0.17424442E+04</pdfrwt>
<totfact> 0.41203236E+00</totfact>
</mgrwt>
</event>
<event>
12    1  0.4247462E-008  0.2581028E+04  0.7818608E-02  0.8374674E-01
         -2   -1    0    0    0  501 -0.00000000000E+00  0.00000000000E+00  0.84178101650E+03  0.84178101650E+03  0.00000000000E+00 0.  1.
          2   -1    0    0  501    0  0.00000000000E+00 -0.00000000000E+00 -0.19784550439E+04  0.19784550439E+04  0.00000000000E+00 0. -1.
         23    2    1    2    0    0 -0.17054331163E+03  0.54425339782E+03  0.56801931391E+03  0.80971049243E+03  0.87683284663E+02 0.  0.
        254    2    1    2    0    0  0.17054331163E+03 -0.54425339782E+03 -0.17046933413E+04  0.20105255680E+04  0.90052034367E+03 0.  0.
         23    2    4    4    0    0  0.46847848660E+03 -0.53123682042E+03 -0.91057218818E+03  0.11571872745E+04  0.90862680459E+02 0.  0.
         23    2    4    4    0    0 -0.29793517497E+03 -0.13016577396E+02 -0.79412115311E+03  0.85333829341E+03  0.92860311232E+02 0.  0.
         13    1    3    3    0    0 -0.23615021994E+02  0.20562572192E+03  0.22652184853E+03  0.30684157906E+03  0.00000000000E+00 0. -1.
        -13    1    3    3    0    0 -0.14692828964E+03  0.33862767590E+03  0.34149746538E+03  0.50286891337E+03  0.00000000000E+00 0.  1.
          2    1    5    5  502    0  0.40758358252E+03 -0.47698621910E+03 -0.75612738110E+03  0.98253185516E+03  0.00000000000E+00 0. -1.
          4    1    6    6  503    0 -0.65104063869E+02 -0.23961890671E+01 -0.86289539800E+02  0.10812106887E+03  0.00000000000E+00 0.  1.
         -2    1    5    5    0  502  0.60894904080E+02 -0.54250601323E+02 -0.15444480708E+03  0.17465541939E+03  0.00000000000E+00 0.  1.
         -4    1    6    6    0  503 -0.23283111110E+03 -0.10620388329E+02 -0.70783161331E+03  0.74521722454E+03  0.00000000000E+00 0. -1.
<mgrwt>
<rscale>  0 0.25810276E+04</rscale>
<asrwt>0</asrwt>
<pdfrwt beam="1">  1        2 0.30437770E+00 0.25810276E+04</pdfrwt>
<pdfrwt beam="2">  1       -2 0.12950477E+00 0.25810276E+04</pdfrwt>
<totfact> 0.26684445E+00</totfact>
</mgrwt>
</event>
<event>
12    1  0.4247462E-008  0.2142627E+04  0.7818608E-02  0.8542695E-01
          3   -1    0    0  501    0  0.00000000000E+00  0.00000000000E+00  0.78026147956E+03  0.78026147956E+03  0.00000000000E+00 0. -1.
         -3   -1    0    0    0  501 -0.00000000000E+00 -0.00000000000E+00 -0.14709337802E+04  0.14709337802E+04  0.00000000000E+00 0.  1.
         23    2    1    2    0    0 -0.25365906071E+03  0.68171141501E+03  0.23338856793E+03  0.76947311455E+03  0.92440672559E+02 0.  0.
        254    2    1    2    0    0  0.25365906071E+03 -0.68171141501E+03 -0.92406086853E+03  0.14817221452E+04  0.90140926016E+03 0.  0.
         23    2    4    4    0    0 -0.18320227623E+03 -0.14028661525E+03  0.76464449602E+02  0.25982076505E+03  0.91742081214E+02 0.  0.
         23    2    4    4    0    0  0.43686133694E+03 -0.54142479976E+03 -0.10005253181E+04  0.12219013801E+04  0.89461885733E+02 0.  0.
         11    1    3    3    0    0 -0.23658910378E+03  0.56390104365E+03  0.21905769035E+03  0.64957298493E+03  0.00000000000E+00 0. -1.
        -11    1    3    3    0    0 -0.17069956929E+02  0.11781037136E+03  0.14330877578E+02  0.11990012962E+03  0.00000000000E+00 0.  1.
          1    1    6    6  502    0  0.30326227537E+03 -0.33812181490E+03 -0.58806816698E+03  0.74304679421E+03  0.00000000000E+00 0. -1.
          1    1    5    5  503    0 -0.15552087496E+03 -0.66159127712E+02  0.47466678966E+02  0.17554731083E+03  0.00000000000E+00 0. -1.
         -1    1    5    5    0  503 -0.27681401273E+02 -0.74127487536E+02  0.28997770636E+02  0.84273454223E+02  0.00000000000E+00 0.  1.
         -1    1    6    6    0  502  0.13359906157E+03 -0.20330298487E+03 -0.41245715115E+03  0.47885458591E+03  0.00000000000E+00 0.  1.
<mgrwt>
<rscale>  0 0.21426273E+04</rscale>
<asrwt>0</asrwt>
<pdfrwt beam="1">  1        3 0.12004023E+00 0.21426273E+04</pdfrwt>
<pdfrwt beam="2">  1       -3 0.22629750E+00 0.21426273E+04</pdfrwt>
<totfact> 0.13688663E-01</totfact>
</mgrwt>
</event>
<event>
12    1  0.4247462E-008  0.2358065E+04  0.7818608E-02  0.8455372E-01
         -1   -1    0    0    0  501 -0.00000000000E+00  0.00000000000E+00  0.11965519887E+04  0.11965519887E+04  0.00000000000E+00 0.  1.
          1   -1    0    0  501    0  0.00000000000E+00 -0.00000000000E+00 -0.11617694385E+04  0.11617694385E+04  0.00000000000E+00 0. -1.
         23    2    1    2    0    0 -0.22561465993E+03  0.76823410789E+03 -0.62349215728E+03  0.10188478280E+04  0.90679695379E+02 0.  0.
        254    2    1    2    0    0  0.22561465993E+03 -0.76823410789E+03  0.65827470745E+03  0.13394735992E+04  0.84839749709E+03 0.  0.
         23    2    4    4    0    0 -0.17631334097E+03 -0.41916139586E+03  0.65067272595E+03  0.79933664668E+03  0.93709169484E+02 0.  0.
         23    2    4    4    0    0  0.40192800090E+03 -0.34907271203E+03  0.76019815063E+01  0.54013695248E+03  0.91061853289E+02 0.  0.
         11    1    3    3    0    0 -0.59077298889E+02  0.20639700309E+03 -0.11815951426E+03  0.24505411839E+03  0.00000000000E+00 0.  1.
        -11    1    3    3    0    0 -0.16653736104E+03  0.56183710480E+03 -0.50533264302E+03  0.77379370962E+03  0.00000000000E+00 0. -1.
          2    1    5    5  502    0 -0.12081287600E+03 -0.36246706999E+03  0.50245360480E+03  0.63121925890E+03  0.00000000000E+00 0. -1.
          1    1    6    6  503    0  0.29529516383E+03 -0.20364063533E+03  0.20890643137E+02  0.35931206647E+03  0.00000000000E+00 0. -1.
         -2    1    5    5    0  502 -0.55500464969E+02 -0.56694325869E+02  0.14821912115E+03  0.16811738777E+03  0.00000000000E+00 0.  1.
         -1    1    6    6    0  503  0.10663283707E+03 -0.14543207670E+03 -0.13288661631E+02  0.18082488601E+03  0.00000000000E+00 0.  1.
<mgrwt>
<rscale>  0 0.23580649E+04</rscale>
<asrwt>0</asrwt>
<pdfrwt beam="1">  1        1 0.17873376E+00 0.23580649E+04</pdfrwt>
<pdfrwt beam="2">  1       -1 0.18408492E+00 0.23580649E+04</pdfrwt>
<totfact> 0.19951039E+00</totfact>
</mgrwt>
</event>
<event>
12    1  0.4247462E-008  0.1046311E+04  0.7818608E-02  0.9259161E-01
          1   -1    0    0  501    0  0.00000000000E+00  0.00000000000E+00  0.33353803861E+04  0.33353803861E+04  0.00000000000E+00 0. -1.
         -1   -1    0    0    0  501 -0.00000000000E+00 -0.00000000000E+00 -0.82057155574E+02  0.82057155574E+02  0.00000000000E+00 0.  1.
         23    2    1    2    0    0  0.95253605386E+02  0.20099268162E+02  0.41223093644E+03  0.43321740207E+03  0.90916129379E+02 0.  0.
        254    2    1    2    0    0 -0.95253605386E+02 -0.20099268162E+02  0.28410922941E+04  0.29842201396E+04  0.90790263143E+03 0.  0.
         23    2    4    4    0    0 -0.34724254943E+03 -0.13845152015E+03  0.53213690611E+03  0.65676343070E+03  0.91773119683E+02 0.  0.
         23    2    4    4    0    0  0.25198894405E+03  0.11835225199E+03  0.23089553880E+04  0.23274567089E+04  0.90961885749E+02 0.  0.
         11    1    3    3    0    0  0.10320342973E+03  0.29901622023E+02  0.40424749812E+03  0.41828350989E+03  0.00000000000E+00 0. -1.
        -11    1    3    3    0    0 -0.79498243434E+01 -0.98023538609E+01  0.79834383118E+01  0.14933892178E+02  0.00000000000E+00 0.  1.
          4    1    6    6  502    0  0.11569773461E+03  0.10071376776E+03  0.10793356266E+04  0.10901810050E+04  0.00000000000E+00 0. -1.
          4    1    5    5  503    0 -0.35093320318E+03 -0.12934886508E+03  0.52509227616E+03  0.64467599651E+03  0.00000000000E+00 0. -1.
         -4    1    5    5    0  503  0.36906537435E+01 -0.91026550639E+01  0.70446299455E+01  0.12087434192E+02  0.00000000000E+00 0.  1.
         -4    1    6    6    0  502  0.13629120944E+03  0.17638484230E+02  0.12296197614E+04  0.12372757039E+04  0.00000000000E+00 0.  1.
<mgrwt>
<rscale>  0 0.10463113E+04</rscale>
<asrwt>0</asrwt>
<pdfrwt beam="1">  1        1 0.51313534E+00 0.10463113E+04</pdfrwt>
<pdfrwt beam="2">  1       -1 0.12624180E-01 0.10463113E+04</pdfrwt>
<totfact> 0.15005147E+01</totfact>
</mgrwt>
</event>
<event>
12    1  0.4247462E-008  0.1789852E+04  0.7818608E-02  0.8711715E-01
          2   -1    0    0  501    0  0.00000000000E+00  0.00000000000E+00  0.22089689646E+04  0.22089689646E+04  0.00000000000E+00 0. -1.
         -2   -1    0    0    0  501 -0.00000000000E+00 -0.00000000000E+00 -0.36256396762E+03  0.36256396762E+03  0.00000000000E+00 0.  1.
         23    2    1    2    0    0 -0.14726861015E+03 -0.28990578052E+03 -0.13797927126E+03  0.36476161412E+03  0.90990937575E+02 0.  0.
        254    2    1    2    0    0  0.14726861015E+03  0.28990578052E+03  0.19843842682E+04  0.22067713181E+04  0.90902437879E+03 0.  0.
         23    2    4    4    0    0  0.38546985717E+03 -0.17676223166E+03  0.86779673540E+03  0.97008612281E+03  0.90354935488E+02 0.  0.
         23    2    4    4    0    0 -0.23820124702E+03  0.46666801218E+03  0.11165875328E+04  0.12366851953E+04  0.90020475949E+02 0.  0.
         11    1    3    3    0    0 -0.88143212232E+02 -0.21750454138E+03 -0.58017431224E+02  0.24175085048E+03  0.00000000000E+00 0.  1.
        -11    1    3    3    0    0 -0.59125397913E+02 -0.72401239144E+02 -0.79961840036E+02  0.12301076363E+03  0.00000000000E+00 0. -1.
          2    1    5    5  502    0  0.60957637427E+02 -0.26921455640E+02  0.22421742691E+03  0.23391035219E+03  0.00000000000E+00 0.  1.
          1    1    6    6  503    0 -0.20806380140E+03  0.36758999560E+03  0.96163645243E+03  0.10503131043E+04  0.00000000000E+00 0. -1.
         -2    1    5    5    0  502  0.32451221974E+03 -0.14984077602E+03  0.64357930849E+03  0.73617577061E+03  0.00000000000E+00 0. -1.
         -1    1    6    6    0  503 -0.30137445620E+02  0.99078016583E+02  0.15495108036E+03  0.18637209100E+03  0.00000000000E+00 0.  1.
<mgrwt>
<rscale>  0 0.17898520E+04</rscale>
<asrwt>0</asrwt>
<pdfrwt beam="1">  1        2 0.33984137E+00 0.17898520E+04</pdfrwt>
<pdfrwt beam="2">  1       -2 0.55779073E-01 0.17898520E+04</pdfrwt>
<totfact> 0.14564743E+01</totfact>
</mgrwt>
</event>
<event>
12    1  0.4247462E-008  0.1532563E+04  0.7818608E-02  0.8863083E-01
         -1   -1    0    0    0  501 -0.00000000000E+00  0.00000000000E+00  0.73021402988E+03  0.73021402988E+03  0.00000000000E+00 0.  1.
          1   -1    0    0  501    0  0.00000000000E+00 -0.00000000000E+00 -0.80413017052E+03  0.80413017052E+03  0.00000000000E+00 0. -1.
         23    2    1    2    0    0 -0.42137125189E+03  0.25245078706E+03  0.11681165379E+02  0.50058555295E+03  0.95730425613E+02 0.  0.
        254    2    1    2    0    0  0.42137125189E+03 -0.25245078706E+03 -0.85597306015E+02  0.10337586475E+04  0.90556331120E+03 0.  0.
         23    2    4    4    0    0  0.55773911643E+03 -0.38656940243E+03  0.16594210960E+03  0.70477669152E+03  0.93083705824E+02 0.  0.
         23    2    4    4    0    0 -0.13636786453E+03  0.13411861537E+03 -0.25153941562E+03  0.32898195593E+03  0.91504383782E+02 0.  0.
         13    1    3    3    0    0 -0.18508618830E+03  0.89121171416E+02  0.48280827773E+02  0.21102255478E+03  0.00000000000E+00 0.  1.
        -13    1    3    3    0    0 -0.23628506359E+03  0.16332961564E+03 -0.36599662394E+02  0.28956299817E+03  0.00000000000E+00 0. -1.
          1    1    5    5  502    0  0.11329613131E+03 -0.10997898149E+03  0.69368112800E+02  0.17246253162E+03  0.00000000000E+00 0. -1.
          3    1    6    6  503    0  0.73436393204E+01  0.37939708852E+02 -0.54680536151E+02  0.66957535647E+02  0.00000000000E+00 0. -1.
         -1    1    5    5    0  502  0.44444298512E+03 -0.27659042093E+03  0.96573996803E+02  0.53231415990E+03  0.00000000000E+00 0.  1.
         -3    1    6    6    0  503 -0.14371150385E+03  0.96178906521E+02 -0.19685887947E+03  0.26202442028E+03  0.00000000000E+00 0.  1.
<mgrwt>
<rscale>  0 0.15325627E+04</rscale>
<asrwt>0</asrwt>
<pdfrwt beam="1">  1        1 0.12371233E+00 0.15325627E+04</pdfrwt>
<pdfrwt beam="2">  1       -1 0.11234062E+00 0.15325627E+04</pdfrwt>
<totfact> 0.15362300E+01</totfact>
</mgrwt>
</event>
<event>
12    1  0.4247462E-008  0.2397224E+04  0.7818608E-02  0.8440544E-01
          3   -1    0    0  501    0  0.00000000000E+00  0.00000000000E+00  0.28964134654E+04  0.28964134654E+04  0.00000000000E+00 0. -1.
         -3   -1    0    0    0  501 -0.00000000000E+00 -0.00000000000E+00 -0.49601697823E+03  0.49601697823E+03  0.00000000000E+00 0.  1.
         23    2    1    2    0    0 -0.48183228515E+03 -0.92565206389E+03  0.11213421390E+04  0.15344662449E+04  0.90467506587E+02 0.  0.
        254    2    1    2    0    0  0.48183228515E+03  0.92565206389E+03  0.12790543482E+04  0.18579641987E+04  0.85267628304E+03 0.  0.
         23    2    4    4    0    0  0.24117423589E+03  0.20143136382E+03  0.98043645219E+03  0.10336696609E+04  0.92074559992E+02 0.  0.
         23    2    4    4    0    0  0.24065804926E+03  0.72422070008E+03  0.29861789599E+03  0.82429453785E+03  0.88752004084E+02 0.  0.
         11    1    3    3    0    0 -0.26868489032E+01 -0.13394223612E+02  0.32948217755E+02  0.35668045033E+02  0.00000000000E+00 0.  1.
        -11    1    3    3    0    0 -0.47914543625E+03 -0.91225784028E+03  0.10883939212E+04  0.14987981999E+04  0.00000000000E+00 0. -1.
          3    1    5    5  502    0  0.19129455126E+03  0.15913584751E+03  0.63338850594E+03  0.68051364628E+03  0.00000000000E+00 0.  1.
          3    1    6    6  503    0  0.21224228258E+03  0.56145326956E+03  0.26273082049E+03  0.65521297640E+03  0.00000000000E+00 0. -1.
         -3    1    5    5    0  502  0.49879684631E+02  0.42295516306E+02  0.34704794625E+03  0.35315601458E+03  0.00000000000E+00 0. -1.
         -3    1    6    6    0  503  0.28415766684E+02  0.16276743052E+03  0.35887075508E+02  0.16908156145E+03  0.00000000000E+00 0.  1.
<mgrwt>
<rscale>  0 0.23972236E+04</rscale>
<asrwt>0</asrwt>
<pdfrwt beam="1">  1        3 0.44560206E+00 0.23972236E+04</pdfrwt>
<pdfrwt beam="2">  1       -3 0.76310306E-01 0.23972236E+04</pdfrwt>
<totfact> 0.24368317E-02</totfact>
</mgrwt>
</event>
<event>
12    1  0.4247462E-008  0.1914782E+04  0.7818608E-02  0.8647533E-01
         -2   -1    0    0    0  501 -0.00000000000E+00  0.00000000000E+00  0.11644976558E+04  0.11644976558E+04  0.00000000000E+00 0.  1.
          2   -1    0    0  501    0  0.00000000000E+00 -0.00000000000E+00 -0.78711858951E+03  0.78711858951E+03  0.00000000000E+00 0. -1.
         23    2    1    2    0    0 -0.12389862932E+03 -0.72284952532E+03  0.27059915959E+03  0.78701086610E+03  0.91103740750E+02 0.  0.
        254    2    1    2    0    0  0.12389862932E+03  0.72284952532E+03  0.10677990674E+03  0.11646053793E+04  0.89835484876E+03 0.  0.
         23    2    4    4    0    0 -0.15887285976E+03  0.36784719132E+03 -0.33087592602E+03  0.52762442025E+03  0.91413941499E+02 0.  0.
         23    2    4    4    0    0  0.28277148908E+03  0.35500233400E+03  0.43765583276E+03  0.63698095900E+03  0.90640730346E+02 0.  0.
         11    1    3    3    0    0 -0.10934053593E+03 -0.69906235057E+03  0.27431555903E+03  0.75887584539E+03  0.00000000000E+00 0.  1.
        -11    1    3    3    0    0 -0.14558093389E+02 -0.23787174751E+02 -0.37163994365E+01  0.28135020713E+02  0.00000000000E+00 0. -1.
          4    1    5    5  502    0 -0.48635740161E+02  0.22670944415E+03 -0.18349474928E+03  0.29569059894E+03  0.00000000000E+00 0. -1.
          3    1    6    6  503    0  0.20165592353E+03  0.25208170793E+03  0.36450580611E+03  0.48690325698E+03  0.00000000000E+00 0. -1.
         -4    1    5    5    0  502 -0.11023711960E+03  0.14113774717E+03 -0.14738117674E+03  0.23193382132E+03  0.00000000000E+00 0.  1.
         -3    1    6    6    0  503  0.81115565546E+02  0.10292062608E+03  0.73150026649E+02  0.15007770202E+03  0.00000000000E+00 0.  1.
<mgrwt>
<rscale>  0 0.19147822E+04</rscale>
<asrwt>0</asrwt>
<pdfrwt beam="1">  1        2 0.12109517E+00 0.19147822E+04</pdfrwt>
<pdfrwt beam="2">  1       -2 0.17915349E+00 0.19147822E+04</pdfrwt>
<totfact> 0.60481339E+00</totfact>
</mgrwt>
</event>
<event>
12    1  0.4247462E-008  0.2113533E+04  0.7818608E-02  0.8555305E-01
         -1   -1    0    0    0  501 -0.00000000000E+00  0.00000000000E+00  0.40037202985E+03  0.40037202985E+03  0.00000000000E+00 0.  1.
          1   -1    0    0  501    0  0.00000000000E+00 -0.00000000000E+00 -0.27892944481E+04  0.27892944481E+04  0.00000000000E+00 0. -1.
         23    2    1    2    0    0  0.10627916779E+03 -0.30660830053E+03 -0.21889389457E+04  0.22147223271E+04  0.90759939380E+02 0.  0.
        254    2    1    2    0    0 -0.10627916779E+03  0.30660830053E+03 -0.19998347253E+03  0.97494415086E+03  0.89733984451E+03 0.  0.
         23    2    4    4    0    0 -0.45407077758E+03  0.35924580986E+03 -0.17340182072E+03  0.61124433999E+03  0.91179102770E+02 0.  0.
         23    2    4    4    0    0  0.34779160979E+03 -0.52637509331E+02 -0.26581651810E+02  0.36369981087E+03  0.88550872298E+02 0.  0.
         13    1    3    3    0    0  0.76264955856E+02 -0.26024407187E+03 -0.15630478751E+04  0.15863990608E+04  0.00000000000E+00 0. -1.
        -13    1    3    3    0    0  0.30014211938E+02 -0.46364228663E+02 -0.62589107063E+03  0.62832326625E+03  0.00000000000E+00 0.  1.
          3    1    6    6  502    0  0.34148311880E+03 -0.54111076985E+02 -0.40734171794E+02  0.34813503390E+03  0.00000000000E+00 0. -1.
          3    1    5    5  503    0 -0.29585770532E+03  0.24194138377E+03 -0.15841728349E+03  0.41371904801E+03  0.00000000000E+00 0. -1.
         -3    1    5    5    0  503 -0.15821307226E+03  0.11730442609E+03 -0.14984537231E+02  0.19752529198E+03  0.00000000000E+00 0.  1.
         -3    1    6    6    0  502  0.63084909909E+01  0.14735676546E+01  0.14152519983E+02  0.15564776969E+02  0.00000000000E+00 0.  1.
<mgrwt>
<rscale>  0 0.21135330E+04</rscale>
<asrwt>0</asrwt>
<pdfrwt beam="1">  1        1 0.42912221E+00 0.21135330E+04</pdfrwt>
<pdfrwt beam="2">  1       -1 0.61595699E-01 0.21135330E+04</pdfrwt>
<totfact> 0.20844032E+00</totfact>
</mgrwt>
</event>
<event>
12    1  0.4247462E-008  0.1851851E+04  0.7818608E-02  0.8679201E-01
          2   -1    0    0  501    0  0.00000000000E+00  0.00000000000E+00  0.44439374340E+04  0.44439374340E+04  0.00000000000E+00 0. -1.
         -2   -1    0    0    0  501 -0.00000000000E+00 -0.00000000000E+00 -0.19292313923E+03  0.19292313923E+03  0.00000000000E+00 0.  1.
         23    2    1    2    0    0  0.63053790763E+03  0.10307480340E+03  0.23237367649E+04  0.24117001931E+04  0.91338931445E+02 0.  0.
        254    2    1    2    0    0 -0.63053790763E+03 -0.10307480340E+03  0.19272775298E+04  0.22251603802E+04  0.91035024715E+03 0.  0.
         23    2    4    4    0    0 -0.79561779255E+03 -0.23072501182E+03  0.17441304247E+04  0.19329837603E+04  0.90518375258E+02 0.  0.
         23    2    4    4    0    0  0.16507988492E+03  0.12765020842E+03  0.18314710513E+03  0.29217661990E+03  0.90985553712E+02 0.  0.
         13    1    3    3    0    0  0.22152960091E+03  0.65388849094E+00  0.70754374681E+03  0.74141347796E+03  0.00000000000E+00 0.  1.
        -13    1    3    3    0    0  0.40900830672E+03  0.10242091490E+03  0.16161930181E+04  0.16702867151E+04  0.00000000000E+00 0. -1.
          2    1    5    5  502    0 -0.11069997378E+02  0.10142221516E+01  0.77610310211E+01  0.13557547383E+02  0.00000000000E+00 0. -1.
          4    1    6    6  503    0  0.42132167197E+02  0.60550301769E+02  0.11447029691E+03  0.13617968803E+03  0.00000000000E+00 0. -1.
         -2    1    5    5    0  502 -0.78454779517E+03 -0.23173923397E+03  0.17363693937E+04  0.19194262129E+04  0.00000000000E+00 0.  1.
         -4    1    6    6    0  503  0.12294771772E+03  0.67099906652E+02  0.68676808213E+02  0.15599693186E+03  0.00000000000E+00 0.  1.
<mgrwt>
<rscale>  0 0.18518514E+04</rscale>
<asrwt>0</asrwt>
<pdfrwt beam="1">  1        2 0.68368261E+00 0.18518514E+04</pdfrwt>
<pdfrwt beam="2">  1       -2 0.29680486E-01 0.18518514E+04</pdfrwt>
<totfact> 0.13991860E+00</totfact>
</mgrwt>
</event>
<event>
12    1  0.4247462E-008  0.2453526E+04  0.7818608E-02  0.8419732E-01
         -1   -1    0    0    0  501 -0.00000000000E+00  0.00000000000E+00  0.47613851042E+03  0.47613851042E+03  0.00000000000E+00 0.  1.
          1   -1    0    0  501    0  0.00000000000E+00 -0.00000000000E+00 -0.31607350830E+04  0.31607350830E+04  0.00000000000E+00 0. -1.
         23    2    1    2    0    0  0.60835767611E+02 -0.97459645132E+03 -0.55407194617E+03  0.11254156889E+04  0.77624208545E+02 0.  0.
        254    2    1    2    0    0 -0.60835767611E+02  0.97459645132E+03 -0.21305246264E+04  0.25114579046E+04  0.90263303114E+03 0.  0.
         23    2    4    4    0    0 -0.42240437489E+03  0.27110136609E+03 -0.10673719630E+04  0.11830088751E+04  0.91135528775E+02 0.  0.
         23    2    4    4    0    0  0.36156860728E+03  0.70349508523E+03 -0.10631526635E+04  0.13284490294E+04  0.94053417199E+02 0.  0.
         13    1    3    3    0    0  0.44948965843E+02 -0.65309240503E+03 -0.32918334856E+03  0.73274263968E+03  0.00000000000E+00 0. -1.
        -13    1    3    3    0    0  0.15886801768E+02 -0.32150404629E+03 -0.22488859761E+03  0.39267304922E+03  0.00000000000E+00 0.  1.
          2    1    5    5  502    0 -0.23189763847E+03  0.16445547766E+03 -0.50143320440E+03  0.57641771081E+03  0.00000000000E+00 0. -1.
          3    1    6    6  503    0  0.17817728070E+03  0.24859437066E+03 -0.42340608971E+03  0.52232080303E+03  0.00000000000E+00 0. -1.
         -2    1    5    5    0  502 -0.19050673642E+03  0.10664588843E+03 -0.56593875859E+03  0.60659116431E+03  0.00000000000E+00 0.  1.
         -3    1    6    6    0  503  0.18339132658E+03  0.45490071457E+03 -0.63974657375E+03  0.80612822640E+03  0.00000000000E+00 0.  1.
<mgrwt>
<rscale>  0 0.24535262E+04</rscale>
<asrwt>0</asrwt>
<pdfrwt beam="1">  1        1 0.48626694E+00 0.24535262E+04</pdfrwt>
<pdfrwt beam="2">  1       -1 0.73252077E-01 0.24535262E+04</pdfrwt>
<totfact> 0.76226904E-01</totfact>
</mgrwt>
</event>
<event>
12    1  0.4247462E-008  0.1609021E+04  0.7818608E-02  0.8815025E-01
         -2   -1    0    0    0  501 -0.00000000000E+00  0.00000000000E+00  0.72735725521E+03  0.72735725521E+03  0.00000000000E+00 0.  1.
          2   -1    0    0  501    0  0.00000000000E+00 -0.00000000000E+00 -0.88984771239E+03  0.88984771239E+03  0.00000000000E+00 0. -1.
         23    2    1    2    0    0  0.37096958426E+03  0.40177013445E+03 -0.35273922631E+01  0.55452253580E+03  0.91897371166E+02 0.  0.
        254    2    1    2    0    0 -0.37096958426E+03 -0.40177013445E+03 -0.15896306491E+03  0.10626824318E+04  0.89721068957E+03 0.  0.
         23    2    4    4    0    0 -0.59309128598E+03 -0.40326654253E+03 -0.30082318014E+03  0.78299852534E+03  0.90614166331E+02 0.  0.
         23    2    4    4    0    0  0.22212170172E+03  0.14964080804E+01  0.14186011523E+03  0.27968390647E+03  0.93586888140E+02 0.  0.
         13    1    3    3    0    0  0.32352665108E+02  0.54141857862E+02  0.26257170576E+02  0.68318919188E+02  0.00000000000E+00 0.  1.
        -13    1    3    3    0    0  0.33861691915E+03  0.34762827659E+03 -0.29784562839E+02  0.48620361661E+03  0.00000000000E+00 0. -1.
          1    1    5    5  502    0 -0.37536429546E+03 -0.30650955430E+03 -0.19791457945E+03  0.52346598929E+03  0.00000000000E+00 0. -1.
          1    1    6    6  503    0  0.81625395216E+02  0.24184102503E+02  0.10001870828E+03  0.13134427267E+03  0.00000000000E+00 0. -1.
         -1    1    5    5    0  502 -0.21772699051E+03 -0.96756988237E+02 -0.10290860070E+03  0.25953253605E+03  0.00000000000E+00 0.  1.
         -1    1    6    6    0  503  0.14049630650E+03 -0.22687694422E+02  0.41841406956E+02  0.14833963380E+03  0.00000000000E+00 0.  1.
<mgrwt>
<rscale>  0 0.16090211E+04</rscale>
<asrwt>0</asrwt>
<pdfrwt beam="1">  1        2 0.13689965E+00 0.16090211E+04</pdfrwt>
<pdfrwt beam="2">  1       -2 0.11190112E+00 0.16090211E+04</pdfrwt>
<totfact> 0.17993964E+01</totfact>
</mgrwt>
</event>
<event>
12    1  0.4247462E-008  0.3804014E+04  0.7818608E-02  0.8045294E-01
         -2   -1    0    0    0  501 -0.00000000000E+00  0.00000000000E+00  0.19149242578E+04  0.19149242578E+04  0.00000000000E+00 0.  1.
          2   -1    0    0  501    0  0.00000000000E+00 -0.00000000000E+00 -0.18891769385E+04  0.18891769385E+04  0.00000000000E+00 0. -1.
         23    2    1    2    0    0  0.45850791240E+03 -0.11066058967E+04  0.13509347955E+04  0.18078187316E+04  0.91529384273E+02 0.  0.
        254    2    1    2    0    0 -0.45850791240E+03  0.11066058967E+04 -0.13251874762E+04  0.19962824646E+04  0.89118781131E+03 0.  0.
         23    2    4    4    0    0 -0.39831178075E+03  0.12240781514E+04 -0.12920404990E+04  0.18259875385E+04  0.88556447397E+02 0.  0.
         23    2    4    4    0    0 -0.60196131653E+02 -0.11747225466E+03 -0.33146977272E+02  0.17029492614E+03  0.10236373813E+03 0.  0.
         11    1    3    3    0    0  0.13379938211E+03 -0.24531611634E+03  0.27818975513E+03  0.39429913955E+03  0.00000000000E+00 0. -1.
        -11    1    3    3    0    0  0.32470853029E+03 -0.86128978041E+03  0.10727450404E+04  0.14135195921E+04  0.00000000000E+00 0.  1.
          2    1    5    5  502    0 -0.20772958438E+03  0.52208699577E+03 -0.52760965920E+03  0.77077776555E+03  0.00000000000E+00 0. -1.
          1    1    6    6  503    0 -0.19103049280E+02 -0.12241961890E+03 -0.13995592267E+02  0.12468907806E+03  0.00000000000E+00 0. -1.
         -2    1    5    5    0  502 -0.19058219637E+03  0.70199115564E+03 -0.76443083977E+03  0.10552097730E+04  0.00000000000E+00 0.  1.
         -1    1    6    6    0  503 -0.41093082373E+02  0.49473642361E+01 -0.19151385005E+02  0.45605848083E+02  0.00000000000E+00 0.  1.
<mgrwt>
<rscale>  0 0.38040141E+04</rscale>
<asrwt>0</asrwt>
<pdfrwt beam="1">  1        2 0.29064261E+00 0.38040141E+04</pdfrwt>
<pdfrwt beam="2">  1       -2 0.29460373E+00 0.38040141E+04</pdfrwt>
<totfact> 0.21164160E-01</totfact>
</mgrwt>
</event>
<event>
12    1  0.4247462E-008  0.1313373E+04  0.7818608E-02  0.9019027E-01
          3   -1    0    0  501    0  0.00000000000E+00  0.00000000000E+00  0.62247851103E+03  0.62247851103E+03  0.00000000000E+00 0. -1.
         -3   -1    0    0    0  501 -0.00000000000E+00 -0.00000000000E+00 -0.69277466156E+03  0.69277466156E+03  0.00000000000E+00 0.  1.
         23    2    1    2    0    0 -0.79445768655E+02 -0.17770025244E+03 -0.29328501626E+03  0.36371239127E+03  0.91551040031E+02 0.  0.
        254    2    1    2    0    0  0.79445768655E+02  0.17770025244E+03  0.22298886573E+03  0.95154078132E+03  0.90433224779E+03 0.  0.
         23    2    4    4    0    0  0.10494746067E+03 -0.35269034112E+03  0.14979213468E+03  0.40799398467E+03  0.92827591215E+02 0.  0.
         23    2    4    4    0    0 -0.25501692010E+02  0.53039059356E+03  0.73196731046E+02  0.54354679665E+03  0.90115707178E+02 0.  0.
         13    1    3    3    0    0 -0.49549911006E+02 -0.14528270581E+03 -0.15327869963E+03  0.21692537438E+03  0.00000000000E+00 0. -1.
        -13    1    3    3    0    0 -0.29895857650E+02 -0.32417546628E+02 -0.14000631663E+03  0.14678701690E+03  0.00000000000E+00 0.  1.
          2    1    5    5  502    0  0.10129480315E+03 -0.35424376163E+03  0.13454595394E+03  0.39223958689E+03  0.00000000000E+00 0. -1.
          3    1    6    6  503    0  0.10356688678E+02  0.43960570315E+03  0.45453427091E+02  0.44207063833E+03  0.00000000000E+00 0. -1.
         -2    1    5    5    0  502  0.36526575178E+01  0.15534205068E+01  0.15246180745E+02  0.15754397783E+02  0.00000000000E+00 0.  1.
         -3    1    6    6    0  503 -0.35858380689E+02  0.90784890414E+02  0.27743303955E+02  0.10147615832E+03  0.00000000000E+00 0.  1.
<mgrwt>
<rscale>  0 0.13133733E+04</rscale>
<asrwt>0</asrwt>
<pdfrwt beam="1">  1        3 0.95765925E-01 0.13133733E+04</pdfrwt>
<pdfrwt beam="2">  1       -3 0.10658072E+00 0.13133733E+04</pdfrwt>
<totfact> 0.18665606E+00</totfact>
</mgrwt>
</event>
<event>
12    1  0.4247462E-008  0.3924035E+04  0.7818608E-02  0.8020049E-01
         -1   -1    0    0    0  501 -0.00000000000E+00  0.00000000000E+00  0.19076424804E+04  0.19076424804E+04  0.00000000000E+00 0.  1.
          1   -1    0    0  501    0  0.00000000000E+00 -0.00000000000E+00 -0.20179425383E+04  0.20179425383E+04  0.00000000000E+00 0. -1.
         23    2    1    2    0    0  0.55957740939E+03  0.11883232449E+04  0.12606675759E+04  0.18228124289E+04  0.90129920975E+02 0.  0.
        254    2    1    2    0    0 -0.55957740939E+03 -0.11883232449E+04 -0.13709676338E+04  0.21027725897E+04  0.90380379500E+03 0.  0.
         23    2    4    4    0    0 -0.84833984407E+02 -0.39612513727E+03 -0.10368522030E+04  0.11166471038E+04  0.87899569795E+02 0.  0.
         23    2    4    4    0    0 -0.47474342498E+03 -0.79219810761E+03 -0.33411543078E+03  0.98612548589E+03  0.88606949924E+02 0.  0.
         13    1    3    3    0    0  0.24105780917E+03  0.61747048999E+03  0.63873149406E+03  0.92051974171E+03  0.00000000000E+00 0. -1.
        -13    1    3    3    0    0  0.31851960022E+03  0.57085275489E+03  0.62193608181E+03  0.90229268719E+03  0.00000000000E+00 0.  1.
          2    1    5    5  502    0 -0.31772871285E+02 -0.32033487224E+03 -0.79458024526E+03  0.85731074406E+03  0.00000000000E+00 0. -1.
          4    1    6    6  503    0 -0.59614289835E+02 -0.56786138215E+02 -0.42869988393E+02  0.92824376921E+02  0.00000000000E+00 0.  1.
         -2    1    5    5    0  502 -0.53061113122E+02 -0.75790265027E+02 -0.24227195773E+03  0.25933635978E+03  0.00000000000E+00 0.  1.
         -4    1    6    6    0  503 -0.41512913515E+03 -0.73541196939E+03 -0.29124544239E+03  0.89330110897E+03  0.00000000000E+00 0. -1.
<mgrwt>
<rscale>  0 0.39240351E+04</rscale>
<asrwt>0</asrwt>
<pdfrwt beam="1">  1        1 0.31045270E+00 0.39240351E+04</pdfrwt>
<pdfrwt beam="2">  1       -1 0.29348346E+00 0.39240351E+04</pdfrwt>
<totfact> 0.83057466E-02</totfact>
</mgrwt>
</event>
<event>
12    1  0.4247462E-008  0.2153888E+04  0.7818608E-02  0.8537870E-01
          2   -1    0    0  501    0  0.00000000000E+00  0.00000000000E+00  0.23708101878E+04  0.23708101878E+04  0.00000000000E+00 0. -1.
         -2   -1    0    0    0  501 -0.00000000000E+00 -0.00000000000E+00 -0.48920323145E+03  0.48920323145E+03  0.00000000000E+00 0.  1.
         23    2    1    2    0    0 -0.68820258831E+03 -0.16563200601E+02  0.15038365917E+04  0.16563925870E+04  0.90635343718E+02 0.  0.
        254    2    1    2    0    0  0.68820258831E+03  0.16563200601E+02  0.37777036461E+03  0.12036208322E+04  0.91219269741E+03 0.  0.
         23    2    4    4    0    0  0.38156571457E+03 -0.19052548866E+03 -0.22495641648E+03  0.49050000067E+03  0.89958351321E+02 0.  0.
         23    2    4    4    0    0  0.30663687373E+03  0.20708868926E+03  0.60272678109E+03  0.71312083156E+03  0.91377514740E+02 0.  0.
         11    1    3    3    0    0 -0.52316016961E+03  0.17079165826E+02  0.11949446669E+04  0.13045616190E+04  0.00000000000E+00 0. -1.
        -11    1    3    3    0    0 -0.16504241870E+03 -0.33642366428E+02  0.30889192483E+03  0.35183096796E+03  0.00000000000E+00 0.  1.
          2    1    5    5  502    0  0.32055096270E+03 -0.12576414864E+03 -0.19948429912E+03  0.39794915048E+03  0.00000000000E+00 0. -1.
          1    1    6    6  503    0  0.26491384180E+03  0.20024371252E+03  0.56989882057E+03  0.65959195998E+03  0.00000000000E+00 0. -1.
         -2    1    5    5    0  502  0.61014751871E+02 -0.64761340027E+02 -0.25472117358E+02  0.92550850189E+02  0.00000000000E+00 0.  1.
         -1    1    6    6    0  503  0.41723031932E+02  0.68449767408E+01  0.32827960521E+02  0.53528871576E+02  0.00000000000E+00 0.  1.
<mgrwt>
<rscale>  0 0.21538877E+04</rscale>
<asrwt>0</asrwt>
<pdfrwt beam="1">  1        2 0.36474002E+00 0.21538877E+04</pdfrwt>
<pdfrwt beam="2">  1       -2 0.75262037E-01 0.21538877E+04</pdfrwt>
<totfact> 0.60063714E+00</totfact>
</mgrwt>
</event>
<event>
12    1  0.4247462E-008  0.1293226E+04  0.7818608E-02  0.9034954E-01
          4   -1    0    0  501    0  0.00000000000E+00  0.00000000000E+00  0.46934021782E+03  0.46934021782E+03  0.00000000000E+00 0. -1.
         -4   -1    0    0    0  501 -0.00000000000E+00 -0.00000000000E+00 -0.89084272844E+03  0.89084272844E+03  0.00000000000E+00 0.  1.
         23    2    1    2    0    0 -0.54929873341E+01  0.56504435745E+02 -0.45728729102E+03  0.46936893099E+03  0.89289432085E+02 0.  0.
        254    2    1    2    0    0  0.54929873341E+01 -0.56504435745E+02  0.35784780400E+02  0.89081401526E+03  0.88828268874E+03 0.  0.
         23    2    4    4    0    0 -0.77681003611E+02 -0.20105268742E+03 -0.37176418481E+03  0.44100667325E+03  0.99104769326E+02 0.  0.
         23    2    4    4    0    0  0.83173990945E+02  0.14454825167E+03  0.40754896521E+03  0.44980734201E+03  0.91751708731E+02 0.  0.
         13    1    3    3    0    0 -0.29295106800E+02  0.47886971124E+02 -0.13661582694E+03  0.14769986275E+03  0.00000000000E+00 0. -1.
        -13    1    3    3    0    0  0.23802119466E+02  0.86174646214E+01 -0.32067146408E+03  0.32166906824E+03  0.00000000000E+00 0.  1.
          2    1    5    5  502    0  0.12241887970E+02 -0.29401909103E+02 -0.11498838029E+03  0.11931749110E+03  0.00000000000E+00 0. -1.
          4    1    6    6  503    0  0.84230602068E+01  0.54114796936E+01  0.13061682067E+03  0.13099994617E+03  0.00000000000E+00 0. -1.
         -2    1    5    5    0  502 -0.89922891582E+02 -0.17165077831E+03 -0.25677580452E+03  0.32168918215E+03  0.00000000000E+00 0.  1.
         -4    1    6    6    0  503  0.74750930739E+02  0.13913677198E+03  0.27693214454E+03  0.31880739584E+03  0.00000000000E+00 0.  1.
<mgrwt>
<rscale>  0 0.12932259E+04</rscale>
<asrwt>0</asrwt>
<pdfrwt beam="1">  1        4 0.72206188E-01 0.12932259E+04</pdfrwt>
<pdfrwt beam="2">  1       -4 0.13705273E+00 0.12932259E+04</pdfrwt>
<totfact> 0.12924144E+00</totfact>
</mgrwt>
</event>
<event>
12    1  0.4247462E-008  0.2090453E+04  0.7818608E-02  0.8565460E-01
         -2   -1    0    0    0  501 -0.00000000000E+00  0.00000000000E+00  0.10482122302E+04  0.10482122302E+04  0.00000000000E+00 0.  1.
          2   -1    0    0  501    0  0.00000000000E+00 -0.00000000000E+00 -0.10422497536E+04  0.10422497536E+04  0.00000000000E+00 0. -1.
         23    2    1    2    0    0 -0.10959827338E+03  0.71323279771E+03 -0.44591354521E+03  0.85311224897E+03  0.90822983279E+02 0.  0.
        254    2    1    2    0    0  0.10959827338E+03 -0.71323279771E+03  0.45187602175E+03  0.12373497348E+04  0.89784721523E+03 0.  0.
         23    2    4    4    0    0 -0.63131474371E+02 -0.84534677522E+03  0.51579798475E+03  0.99637496522E+03  0.90104144228E+02 0.  0.
         23    2    4    4    0    0  0.17272974775E+03  0.13211397751E+03 -0.63921962997E+02  0.24097476957E+03  0.81811694806E+02 0.  0.
         11    1    3    3    0    0 -0.12505181032E+03  0.65423963526E+03 -0.40244135846E+03  0.77822008623E+03  0.00000000000E+00 0. -1.
        -11    1    3    3    0    0  0.15453536945E+02  0.58993162443E+02 -0.43472186745E+02  0.74892162738E+02  0.00000000000E+00 0.  1.
          1    1    5    5  502    0 -0.34398663685E+02 -0.29318528621E+03  0.13230490945E+03  0.32348951943E+03  0.00000000000E+00 0. -1.
          3    1    6    6  503    0  0.62211740179E+01 -0.13484118222E+01 -0.22776764388E+02  0.23649571171E+02  0.00000000000E+00 0. -1.
         -1    1    5    5    0  502 -0.28732810686E+02 -0.55216148901E+03  0.38349307530E+03  0.67288544579E+03  0.00000000000E+00 0.  1.
         -3    1    6    6    0  503  0.16650857373E+03  0.13346238933E+03 -0.41145198609E+02  0.21732519840E+03  0.00000000000E+00 0.  1.
<mgrwt>
<rscale>  0 0.20904535E+04</rscale>
<asrwt>0</asrwt>
<pdfrwt beam="1">  1        2 0.16034612E+00 0.20904535E+04</pdfrwt>
<pdfrwt beam="2">  1       -2 0.16126342E+00 0.20904535E+04</pdfrwt>
<totfact> 0.53822321E+00</totfact>
</mgrwt>
</event>
<event>
12    1  0.4247462E-008  0.1533438E+04  0.7818608E-02  0.8862516E-01
          1   -1    0    0  501    0  0.00000000000E+00  0.00000000000E+00  0.17079674931E+04  0.17079674931E+04  0.00000000000E+00 0. -1.
         -1   -1    0    0    0  501 -0.00000000000E+00 -0.00000000000E+00 -0.34418577229E+03  0.34418577229E+03  0.00000000000E+00 0.  1.
         23    2    1    2    0    0 -0.10277611429E+01 -0.20103259570E+03 -0.16024393351E+03  0.27229298279E+03  0.89722847829E+02 0.  0.
        254    2    1    2    0    0  0.10277611429E+01  0.20103259570E+03  0.15240256543E+04  0.17798602826E+04  0.89712500227E+03 0.  0.
         23    2    4    4    0    0  0.40589578112E+03  0.11665484201E+02  0.10103101383E+04  0.10924068096E+04  0.87969275467E+02 0.  0.
         23    2    4    4    0    0 -0.40486801997E+03  0.18936711150E+03  0.51371551598E+03  0.68745347297E+03  0.94396131417E+02 0.  0.
         13    1    3    3    0    0  0.19327783269E+02 -0.32994862367E+02  0.13690380192E+01  0.38263538961E+02  0.00000000000E+00 0. -1.
        -13    1    3    3    0    0 -0.20355544412E+02 -0.16803773333E+03 -0.16161297153E+03  0.23402944383E+03  0.00000000000E+00 0.  1.
          4    1    5    5  502    0  0.35913571186E+03  0.39087028049E+02  0.87493691533E+03  0.94658378451E+03  0.00000000000E+00 0. -1.
          3    1    6    6  503    0 -0.25179912995E+03  0.80404033630E+02  0.34741558740E+03  0.43653774274E+03  0.00000000000E+00 0. -1.
         -4    1    5    5    0  502  0.46760069253E+02 -0.27421543848E+02  0.13537322301E+03  0.14582302511E+03  0.00000000000E+00 0.  1.
         -3    1    6    6    0  503 -0.15306889002E+03  0.10896307787E+03  0.16629992857E+03  0.25091573022E+03  0.00000000000E+00 0.  1.
<mgrwt>
<rscale>  0 0.15334381E+04</rscale>
<asrwt>0</asrwt>
<pdfrwt beam="1">  1        1 0.26276423E+00 0.15334381E+04</pdfrwt>
<pdfrwt beam="2">  1       -1 0.52951658E-01 0.15334381E+04</pdfrwt>
<totfact> 0.16328379E+01</totfact>
</mgrwt>
</event>
<event>
12    1  0.4247462E-008  0.1550115E+04  0.7818608E-02  0.8851794E-01
          2   -1    0    0  501    0  0.00000000000E+00  0.00000000000E+00  0.12418534093E+04  0.12418534093E+04  0.00000000000E+00 0. -1.
         -2   -1    0    0    0  501 -0.00000000000E+00 -0.00000000000E+00 -0.48372392037E+03  0.48372392037E+03  0.00000000000E+00 0.  1.
         23    2    1    2    0    0  0.31149705790E+03 -0.70197172327E+02 -0.18188145070E+03  0.37889338186E+03  0.92310739499E+02 0.  0.
        254    2    1    2    0    0 -0.31149705790E+03  0.70197172327E+02  0.94001093968E+03  0.13466839479E+04  0.90993352978E+03 0.  0.
         23    2    4    4    0    0 -0.20549635237E+03 -0.37350557955E+03  0.69554180248E+03  0.82099775912E+03  0.92324171754E+02 0.  0.
         23    2    4    4    0    0 -0.10600070553E+03  0.44370275187E+03  0.24446913720E+03  0.52568618874E+03  0.92046338288E+02 0.  0.
         11    1    3    3    0    0  0.96636420507E+02  0.17330844501E+02 -0.34643294933E+02  0.10411106485E+03  0.00000000000E+00 0. -1.
        -11    1    3    3    0    0  0.21486063739E+03 -0.87528016829E+02 -0.14723815577E+03  0.27478231701E+03  0.00000000000E+00 0.  1.
          4    1    5    5  502    0 -0.40780601100E+02 -0.13617442009E+03  0.29136816144E+03  0.32419428683E+03  0.00000000000E+00 0. -1.
          1    1    6    6  503    0  0.94085163830E+01  0.32403852697E+01  0.36950138612E+01  0.10614772944E+02  0.00000000000E+00 0. -1.
         -4    1    5    5    0  502 -0.16471575127E+03 -0.23733115945E+03  0.40417364104E+03  0.49680347229E+03  0.00000000000E+00 0.  1.
         -1    1    6    6    0  503 -0.11540922191E+03  0.44046236660E+03  0.24077412334E+03  0.51507141579E+03  0.00000000000E+00 0.  1.
<mgrwt>
<rscale>  0 0.15501151E+04</rscale>
<asrwt>0</asrwt>
<pdfrwt beam="1">  1        2 0.19105437E+00 0.15501151E+04</pdfrwt>
<pdfrwt beam="2">  1       -2 0.74419065E-01 0.15501151E+04</pdfrwt>
<totfact> 0.27970310E+01</totfact>
</mgrwt>
</event>
<event>
12    1  0.4260629E-008  0.2070850E+04  0.7818608E-02  0.8574194E-01
         -1   -1    0    0    0  501 -0.00000000000E+00  0.00000000000E+00  0.49448776502E+03  0.49448776502E+03  0.00000000000E+00 0.  1.
          1   -1    0    0  501    0  0.00000000000E+00 -0.00000000000E+00 -0.21681123039E+04  0.21681123039E+04  0.00000000000E+00 0. -1.
         23    2    1    2    0    0  0.38218644400E+03 -0.16608944955E+02 -0.16852305369E+04  0.17305926617E+04  0.92772103907E+02 0.  0.
        254    2    1    2    0    0 -0.38218644400E+03  0.16608944955E+02  0.11605998011E+02  0.93200740721E+03  0.84980043121E+03 0.  0.
         23    2    4    4    0    0  0.89068094025E+02  0.27771536688E+03 -0.17825495963E+03  0.35363580016E+03  0.90689018883E+02 0.  0.
         23    2    4    4    0    0 -0.47125453802E+03 -0.26110642193E+03  0.18986095764E+03  0.57837160705E+03  0.90604246195E+02 0.  0.
         13    1    3    3    0    0  0.10361741321E+03  0.17626442881E+02 -0.62836407524E+03  0.63709392625E+03  0.00000000000E+00 0.  1.
        -13    1    3    3    0    0  0.27856903079E+03 -0.34235387835E+02 -0.10568664617E+04  0.10934987355E+04  0.00000000000E+00 0. -1.
          1    1    5    5  502    0 -0.50287386071E+01  0.49706396302E+02 -0.65618346347E+02  0.82472913266E+02  0.00000000000E+00 0. -1.
          3    1    6    6  503    0 -0.38464742941E+02 -0.43069940395E+02  0.43000870113E+02  0.71997437771E+02  0.00000000000E+00 0. -1.
         -1    1    5    5    0  502  0.94096832632E+02  0.22800897058E+03 -0.11263661329E+03  0.27116288690E+03  0.00000000000E+00 0.  1.
         -3    1    6    6    0  503 -0.43278979508E+03 -0.21803648153E+03  0.14686008753E+03  0.50637416928E+03  0.00000000000E+00 0.  1.
<mgrwt>
<rscale>  0 0.20708501E+04</rscale>
<asrwt>0</asrwt>
<pdfrwt beam="1">  1        1 0.33355573E+00 0.20708501E+04</pdfrwt>
<pdfrwt beam="2">  1       -1 0.76075042E-01 0.20708501E+04</pdfrwt>
<totfact> 0.36643066E+00</totfact>
</mgrwt>
</event>
<event>
12    1  0.4247462E-008  0.2939915E+04  0.7818608E-02  0.8261100E-01
         -1   -1    0    0    0  501 -0.00000000000E+00  0.00000000000E+00  0.12689541253E+04  0.12689541253E+04  0.00000000000E+00 0.  1.
          1   -1    0    0  501    0  0.00000000000E+00 -0.00000000000E+00 -0.17027998234E+04  0.17027998234E+04  0.00000000000E+00 0. -1.
         23    2    1    2    0    0 -0.29822656189E+03  0.11292849359E+03 -0.15047104482E+04  0.15407777037E+04  0.90279965747E+02 0.  0.
        254    2    1    2    0    0  0.29822656189E+03 -0.11292849359E+03  0.10708647501E+04  0.14309762451E+04  0.89400770357E+03 0.  0.
         23    2    4    4    0    0  0.35951494424E+03  0.32658839633E+03  0.60637786120E+03  0.78208564448E+03  0.89737779106E+02 0.  0.
         23    2    4    4    0    0 -0.61288382346E+02 -0.43951688992E+03  0.46448688893E+03  0.64889060060E+03  0.91540041653E+02 0.  0.
         11    1    3    3    0    0 -0.17059731881E+03  0.24598471591E+02 -0.90774246816E+03  0.92396153518E+03  0.00000000000E+00 0. -1.
        -11    1    3    3    0    0 -0.12762924309E+03  0.88330021998E+02 -0.59696798007E+03  0.61681616849E+03  0.00000000000E+00 0.  1.
          4    1    5    5  502    0  0.83219612926E+02  0.35232760423E+02  0.85498273595E+02  0.12440581245E+03  0.00000000000E+00 0.  1.
          1    1    6    6  503    0 -0.47526447045E+02 -0.43279469604E+03  0.45891585109E+03  0.63259289474E+03  0.00000000000E+00 0. -1.
         -4    1    5    5    0  502  0.27629533131E+03  0.29135563591E+03  0.52087958761E+03  0.65767983204E+03  0.00000000000E+00 0. -1.
         -1    1    6    6    0  503 -0.13761935301E+02 -0.67221938768E+01  0.55710378354E+01  0.16297705860E+02  0.00000000000E+00 0.  1.
<mgrwt>
<rscale>  0 0.29399149E+04</rscale>
<asrwt>0</asrwt>
<pdfrwt beam="1">  1        1 0.26196920E+00 0.29399149E+04</pdfrwt>
<pdfrwt beam="2">  1       -1 0.19522371E+00 0.29399149E+04</pdfrwt>
<totfact> 0.65937085E-01</totfact>
</mgrwt>
</event>
<event>
12    1  0.4247462E-008  0.2263373E+04  0.7818608E-02  0.8492504E-01
          2   -1    0    0  501    0  0.00000000000E+00  0.00000000000E+00  0.16407920619E+04  0.16407920619E+04  0.00000000000E+00 0. -1.
         -2   -1    0    0    0  501 -0.00000000000E+00 -0.00000000000E+00 -0.78054657742E+03  0.78054657742E+03  0.00000000000E+00 0.  1.
         23    2    1    2    0    0 -0.70585685100E+03 -0.25184229700E+02  0.10249862510E+04  0.12481786672E+04  0.92114227293E+02 0.  0.
        254    2    1    2    0    0  0.70585685100E+03  0.25184229700E+02 -0.16474076657E+03  0.11731599721E+04  0.92211531844E+03 0.  0.
         23    2    4    4    0    0  0.48388937680E+03 -0.42416206006E+03 -0.12516232718E+03  0.66198197791E+03  0.92152855409E+02 0.  0.
         23    2    4    4    0    0  0.22196747419E+03  0.44934628976E+03 -0.39578439391E+02  0.51117799421E+03  0.92492384436E+02 0.  0.
         13    1    3    3    0    0 -0.47088601786E+03  0.15701346426E+01  0.74905626255E+03  0.88477194327E+03  0.00000000000E+00 0. -1.
        -13    1    3    3    0    0 -0.23497083313E+03 -0.26754364343E+02  0.27592998850E+03  0.36340672392E+03  0.00000000000E+00 0.  1.
          1    1    5    5  502    0  0.12784612626E+03 -0.14873127663E+03 -0.54931537590E+01  0.19620346425E+03  0.00000000000E+00 0. -1.
          3    1    6    6  503    0  0.14685307667E+03  0.24167917394E+03 -0.61016625032E+02  0.28930550941E+03  0.00000000000E+00 0. -1.
         -1    1    5    5    0  502  0.35604325055E+03 -0.27543078343E+03 -0.11966917342E+03  0.46577851366E+03  0.00000000000E+00 0.  1.
         -3    1    6    6    0  503  0.75114397526E+02  0.20766711582E+03  0.21438185641E+02  0.22187248480E+03  0.00000000000E+00 0.  1.
<mgrwt>
<rscale>  0 0.22633733E+04</rscale>
<asrwt>0</asrwt>
<pdfrwt beam="1">  1        2 0.25242955E+00 0.22633733E+04</pdfrwt>
<pdfrwt beam="2">  1       -2 0.12008409E+00 0.22633733E+04</pdfrwt>
<totfact> 0.51010112E+00</totfact>
</mgrwt>
</event>
<event>
12    1  0.4247462E-008  0.1978299E+04  0.7818608E-02  0.8616834E-01
          2   -1    0    0  501    0  0.00000000000E+00  0.00000000000E+00  0.17002517647E+04  0.17002517647E+04  0.00000000000E+00 0.  1.
         -2   -1    0    0    0  501 -0.00000000000E+00 -0.00000000000E+00 -0.57545395993E+03  0.57545395993E+03  0.00000000000E+00 0. -1.
         23    2    1    2    0    0  0.34120153350E+03 -0.36072570973E+03  0.11493185493E+04  0.12554229577E+04  0.92801674293E+02 0.  0.
        254    2    1    2    0    0 -0.34120153350E+03  0.36072570973E+03 -0.24520744607E+02  0.10202827669E+04  0.89097369960E+03 0.  0.
         23    2    4    4    0    0 -0.90715685961E+02  0.61383605944E+03 -0.12313100601E+03  0.63930447938E+03  0.92330542972E+02 0.  0.
         23    2    4    4    0    0 -0.25048584754E+03 -0.25311034971E+03  0.98610261400E+02  0.38097828752E+03  0.92803356413E+02 0.  0.
         13    1    3    3    0    0  0.61641115523E+02 -0.77478780094E+02  0.33052448350E+03  0.34503481372E+03  0.00000000000E+00 0. -1.
        -13    1    3    3    0    0  0.27956041797E+03 -0.28324692964E+03  0.81879406583E+03  0.91038814398E+03  0.00000000000E+00 0.  1.
          2    1    5    5  502    0 -0.27049434017E+02  0.41333834932E+03 -0.53214446834E+02  0.41762667570E+03  0.00000000000E+00 0. -1.
          2    1    6    6  503    0 -0.24587882237E+03 -0.20672696190E+03  0.89678626358E+02  0.33351864729E+03  0.00000000000E+00 0. -1.
         -2    1    5    5    0  502 -0.63666251944E+02  0.20049771012E+03 -0.69916559173E+02  0.22167780368E+03  0.00000000000E+00 0.  1.
         -2    1    6    6    0  503 -0.46070251617E+01 -0.46383387811E+02  0.89316350419E+01  0.47459640224E+02  0.00000000000E+00 0.  1.
<mgrwt>
<rscale>  0 0.19782989E+04</rscale>
<asrwt>0</asrwt>
<pdfrwt beam="1">  1        2 0.26157719E+00 0.19782989E+04</pdfrwt>
<pdfrwt beam="2">  1       -2 0.88531379E-01 0.19782989E+04</pdfrwt>
<totfact> 0.10015177E+01</totfact>
</mgrwt>
</event>
<event>
12    1  0.4247462E-008  0.1427754E+04  0.7818608E-02  0.8933970E-01
          2   -1    0    0  501    0  0.00000000000E+00  0.00000000000E+00  0.35084900592E+03  0.35084900592E+03  0.00000000000E+00 0. -1.
         -2   -1    0    0    0  501 -0.00000000000E+00 -0.00000000000E+00 -0.14525353031E+04  0.14525353031E+04  0.00000000000E+00 0.  1.
         23    2    1    2    0    0  0.18313126584E+03  0.32072132026E+03 -0.62585089869E+03  0.73250299155E+03  0.92043790915E+02 0.  0.
        254    2    1    2    0    0 -0.18313126584E+03 -0.32072132026E+03 -0.47583539852E+03  0.10708813175E+04  0.88541981222E+03 0.  0.
         23    2    4    4    0    0 -0.37423198178E+03 -0.31791920074E+03  0.52604439188E+02  0.50170713301E+03  0.88434302760E+02 0.  0.
         23    2    4    4    0    0  0.19110071594E+03 -0.28021195240E+01 -0.52843983771E+03  0.56917418448E+03  0.90461343668E+02 0.  0.
         13    1    3    3    0    0  0.11469981605E+03  0.22302684617E+03 -0.33769619705E+03  0.42063730626E+03  0.00000000000E+00 0. -1.
        -13    1    3    3    0    0  0.68431449788E+02  0.97694474098E+02 -0.28815470164E+03  0.31186568530E+03  0.00000000000E+00 0.  1.
          2    1    5    5  502    0 -0.11665006503E+03 -0.14979600890E+03  0.38939315672E+02  0.19381009328E+03  0.00000000000E+00 0.  1.
          3    1    6    6  503    0  0.10544590517E+03  0.11395201874E+02 -0.17002106853E+03  0.20038925442E+03  0.00000000000E+00 0. -1.
         -2    1    5    5    0  502 -0.25758191675E+03 -0.16812319184E+03  0.13665123516E+02  0.30789703973E+03  0.00000000000E+00 0. -1.
         -3    1    6    6    0  503  0.85654810774E+02 -0.14197321398E+02 -0.35841876918E+03  0.36878493007E+03  0.00000000000E+00 0.  1.
<mgrwt>
<rscale>  0 0.14277543E+04</rscale>
<asrwt>0</asrwt>
<pdfrwt beam="1">  1        2 0.53976769E-01 0.14277543E+04</pdfrwt>
<pdfrwt beam="2">  1       -2 0.22346697E+00 0.14277543E+04</pdfrwt>
<totfact> 0.84093799E+00</totfact>
</mgrwt>
</event>
<event>
12    1  0.4247462E-008  0.1532478E+04  0.7818608E-02  0.8863138E-01
         -2   -1    0    0    0  501 -0.00000000000E+00  0.00000000000E+00  0.62052653649E+03  0.62052653649E+03  0.00000000000E+00 0. -1.
          2   -1    0    0  501    0  0.00000000000E+00 -0.00000000000E+00 -0.94616758343E+03  0.94616758343E+03  0.00000000000E+00 0.  1.
         23    2    1    2    0    0  0.38014079558E+01  0.12761426441E+03  0.39071895715E+03  0.42139774673E+03  0.92816519469E+02 0.  0.
        254    2    1    2    0    0 -0.38014079558E+01 -0.12761426441E+03 -0.71636000409E+03  0.11452963732E+04  0.88443896104E+03 0.  0.
         23    2    4    4    0    0 -0.63482201406E+02  0.32312860662E+03 -0.56373765073E+03  0.65913666533E+03  0.90658250687E+02 0.  0.
         23    2    4    4    0    0  0.59680793450E+02 -0.45074287103E+03 -0.15262235336E+03  0.48615970786E+03  0.79540844278E+02 0.  0.
         11    1    3    3    0    0 -0.25155058145E+01  0.13535198600E+02 -0.56050555308E+00  0.13778372078E+02  0.00000000000E+00 0.  1.
        -11    1    3    3    0    0  0.63169137703E+01  0.11407906581E+03  0.39127946270E+03  0.40761937465E+03  0.00000000000E+00 0. -1.
          2    1    5    5  502    0 -0.49693295424E+02  0.16273850988E+03 -0.36995833524E+03  0.40721298607E+03  0.00000000000E+00 0. -1.
          3    1    6    6  503    0  0.74153562775E+02 -0.36867885379E+03 -0.14275959586E+03  0.40224762313E+03  0.00000000000E+00 0. -1.
         -2    1    5    5    0  502 -0.13788905982E+02  0.16039009674E+03 -0.19377931549E+03  0.25192367927E+03  0.00000000000E+00 0.  1.
         -3    1    6    6    0  503 -0.14472769325E+02 -0.82064017248E+02 -0.98627574934E+01  0.83912084733E+02  0.00000000000E+00 0.  1.
<mgrwt>
<rscale>  0 0.15324779E+04</rscale>
<asrwt>0</asrwt>
<pdfrwt beam="1">  1        2 0.14556424E+00 0.15324779E+04</pdfrwt>
<pdfrwt beam="2">  1       -2 0.95465622E-01 0.15324779E+04</pdfrwt>
<totfact> 0.24257967E+01</totfact>
</mgrwt>
</event>
<event>
12    1  0.4247462E-008  0.1592077E+04  0.7818608E-02  0.8825430E-01
          2   -1    0    0  501    0  0.00000000000E+00  0.00000000000E+00  0.19420741855E+04  0.19420741855E+04  0.00000000000E+00 0. -1.
         -2   -1    0    0    0  501 -0.00000000000E+00 -0.00000000000E+00 -0.32628903184E+03  0.32628903184E+03  0.00000000000E+00 0.  1.
         23    2    1    2    0    0 -0.38484124239E+03 -0.87470406496E+02  0.36227771667E+02  0.40650146633E+03  0.90427522539E+02 0.  0.
        254    2    1    2    0    0  0.38484124239E+03  0.87470406496E+02  0.15795573820E+04  0.18618617510E+04  0.90320197240E+03 0.  0.
         23    2    4    4    0    0  0.66000874678E+03  0.14108639697E+03  0.10036630843E+04  0.12130565582E+04  0.93003813014E+02 0.  0.
         23    2    4    4    0    0 -0.27516750439E+03 -0.53615990474E+02  0.57589429764E+03  0.64880519281E+03  0.10345098479E+03 0.  0.
         11    1    3    3    0    0 -0.26970531752E+03 -0.72537199204E+02  0.65289057760E+02  0.28681921943E+03  0.00000000000E+00 0. -1.
        -11    1    3    3    0    0 -0.11513592487E+03 -0.14933207292E+02 -0.29061286093E+02  0.11968224691E+03  0.00000000000E+00 0.  1.
          2    1    5    5  502    0  0.52799065108E+03  0.12161272482E+03  0.73548167846E+03  0.91350811809E+03  0.00000000000E+00 0.  1.
          1    1    6    6  503    0 -0.27849635372E+03 -0.49821171335E+02  0.51410710739E+03  0.58681213861E+03  0.00000000000E+00 0.  1.
         -2    1    5    5    0  502  0.13201809569E+03  0.19473672147E+02  0.26818140587E+03  0.29954844007E+03  0.00000000000E+00 0. -1.
         -1    1    6    6    0  503  0.33288493308E+01 -0.37948191390E+01  0.61787190249E+02  0.61993054200E+02  0.00000000000E+00 0. -1.
<mgrwt>
<rscale>  0 0.15920773E+04</rscale>
<asrwt>0</asrwt>
<pdfrwt beam="1">  1        2 0.29878064E+00 0.15920773E+04</pdfrwt>
<pdfrwt beam="2">  1       -2 0.50198314E-01 0.15920773E+04</pdfrwt>
<totfact> 0.25920301E+01</totfact>
</mgrwt>
</event>
<event>
12    1  0.4247462E-008  0.2303630E+04  0.7818608E-02  0.8476491E-01
          1   -1    0    0  501    0  0.00000000000E+00  0.00000000000E+00  0.11095265086E+04  0.11095265086E+04  0.00000000000E+00 0. -1.
         -1   -1    0    0    0  501 -0.00000000000E+00 -0.00000000000E+00 -0.11957148756E+04  0.11957148756E+04  0.00000000000E+00 0.  1.
         23    2    1    2    0    0 -0.26168850562E+02  0.43088013152E+03 -0.91187575303E+03  0.10131159616E+04  0.92434117911E+02 0.  0.
        254    2    1    2    0    0  0.26168850562E+02 -0.43088013152E+03  0.82568738605E+03  0.12921254226E+04  0.89525747794E+03 0.  0.
         23    2    4    4    0    0 -0.10602509958E+03  0.17216446383E+03  0.57834237312E+03  0.61961643420E+03  0.92534861746E+02 0.  0.
         23    2    4    4    0    0  0.13219395014E+03 -0.60304459535E+03  0.24734501293E+03  0.67250898842E+03  0.99753494434E+02 0.  0.
         13    1    3    3    0    0  0.17967511803E+02  0.21225664735E+02 -0.39197166132E+02  0.48060151442E+02  0.00000000000E+00 0. -1.
        -13    1    3    3    0    0 -0.44136362365E+02  0.40965446679E+03 -0.87267858690E+03  0.96505581014E+03  0.00000000000E+00 0.  1.
          2    1    5    5  502    0 -0.93625656436E+02  0.14128931910E+03  0.35020395181E+03  0.38906457445E+03  0.00000000000E+00 0.  1.
          3    1    6    6  503    0  0.16388482676E+02 -0.30755475813E+03  0.12016314188E+03  0.33060201493E+03  0.00000000000E+00 0. -1.
         -2    1    5    5    0  502 -0.12399443140E+02  0.30875144727E+02  0.22813842131E+03  0.23055185974E+03  0.00000000000E+00 0. -1.
         -3    1    6    6    0  503  0.11580546746E+03 -0.29548983722E+03  0.12718187106E+03  0.34190697349E+03  0.00000000000E+00 0.  1.
<mgrwt>
<rscale>  0 0.23036296E+04</rscale>
<asrwt>0</asrwt>
<pdfrwt beam="1">  1        1 0.17069638E+00 0.23036296E+04</pdfrwt>
<pdfrwt beam="2">  1       -1 0.18395614E+00 0.23036296E+04</pdfrwt>
<totfact> 0.21972428E+00</totfact>
</mgrwt>
</event>
<event>
12    1  0.4247462E-008  0.2667053E+04  0.7818608E-02  0.8345775E-01
          1   -1    0    0  501    0  0.00000000000E+00  0.00000000000E+00  0.19369038643E+04  0.19369038643E+04  0.00000000000E+00 0. -1.
         -1   -1    0    0    0  501 -0.00000000000E+00 -0.00000000000E+00 -0.91811115565E+03  0.91811115565E+03  0.00000000000E+00 0.  1.
         23    2    1    2    0    0 -0.14433498076E+03 -0.49348215604E+03 -0.68514841020E+03  0.86145744808E+03  0.91232482451E+02 0.  0.
        254    2    1    2    0    0  0.14433498076E+03  0.49348215604E+03  0.17039411189E+04  0.19935575719E+04  0.89805302232E+03 0.  0.
         23    2    4    4    0    0 -0.30059167965E+03 -0.53287128595E+02  0.43904203149E+03  0.54244098247E+03  0.91046351386E+02 0.  0.
         23    2    4    4    0    0  0.44492666041E+03  0.54676928463E+03  0.12648990874E+04  0.14511165894E+04  0.94091822653E+02 0.  0.
         13    1    3    3    0    0 -0.49376628341E+02 -0.66391464496E+02 -0.13782411136E+03  0.16075249191E+03  0.00000000000E+00 0. -1.
        -13    1    3    3    0    0 -0.94958352420E+02 -0.42709069154E+03 -0.54732429884E+03  0.70070495617E+03  0.00000000000E+00 0.  1.
          2    1    5    5  502    0 -0.38883152261E+01 -0.19530855052E+02  0.29421600539E+02  0.35527508674E+02  0.00000000000E+00 0. -1.
          4    1    6    6  503    0  0.41560353007E+03  0.48044209235E+03  0.11738202980E+04  0.13346928449E+04  0.00000000000E+00 0.  1.
         -2    1    5    5    0  502 -0.29670336443E+03 -0.33756273543E+02  0.40962043095E+03  0.50691347380E+03  0.00000000000E+00 0.  1.
         -4    1    6    6    0  503  0.29323130343E+02  0.66327192279E+02  0.91078789434E+02  0.11642374454E+03  0.00000000000E+00 0. -1.
<mgrwt>
<rscale>  0 0.26670531E+04</rscale>
<asrwt>0</asrwt>
<pdfrwt beam="1">  1        1 0.29798521E+00 0.26670531E+04</pdfrwt>
<pdfrwt beam="2">  1       -1 0.14124787E+00 0.26670531E+04</pdfrwt>
<totfact> 0.11791969E+00</totfact>
</mgrwt>
</event>
<event>
12    1  0.4247462E-008  0.1301794E+04  0.7818608E-02  0.9028144E-01
         -2   -1    0    0    0  501 -0.00000000000E+00  0.00000000000E+00  0.90587591173E+03  0.90587591173E+03  0.00000000000E+00 0. -1.
          2   -1    0    0  501    0  0.00000000000E+00 -0.00000000000E+00 -0.46768751852E+03  0.46768751852E+03  0.00000000000E+00 0.  1.
         23    2    1    2    0    0 -0.14467756707E+03  0.20627217456E+02  0.43968377721E+03  0.47218812393E+03  0.91009449664E+02 0.  0.
        254    2    1    2    0    0  0.14467756707E+03 -0.20627217456E+02 -0.14953840025E+01  0.90137530631E+03  0.88944821442E+03 0.  0.
         23    2    4    4    0    0 -0.29823349908E+03  0.17852398522E+03  0.14101607043E+03  0.38705937591E+03  0.95474578225E+02 0.  0.
         23    2    4    4    0    0  0.44291106615E+03 -0.19915120268E+03 -0.14251145444E+03  0.51431593040E+03  0.91542053529E+02 0.  0.
         11    1    3    3    0    0 -0.96537164596E+02 -0.17500214939E+02  0.17650741397E+03  0.20194194427E+03  0.00000000000E+00 0.  1.
        -11    1    3    3    0    0 -0.48140402476E+02  0.38127432395E+02  0.26317636324E+03  0.27024617966E+03  0.00000000000E+00 0. -1.
          2    1    5    5  502    0 -0.40805171355E+02  0.69703381662E+02  0.37096379945E+02  0.88880621225E+02  0.00000000000E+00 0. -1.
          1    1    6    6  503    0  0.43408208461E+02  0.63118765650E+01 -0.22611456241E+02  0.49349673767E+02  0.00000000000E+00 0. -1.
         -2    1    5    5    0  502 -0.25742832773E+03  0.10882060356E+03  0.10391969049E+03  0.29817875469E+03  0.00000000000E+00 0.  1.
         -1    1    6    6    0  503  0.39950285769E+03 -0.20546307924E+03 -0.11989999820E+03  0.46496625663E+03  0.00000000000E+00 0.  1.
<mgrwt>
<rscale>  0 0.13017939E+04</rscale>
<asrwt>0</asrwt>
<pdfrwt beam="1">  1        2 0.71951926E-01 0.13017939E+04</pdfrwt>
<pdfrwt beam="2">  1       -2 0.13936552E+00 0.13017939E+04</pdfrwt>
<totfact> 0.23679910E+01</totfact>
</mgrwt>
</event>
<event>
12    1  0.4247462E-008  0.1547165E+04  0.7818608E-02  0.8853681E-01
          1   -1    0    0  501    0  0.00000000000E+00  0.00000000000E+00  0.14843949536E+04  0.14843949536E+04  0.00000000000E+00 0. -1.
         -1   -1    0    0    0  501 -0.00000000000E+00 -0.00000000000E+00 -0.40314711898E+03  0.40314711898E+03  0.00000000000E+00 0.  1.
         23    2    1    2    0    0  0.24386727844E+03  0.43192547835E+03  0.22174604852E+03  0.55086217847E+03  0.90812781543E+02 0.  0.
        254    2    1    2    0    0 -0.24386727844E+03 -0.43192547835E+03  0.85950178606E+03  0.13366798941E+04  0.89551044136E+03 0.  0.
         23    2    4    4    0    0 -0.32215339272E+03 -0.54774653316E+03  0.22363205769E+03  0.67953800274E+03  0.89171334621E+02 0.  0.
         23    2    4    4    0    0  0.78286114279E+02  0.11582105480E+03  0.63586972837E+03  0.65714189132E+03  0.89229599559E+02 0.  0.
         11    1    3    3    0    0  0.13645927644E+03  0.21516170511E+03  0.66164964171E+02  0.26323657793E+03  0.00000000000E+00 0. -1.
        -11    1    3    3    0    0  0.10740800200E+03  0.21676377324E+03  0.15558108435E+03  0.28762560055E+03  0.00000000000E+00 0.  1.
          1    1    5    5  502    0 -0.26905130315E+02 -0.11283788757E+03  0.38086518469E+02  0.12209364356E+03  0.00000000000E+00 0. -1.
          3    1    6    6  503    0  0.94062981389E+00 -0.14322236296E+02  0.48913247402E+02  0.50975651132E+02  0.00000000000E+00 0. -1.
         -1    1    5    5    0  502 -0.29524826241E+03 -0.43490864558E+03  0.18554553922E+03  0.55744435918E+03  0.00000000000E+00 0.  1.
         -3    1    6    6    0  503  0.77345484465E+02  0.13014329110E+03  0.58695648097E+03  0.60616624018E+03  0.00000000000E+00 0.  1.
<mgrwt>
<rscale>  0 0.15471646E+04</rscale>
<asrwt>0</asrwt>
<pdfrwt beam="1">  1        1 0.22836845E+00 0.15471646E+04</pdfrwt>
<pdfrwt beam="2">  1       -1 0.62022635E-01 0.15471646E+04</pdfrwt>
<totfact> 0.17040771E+01</totfact>
</mgrwt>
</event>
<event>
12    1  0.4247462E-008  0.1545351E+04  0.7818608E-02  0.8854843E-01
          1   -1    0    0  501    0  0.00000000000E+00  0.00000000000E+00  0.12993448918E+04  0.12993448918E+04  0.00000000000E+00 0. -1.
         -1   -1    0    0    0  501 -0.00000000000E+00 -0.00000000000E+00 -0.45948333401E+03  0.45948333401E+03  0.00000000000E+00 0.  1.
         23    2    1    2    0    0  0.14519786699E+03  0.90133075946E+02  0.82970968827E+03  0.85208183051E+03  0.91754493699E+02 0.  0.
        254    2    1    2    0    0 -0.14519786699E+03 -0.90133075946E+02  0.10151869537E+02  0.90674639533E+03  0.89043785467E+03 0.  0.
         23    2    4    4    0    0  0.26709095597E+03 -0.64983791021E+02 -0.27235400182E+03  0.39829979297E+03  0.94369226529E+02 0.  0.
         23    2    4    4    0    0 -0.41228882296E+03 -0.25149284925E+02  0.28250587136E+03  0.50844660236E+03  0.89965660248E+02 0.  0.
         13    1    3    3    0    0  0.14507820731E+03  0.92112313943E+02  0.83170220148E+03  0.84927081461E+03  0.00000000000E+00 0. -1.
        -13    1    3    3    0    0  0.11965968755E+00 -0.19792379973E+01 -0.19925132049E+01  0.28110158951E+01  0.00000000000E+00 0.  1.
          2    1    5    5  502    0  0.21792109714E+02 -0.33194110245E+02 -0.61859769499E+02  0.73507660031E+02  0.00000000000E+00 0. -1.
          4    1    6    6  503    0 -0.41009893585E+03 -0.21551749459E+02  0.26112249627E+03  0.48665241512E+03  0.00000000000E+00 0.  1.
         -2    1    5    5    0  502  0.24529884625E+03 -0.31789680776E+02 -0.21049423232E+03  0.32479213294E+03  0.00000000000E+00 0.  1.
         -4    1    6    6    0  503 -0.21898871180E+01 -0.35975354661E+01  0.21383375090E+02  0.21794187236E+02  0.00000000000E+00 0. -1.
<mgrwt>
<rscale>  0 0.15453509E+04</rscale>
<asrwt>0</asrwt>
<pdfrwt beam="1">  1        1 0.19989921E+00 0.15453509E+04</pdfrwt>
<pdfrwt beam="2">  1       -1 0.70689744E-01 0.15453509E+04</pdfrwt>
<totfact> 0.17647287E+01</totfact>
</mgrwt>
</event>
<event>
12    1  0.4247462E-008  0.2159970E+04  0.7818608E-02  0.8535277E-01
          2   -1    0    0  501    0  0.00000000000E+00  0.00000000000E+00  0.41822161690E+04  0.41822161690E+04  0.00000000000E+00 0. -1.
         -2   -1    0    0    0  501 -0.00000000000E+00 -0.00000000000E+00 -0.27888739908E+03  0.27888739908E+03  0.00000000000E+00 0.  1.
         23    2    1    2    0    0  0.57826125508E+03  0.14819545475E+03  0.23794277274E+03  0.64909526826E+03  0.91432665108E+02 0.  0.
        254    2    1    2    0    0 -0.57826125508E+03 -0.14819545475E+03  0.36653859972E+04  0.38120082999E+04  0.86023531530E+03 0.  0.
         23    2    4    4    0    0 -0.54669119065E+03 -0.45694324516E+03  0.23551360356E+04  0.24624814439E+04  0.97369031550E+02 0.  0.
         23    2    4    4    0    0 -0.31570064429E+02  0.30874779041E+03  0.13102499617E+04  0.13495268560E+04  0.90254672470E+02 0.  0.
         13    1    3    3    0    0  0.57240160427E+03  0.14275098557E+03  0.22030167961E+03  0.62972555172E+03  0.00000000000E+00 0.  1.
        -13    1    3    3    0    0  0.58596508114E+01  0.54444691759E+01  0.17641093126E+02  0.19369716542E+02  0.00000000000E+00 0. -1.
          2    1    5    5  502    0 -0.30637215283E+03 -0.31290888223E+03  0.13711829091E+04  0.14394160048E+04  0.00000000000E+00 0. -1.
          4    1    6    6  503    0 -0.35115318430E+02  0.35617872488E+02  0.19479983752E+03  0.20111860960E+03  0.00000000000E+00 0. -1.
         -2    1    5    5    0  502 -0.24031903782E+03 -0.14403436293E+03  0.98395312645E+03  0.10230654391E+04  0.00000000000E+00 0.  1.
         -4    1    6    6    0  503  0.35452540008E+01  0.27312991792E+03  0.11154501241E+04  0.11484082464E+04  0.00000000000E+00 0.  1.
<mgrwt>
<rscale>  0 0.21599698E+04</rscale>
<asrwt>0</asrwt>
<pdfrwt beam="1">  1        2 0.64341783E+00 0.21599698E+04</pdfrwt>
<pdfrwt beam="2">  1       -2 0.42905757E-01 0.21599698E+04</pdfrwt>
<totfact> 0.11486449E+00</totfact>
</mgrwt>
</event>
<event>
12    1  0.4247462E-008  0.1552271E+04  0.7818608E-02  0.8850418E-01
         -1   -1    0    0    0  501 -0.00000000000E+00  0.00000000000E+00  0.36002243147E+03  0.36002243147E+03  0.00000000000E+00 0.  1.
          1   -1    0    0  501    0  0.00000000000E+00 -0.00000000000E+00 -0.16731916065E+04  0.16731916065E+04  0.00000000000E+00 0. -1.
         23    2    1    2    0    0 -0.17117538952E+03  0.46535600493E+03 -0.30719841380E+03  0.59033159044E+03  0.90902672875E+02 0.  0.
        254    2    1    2    0    0  0.17117538952E+03 -0.46535600493E+03 -0.10059707612E+04  0.14428824475E+04  0.90778596574E+03 0.  0.
         23    2    4    4    0    0  0.48437118647E+03 -0.41951049222E+02 -0.42400440669E+03  0.65273682912E+03  0.99550461502E+02 0.  0.
         23    2    4    4    0    0 -0.31319579694E+03 -0.42340495570E+03 -0.58196635450E+03  0.79014561836E+03  0.91004926876E+02 0.  0.
         11    1    3    3    0    0 -0.12302822515E+03  0.26406884098E+03 -0.22308500175E+03  0.36692671607E+03  0.00000000000E+00 0. -1.
        -11    1    3    3    0    0 -0.48147164371E+02  0.20128716394E+03 -0.84113412041E+02  0.22340487437E+03  0.00000000000E+00 0.  1.
          2    1    5    5  502    0  0.45220645879E+03 -0.38518316281E+02 -0.35385678392E+03  0.57549019591E+03  0.00000000000E+00 0. -1.
          1    1    6    6  503    0 -0.26544247151E+03 -0.29515597612E+03 -0.41544188611E+03  0.57460309489E+03  0.00000000000E+00 0. -1.
         -2    1    5    5    0  502  0.32164727675E+02 -0.34327329402E+01 -0.70147622770E+02  0.77246633209E+02  0.00000000000E+00 0.  1.
         -1    1    6    6    0  503 -0.47753325428E+02 -0.12824897958E+03 -0.16652446838E+03  0.21554252347E+03  0.00000000000E+00 0.  1.
<mgrwt>
<rscale>  0 0.15522713E+04</rscale>
<asrwt>0</asrwt>
<pdfrwt beam="1">  1        1 0.25741409E+00 0.15522713E+04</pdfrwt>
<pdfrwt beam="2">  1       -1 0.55388066E-01 0.15522713E+04</pdfrwt>
<totfact> 0.15782448E+01</totfact>
</mgrwt>
</event>
<event>
12    1  0.4247462E-008  0.2640391E+04  0.7818608E-02  0.8354609E-01
         -2   -1    0    0    0  501 -0.00000000000E+00  0.00000000000E+00  0.89969549210E+03  0.89969549210E+03  0.00000000000E+00 0.  1.
          2   -1    0    0  501    0  0.00000000000E+00 -0.00000000000E+00 -0.19372285694E+04  0.19372285694E+04  0.00000000000E+00 0. -1.
         23    2    1    2    0    0 -0.68849265827E+03 -0.39687727242E+03  0.45471237132E+03  0.92068622083E+03  0.96778441481E+02 0.  0.
        254    2    1    2    0    0  0.68849265827E+03  0.39687727242E+03 -0.14922454486E+04  0.19162378407E+04  0.90201844396E+03 0.  0.
         23    2    4    4    0    0  0.22365565253E+03 -0.76117669273E+02 -0.11240574252E+04  0.11522869482E+04  0.91893228206E+02 0.  0.
         23    2    4    4    0    0  0.46483700574E+03  0.47299494169E+03 -0.36818802343E+03  0.76395089247E+03  0.90889431419E+02 0.  0.
         13    1    3    3    0    0 -0.10189083519E+03 -0.82773996309E+02  0.42671475941E+02  0.13803670388E+03  0.00000000000E+00 0. -1.
        -13    1    3    3    0    0 -0.58660182308E+03 -0.31410327611E+03  0.41204089538E+03  0.78264951694E+03  0.00000000000E+00 0.  1.
          2    1    5    5  502    0  0.88552209084E+02 -0.44912004044E+02 -0.67633459225E+03  0.68358398351E+03  0.00000000000E+00 0. -1.
          4    1    6    6  503    0  0.41112950704E+03  0.37564888560E+03 -0.32413376739E+03  0.64436189830E+03  0.00000000000E+00 0. -1.
         -2    1    5    5    0  502  0.13510344345E+03 -0.31205665229E+02 -0.44772283292E+03  0.46870296467E+03  0.00000000000E+00 0.  1.
         -4    1    6    6    0  503  0.53707498693E+02  0.97346056092E+02 -0.44054256036E+02  0.11958899417E+03  0.00000000000E+00 0.  1.
<mgrwt>
<rscale>  0 0.26403907E+04</rscale>
<asrwt>0</asrwt>
<pdfrwt beam="1">  1        2 0.29803516E+00 0.26403907E+04</pdfrwt>
<pdfrwt beam="2">  1       -2 0.13841469E+00 0.26403907E+04</pdfrwt>
<totfact> 0.23616054E+00</totfact>
</mgrwt>
</event>
<event>
12    1  0.4247462E-008  0.1849276E+04  0.7818608E-02  0.8680525E-01
          2   -1    0    0  501    0  0.00000000000E+00  0.00000000000E+00  0.49178252216E+03  0.49178252216E+03  0.00000000000E+00 0. -1.
         -2   -1    0    0    0  501 -0.00000000000E+00 -0.00000000000E+00 -0.17384831332E+04  0.17384831332E+04  0.00000000000E+00 0.  1.
         23    2    1    2    0    0  0.52127152026E+03 -0.38676626765E+03 -0.76919589283E+03  0.10104916681E+04  0.90105194547E+02 0.  0.
        254    2    1    2    0    0 -0.52127152026E+03  0.38676626765E+03 -0.47750471818E+03  0.12197739872E+04  0.91571047851E+03 0.  0.
         23    2    4    4    0    0 -0.83203141211E+02  0.60206566900E+03 -0.34962243929E+03  0.70690994897E+03  0.89888783561E+02 0.  0.
         23    2    4    4    0    0 -0.43806837905E+03 -0.21529940134E+03 -0.12788227889E+03  0.51286403828E+03  0.91749155649E+02 0.  0.
         11    1    3    3    0    0  0.61960260144E+02 -0.39922314039E+02 -0.13680391111E+03  0.15539683101E+03  0.00000000000E+00 0. -1.
        -11    1    3    3    0    0  0.45931126011E+03 -0.34684395362E+03 -0.63239198172E+03  0.85509483706E+03  0.00000000000E+00 0.  1.
          2    1    5    5  502    0 -0.96319176990E+02  0.38518249954E+03 -0.23128882126E+03  0.45949696478E+03  0.00000000000E+00 0.  1.
          4    1    6    6  503    0 -0.35150259326E+03 -0.15206838925E+03 -0.13331539918E+03  0.40552664985E+03  0.00000000000E+00 0. -1.
         -2    1    5    5    0  502  0.13116035779E+02  0.21688316946E+03 -0.11833361803E+03  0.24741298419E+03  0.00000000000E+00 0. -1.
         -4    1    6    6    0  503 -0.86565785784E+02 -0.63231012087E+02  0.54331202834E+01  0.10733738843E+03  0.00000000000E+00 0.  1.
<mgrwt>
<rscale>  0 0.18492762E+04</rscale>
<asrwt>0</asrwt>
<pdfrwt beam="1">  1        2 0.75658849E-01 0.18492762E+04</pdfrwt>
<pdfrwt beam="2">  1       -2 0.26745895E+00 0.18492762E+04</pdfrwt>
<totfact> 0.29664450E+00</totfact>
</mgrwt>
</event>
<event>
12    1  0.4247462E-008  0.2794676E+04  0.7818608E-02  0.8304923E-01
         -2   -1    0    0    0  501 -0.00000000000E+00  0.00000000000E+00  0.86913706601E+03  0.86913706601E+03  0.00000000000E+00 0.  1.
          2   -1    0    0  501    0  0.00000000000E+00 -0.00000000000E+00 -0.22465424970E+04  0.22465424970E+04  0.00000000000E+00 0. -1.
         23    2    1    2    0    0  0.82032697501E+03  0.20308695919E+03 -0.16561589221E+04  0.18615965450E+04  0.92188187860E+02 0.  0.
        254    2    1    2    0    0 -0.82032697501E+03 -0.20308695919E+03  0.27875349116E+03  0.12540830180E+04  0.88365154235E+03 0.  0.
         23    2    4    4    0    0 -0.47022625944E+03  0.49532628747E+02 -0.26737347526E+03  0.55075150900E+03  0.90952916466E+02 0.  0.
         23    2    4    4    0    0 -0.35010071557E+03 -0.25261958794E+03  0.54612696643E+03  0.70333150901E+03  0.10016676524E+03 0.  0.
         13    1    3    3    0    0  0.30198745932E+03  0.11306086127E+03 -0.57556280084E+03  0.65973610000E+03  0.00000000000E+00 0.  1.
        -13    1    3    3    0    0  0.51833951569E+03  0.90026097919E+02 -0.10805961213E+04  0.12018604450E+04  0.00000000000E+00 0. -1.
          2    1    5    5  502    0 -0.36765346404E+03  0.51952490914E+02 -0.24752643409E+03  0.44624821176E+03  0.00000000000E+00 0. -1.
          4    1    6    6  503    0 -0.22959670657E+03 -0.22084564824E+03  0.39260234380E+03  0.50559276930E+03  0.00000000000E+00 0. -1.
         -2    1    5    5    0  502 -0.10257279540E+03 -0.24198621676E+01 -0.19847041175E+02  0.10450329723E+03  0.00000000000E+00 0.  1.
         -4    1    6    6    0  503 -0.12050400900E+03 -0.31773939698E+02  0.15352462263E+03  0.19773873971E+03  0.00000000000E+00 0.  1.
<mgrwt>
<rscale>  0 0.27946759E+04</rscale>
<asrwt>0</asrwt>
<pdfrwt beam="1">  1        2 0.34562192E+00 0.27946759E+04</pdfrwt>
<pdfrwt beam="2">  1       -2 0.13371339E+00 0.27946759E+04</pdfrwt>
<totfact> 0.17106457E+00</totfact>
</mgrwt>
</event>
<event>
12    1  0.4247462E-008  0.2035581E+04  0.7818608E-02  0.8590164E-01
         -1   -1    0    0    0  501 -0.00000000000E+00  0.00000000000E+00  0.51468727535E+03  0.51468727535E+03  0.00000000000E+00 0. -1.
          1   -1    0    0  501    0  0.00000000000E+00 -0.00000000000E+00 -0.20126732675E+04  0.20126732675E+04  0.00000000000E+00 0.  1.
         23    2    1    2    0    0  0.70619081348E+03 -0.38192001332E+03 -0.41013998816E+03  0.90631110844E+03  0.92825932709E+02 0.  0.
        254    2    1    2    0    0 -0.70619081348E+03  0.38192001332E+03 -0.10878460040E+04  0.16210494344E+04  0.89432878673E+03 0.  0.
         23    2    4    4    0    0 -0.66280826554E+03  0.61776027123E+03 -0.99125510499E+03  0.13460338518E+04  0.90982950927E+02 0.  0.
         23    2    4    4    0    0 -0.43382547937E+02 -0.23584025791E+03 -0.96590898981E+02  0.27501558262E+03  0.93814157797E+02 0.  0.
         11    1    3    3    0    0  0.69777940601E+03 -0.38714284896E+03 -0.40215077539E+03  0.89358879307E+03  0.00000000000E+00 0.  1.
        -11    1    3    3    0    0  0.84114074712E+01  0.52228356436E+01 -0.79892127666E+01  0.12722315372E+02  0.00000000000E+00 0. -1.
          3    1    6    6  502    0  0.25764518056E+01 -0.16243728955E+03 -0.95411998857E+02  0.18840371723E+03  0.00000000000E+00 0. -1.
          3    1    5    5  503    0 -0.58175646559E+03  0.57262009769E+03 -0.86493239408E+03  0.11893033288E+04  0.00000000000E+00 0. -1.
         -3    1    5    5    0  503 -0.81051799951E+02  0.45140173540E+02 -0.12632271091E+03  0.15673052298E+03  0.00000000000E+00 0.  1.
         -3    1    6    6    0  502 -0.45958999742E+02 -0.73402968358E+02 -0.11789001239E+01  0.86611865391E+02  0.00000000000E+00 0.  1.
<mgrwt>
<rscale>  0 0.20355808E+04</rscale>
<asrwt>0</asrwt>
<pdfrwt beam="1">  1        1 0.30964204E+00 0.20355808E+04</pdfrwt>
<pdfrwt beam="2">  1       -1 0.79182657E-01 0.20355808E+04</pdfrwt>
<totfact> 0.43074754E+00</totfact>
</mgrwt>
</event>
<event>
12    1  0.4247462E-008  0.1790826E+04  0.7818608E-02  0.8711193E-01
         -1   -1    0    0    0  501 -0.00000000000E+00  0.00000000000E+00  0.43913874021E+03  0.43913874021E+03  0.00000000000E+00 0.  1.
          1   -1    0    0  501    0  0.00000000000E+00 -0.00000000000E+00 -0.18257654364E+04  0.18257654364E+04  0.00000000000E+00 0. -1.
         23    2    1    2    0    0 -0.21101223010E+03  0.20511271609E+03  0.23493695161E+03  0.38856650448E+03  0.95870587868E+02 0.  0.
        254    2    1    2    0    0  0.21101223010E+03 -0.20511271609E+03 -0.16215636478E+04  0.18763376722E+04  0.89698216733E+03 0.  0.
         23    2    4    4    0    0  0.44468246957E+03 -0.16240077830E+03 -0.39488325454E+03  0.62309286354E+03  0.90528560955E+02 0.  0.
         23    2    4    4    0    0 -0.23367023947E+03 -0.42711937791E+02 -0.12266803933E+04  0.12532448086E+04  0.97219713160E+02 0.  0.
         13    1    3    3    0    0 -0.88197941591E+02  0.13228301485E+03  0.80394024391E+02  0.17815968140E+03  0.00000000000E+00 0. -1.
        -13    1    3    3    0    0 -0.12281428851E+03  0.72829701234E+02  0.15454292721E+03  0.21040682307E+03  0.00000000000E+00 0.  1.
          2    1    5    5  502    0  0.20314687103E+03 -0.36145562744E+02 -0.20547718441E+03  0.29119757249E+03  0.00000000000E+00 0. -1.
          1    1    6    6  503    0 -0.18093239137E+03 -0.73848007357E+02 -0.93515520602E+03  0.95535612093E+03  0.00000000000E+00 0. -1.
         -2    1    5    5    0  502  0.24153559855E+03 -0.12625521555E+03 -0.18940607013E+03  0.33189529105E+03  0.00000000000E+00 0.  1.
         -1    1    6    6    0  503 -0.52737848105E+02  0.31136069566E+02 -0.29152518728E+03  0.29788868771E+03  0.00000000000E+00 0.  1.
<mgrwt>
<rscale>  0 0.17908259E+04</rscale>
<asrwt>0</asrwt>
<pdfrwt beam="1">  1        1 0.28088698E+00 0.17908259E+04</pdfrwt>
<pdfrwt beam="2">  1       -1 0.67559808E-01 0.17908259E+04</pdfrwt>
<totfact> 0.81986165E+00</totfact>
</mgrwt>
</event>
<event>
12    1  0.4247462E-008  0.1297752E+04  0.7818608E-02  0.9031350E-01
         -2   -1    0    0    0  501 -0.00000000000E+00  0.00000000000E+00  0.11020467614E+04  0.11020467614E+04  0.00000000000E+00 0.  1.
          2   -1    0    0  501    0  0.00000000000E+00 -0.00000000000E+00 -0.38205276424E+03  0.38205276424E+03  0.00000000000E+00 0. -1.
         23    2    1    2    0    0 -0.16101109082E+02 -0.98404741220E+02  0.54375469074E+03  0.56124062336E+03  0.96845933274E+02 0.  0.
        254    2    1    2    0    0  0.16101109082E+02  0.98404741220E+02  0.17623930641E+03  0.92285890228E+03  0.90036965829E+03 0.  0.
         23    2    4    4    0    0  0.36304488050E+03 -0.13876144607E+03  0.27128534092E+03  0.48345444182E+03  0.95268761681E+02 0.  0.
         23    2    4    4    0    0 -0.34694377141E+03  0.23716618728E+03 -0.95046034511E+02  0.43940446045E+03  0.86166990638E+02 0.  0.
         11    1    3    3    0    0  0.62107040248E+01  0.18119211461E+02  0.53197832156E+02  0.56541029479E+02  0.00000000000E+00 0. -1.
        -11    1    3    3    0    0 -0.22311813107E+02 -0.11652395268E+03  0.49055685859E+03  0.50469959388E+03  0.00000000000E+00 0.  1.
          4    1    5    5  502    0  0.13071714615E+02 -0.69726590733E+01 -0.78818711584E+01  0.16781286914E+02  0.00000000000E+00 0.  1.
          3    1    6    6  503    0 -0.23254542850E+03  0.12886708730E+03 -0.25109652603E+02  0.26704793046E+03  0.00000000000E+00 0. -1.
         -4    1    5    5    0  502  0.34997316588E+03 -0.13178878699E+03  0.27916721208E+03  0.46667315491E+03  0.00000000000E+00 0. -1.
         -3    1    6    6    0  503 -0.11439834291E+03  0.10829909998E+03 -0.69936381908E+02  0.17235653000E+03  0.00000000000E+00 0.  1.
<mgrwt>
<rscale>  0 0.12977519E+04</rscale>
<asrwt>0</asrwt>
<pdfrwt beam="1">  1        2 0.58777349E-01 0.12977519E+04</pdfrwt>
<pdfrwt beam="2">  1       -2 0.16954565E+00 0.12977519E+04</pdfrwt>
<totfact> 0.17607492E+01</totfact>
</mgrwt>
</event>
<event>
12    1  0.4247462E-008  0.1430229E+04  0.7818608E-02  0.8932224E-01
          2   -1    0    0  501    0  0.00000000000E+00  0.00000000000E+00  0.74710790960E+03  0.74710790960E+03  0.00000000000E+00 0. -1.
         -2   -1    0    0    0  501 -0.00000000000E+00 -0.00000000000E+00 -0.68449071405E+03  0.68449071405E+03  0.00000000000E+00 0.  1.
         23    2    1    2    0    0 -0.33429961630E+03 -0.26882392509E+02 -0.28107972680E+03  0.44716205156E+03  0.92028207899E+02 0.  0.
        254    2    1    2    0    0  0.33429961630E+03  0.26882392509E+02  0.34369692235E+03  0.98443657209E+03  0.85936540165E+03 0.  0.
         23    2    4    4    0    0 -0.46922411044E+02  0.99236721296E+02 -0.23851832444E+03  0.27895877795E+03  0.94219791946E+02 0.  0.
         23    2    4    4    0    0  0.38122202734E+03 -0.72354328787E+02  0.58221524678E+03  0.70547779414E+03  0.90326858725E+02 0.  0.
         11    1    3    3    0    0 -0.29040356073E+03 -0.45254498592E+02 -0.20842054025E+03  0.36030725683E+03  0.00000000000E+00 0. -1.
        -11    1    3    3    0    0 -0.43896055570E+02  0.18372106083E+02 -0.72659186551E+02  0.86854794726E+02  0.00000000000E+00 0.  1.
          3    1    5    5  502    0 -0.61618141109E+02  0.10491365014E+03 -0.23188124074E+03  0.26186366511E+03  0.00000000000E+00 0. -1.
          3    1    6    6  503    0  0.23324467747E+03 -0.58711933474E+02  0.43034048486E+03  0.49299401985E+03  0.00000000000E+00 0. -1.
         -3    1    5    5    0  502  0.14695730065E+02 -0.56769288395E+01 -0.66370836993E+01  0.17095112846E+02  0.00000000000E+00 0.  1.
         -3    1    6    6    0  503  0.14797734987E+03 -0.13642395313E+02  0.15187476192E+03  0.21248377428E+03  0.00000000000E+00 0.  1.
<mgrwt>
<rscale>  0 0.14302286E+04</rscale>
<asrwt>0</asrwt>
<pdfrwt beam="1">  1        2 0.11493968E+00 0.14302286E+04</pdfrwt>
<pdfrwt beam="2">  1       -2 0.10530626E+00 0.14302286E+04</pdfrwt>
<totfact> 0.26722207E+01</totfact>
</mgrwt>
</event>
<event>
12    1  0.4247462E-008  0.2078613E+04  0.7818608E-02  0.8570724E-01
         -2   -1    0    0    0  501 -0.00000000000E+00  0.00000000000E+00  0.21470423619E+04  0.21470423619E+04  0.00000000000E+00 0.  1.
          2   -1    0    0  501    0  0.00000000000E+00 -0.00000000000E+00 -0.50309097843E+03  0.50309097843E+03  0.00000000000E+00 0. -1.
         23    2    1    2    0    0 -0.53578126068E+03 -0.47302920281E+03  0.12583474287E+04  0.14499817689E+04  0.90502446505E+02 0.  0.
        254    2    1    2    0    0  0.53578126068E+03  0.47302920281E+03  0.38560395477E+03  0.12001515714E+04  0.88366011480E+03 0.  0.
         23    2    4    4    0    0  0.30289053105E+03  0.66368990795E+03  0.47243537496E+03  0.87391362058E+03  0.91120058221E+02 0.  0.
         23    2    4    4    0    0  0.23289072962E+03 -0.19066070514E+03 -0.86831420189E+02  0.32623795086E+03  0.91114810089E+02 0.  0.
         13    1    3    3    0    0 -0.60603118785E+02 -0.80495467556E+02  0.22954762822E+03  0.25068779772E+03  0.00000000000E+00 0. -1.
        -13    1    3    3    0    0 -0.47517814189E+03 -0.39253373525E+03  0.10287998005E+04  0.11992939712E+04  0.00000000000E+00 0.  1.
          4    1    5    5  502    0  0.42343078194E+02  0.14379423798E+03  0.62432273199E+02  0.16238074974E+03  0.00000000000E+00 0. -1.
          1    1    6    6  503    0  0.87104414073E+02 -0.29966650193E+02  0.11126847589E+01  0.92121751732E+02  0.00000000000E+00 0. -1.
         -4    1    5    5    0  502  0.26054745286E+03  0.51989566996E+03  0.41000310176E+03  0.71153287084E+03  0.00000000000E+00 0.  1.
         -1    1    6    6    0  503  0.14578631555E+03 -0.16069405495E+03 -0.87944104948E+02  0.23411619913E+03  0.00000000000E+00 0.  1.
<mgrwt>
<rscale>  0 0.20786127E+04</rscale>
<asrwt>0</asrwt>
<pdfrwt beam="1">  1        2 0.77398613E-01 0.20786127E+04</pdfrwt>
<pdfrwt beam="2">  1       -2 0.33031420E+00 0.20786127E+04</pdfrwt>
<totfact> 0.11681981E+00</totfact>
</mgrwt>
</event>
<event>
12    1  0.4247462E-008  0.2888020E+04  0.7818608E-02  0.8276451E-01
         -2   -1    0    0    0  501 -0.00000000000E+00  0.00000000000E+00  0.11177644603E+04  0.11177644603E+04  0.00000000000E+00 0.  1.
          2   -1    0    0  501    0  0.00000000000E+00 -0.00000000000E+00 -0.18654774608E+04  0.18654774608E+04  0.00000000000E+00 0. -1.
         23    2    1    2    0    0 -0.11451005478E+04 -0.34651956836E+02  0.30101537235E+03  0.11880343827E+04  0.91429849005E+02 0.  0.
        254    2    1    2    0    0  0.11451005478E+04  0.34651956836E+02 -0.10487283729E+04  0.17952075384E+04  0.90026822839E+03 0.  0.
         23    2    4    4    0    0 -0.13068470031E+03 -0.57822574381E+02 -0.17267482327E+03  0.24211863072E+03  0.91558155008E+02 0.  0.
         23    2    4    4    0    0  0.12757852482E+04  0.92474531217E+02 -0.87605354964E+03  0.15530889077E+04  0.91846584075E+02 0.  0.
         13    1    3    3    0    0 -0.84746447111E+03 -0.47514871638E+02  0.25725412554E+03  0.88692354683E+03  0.00000000000E+00 0. -1.
        -13    1    3    3    0    0 -0.29763607673E+03  0.12862914801E+02  0.43761246811E+02  0.30111083586E+03  0.00000000000E+00 0.  1.
          1    1    5    5  502    0 -0.85053224673E+01 -0.45696076171E+02 -0.55579068047E+02  0.72453465705E+02  0.00000000000E+00 0. -1.
          3    1    6    6  503    0  0.32614241571E+03  0.51923557761E+02 -0.19179657112E+03  0.38190424961E+03  0.00000000000E+00 0. -1.
         -1    1    5    5    0  502 -0.12217937785E+03 -0.12126498210E+02 -0.11709575522E+03  0.16966516502E+03  0.00000000000E+00 0.  1.
         -3    1    6    6    0  503  0.94964283244E+03  0.40550973456E+02 -0.68425697852E+03  0.11711846581E+04  0.00000000000E+00 0.  1.
<mgrwt>
<rscale>  0 0.28880197E+04</rscale>
<asrwt>0</asrwt>
<pdfrwt beam="1">  1        2 0.28699653E+00 0.28880197E+04</pdfrwt>
<pdfrwt beam="2">  1       -2 0.17196376E+00 0.28880197E+04</pdfrwt>
<totfact> 0.14152842E+00</totfact>
</mgrwt>
</event>
<event>
12    1  0.4247462E-008  0.2109194E+04  0.7818608E-02  0.8557204E-01
          2   -1    0    0  501    0  0.00000000000E+00  0.00000000000E+00  0.34026516525E+04  0.34026516525E+04  0.00000000000E+00 0.  1.
         -2   -1    0    0    0  501 -0.00000000000E+00 -0.00000000000E+00 -0.32685526321E+03  0.32685526321E+03  0.00000000000E+00 0. -1.
         23    2    1    2    0    0  0.77782131874E+03  0.35495635576E+03  0.14267427792E+04  0.16659020629E+04  0.92923122000E+02 0.  0.
        254    2    1    2    0    0 -0.77782131874E+03 -0.35495635576E+03  0.16490536101E+04  0.20636048529E+04  0.89893668378E+03 0.  0.
         23    2    4    4    0    0 -0.83302624229E+03 -0.50321375618E+03  0.10389302906E+04  0.14264815290E+04  0.91195390091E+02 0.  0.
         23    2    4    4    0    0  0.55204923546E+02  0.14825740041E+03  0.61012331950E+03  0.63712332385E+03  0.92993679563E+02 0.  0.
         13    1    3    3    0    0  0.35467101172E+02  0.26968627890E+02  0.11576406390E+03  0.12404249533E+03  0.00000000000E+00 0. -1.
        -13    1    3    3    0    0  0.74235421757E+03  0.32798772787E+03  0.13109787153E+04  0.15418595675E+04  0.00000000000E+00 0.  1.
          1    1    6    6  502    0  0.30419818416E+02  0.95130847050E+02  0.20785327295E+03  0.23060404699E+03  0.00000000000E+00 0. -1.
          1    1    5    5  503    0 -0.55189282621E+03 -0.31889128344E+03  0.73956311615E+03  0.97633546747E+03  0.00000000000E+00 0. -1.
         -1    1    5    5    0  503 -0.28113341608E+03 -0.18432247274E+03  0.29936717445E+03  0.45014606156E+03  0.00000000000E+00 0.  1.
         -1    1    6    6    0  502  0.24785105130E+02  0.53126553364E+02  0.40227004655E+03  0.40651927686E+03  0.00000000000E+00 0.  1.
<mgrwt>
<rscale>  0 0.21091938E+04</rscale>
<asrwt>0</asrwt>
<pdfrwt beam="1">  1        2 0.52348484E+00 0.21091938E+04</pdfrwt>
<pdfrwt beam="2">  1       -2 0.50285428E-01 0.21091938E+04</pdfrwt>
<totfact> 0.32827262E+00</totfact>
</mgrwt>
</event>
<event>
12    1  0.4247462E-008  0.1572600E+04  0.7818608E-02  0.8837560E-01
          2   -1    0    0  501    0  0.00000000000E+00  0.00000000000E+00  0.19238651074E+04  0.19238651074E+04  0.00000000000E+00 0. -1.
         -2   -1    0    0    0  501 -0.00000000000E+00 -0.00000000000E+00 -0.32136736518E+03  0.32136736518E+03  0.00000000000E+00 0.  1.
         23    2    1    2    0    0 -0.21051169647E+03 -0.46336479466E+03  0.38405810441E+03  0.64408860195E+03  0.91254546825E+02 0.  0.
        254    2    1    2    0    0  0.21051169647E+03  0.46336479466E+03  0.12184396378E+04  0.16011438706E+04  0.90556304924E+03 0.  0.
         23    2    4    4    0    0  0.88224410811E+01 -0.88642308666E+02  0.93303722819E+03  0.94160255446E+03  0.90119959075E+02 0.  0.
         23    2    4    4    0    0  0.20168925539E+03  0.55200710333E+03  0.28540240958E+03  0.65954131613E+03  0.90276322579E+02 0.  0.
         11    1    3    3    0    0 -0.98309862933E+02 -0.30665798857E+03  0.26917395559E+03  0.41971248429E+03  0.00000000000E+00 0. -1.
        -11    1    3    3    0    0 -0.11220183354E+03 -0.15670680609E+03  0.11488414882E+03  0.22437611766E+03  0.00000000000E+00 0.  1.
          2    1    5    5  502    0 -0.15678953142E+02 -0.94636200824E+02  0.60086333192E+03  0.60847233604E+03  0.00000000000E+00 0. -1.
          3    1    6    6  503    0  0.19379971123E+03  0.55003028556E+03  0.27114288774E+03  0.64312526670E+03  0.00000000000E+00 0. -1.
         -2    1    5    5    0  502  0.24501394223E+02  0.59938921576E+01  0.33217389627E+03  0.33313021842E+03  0.00000000000E+00 0.  1.
         -3    1    6    6    0  503  0.78895441632E+01  0.19768177742E+01  0.14259521838E+02  0.16416049423E+02  0.00000000000E+00 0.  1.
<mgrwt>
<rscale>  0 0.15725997E+04</rscale>
<asrwt>0</asrwt>
<pdfrwt beam="1">  1        2 0.29597924E+00 0.15725997E+04</pdfrwt>
<pdfrwt beam="2">  1       -2 0.49441134E-01 0.15725997E+04</pdfrwt>
<totfact> 0.27407560E+01</totfact>
</mgrwt>
</event>
<event>
12    1  0.4247462E-008  0.2388718E+04  0.7818608E-02  0.8443740E-01
          1   -1    0    0  501    0  0.00000000000E+00  0.00000000000E+00  0.44504757472E+03  0.44504757472E+03  0.00000000000E+00 0. -1.
         -1   -1    0    0    0  501 -0.00000000000E+00 -0.00000000000E+00 -0.32052594735E+04  0.32052594735E+04  0.00000000000E+00 0.  1.
         23    2    1    2    0    0  0.67462700507E+03  0.45241632165E+03 -0.24205046626E+03  0.85225215587E+03  0.89124547145E+02 0.  0.
        254    2    1    2    0    0 -0.67462700507E+03 -0.45241632165E+03 -0.25181614325E+04  0.27980548923E+04  0.91003959050E+03 0.  0.
         23    2    4    4    0    0 -0.82736587652E+03 -0.17364197004E+03 -0.20949485169E+04  0.22609343877E+04  0.91264395165E+02 0.  0.
         23    2    4    4    0    0  0.15273887145E+03 -0.27877435161E+03 -0.42321291562E+03  0.53712050460E+03  0.91350766535E+02 0.  0.
         11    1    3    3    0    0  0.58967972048E+03  0.36027651768E+03 -0.19108149743E+03  0.71696128250E+03  0.00000000000E+00 0. -1.
        -11    1    3    3    0    0  0.84947284582E+02  0.92139803964E+02 -0.50968968831E+02  0.13529087337E+03  0.00000000000E+00 0.  1.
          3    1    5    5  502    0 -0.59932265786E+03 -0.11097197199E+03 -0.16066391015E+04  0.17183688863E+04  0.00000000000E+00 0. -1.
          3    1    6    6  503    0  0.12944389945E+02 -0.11285806229E+03 -0.13699079661E+03  0.17796341706E+03  0.00000000000E+00 0. -1.
         -3    1    5    5    0  502 -0.22804321866E+03 -0.62669998050E+02 -0.48830941541E+03  0.54256550149E+03  0.00000000000E+00 0.  1.
         -3    1    6    6    0  503  0.13979448151E+03 -0.16591628932E+03 -0.28622211901E+03  0.35915708755E+03  0.00000000000E+00 0.  1.
<mgrwt>
<rscale>  0 0.23887176E+04</rscale>
<asrwt>0</asrwt>
<pdfrwt beam="1">  1        1 0.68468858E-01 0.23887176E+04</pdfrwt>
<pdfrwt beam="2">  1       -1 0.49311684E+00 0.23887176E+04</pdfrwt>
<totfact> 0.76766306E-02</totfact>
</mgrwt>
</event>
<event>
12    1  0.4247462E-008  0.1516893E+04  0.7818608E-02  0.8873296E-01
         -2   -1    0    0    0  501 -0.00000000000E+00  0.00000000000E+00  0.17668396234E+03  0.17668396234E+03  0.00000000000E+00 0.  1.
          2   -1    0    0  501    0  0.00000000000E+00 -0.00000000000E+00 -0.32557621637E+04  0.32557621637E+04  0.00000000000E+00 0. -1.
         23    2    1    2    0    0 -0.19256770813E+03  0.42428337068E+03 -0.68967293016E+03  0.83735959320E+03  0.91780373106E+02 0.  0.
        254    2    1    2    0    0  0.19256770813E+03 -0.42428337068E+03 -0.23894052712E+04  0.25950865329E+04  0.89895375968E+03 0.  0.
         23    2    4    4    0    0 -0.25727276262E+03  0.11067936892E+03 -0.52200948440E+03  0.59908592442E+03  0.89279594178E+02 0.  0.
         23    2    4    4    0    0  0.44984047074E+03 -0.53496273960E+03 -0.18673957868E+04  0.19960006085E+04  0.91158227352E+02 0.  0.
         13    1    3    3    0    0 -0.32279630597E+00  0.83932735104E+02 -0.11663034554E+03  0.14369219088E+03  0.00000000000E+00 0. -1.
        -13    1    3    3    0    0 -0.19224491182E+03  0.34035063558E+03 -0.57304258462E+03  0.69366740232E+03  0.00000000000E+00 0.  1.
          2    1    5    5  502    0 -0.24090201419E+02 -0.44715450237E+00 -0.10970509450E+02  0.26474323960E+02  0.00000000000E+00 0.  1.
          1    1    6    6  503    0  0.25381013587E+03 -0.33592476356E+03 -0.12302635815E+04  0.13003128515E+04  0.00000000000E+00 0. -1.
         -2    1    5    5    0  502 -0.23318256120E+03  0.11112652342E+03 -0.51103897495E+03  0.57261160046E+03  0.00000000000E+00 0. -1.
         -1    1    6    6    0  503  0.19603033487E+03 -0.19903797604E+03 -0.63713220536E+03  0.69568775698E+03  0.00000000000E+00 0.  1.
<mgrwt>
<rscale>  0 0.15168928E+04</rscale>
<asrwt>0</asrwt>
<pdfrwt beam="1">  1        2 0.50088651E+00 0.15168928E+04</pdfrwt>
<pdfrwt beam="2">  1       -2 0.27182147E-01 0.15168928E+04</pdfrwt>
<totfact> 0.14304948E+01</totfact>
</mgrwt>
</event>
<event>
12    1  0.4247462E-008  0.1813462E+04  0.7818608E-02  0.8699173E-01
          2   -1    0    0  501    0  0.00000000000E+00  0.00000000000E+00  0.12159168185E+04  0.12159168185E+04  0.00000000000E+00 0. -1.
         -2   -1    0    0    0  501 -0.00000000000E+00 -0.00000000000E+00 -0.67616548257E+03  0.67616548257E+03  0.00000000000E+00 0.  1.
         23    2    1    2    0    0 -0.16248123842E+03  0.54883754899E+03  0.57076997248E+03  0.81344084379E+03  0.91021079153E+02 0.  0.
        254    2    1    2    0    0  0.16248123842E+03 -0.54883754899E+03 -0.31018636567E+02  0.10786414573E+04  0.91371901014E+03 0.  0.
         23    2    4    4    0    0  0.46059274097E+02  0.43391265805E+02 -0.36594963108E+03  0.38231882547E+03  0.90798089969E+02 0.  0.
         23    2    4    4    0    0  0.11642196432E+03 -0.59222881479E+03  0.33493099452E+03  0.69632263179E+03  0.91637293744E+02 0.  0.
         13    1    3    3    0    0 -0.86292069741E+02  0.15030576794E+03  0.15539109835E+03  0.23277572601E+03  0.00000000000E+00 0.  1.
        -13    1    3    3    0    0 -0.76189168675E+02  0.39853178105E+03  0.41537887413E+03  0.58066511778E+03  0.00000000000E+00 0. -1.
          3    1    6    6  502    0  0.73339440997E+02 -0.18227642821E+03  0.13340484696E+03  0.23748731141E+03  0.00000000000E+00 0. -1.
          3    1    5    5  503    0  0.14216366232E+02  0.27992388743E+02 -0.26652280107E+02  0.41182798974E+02  0.00000000000E+00 0. -1.
         -3    1    5    5    0  503  0.31842907865E+02  0.15398877062E+02 -0.33929735098E+03  0.34113602650E+03  0.00000000000E+00 0.  1.
         -3    1    6    6    0  502  0.43082523323E+02 -0.40995238658E+03  0.20152614756E+03  0.45883532038E+03  0.00000000000E+00 0.  1.
<mgrwt>
<rscale>  0 0.18134619E+04</rscale>
<asrwt>0</asrwt>
<pdfrwt beam="1">  1        2 0.18706412E+00 0.18134619E+04</pdfrwt>
<pdfrwt beam="2">  1       -2 0.10402546E+00 0.18134619E+04</pdfrwt>
<totfact> 0.13139065E+01</totfact>
</mgrwt>
</event>
<event>
12    1  0.4247462E-008  0.1950769E+04  0.7818608E-02  0.8629990E-01
          2   -1    0    0  501    0  0.00000000000E+00  0.00000000000E+00  0.14168569547E+04  0.14168569547E+04  0.00000000000E+00 0. -1.
         -2   -1    0    0    0  501 -0.00000000000E+00 -0.00000000000E+00 -0.67146838626E+03  0.67146838626E+03  0.00000000000E+00 0.  1.
         23    2    1    2    0    0  0.28881786470E+03 -0.35486472379E+03  0.93435006397E+03  0.10443103753E+04  0.90715967929E+02 0.  0.
        254    2    1    2    0    0 -0.28881786470E+03  0.35486472379E+03 -0.18896149554E+03  0.10440149656E+04  0.91919316276E+03 0.  0.
         23    2    4    4    0    0 -0.52603628656E+03  0.20628633740E+02 -0.29652038316E+03  0.61085091991E+03  0.89859854349E+02 0.  0.
         23    2    4    4    0    0  0.23721842186E+03  0.33423609005E+03  0.10755888762E+03  0.43316404570E+03  0.89865636489E+02 0.  0.
         13    1    3    3    0    0  0.21278740556E+03 -0.21914892100E+03  0.54034032735E+03  0.62070314878E+03  0.00000000000E+00 0. -1.
        -13    1    3    3    0    0  0.76030459141E+02 -0.13571580279E+03  0.39400973662E+03  0.42360722656E+03  0.00000000000E+00 0.  1.
          4    1    5    5  502    0 -0.35563925657E+03  0.23310042392E+02 -0.24615745141E+03  0.43314677624E+03  0.00000000000E+00 0. -1.
          1    1    6    6  503    0  0.89526336674E+00  0.49019113011E+02  0.16554397822E+02  0.51746719936E+02  0.00000000000E+00 0. -1.
         -4    1    5    5    0  502 -0.17039702999E+03 -0.26814086516E+01 -0.50362931752E+02  0.17770414367E+03  0.00000000000E+00 0.  1.
         -1    1    6    6    0  503  0.23632315849E+03  0.28521697704E+03  0.91004489793E+02  0.38141732577E+03  0.00000000000E+00 0.  1.
<mgrwt>
<rscale>  0 0.19507687E+04</rscale>
<asrwt>0</asrwt>
<pdfrwt beam="1">  1        2 0.21797799E+00 0.19507687E+04</pdfrwt>
<pdfrwt beam="2">  1       -2 0.10330283E+00 0.19507687E+04</pdfrwt>
<totfact> 0.10092146E+01</totfact>
</mgrwt>
</event>
<event>
12    1  0.4247462E-008  0.2212395E+04  0.7818608E-02  0.8513287E-01
         -2   -1    0    0    0  501 -0.00000000000E+00  0.00000000000E+00  0.96095433131E+03  0.96095433131E+03  0.00000000000E+00 0.  1.
          2   -1    0    0  501    0  0.00000000000E+00 -0.00000000000E+00 -0.12733934756E+04  0.12733934756E+04  0.00000000000E+00 0. -1.
         23    2    1    2    0    0  0.36174494441E+03 -0.79094709821E+03 -0.43459929808E+03  0.97663009214E+03  0.92049280238E+02 0.  0.
        254    2    1    2    0    0 -0.36174494441E+03  0.79094709821E+03  0.12216015376E+03  0.12577177148E+04  0.90026331150E+03 0.  0.
         23    2    4    4    0    0  0.14899753348E+03 -0.10627127518E+03  0.87537625523E+02  0.22173545312E+03  0.89498192025E+02 0.  0.
         23    2    4    4    0    0 -0.51074247789E+03  0.89721837339E+03  0.34622528236E+02  0.10359822617E+04  0.78751754391E+02 0.  0.
         11    1    3    3    0    0  0.31004640656E+03 -0.62968018195E+03 -0.31508133167E+03  0.76935177346E+03  0.00000000000E+00 0. -1.
        -11    1    3    3    0    0  0.51698537851E+02 -0.16126691626E+03 -0.11951796641E+03  0.20727831867E+03  0.00000000000E+00 0.  1.
          4    1    5    5  502    0  0.37569885261E+02 -0.20823029254E+02  0.67336760901E+02  0.79870734280E+02  0.00000000000E+00 0. -1.
          3    1    6    6  503    0 -0.40288486285E+02  0.11713653960E+03 -0.69926455405E+01  0.12406864281E+03  0.00000000000E+00 0. -1.
         -4    1    5    5    0  502  0.11142764822E+03 -0.85448245926E+02  0.20200864622E+02  0.14186471884E+03  0.00000000000E+00 0.  1.
         -3    1    6    6    0  503 -0.47045399160E+03  0.78008183379E+03  0.41615173777E+02  0.91191361889E+03  0.00000000000E+00 0.  1.
<mgrwt>
<rscale>  0 0.22123951E+04</rscale>
<asrwt>0</asrwt>
<pdfrwt beam="1">  1        2 0.19590669E+00 0.22123951E+04</pdfrwt>
<pdfrwt beam="2">  1       -2 0.14783913E+00 0.22123951E+04</pdfrwt>
<totfact> 0.48722325E+00</totfact>
</mgrwt>
</event>
<event>
12    1  0.4247462E-008  0.2691625E+04  0.7818608E-02  0.8337727E-01
          2   -1    0    0  501    0  0.00000000000E+00  0.00000000000E+00  0.25162259204E+04  0.25162259204E+04  0.00000000000E+00 0. -1.
         -2   -1    0    0    0  501 -0.00000000000E+00 -0.00000000000E+00 -0.71981290834E+03  0.71981290834E+03  0.00000000000E+00 0.  1.
         23    2    1    2    0    0 -0.95790383239E+02  0.25230052914E+03 -0.59782165768E+03  0.66194780931E+03  0.89178547488E+02 0.  0.
        254    2    1    2    0    0  0.95790383239E+02 -0.25230052914E+03  0.23942346698E+04  0.25740910195E+04  0.90595450658E+03 0.  0.
         23    2    4    4    0    0 -0.25838881367E+03 -0.42007536086E+03  0.95671427269E+03  0.10812811603E+04  0.10314388100E+03 0.  0.
         23    2    4    4    0    0  0.35417919691E+03  0.16777483172E+03  0.14375203971E+04  0.14928098592E+04  0.91788266893E+02 0.  0.
         13    1    3    3    0    0 -0.97463805438E+02  0.25837919682E+03 -0.59251440666E+03  0.65370660454E+03  0.00000000000E+00 0.  1.
        -13    1    3    3    0    0  0.16734221990E+01 -0.60786676811E+01 -0.53072510178E+01  0.82412047662E+01  0.00000000000E+00 0. -1.
          1    1    5    5  502    0 -0.35904443088E+01  0.11878187627E+01  0.44760242595E+02  0.44919723073E+02  0.00000000000E+00 0. -1.
          3    1    6    6  503    0  0.57448789056E+02  0.28261700686E+02  0.13149797580E+03  0.14625595621E+03  0.00000000000E+00 0. -1.
         -1    1    5    5    0  502 -0.25479836936E+03 -0.42126317962E+03  0.91195403010E+03  0.10363614372E+04  0.00000000000E+00 0.  1.
         -3    1    6    6    0  503  0.29673040785E+03  0.13951313103E+03  0.13060224213E+04  0.13465539030E+04  0.00000000000E+00 0.  1.
<mgrwt>
<rscale>  0 0.26916255E+04</rscale>
<asrwt>0</asrwt>
<pdfrwt beam="1">  1        2 0.38711168E+00 0.26916255E+04</pdfrwt>
<pdfrwt beam="2">  1       -2 0.11074045E+00 0.26916255E+04</pdfrwt>
<totfact> 0.19326045E+00</totfact>
</mgrwt>
</event>
<event>
12    1  0.4247462E-008  0.2203381E+04  0.7818608E-02  0.8517022E-01
          2   -1    0    0  501    0  0.00000000000E+00  0.00000000000E+00  0.75725127975E+03  0.75725127975E+03  0.00000000000E+00 0. -1.
         -2   -1    0    0    0  501 -0.00000000000E+00 -0.00000000000E+00 -0.16027991094E+04  0.16027991094E+04  0.00000000000E+00 0.  1.
         23    2    1    2    0    0 -0.69811887857E+03  0.58908063026E+03 -0.32034612149E+03  0.97248903272E+03  0.93420145891E+02 0.  0.
        254    2    1    2    0    0  0.69811887857E+03 -0.58908063026E+03 -0.52520170815E+03  0.13875613564E+04  0.90283095096E+03 0.  0.
         23    2    4    4    0    0  0.64423322670E+03 -0.79792918624E+03 -0.52020867350E+03  0.11536793441E+04  0.92906019240E+02 0.  0.
         23    2    4    4    0    0  0.53885651864E+02  0.20884855599E+03 -0.49930346500E+01  0.23388201230E+03  0.90302173097E+02 0.  0.
         13    1    3    3    0    0 -0.93435891318E+02  0.60949712494E+02 -0.69196731851E+02  0.13127574391E+03  0.00000000000E+00 0.  1.
        -13    1    3    3    0    0 -0.60468298725E+03  0.52813091776E+03 -0.25114938964E+03  0.84121328882E+03  0.00000000000E+00 0. -1.
          1    1    5    5  502    0  0.21480873394E+03 -0.33810081205E+03 -0.20062922507E+03  0.44800338976E+03  0.00000000000E+00 0. -1.
          3    1    6    6  503    0  0.78567877850E+02  0.13964630262E+03 -0.69786270542E+01  0.16038298695E+03  0.00000000000E+00 0. -1.
         -1    1    5    5    0  502  0.42942449276E+03 -0.45982837420E+03 -0.31957944843E+03  0.70567595436E+03  0.00000000000E+00 0.  1.
         -3    1    6    6    0  503 -0.24682225986E+02  0.69202253363E+02  0.19855924042E+01  0.73499025350E+02  0.00000000000E+00 0.  1.
<mgrwt>
<rscale>  0 0.22033807E+04</rscale>
<asrwt>0</asrwt>
<pdfrwt beam="1">  1        2 0.11650020E+00 0.22033807E+04</pdfrwt>
<pdfrwt beam="2">  1       -2 0.24658448E+00 0.22033807E+04</pdfrwt>
<totfact> 0.22820917E+00</totfact>
</mgrwt>
</event>
<event>
12    1  0.4247462E-008  0.1175003E+04  0.7818608E-02  0.9135022E-01
         -2   -1    0    0    0  501 -0.00000000000E+00  0.00000000000E+00  0.14000860419E+03  0.14000860419E+03  0.00000000000E+00 0.  1.
          2   -1    0    0  501    0  0.00000000000E+00 -0.00000000000E+00 -0.24652640440E+04  0.24652640440E+04  0.00000000000E+00 0. -1.
         23    2    1    2    0    0  0.18306732644E+02 -0.66724502391E+02 -0.96200955427E+03  0.96901992013E+03  0.93541046721E+02 0.  0.
        254    2    1    2    0    0 -0.18306732644E+02  0.66724502391E+02 -0.13632458856E+04  0.16362527281E+04  0.90227287999E+03 0.  0.
         23    2    4    4    0    0  0.17555703485E+03 -0.20197222004E+02  0.49289574796E+02  0.20484635422E+03  0.91128296324E+02 0.  0.
         23    2    4    4    0    0 -0.19386376749E+03  0.86921724395E+02 -0.14125354604E+04  0.14314063739E+04  0.92353851287E+02 0.  0.
         13    1    3    3    0    0  0.22794780606E+01 -0.98665186223E+01 -0.71400713523E+03  0.71407894058E+03  0.00000000000E+00 0. -1.
        -13    1    3    3    0    0  0.16027254583E+02 -0.56857983769E+02 -0.24800241904E+03  0.25494097955E+03  0.00000000000E+00 0.  1.
          4    1    5    5  502    0  0.18078688335E+03 -0.33023698844E+02  0.39751326834E+02  0.18802826878E+03  0.00000000000E+00 0. -1.
          1    1    6    6  503    0 -0.16598905705E+03  0.40160654255E+02 -0.11960616368E+04  0.12081923209E+04  0.00000000000E+00 0. -1.
         -4    1    5    5    0  502 -0.52298485012E+01  0.12826476840E+02  0.95382479622E+01  0.16818085434E+02  0.00000000000E+00 0.  1.
         -1    1    6    6    0  503 -0.27874710440E+02  0.46761070139E+02 -0.21647382357E+03  0.22321405299E+03  0.00000000000E+00 0.  1.
<mgrwt>
<rscale>  0 0.11750033E+04</rscale>
<asrwt>0</asrwt>
<pdfrwt beam="1">  1        2 0.37927133E+00 0.11750033E+04</pdfrwt>
<pdfrwt beam="2">  1       -2 0.21539789E-01 0.11750033E+04</pdfrwt>
<totfact> 0.67995067E+01</totfact>
</mgrwt>
</event>
<event>
12    1  0.4247462E-008  0.1934994E+04  0.7818608E-02  0.8637631E-01
         -1   -1    0    0    0  501 -0.00000000000E+00  0.00000000000E+00  0.10576354362E+04  0.10576354362E+04  0.00000000000E+00 0.  1.
          1   -1    0    0  501    0  0.00000000000E+00 -0.00000000000E+00 -0.88504065298E+03  0.88504065298E+03  0.00000000000E+00 0. -1.
         23    2    1    2    0    0  0.47045275832E+03 -0.24620767522E+03  0.61336732074E+03  0.81647803540E+03  0.92048329658E+02 0.  0.
        254    2    1    2    0    0 -0.47045275832E+03  0.24620767522E+03 -0.44077253756E+03  0.11261980537E+04  0.88999865688E+03 0.  0.
         23    2    4    4    0    0  0.19239547315E+03  0.28324471501E+03 -0.23605495362E+03  0.42521146566E+03  0.88539611075E+02 0.  0.
         23    2    4    4    0    0 -0.66284823146E+03 -0.37037039790E+02 -0.20471758394E+03  0.70098658808E+03  0.93452593471E+02 0.  0.
         11    1    3    3    0    0  0.26107579077E+03 -0.13431413351E+03  0.26891722433E+03  0.39814234707E+03  0.00000000000E+00 0. -1.
        -11    1    3    3    0    0  0.20937696754E+03 -0.11189354172E+03  0.34445009641E+03  0.41833568833E+03  0.00000000000E+00 0.  1.
          2    1    5    5  502    0  0.18755865032E+03  0.28991287382E+03 -0.22865948040E+03  0.41414113499E+03  0.00000000000E+00 0.  1.
          4    1    6    6  503    0 -0.14356410351E+02  0.52509647712E+01  0.79171223524E+01  0.17215108932E+02  0.00000000000E+00 0. -1.
         -2    1    5    5    0  502  0.48368228309E+01 -0.66681588058E+01 -0.73954732259E+01  0.11070330672E+02  0.00000000000E+00 0. -1.
         -4    1    6    6    0  503 -0.64849182111E+03 -0.42288004561E+02 -0.21263470629E+03  0.68377147915E+03  0.00000000000E+00 0.  1.
<mgrwt>
<rscale>  0 0.19349939E+04</rscale>
<asrwt>0</asrwt>
<pdfrwt beam="1">  1        1 0.13616010E+00 0.19349939E+04</pdfrwt>
<pdfrwt beam="2">  1       -1 0.16271314E+00 0.19349939E+04</pdfrwt>
<totfact> 0.48684743E+00</totfact>
</mgrwt>
</event>
<event>
12    1  0.4247462E-008  0.1887703E+04  0.7818608E-02  0.8661002E-01
          2   -1    0    0  501    0  0.00000000000E+00  0.00000000000E+00  0.33285117022E+04  0.33285117022E+04  0.00000000000E+00 0. -1.
         -2   -1    0    0    0  501 -0.00000000000E+00 -0.00000000000E+00 -0.26764377840E+03  0.26764377840E+03  0.00000000000E+00 0.  1.
         23    2    1    2    0    0  0.13077986027E+03 -0.71419202252E+03  0.12102264756E+04  0.14142904436E+04  0.91628159561E+02 0.  0.
        254    2    1    2    0    0 -0.13077986027E+03  0.71419202252E+03  0.18506414482E+04  0.21818650370E+04  0.89915941476E+03 0.  0.
         23    2    4    4    0    0 -0.23789360564E+03 -0.13423618894E+03  0.36106626554E+03  0.46192671854E+03  0.91622721920E+02 0.  0.
         23    2    4    4    0    0  0.10711374536E+03  0.84842821146E+03  0.14895751827E+04  0.17199383185E+04  0.89720734265E+02 0.  0.
         13    1    3    3    0    0  0.18650752230E+02 -0.89627967967E+02  0.21884654106E+03  0.23722316863E+03  0.00000000000E+00 0. -1.
        -13    1    3    3    0    0  0.11212910804E+03 -0.62456405456E+03  0.99137993455E+03  0.11770672749E+04  0.00000000000E+00 0.  1.
          2    1    5    5  502    0 -0.75729260684E+02 -0.61522501767E+02  0.19798389870E+03  0.22072055476E+03  0.00000000000E+00 0. -1.
          4    1    6    6  503    0  0.32803673941E+02  0.14935590597E+03  0.20736421805E+03  0.25764934815E+03  0.00000000000E+00 0. -1.
         -2    1    5    5    0  502 -0.16216434495E+03 -0.72713687174E+02  0.16308236684E+03  0.24120616379E+03  0.00000000000E+00 0.  1.
         -4    1    6    6    0  503  0.74310071424E+02  0.69907230549E+03  0.12822109646E+04  0.14622889703E+04  0.00000000000E+00 0.  1.
<mgrwt>
<rscale>  0 0.18877028E+04</rscale>
<asrwt>0</asrwt>
<pdfrwt beam="1">  1        2 0.51207869E+00 0.18877028E+04</pdfrwt>
<pdfrwt beam="2">  1       -2 0.41175968E-01 0.18877028E+04</pdfrwt>
<totfact> 0.56135933E+00</totfact>
</mgrwt>
</event>
<event>
12    1  0.4247462E-008  0.1251771E+04  0.7818608E-02  0.9068711E-01
         -2   -1    0    0    0  501 -0.00000000000E+00  0.00000000000E+00  0.11165436055E+04  0.11165436055E+04  0.00000000000E+00 0.  1.
          2   -1    0    0  501    0  0.00000000000E+00 -0.00000000000E+00 -0.35084399435E+03  0.35084399435E+03  0.00000000000E+00 0. -1.
         23    2    1    2    0    0 -0.12979383981E+03 -0.62526988500E+02 -0.11190473129E+03  0.20425334299E+03  0.91873250145E+02 0.  0.
        254    2    1    2    0    0  0.12979383981E+03  0.62526988500E+02  0.87760434245E+03  0.12631342569E+04  0.89697419352E+03 0.  0.
         23    2    4    4    0    0  0.35205096348E+03  0.29364449794E+03  0.79049517391E+03  0.91833642584E+03  0.91061512102E+02 0.  0.
         23    2    4    4    0    0 -0.22225712367E+03 -0.23111750944E+03  0.87109168536E+02  0.34479783103E+03  0.92108657833E+02 0.  0.
         13    1    3    3    0    0 -0.50187145403E+02 -0.74243059080E+02 -0.49129011715E+02  0.10219804879E+03  0.00000000000E+00 0. -1.
        -13    1    3    3    0    0 -0.79606694406E+02  0.11716070580E+02 -0.62775719576E+02  0.10205529419E+03  0.00000000000E+00 0.  1.
          4    1    5    5  502    0  0.53392666900E+00  0.33029273719E+00 -0.25521426322E+01  0.26282319143E+01  0.00000000000E+00 0. -1.
          1    1    6    6  503    0 -0.86283418642E+02 -0.32738004116E+02  0.13421755721E+02  0.93256360494E+02  0.00000000000E+00 0. -1.
         -4    1    5    5    0  502  0.35151703681E+03  0.29331420520E+03  0.79304731655E+03  0.91570819392E+03  0.00000000000E+00 0.  1.
         -1    1    6    6    0  503 -0.13597370503E+03 -0.19837950532E+03  0.73687412815E+02  0.25154147053E+03  0.00000000000E+00 0.  1.
<mgrwt>
<rscale>  0 0.12517709E+04</rscale>
<asrwt>0</asrwt>
<pdfrwt beam="1">  1        2 0.53976000E-01 0.12517709E+04</pdfrwt>
<pdfrwt beam="2">  1       -2 0.17177594E+00 0.12517709E+04</pdfrwt>
<totfact> 0.18740763E+01</totfact>
</mgrwt>
</event>
<event>
12    1  0.4247462E-008  0.1901380E+04  0.7818608E-02  0.8654170E-01
         -2   -1    0    0    0  501 -0.00000000000E+00  0.00000000000E+00  0.40013640918E+03  0.40013640918E+03  0.00000000000E+00 0.  1.
          2   -1    0    0  501    0  0.00000000000E+00 -0.00000000000E+00 -0.22587578440E+04  0.22587578440E+04  0.00000000000E+00 0. -1.
         23    2    1    2    0    0 -0.21651472612E+01 -0.27282137839E+02 -0.17473527336E+04  0.17499239742E+04  0.90792824302E+02 0.  0.
        254    2    1    2    0    0  0.21651472612E+01  0.27282137839E+02 -0.11126870123E+03  0.90897027899E+03  0.90171904788E+03 0.  0.
         23    2    4    4    0    0  0.19432819673E+03 -0.27738657413E+03  0.21651783949E+03  0.41211910547E+03  0.90859356844E+02 0.  0.
         23    2    4    4    0    0 -0.19216304947E+03  0.30466871197E+03 -0.32778654071E+03  0.49685117352E+03  0.98322991800E+02 0.  0.
         13    1    3    3    0    0  0.23614924335E+02  0.90110465413E+00 -0.14417353430E+04  0.14419290121E+04  0.00000000000E+00 0. -1.
        -13    1    3    3    0    0 -0.25780071597E+02 -0.28183242493E+02 -0.30561739063E+03  0.30799496214E+03  0.00000000000E+00 0.  1.
          2    1    5    5  502    0  0.16748833439E+03 -0.18181182951E+03  0.12459637145E+03  0.27682510595E+03  0.00000000000E+00 0.  1.
          3    1    6    6  503    0  0.36352310320E+01 -0.26311442724E+01 -0.18107624135E+02  0.18655398056E+02  0.00000000000E+00 0. -1.
         -2    1    5    5    0  502  0.26839862336E+02 -0.95574744625E+02  0.91921468033E+02  0.13529399952E+03  0.00000000000E+00 0. -1.
         -3    1    6    6    0  503 -0.19579828050E+03  0.30729985625E+03 -0.30967891658E+03  0.47819577546E+03  0.00000000000E+00 0.  1.
<mgrwt>
<rscale>  0 0.19013798E+04</rscale>
<asrwt>0</asrwt>
<pdfrwt beam="1">  1        2 0.34750120E+00 0.19013798E+04</pdfrwt>
<pdfrwt beam="2">  1       -2 0.61559449E-01 0.19013798E+04</pdfrwt>
<totfact> 0.10991092E+01</totfact>
</mgrwt>
</event>
<event>
12    1  0.4247462E-008  0.2244804E+04  0.7818608E-02  0.8500008E-01
          2   -1    0    0  501    0  0.00000000000E+00  0.00000000000E+00  0.14745760916E+04  0.14745760916E+04  0.00000000000E+00 0. -1.
         -2   -1    0    0    0  501 -0.00000000000E+00 -0.00000000000E+00 -0.85433796321E+03  0.85433796321E+03  0.00000000000E+00 0.  1.
         23    2    1    2    0    0 -0.40553118826E+03  0.43802941239E+03 -0.49337504995E+03  0.77957381732E+03  0.89392874228E+02 0.  0.
        254    2    1    2    0    0  0.40553118826E+03 -0.43802941239E+03  0.11136131784E+04  0.15493402375E+04  0.89665798932E+03 0.  0.
         23    2    4    4    0    0  0.24724994753E+03  0.23326499550E+03  0.55309294224E+03  0.65590501232E+03  0.93565419604E+02 0.  0.
         23    2    4    4    0    0  0.15828124073E+03 -0.67129440789E+03  0.56052023615E+03  0.89343522522E+03  0.91402589180E+02 0.  0.
         13    1    3    3    0    0 -0.98272135209E+02  0.55495869836E+02 -0.87528603443E+02  0.14282317931E+03  0.00000000000E+00 0. -1.
        -13    1    3    3    0    0 -0.30725905305E+03  0.38253354256E+03 -0.40584644651E+03  0.63675063801E+03  0.00000000000E+00 0.  1.
          2    1    5    5  502    0  0.12894790475E+03  0.18182488080E+03  0.33085431640E+03  0.39893912831E+03  0.00000000000E+00 0.  1.
          3    1    6    6  503    0  0.64132152771E+02 -0.13999983379E+03  0.96073146842E+02  0.18150188987E+03  0.00000000000E+00 0. -1.
         -2    1    5    5    0  502  0.11830204278E+03  0.51440114696E+02  0.22223862584E+03  0.25696588400E+03  0.00000000000E+00 0. -1.
         -3    1    6    6    0  503  0.94149087958E+02 -0.53129457410E+03  0.46444708930E+03  0.71193333536E+03  0.00000000000E+00 0.  1.
<mgrwt>
<rscale>  0 0.22448041E+04</rscale>
<asrwt>0</asrwt>
<pdfrwt beam="1">  1        2 0.22685786E+00 0.22448041E+04</pdfrwt>
<pdfrwt beam="2">  1       -2 0.13143661E+00 0.22448041E+04</pdfrwt>
<totfact> 0.50479714E+00</totfact>
</mgrwt>
</event>
<event>
12    1  0.4247462E-008  0.2007241E+04  0.7818608E-02  0.8603243E-01
         -2   -1    0    0    0  501 -0.00000000000E+00  0.00000000000E+00  0.79323830841E+03  0.79323830841E+03  0.00000000000E+00 0. -1.
          2   -1    0    0  501    0  0.00000000000E+00 -0.00000000000E+00 -0.12698005330E+04  0.12698005330E+04  0.00000000000E+00 0.  1.
         23    2    1    2    0    0  0.79484370757E+03  0.52544296982E+02 -0.11019918723E+03  0.80934841081E+03  0.91452537493E+02 0.  0.
        254    2    1    2    0    0 -0.79484370757E+03 -0.52544296982E+02 -0.36636303738E+03  0.12536904306E+04  0.89609173528E+03 0.  0.
         23    2    4    4    0    0 -0.43614303789E+03 -0.37667978871E+03  0.81240431556E+02  0.58851838687E+03  0.87438385376E+02 0.  0.
         23    2    4    4    0    0 -0.35870066968E+03  0.32413549173E+03 -0.44760346894E+03  0.66517204374E+03  0.91514998481E+02 0.  0.
         13    1    3    3    0    0  0.60320669908E+03  0.24669452380E+02 -0.46549912980E+02  0.60550292988E+03  0.00000000000E+00 0. -1.
        -13    1    3    3    0    0  0.19163700849E+03  0.27874844603E+02 -0.63649274252E+02  0.20384548093E+03  0.00000000000E+00 0.  1.
          4    1    5    5  502    0 -0.32061965858E+03 -0.29069871945E+03  0.97389904710E+02  0.44360737652E+03  0.00000000000E+00 0. -1.
          1    1    6    6  503    0 -0.32558552638E+03  0.28505430450E+03 -0.35657572580E+03  0.56072108907E+03  0.00000000000E+00 0. -1.
         -4    1    5    5    0  502 -0.11552337931E+03 -0.85981069267E+02 -0.16149473154E+02  0.14491101035E+03  0.00000000000E+00 0.  1.
         -1    1    6    6    0  503 -0.33115143296E+02  0.39081187234E+02 -0.91027743135E+02  0.10445095467E+03  0.00000000000E+00 0.  1.
<mgrwt>
<rscale>  0 0.20072413E+04</rscale>
<asrwt>0</asrwt>
<pdfrwt beam="1">  1        2 0.19535393E+00 0.20072413E+04</pdfrwt>
<pdfrwt beam="2">  1       -2 0.12203666E+00 0.20072413E+04</pdfrwt>
<totfact> 0.81422104E+00</totfact>
</mgrwt>
</event>
<event>
12    1  0.4247462E-008  0.1407087E+04  0.7818608E-02  0.8948705E-01
          2   -1    0    0  501    0  0.00000000000E+00  0.00000000000E+00  0.37412697447E+03  0.37412697447E+03  0.00000000000E+00 0. -1.
         -2   -1    0    0    0  501 -0.00000000000E+00 -0.00000000000E+00 -0.13230091878E+04  0.13230091878E+04  0.00000000000E+00 0.  1.
         23    2    1    2    0    0  0.12271040095E+03  0.34191947476E+03 -0.50392316675E+03  0.62761871334E+03  0.89442281010E+02 0.  0.
        254    2    1    2    0    0 -0.12271040095E+03 -0.34191947476E+03 -0.44495904654E+03  0.10695174489E+04  0.90217085448E+03 0.  0.
         23    2    4    4    0    0 -0.10724529805E+03 -0.22392595627E+02 -0.65884727616E+03  0.67394556786E+03  0.90110558994E+02 0.  0.
         23    2    4    4    0    0 -0.15465102900E+02 -0.31952687913E+03  0.21388822961E+03  0.39557188104E+03  0.91609728788E+02 0.  0.
         13    1    3    3    0    0 -0.65663585707E+00  0.30752173671E+02 -0.12897266040E+02  0.33353662879E+02  0.00000000000E+00 0. -1.
        -13    1    3    3    0    0  0.12336703681E+03  0.31116730109E+03 -0.49102590071E+03  0.59426505046E+03  0.00000000000E+00 0.  1.
          1    1    5    5  502    0 -0.11026280288E+02  0.22491366369E+02 -0.26016356539E+03  0.26136664128E+03  0.00000000000E+00 0. -1.
          3    1    6    6  503    0 -0.36584478445E+02 -0.19759163825E+03  0.89069161129E+02  0.21980490220E+03  0.00000000000E+00 0. -1.
         -1    1    5    5    0  502 -0.96219017766E+02 -0.44883961996E+02 -0.39868371076E+03  0.41257892657E+03  0.00000000000E+00 0.  1.
         -3    1    6    6    0  503  0.21119375546E+02 -0.12193524088E+03  0.12481906848E+03  0.17576697884E+03  0.00000000000E+00 0.  1.
<mgrwt>
<rscale>  0 0.14070870E+04</rscale>
<asrwt>0</asrwt>
<pdfrwt beam="1">  1        2 0.57557996E-01 0.14070870E+04</pdfrwt>
<pdfrwt beam="2">  1       -2 0.20353987E+00 0.14070870E+04</pdfrwt>
<totfact> 0.10507998E+01</totfact>
</mgrwt>
</event>
<event>
12    1  0.4247462E-008  0.2244774E+04  0.7818608E-02  0.8500020E-01
         -2   -1    0    0    0  501 -0.00000000000E+00  0.00000000000E+00  0.42898029427E+03  0.42898029427E+03  0.00000000000E+00 0.  1.
          2   -1    0    0  501    0  0.00000000000E+00 -0.00000000000E+00 -0.29366222513E+04  0.29366222513E+04  0.00000000000E+00 0. -1.
         23    2    1    2    0    0 -0.83615415464E+03  0.33731169672E+03 -0.67655524128E+03  0.11308203649E+04  0.89970839721E+02 0.  0.
        254    2    1    2    0    0  0.83615415464E+03 -0.33731169672E+03 -0.18310867158E+04  0.22347821807E+04  0.91018673008E+03 0.  0.
         23    2    4    4    0    0  0.74763910642E+03  0.11081220861E+03 -0.14296437232E+04  0.16198055974E+04  0.92980745095E+02 0.  0.
         23    2    4    4    0    0  0.88515048216E+02 -0.44812390532E+03 -0.40144299254E+03  0.61497658334E+03  0.91595706886E+02 0.  0.
         13    1    3    3    0    0 -0.65306625438E+03  0.25730418145E+03 -0.47864429054E+03  0.84958891899E+03  0.00000000000E+00 0. -1.
        -13    1    3    3    0    0 -0.18308790026E+03  0.80007515270E+02 -0.19791095073E+03  0.28123144586E+03  0.00000000000E+00 0.  1.
          4    1    5    5  502    0  0.70246512662E+03  0.10316866431E+03 -0.13819620655E+04  0.15536795609E+04  0.00000000000E+00 0. -1.
          1    1    6    6  503    0  0.19442412632E+02 -0.26630413069E+03 -0.19019328614E+03  0.32782523320E+03  0.00000000000E+00 0. -1.
         -4    1    5    5    0  502  0.45173979804E+02  0.76435442987E+01 -0.47681657686E+02  0.66126036479E+02  0.00000000000E+00 0.  1.
         -1    1    6    6    0  503  0.69072635585E+02 -0.18181977463E+03 -0.21124970640E+03  0.28715135014E+03  0.00000000000E+00 0.  1.
<mgrwt>
<rscale>  0 0.22447744E+04</rscale>
<asrwt>0</asrwt>
<pdfrwt beam="1">  1        2 0.45178802E+00 0.22447744E+04</pdfrwt>
<pdfrwt beam="2">  1       -2 0.65996971E-01 0.22447744E+04</pdfrwt>
<totfact> 0.36722761E+00</totfact>
</mgrwt>
</event>
<event>
12    1  0.4247462E-008  0.1812120E+04  0.7818608E-02  0.8699881E-01
          1   -1    0    0  501    0  0.00000000000E+00  0.00000000000E+00  0.16514865868E+04  0.16514865868E+04  0.00000000000E+00 0. -1.
         -1   -1    0    0    0  501 -0.00000000000E+00 -0.00000000000E+00 -0.49709432300E+03  0.49709432300E+03  0.00000000000E+00 0.  1.
         23    2    1    2    0    0  0.21207256014E+03 -0.64166988869E+03  0.46841374180E+03  0.82731823122E+03  0.91263384742E+02 0.  0.
        254    2    1    2    0    0 -0.21207256014E+03  0.64166988869E+03  0.68597852204E+03  0.13212626786E+04  0.90468420810E+03 0.  0.
         23    2    4    4    0    0 -0.46400663433E+03  0.46054489832E+02  0.28791396761E+03  0.55577715658E+03  0.92577655520E+02 0.  0.
         23    2    4    4    0    0  0.25193407419E+03  0.59561539885E+03  0.39806455443E+03  0.76548552202E+03  0.96354625445E+02 0.  0.
         13    1    3    3    0    0  0.35098303691E+02 -0.40158638052E+02  0.22329872212E+02  0.57820673856E+02  0.00000000000E+00 0. -1.
        -13    1    3    3    0    0  0.17697425644E+03 -0.60151125063E+03  0.44608386959E+03  0.76949755737E+03  0.00000000000E+00 0.  1.
          4    1    5    5  502    0 -0.27520102623E+02 -0.70259723637E+01  0.45613708380E+02  0.53733888080E+02  0.00000000000E+00 0. -1.
          1    1    6    6  503    0  0.13659376353E+03  0.36224296303E+03  0.18491596550E+03  0.42903581994E+03  0.00000000000E+00 0. -1.
         -4    1    5    5    0  502 -0.43648653171E+03  0.53080462196E+02  0.24230025923E+03  0.50204326850E+03  0.00000000000E+00 0.  1.
         -1    1    6    6    0  503  0.11534031066E+03  0.23337243583E+03  0.21314858893E+03  0.33644970208E+03  0.00000000000E+00 0.  1.
<mgrwt>
<rscale>  0 0.18121199E+04</rscale>
<asrwt>0</asrwt>
<pdfrwt beam="1">  1        1 0.25407486E+00 0.18121199E+04</pdfrwt>
<pdfrwt beam="2">  1       -1 0.76476051E-01 0.18121199E+04</pdfrwt>
<totfact> 0.83214552E+00</totfact>
</mgrwt>
</event>
<event>
12    1  0.4247462E-008  0.2265031E+04  0.7818608E-02  0.8491838E-01
         -2   -1    0    0    0  501 -0.00000000000E+00  0.00000000000E+00  0.24649567530E+04  0.24649567530E+04  0.00000000000E+00 0.  1.
          2   -1    0    0  501    0  0.00000000000E+00 -0.00000000000E+00 -0.52033007267E+03  0.52033007267E+03  0.00000000000E+00 0. -1.
         23    2    1    2    0    0  0.92115824928E+02  0.66866827281E+03  0.17000124829E+04  0.18312529158E+04  0.88556283654E+02 0.  0.
        254    2    1    2    0    0 -0.92115824928E+02 -0.66866827281E+03  0.24461419741E+03  0.11540339098E+04  0.90352397601E+03 0.  0.
         23    2    4    4    0    0 -0.44535014120E+02 -0.85276887596E+03  0.33866041647E+03  0.92292128113E+03  0.88852069124E+02 0.  0.
         23    2    4    4    0    0 -0.47580810808E+02  0.18410060315E+03 -0.94046219061E+02  0.23111262871E+03  0.91713631452E+02 0.  0.
         11    1    3    3    0    0  0.10911044869E+03  0.53511400032E+03  0.13681174458E+04  0.14730911135E+04  0.00000000000E+00 0.  1.
        -11    1    3    3    0    0 -0.16994623758E+02  0.13355427249E+03  0.33189503712E+03  0.35816180226E+03  0.00000000000E+00 0. -1.
          1    1    5    5  502    0 -0.10035337204E+02 -0.74375375096E+03  0.28414468833E+03  0.79624654094E+03  0.00000000000E+00 0. -1.
          1    1    6    6  503    0 -0.21772157227E+02  0.18169188546E+03 -0.70527808410E+02  0.19611256928E+03  0.00000000000E+00 0. -1.
         -1    1    5    5    0  502 -0.34499676917E+02 -0.10901512501E+03  0.54515728145E+02  0.12667474019E+03  0.00000000000E+00 0.  1.
         -1    1    6    6    0  503 -0.25808653580E+02  0.24087176902E+01 -0.23518410651E+02  0.35000059430E+02  0.00000000000E+00 0.  1.
<mgrwt>
<rscale>  0 0.22650308E+04</rscale>
<asrwt>0</asrwt>
<pdfrwt beam="1">  1        2 0.80050781E-01 0.22650308E+04</pdfrwt>
<pdfrwt beam="2">  1       -2 0.37922411E+00 0.22650308E+04</pdfrwt>
<totfact> 0.54197697E-01</totfact>
</mgrwt>
</event>
<event>
12    1  0.4247462E-008  0.1872241E+04  0.7818608E-02  0.8668799E-01
         -1   -1    0    0    0  501 -0.00000000000E+00  0.00000000000E+00  0.45969381893E+03  0.45969381893E+03  0.00000000000E+00 0.  1.
          1   -1    0    0  501    0  0.00000000000E+00 -0.00000000000E+00 -0.19063149802E+04  0.19063149802E+04  0.00000000000E+00 0. -1.
         23    2    1    2    0    0 -0.68024135650E+03  0.12314759739E+03 -0.80058141380E+03  0.10616074753E+04  0.90477608009E+02 0.  0.
        254    2    1    2    0    0  0.68024135650E+03 -0.12314759739E+03 -0.64603974742E+03  0.13044013238E+04  0.89788742309E+03 0.  0.
         23    2    4    4    0    0  0.88692106375E+02  0.34548766949E+03 -0.26776155191E+03  0.45535532741E+03  0.91783473557E+02 0.  0.
         23    2    4    4    0    0  0.59154925012E+03 -0.46863526688E+03 -0.37827819551E+03  0.84904599642E+03  0.90747904433E+02 0.  0.
         13    1    3    3    0    0 -0.52243951549E+03  0.75045226787E+02 -0.55631912448E+03  0.76685448533E+03  0.00000000000E+00 0.  1.
        -13    1    3    3    0    0 -0.15780184101E+03  0.48102370603E+02 -0.24426228932E+03  0.29475298992E+03  0.00000000000E+00 0. -1.
          1    1    6    6  502    0  0.23330451250E+03 -0.21923224074E+03 -0.12030645166E+03  0.34200499009E+03  0.00000000000E+00 0. -1.
          1    1    5    5  503    0  0.70267887216E+02  0.11109811741E+03 -0.75152242011E+02  0.15142069589E+03  0.00000000000E+00 0. -1.
         -1    1    5    5    0  503  0.18424219159E+02  0.23438955208E+03 -0.19260930990E+03  0.30393463152E+03  0.00000000000E+00 0.  1.
         -1    1    6    6    0  502  0.35824473762E+03 -0.24940302613E+03 -0.25797174384E+03  0.50704100633E+03  0.00000000000E+00 0.  1.
<mgrwt>
<rscale>  0 0.18722406E+04</rscale>
<asrwt>0</asrwt>
<pdfrwt beam="1">  1        1 0.29327923E+00 0.18722406E+04</pdfrwt>
<pdfrwt beam="2">  1       -1 0.70722126E-01 0.18722406E+04</pdfrwt>
<totfact> 0.65354701E+00</totfact>
</mgrwt>
</event>
<event>
12    1  0.4247462E-008  0.1498896E+04  0.7818608E-02  0.8885187E-01
         -2   -1    0    0    0  501 -0.00000000000E+00  0.00000000000E+00  0.72978967609E+03  0.72978967609E+03  0.00000000000E+00 0.  1.
          2   -1    0    0  501    0  0.00000000000E+00 -0.00000000000E+00 -0.76963631147E+03  0.76963631147E+03  0.00000000000E+00 0. -1.
         23    2    1    2    0    0 -0.26953360195E+03 -0.15053595901E+03 -0.38787954897E+03  0.50410547214E+03  0.91445858299E+02 0.  0.
        254    2    1    2    0    0  0.26953360195E+03  0.15053595901E+03  0.34803291359E+03  0.99532051542E+03  0.87990146149E+03 0.  0.
         23    2    4    4    0    0  0.10685317298E+03  0.22252230952E+03  0.61093800660E+03  0.66548109668E+03  0.93199052140E+02 0.  0.
         23    2    4    4    0    0  0.16268042898E+03 -0.71986350509E+02 -0.26290509300E+03  0.32983941874E+03  0.89599093715E+02 0.  0.
         13    1    3    3    0    0 -0.11587852809E+03 -0.99462788024E+02 -0.24204185163E+03  0.28619038665E+03  0.00000000000E+00 0. -1.
        -13    1    3    3    0    0 -0.15365507386E+03 -0.51073170990E+02 -0.14583769734E+03  0.21791508549E+03  0.00000000000E+00 0.  1.
          1    1    5    5  502    0  0.11978436564E+03  0.16510490003E+03  0.49724282089E+03  0.53745543554E+03  0.00000000000E+00 0. -1.
          3    1    6    6  503    0  0.14951280514E+03 -0.29132380033E+02 -0.22144073117E+03  0.26877271418E+03  0.00000000000E+00 0. -1.
         -1    1    5    5    0  502 -0.12931192664E+02  0.57417409489E+02  0.11369518571E+03  0.12802566113E+03  0.00000000000E+00 0.  1.
         -3    1    6    6    0  503  0.13167623832E+02 -0.42853970476E+02 -0.41464361837E+02  0.61066704557E+02  0.00000000000E+00 0.  1.
<mgrwt>
<rscale>  0 0.14988964E+04</rscale>
<asrwt>0</asrwt>
<pdfrwt beam="1">  1        2 0.11840559E+00 0.14988964E+04</pdfrwt>
<pdfrwt beam="2">  1       -2 0.11227534E+00 0.14988964E+04</pdfrwt>
<totfact> 0.21901692E+01</totfact>
</mgrwt>
</event>
<event>
12    1  0.4247462E-008  0.1867976E+04  0.7818608E-02  0.8670963E-01
         -2   -1    0    0    0  501 -0.00000000000E+00  0.00000000000E+00  0.11782090768E+04  0.11782090768E+04  0.00000000000E+00 0.  1.
          2   -1    0    0  501    0  0.00000000000E+00 -0.00000000000E+00 -0.74038926791E+03  0.74038926791E+03  0.00000000000E+00 0. -1.
         23    2    1    2    0    0  0.47801062627E+02 -0.20221737581E+03 -0.53279235121E+03  0.57908085655E+03  0.91050207272E+02 0.  0.
        254    2    1    2    0    0 -0.47801062627E+02  0.20221737581E+03  0.97061216013E+03  0.13395174882E+04  0.89946780215E+03 0.  0.
         23    2    4    4    0    0 -0.41138346014E+03 -0.24109373104E+02  0.71598209579E+03  0.83120139806E+03  0.91911857210E+02 0.  0.
         23    2    4    4    0    0  0.36358239751E+03  0.22632674892E+03  0.25463006434E+03  0.50831609013E+03  0.10066191318E+03 0.  0.
         11    1    3    3    0    0  0.52271855702E+02 -0.65630291596E+02 -0.27206968568E+03  0.28471318188E+03  0.00000000000E+00 0.  1.
        -11    1    3    3    0    0 -0.44707930744E+01 -0.13658708422E+03 -0.26072266553E+03  0.29436767467E+03  0.00000000000E+00 0. -1.
          4    1    5    5  502    0 -0.13424251256E+03 -0.31285768701E+02  0.31364542902E+03  0.34259787893E+03  0.00000000000E+00 0. -1.
          3    1    6    6  503    0  0.96217822720E+02  0.49011804257E+02  0.17538758411E+02  0.10939668373E+03  0.00000000000E+00 0. -1.
         -4    1    5    5    0  502 -0.27714094758E+03  0.71763955961E+01  0.40233666678E+03  0.48860351913E+03  0.00000000000E+00 0.  1.
         -3    1    6    6    0  503  0.26736457479E+03  0.17731494466E+03  0.23709130593E+03  0.39891940640E+03  0.00000000000E+00 0.  1.
<mgrwt>
<rscale>  0 0.18679758E+04</rscale>
<asrwt>0</asrwt>
<pdfrwt beam="1">  1        2 0.11390604E+00 0.18679758E+04</pdfrwt>
<pdfrwt beam="2">  1       -2 0.18126293E+00 0.18679758E+04</pdfrwt>
<totfact> 0.63593402E+00</totfact>
</mgrwt>
</event>
<event>
12    1  0.4247462E-008  0.1732731E+04  0.7818608E-02  0.8742914E-01
         -2   -1    0    0    0  501 -0.00000000000E+00  0.00000000000E+00  0.68285382742E+03  0.68285382742E+03  0.00000000000E+00 0.  1.
          2   -1    0    0  501    0  0.00000000000E+00 -0.00000000000E+00 -0.10991942066E+04  0.10991942066E+04  0.00000000000E+00 0. -1.
         23    2    1    2    0    0 -0.23791015481E+03 -0.17221886325E+03  0.42510314956E+03  0.52464498026E+03  0.90989498962E+02 0.  0.
        254    2    1    2    0    0  0.23791015481E+03  0.17221886325E+03 -0.84144352876E+03  0.12574030538E+04  0.88700318430E+03 0.  0.
         23    2    4    4    0    0  0.82422646670E+02 -0.90695971082E+02  0.15136179906E+03  0.21437657079E+03  0.89597254607E+02 0.  0.
         23    2    4    4    0    0  0.15548750814E+03  0.26291483434E+03 -0.99280532782E+03  0.10430264830E+04  0.94558183117E+02 0.  0.
         11    1    3    3    0    0 -0.21124358519E+03 -0.12596013149E+03  0.29541613341E+03  0.38439627845E+03  0.00000000000E+00 0. -1.
        -11    1    3    3    0    0 -0.26666569615E+02 -0.46258731764E+02  0.12968701615E+03  0.14024870180E+03  0.00000000000E+00 0.  1.
          4    1    5    5  502    0 -0.16234514296E+02 -0.17375282821E+01  0.31375305381E+02  0.35369312217E+02  0.00000000000E+00 0. -1.
          4    1    6    6  503    0  0.13636862337E+03  0.14723266036E+03 -0.57158383050E+03  0.60579033750E+03  0.00000000000E+00 0. -1.
         -4    1    5    5    0  502  0.98657160966E+02 -0.88958442800E+02  0.11998649368E+03  0.17900725857E+03  0.00000000000E+00 0.  1.
         -4    1    6    6    0  503  0.19118884766E+02  0.11568217398E+03 -0.42122149731E+03  0.43723614550E+03  0.00000000000E+00 0.  1.
<mgrwt>
<rscale>  0 0.17327308E+04</rscale>
<asrwt>0</asrwt>
<pdfrwt beam="1">  1        2 0.16910680E+00 0.17327308E+04</pdfrwt>
<pdfrwt beam="2">  1       -2 0.10505444E+00 0.17327308E+04</pdfrwt>
<totfact> 0.15200797E+01</totfact>
</mgrwt>
</event>
<event>
12    1  0.4247462E-008  0.1554500E+04  0.7818608E-02  0.8848999E-01
          1   -1    0    0  501    0  0.00000000000E+00  0.00000000000E+00  0.11801487946E+04  0.11801487946E+04  0.00000000000E+00 0. -1.
         -1   -1    0    0    0  501 -0.00000000000E+00 -0.00000000000E+00 -0.51189934455E+03  0.51189934455E+03  0.00000000000E+00 0.  1.
         23    2    1    2    0    0 -0.40638756618E+02  0.50122575125E+03  0.36374176674E+03  0.62719825272E+03  0.90503110966E+02 0.  0.
        254    2    1    2    0    0  0.40638756618E+02 -0.50122575125E+03  0.30450768335E+03  0.10648498865E+04  0.88786349696E+03 0.  0.
         23    2    4    4    0    0 -0.16722552915E+03 -0.57700488829E+03  0.47478869948E+03  0.77140150779E+03  0.93471698136E+02 0.  0.
         23    2    4    4    0    0  0.20786428577E+03  0.75779137044E+02 -0.17028101613E+03  0.29344837868E+03  0.90367514014E+02 0.  0.
         13    1    3    3    0    0 -0.40291901131E+01  0.23021902734E+02  0.46859840929E+02  0.52364941233E+02  0.00000000000E+00 0.  1.
        -13    1    3    3    0    0 -0.36609566505E+02  0.47820384852E+03  0.31688192581E+03  0.57483331149E+03  0.00000000000E+00 0. -1.
          2    1    5    5  502    0 -0.16358430846E+03 -0.43291138901E+03  0.38089890870E+03  0.59937974220E+03  0.00000000000E+00 0. -1.
          3    1    6    6  503    0  0.18485829931E+03  0.33990554131E+02 -0.15417306143E+03  0.24309932428E+03  0.00000000000E+00 0. -1.
         -2    1    5    5    0  502 -0.36412206846E+01 -0.14409349928E+03  0.93889790774E+02  0.17202176559E+03  0.00000000000E+00 0.  1.
         -3    1    6    6    0  503  0.23005986459E+02  0.41788582913E+02 -0.16107954695E+02  0.50349054403E+02  0.00000000000E+00 0.  1.
<mgrwt>
<rscale>  0 0.15544998E+04</rscale>
<asrwt>0</asrwt>
<pdfrwt beam="1">  1        1 0.18156135E+00 0.15544998E+04</pdfrwt>
<pdfrwt beam="2">  1       -1 0.78753746E-01 0.15544998E+04</pdfrwt>
<totfact> 0.17167154E+01</totfact>
</mgrwt>
</event>
<event>
12    1  0.4247462E-008  0.1261629E+04  0.7818608E-02  0.9060559E-01
          2   -1    0    0  501    0  0.00000000000E+00  0.00000000000E+00  0.18397673068E+04  0.18397673068E+04  0.00000000000E+00 0.  1.
         -2   -1    0    0    0  501 -0.00000000000E+00 -0.00000000000E+00 -0.21629210068E+03  0.21629210068E+03  0.00000000000E+00 0. -1.
         23    2    1    2    0    0  0.60497498884E+02 -0.23175068987E+03  0.26448877765E+03  0.36794157347E+03  0.89768359467E+02 0.  0.
        254    2    1    2    0    0 -0.60497498884E+02  0.23175068987E+03  0.13589864284E+04  0.16881178340E+04  0.97238334984E+03 0.  0.
         23    2    4    4    0    0 -0.21409993692E+03  0.18290861067E+03  0.14517982401E+04  0.14815292886E+04  0.88975052930E+02 0.  0.
         23    2    4    4    0    0  0.15360243804E+03  0.48842079197E+02 -0.92811811687E+02  0.20658854539E+03  0.89919614237E+02 0.  0.
         13    1    3    3    0    0  0.52490890909E+02 -0.23066760003E+03  0.26937073168E+03  0.35850164074E+03  0.00000000000E+00 0. -1.
        -13    1    3    3    0    0  0.80066079749E+01 -0.10830898370E+01 -0.48819540240E+01  0.94399327303E+01  0.00000000000E+00 0.  1.
          4    1    5    5  502    0 -0.21639071517E+03  0.15607803872E+03  0.13570223272E+04  0.13830021303E+04  0.00000000000E+00 0. -1.
          3    1    6    6  503    0  0.10572787040E+03  0.52615776268E+02 -0.10390685089E+03  0.15730046457E+03  0.00000000000E+00 0. -1.
         -4    1    5    5    0  502  0.22907782427E+01  0.26830571947E+02  0.94775912881E+02  0.98527158278E+02  0.00000000000E+00 0.  1.
         -3    1    6    6    0  503  0.47874567637E+02 -0.37736970711E+01  0.11095039199E+02  0.49288080820E+02  0.00000000000E+00 0.  1.
<mgrwt>
<rscale>  0 0.12616293E+04</rscale>
<asrwt>0</asrwt>
<pdfrwt beam="1">  1        2 0.28304111E+00 0.12616293E+04</pdfrwt>
<pdfrwt beam="2">  1       -2 0.33275709E-01 0.12616293E+04</pdfrwt>
<totfact> 0.68007192E+01</totfact>
</mgrwt>
</event>
<event>
12    1  0.4247462E-008  0.1638630E+04  0.7818608E-02  0.8797161E-01
          1   -1    0    0  501    0  0.00000000000E+00  0.00000000000E+00  0.85149086315E+03  0.85149086315E+03  0.00000000000E+00 0. -1.
         -1   -1    0    0    0  501 -0.00000000000E+00 -0.00000000000E+00 -0.78835538038E+03  0.78835538038E+03  0.00000000000E+00 0.  1.
         23    2    1    2    0    0  0.46931343205E+03  0.86609219724E+02  0.32530926269E+03  0.58449903233E+03  0.89759389273E+02 0.  0.
        254    2    1    2    0    0 -0.46931343205E+03 -0.86609219724E+02 -0.26217377992E+03  0.10553472112E+04  0.90402787062E+03 0.  0.
         23    2    4    4    0    0  0.16798678033E+03  0.23379706553E+03 -0.97415378294E+02  0.31718194754E+03  0.90741422201E+02 0.  0.
         23    2    4    4    0    0 -0.63730021238E+03 -0.32040628525E+03 -0.16475840163E+03  0.73816526365E+03  0.94503318623E+02 0.  0.
         13    1    3    3    0    0  0.35007668162E+03  0.10006492692E+03  0.22422041557E+03  0.42759965782E+03  0.00000000000E+00 0. -1.
        -13    1    3    3    0    0  0.11923675043E+03 -0.13455707192E+02  0.10108884713E+03  0.15689937451E+03  0.00000000000E+00 0.  1.
          4    1    5    5  502    0  0.24819032691E+02  0.10941402517E+03 -0.35269709341E+02  0.11760682669E+03  0.00000000000E+00 0. -1.
          1    1    6    6  503    0 -0.91683439490E+02 -0.11305632414E+02 -0.24763364723E+02  0.95639398960E+02  0.00000000000E+00 0. -1.
         -4    1    5    5    0  502  0.14316774764E+03  0.12438304036E+03 -0.62145668953E+02  0.19957512085E+03  0.00000000000E+00 0.  1.
         -1    1    6    6    0  503 -0.54561677289E+03 -0.30910065284E+03 -0.13999503691E+03  0.64252586469E+03  0.00000000000E+00 0.  1.
<mgrwt>
<rscale>  0 0.16386304E+04</rscale>
<asrwt>0</asrwt>
<pdfrwt beam="1">  1        1 0.13099859E+00 0.16386304E+04</pdfrwt>
<pdfrwt beam="2">  1       -1 0.12128544E+00 0.16386304E+04</pdfrwt>
<totfact> 0.11521899E+01</totfact>
</mgrwt>
</event>
<event>
12    1  0.4247462E-008  0.1461769E+04  0.7818608E-02  0.8910282E-01
          1   -1    0    0  501    0  0.00000000000E+00  0.00000000000E+00  0.23468954308E+04  0.23468954308E+04  0.00000000000E+00 0. -1.
         -1   -1    0    0    0  501 -0.00000000000E+00 -0.00000000000E+00 -0.22761648346E+03  0.22761648346E+03  0.00000000000E+00 0.  1.
         23    2    1    2    0    0  0.21762139908E+02  0.44508931032E+03  0.61040404986E+03  0.76137666929E+03  0.92321414414E+02 0.  0.
        254    2    1    2    0    0 -0.21762139908E+02 -0.44508931032E+03  0.15088748975E+04  0.18131352450E+04  0.90120911857E+03 0.  0.
         23    2    4    4    0    0  0.36588612859E+02 -0.11796292557E+03 -0.89027762572E+02  0.17888608044E+03  0.93916499433E+02 0.  0.
         23    2    4    4    0    0 -0.58350752767E+02 -0.32712638475E+03  0.15979026601E+04  0.16342491645E+04  0.84029392455E+02 0.  0.
         11    1    3    3    0    0  0.49280768301E+02  0.17529428679E+03  0.21251566160E+03  0.27985636946E+03  0.00000000000E+00 0.  1.
        -11    1    3    3    0    0 -0.27518628393E+02  0.26979502353E+03  0.39788838826E+03  0.48152029983E+03  0.00000000000E+00 0. -1.
          2    1    5    5  502    0  0.19794314113E+02 -0.80960484476E+02 -0.26039818880E+01  0.83385823972E+02  0.00000000000E+00 0. -1.
          1    1    6    6  503    0  0.77452591975E+01 -0.14415897711E+03  0.80401501956E+03  0.81687327744E+03  0.00000000000E+00 0. -1.
         -2    1    5    5    0  502  0.16794298746E+02 -0.37002441095E+02 -0.86423780684E+02  0.95500256466E+02  0.00000000000E+00 0.  1.
         -1    1    6    6    0  503 -0.66096011965E+02 -0.18296740764E+03  0.79388764051E+03  0.81737588710E+03  0.00000000000E+00 0.  1.
<mgrwt>
<rscale>  0 0.14617689E+04</rscale>
<asrwt>0</asrwt>
<pdfrwt beam="1">  1        1 0.36106082E+00 0.14617689E+04</pdfrwt>
<pdfrwt beam="2">  1       -1 0.35017922E-01 0.14617689E+04</pdfrwt>
<totfact> 0.13028110E+01</totfact>
</mgrwt>
</event>
<event>
12    1  0.4247462E-008  0.1457610E+04  0.7818608E-02  0.8913142E-01
         -2   -1    0    0    0  501 -0.00000000000E+00  0.00000000000E+00  0.18892118306E+03  0.18892118306E+03  0.00000000000E+00 0. -1.
          2   -1    0    0  501    0  0.00000000000E+00 -0.00000000000E+00 -0.28115237152E+04  0.28115237152E+04  0.00000000000E+00 0.  1.
         23    2    1    2    0    0  0.21741351720E+03  0.49867926702E+01 -0.16265729383E+04  0.16433648324E+04  0.87263642228E+02 0.  0.
        254    2    1    2    0    0 -0.21741351720E+03 -0.49867926702E+01 -0.99602959380E+03  0.13570800658E+04  0.89571080586E+03 0.  0.
         23    2    4    4    0    0 -0.45965567733E+03 -0.26153194251E+03 -0.73334790292E+03  0.90879611719E+03  0.91809243804E+02 0.  0.
         23    2    4    4    0    0  0.24224216013E+03  0.25654514984E+03 -0.26268169088E+03  0.44828394861E+03  0.86372158789E+02 0.  0.
         11    1    3    3    0    0  0.14863316553E+03  0.36081277599E+02 -0.90257213180E+03  0.91543985580E+03  0.00000000000E+00 0.  1.
        -11    1    3    3    0    0  0.68780351678E+02 -0.31094484929E+02 -0.72400080652E+03  0.72792497663E+03  0.00000000000E+00 0. -1.
          1    1    6    6  502    0  0.24708398908E+03  0.24899502434E+03 -0.26425112397E+03  0.43917841059E+03  0.00000000000E+00 0. -1.
          1    1    5    5  503    0 -0.32235976123E+03 -0.22967977670E+03 -0.54228419274E+03  0.67137229700E+03  0.00000000000E+00 0. -1.
         -1    1    5    5    0  503 -0.13729591611E+03 -0.31852165804E+02 -0.19106371018E+03  0.23742382019E+03  0.00000000000E+00 0.  1.
         -1    1    6    6    0  502 -0.48418289470E+01  0.75501254952E+01  0.15694330939E+01  0.91055380281E+01  0.00000000000E+00 0.  1.
<mgrwt>
<rscale>  0 0.14576095E+04</rscale>
<asrwt>0</asrwt>
<pdfrwt beam="1">  1        2 0.43254210E+00 0.14576095E+04</pdfrwt>
<pdfrwt beam="2">  1       -2 0.29064798E-01 0.14576095E+04</pdfrwt>
<totfact> 0.24134303E+01</totfact>
</mgrwt>
</event>
<event>
12    1  0.4247462E-008  0.1638582E+04  0.7818608E-02  0.8797190E-01
          2   -1    0    0  501    0  0.00000000000E+00  0.00000000000E+00  0.68690920925E+03  0.68690920925E+03  0.00000000000E+00 0. -1.
         -2   -1    0    0    0  501 -0.00000000000E+00 -0.00000000000E+00 -0.97718553881E+03  0.97718553881E+03  0.00000000000E+00 0.  1.
         23    2    1    2    0    0 -0.49981607784E+03 -0.25376114545E+03  0.22276446992E+02  0.56859941087E+03  0.92726583776E+02 0.  0.
        254    2    1    2    0    0  0.49981607784E+03  0.25376114545E+03 -0.31255277656E+03  0.10954953372E+04  0.88781189735E+03 0.  0.
         23    2    4    4    0    0 -0.98307510241E+02  0.26466758749E+03  0.15096390193E+03  0.33323781836E+03  0.92434005978E+02 0.  0.
         23    2    4    4    0    0  0.59812358808E+03 -0.10906442034E+02 -0.46351667849E+03  0.76225751883E+03  0.91203271253E+02 0.  0.
         11    1    3    3    0    0 -0.35332380947E+03 -0.20288192160E+03 -0.19818808614E+02  0.40791123254E+03  0.00000000000E+00 0. -1.
        -11    1    3    3    0    0 -0.14649226836E+03 -0.50879223847E+02  0.42095255605E+02  0.16068817833E+03  0.00000000000E+00 0.  1.
          2    1    5    5  502    0  0.98295369011E+01  0.46770168276E+01 -0.42787300549E+01  0.11696230717E+02  0.00000000000E+00 0. -1.
          1    1    6    6  503    0  0.25837207899E+03  0.14455786197E+02 -0.25221515166E+03  0.36135520431E+03  0.00000000000E+00 0. -1.
         -2    1    5    5    0  502 -0.10813704714E+03  0.25999057066E+03  0.15524263199E+03  0.32154158764E+03  0.00000000000E+00 0.  1.
         -1    1    6    6    0  503  0.33975150909E+03 -0.25362228232E+02 -0.21130152683E+03  0.40090231453E+03  0.00000000000E+00 0.  1.
<mgrwt>
<rscale>  0 0.16385820E+04</rscale>
<asrwt>0</asrwt>
<pdfrwt beam="1">  1        2 0.10567834E+00 0.16385820E+04</pdfrwt>
<pdfrwt beam="2">  1       -2 0.15033624E+00 0.16385820E+04</pdfrwt>
<totfact> 0.11942687E+01</totfact>
</mgrwt>
</event>
<event>
12    1  0.5924938E-008  0.2554416E+04  0.7818608E-02  0.8383852E-01
         -2   -1    0    0    0  501 -0.00000000000E+00  0.00000000000E+00  0.68986625722E+03  0.68986625722E+03  0.00000000000E+00 0.  1.
          2   -1    0    0  501    0  0.00000000000E+00 -0.00000000000E+00 -0.23646037630E+04  0.23646037630E+04  0.00000000000E+00 0. -1.
         23    2    1    2    0    0  0.88941049724E+03  0.55324049751E+03 -0.93563764234E+03  0.14074558874E+04  0.91587098421E+02 0.  0.
        254    2    1    2    0    0 -0.88941049724E+03 -0.55324049751E+03 -0.73909986340E+03  0.16470141328E+04  0.10340507071E+04 0.  0.
         23    2    4    4    0    0 -0.26003475729E+03 -0.41785313904E+02  0.24309001784E+03  0.36998612185E+03  0.91830747171E+02 0.  0.
         23    2    4    4    0    0 -0.62937573995E+03 -0.51145518361E+03 -0.98218988124E+03  0.12770280109E+04  0.91669793198E+02 0.  0.
         13    1    3    3    0    0  0.85847250150E+03  0.53742694981E+03 -0.87925792651E+03  0.13412297579E+04  0.00000000000E+00 0.  1.
        -13    1    3    3    0    0  0.30937995732E+02  0.15813547702E+02 -0.56379715830E+02  0.66226129495E+02  0.00000000000E+00 0. -1.
          2    1    5    5  502    0 -0.58000053290E+02 -0.39312258748E+02  0.29657975167E+02  0.76085842051E+02  0.00000000000E+00 0. -1.
          4    1    6    6  503    0 -0.15037016628E+02  0.14908582901E+00 -0.88521540247E+01  0.17449777263E+02  0.00000000000E+00 0. -1.
         -2    1    5    5    0  502 -0.20203470400E+03 -0.24730551553E+01  0.21343204268E+03  0.29390027980E+03  0.00000000000E+00 0.  1.
         -4    1    6    6    0  503 -0.61433872332E+03 -0.51160426944E+03 -0.97333772722E+03  0.12595782337E+04  0.00000000000E+00 0.  1.
<mgrwt>
<rscale>  0 0.25544161E+04</rscale>
<asrwt>0</asrwt>
<pdfrwt beam="1">  1        2 0.36378519E+00 0.25544161E+04</pdfrwt>
<pdfrwt beam="2">  1       -2 0.10613327E+00 0.25544161E+04</pdfrwt>
<totfact> 0.26488509E+00</totfact>
</mgrwt>
</event>
<event>
12    1  0.4247462E-008  0.2043170E+04  0.7818608E-02  0.8586699E-01
          1   -1    0    0  501    0  0.00000000000E+00  0.00000000000E+00  0.33710282031E+04  0.33710282031E+04  0.00000000000E+00 0. -1.
         -1   -1    0    0    0  501 -0.00000000000E+00 -0.00000000000E+00 -0.30958964909E+03  0.30958964909E+03  0.00000000000E+00 0.  1.
         23    2    1    2    0    0 -0.76422032714E+03  0.13664177278E+03  0.16812349201E+04  0.18560497503E+04  0.12516443757E+03 0.  0.
        254    2    1    2    0    0  0.76422032714E+03 -0.13664177278E+03  0.13802036340E+04  0.18245681020E+04  0.90630182891E+03 0.  0.
         23    2    4    4    0    0  0.76516554615E+03 -0.16965660971E+03  0.48951775965E+03  0.92866538162E+03  0.92358409285E+02 0.  0.
         23    2    4    4    0    0 -0.94521901125E+00  0.33014836936E+02  0.89068587433E+03  0.89590272037E+03  0.90716507577E+02 0.  0.
         11    1    3    3    0    0 -0.22150168003E+03  0.97848296914E+02  0.50353245986E+03  0.55873269243E+03  0.00000000000E+00 0.  1.
        -11    1    3    3    0    0 -0.54271864711E+03  0.38793475863E+02  0.11777024602E+04  0.12973170578E+04  0.00000000000E+00 0. -1.
          2    1    5    5  502    0  0.61709643962E+03 -0.10441450840E+03  0.41154580158E+03  0.74905297019E+03  0.00000000000E+00 0. -1.
          4    1    6    6  503    0 -0.37720389042E+02  0.10697021750E+02  0.66492936725E+03  0.66608431708E+03  0.00000000000E+00 0. -1.
         -2    1    5    5    0  502  0.14806910654E+03 -0.65242101313E+02  0.77971958072E+02  0.17961241143E+03  0.00000000000E+00 0.  1.
         -4    1    6    6    0  503  0.36775170031E+02  0.22317815187E+02  0.22575650707E+03  0.22981840329E+03  0.00000000000E+00 0.  1.
<mgrwt>
<rscale>  0 0.20431695E+04</rscale>
<asrwt>0</asrwt>
<pdfrwt beam="1">  1        1 0.51861970E+00 0.20431695E+04</pdfrwt>
<pdfrwt beam="2">  1       -1 0.47629179E-01 0.20431695E+04</pdfrwt>
<totfact> 0.12858006E+00</totfact>
</mgrwt>
</event>
<event>
12    1  0.4247462E-008  0.1804968E+04  0.7818608E-02  0.8703662E-01
         -2   -1    0    0    0  501 -0.00000000000E+00  0.00000000000E+00  0.20066398133E+03  0.20066398133E+03  0.00000000000E+00 0.  1.
          2   -1    0    0  501    0  0.00000000000E+00 -0.00000000000E+00 -0.40589138760E+04  0.40589138760E+04  0.00000000000E+00 0. -1.
         23    2    1    2    0    0 -0.61868900456E+03  0.67301545696E+02 -0.20625325615E+04  0.21562304993E+04  0.89352203707E+02 0.  0.
        254    2    1    2    0    0  0.61868900456E+03 -0.67301545696E+02 -0.17957173331E+04  0.21033473580E+04  0.90120130137E+03 0.  0.
         23    2    4    4    0    0  0.33040257137E+03  0.30604894204E+03 -0.14234413529E+04  0.14956023002E+04  0.88369345271E+02 0.  0.
         23    2    4    4    0    0  0.28828643320E+03 -0.37335048774E+03 -0.37227598016E+03  0.60774505774E+03  0.90912020920E+02 0.  0.
         13    1    3    3    0    0 -0.29184682453E+03  0.51850959350E+02 -0.11179985404E+04  0.11566260534E+04  0.00000000000E+00 0. -1.
        -13    1    3    3    0    0 -0.32684218003E+03  0.15450586346E+02 -0.94453402115E+03  0.99960444596E+03  0.00000000000E+00 0.  1.
          1    1    6    6  502    0  0.19630738093E+03 -0.21732838884E+03 -0.18077400922E+03  0.34416196596E+03  0.00000000000E+00 0. -1.
          1    1    5    5  503    0  0.16270223959E+03  0.15621641317E+03 -0.85612386410E+03  0.88533815980E+03  0.00000000000E+00 0. -1.
         -1    1    5    5    0  503  0.16770033178E+03  0.14983252888E+03 -0.56731748881E+03  0.61026414044E+03  0.00000000000E+00 0.  1.
         -1    1    6    6    0  502  0.91979052263E+02 -0.15602209890E+03 -0.19150197094E+03  0.26358309178E+03  0.00000000000E+00 0.  1.
<mgrwt>
<rscale>  0 0.18049685E+04</rscale>
<asrwt>0</asrwt>
<pdfrwt beam="1">  1        2 0.62444831E+00 0.18049685E+04</pdfrwt>
<pdfrwt beam="2">  1       -2 0.30871381E-01 0.18049685E+04</pdfrwt>
<totfact> 0.28517937E+00</totfact>
</mgrwt>
</event>
<event>
12    1  0.4247462E-008  0.2768755E+04  0.7818608E-02  0.8313035E-01
         -1   -1    0    0    0  501 -0.00000000000E+00  0.00000000000E+00  0.93960493758E+03  0.93960493758E+03  0.00000000000E+00 0.  1.
          1   -1    0    0  501    0  0.00000000000E+00 -0.00000000000E+00 -0.20396887842E+04  0.20396887842E+04  0.00000000000E+00 0. -1.
         23    2    1    2    0    0 -0.12540223651E+03 -0.64007973388E+03 -0.16266847053E+04  0.17549048128E+04  0.90332635274E+02 0.  0.
        254    2    1    2    0    0  0.12540223651E+03  0.64007973388E+03  0.52660085863E+03  0.12243889090E+04  0.89240795017E+03 0.  0.
         23    2    4    4    0    0 -0.12546259666E+03  0.50309382629E+03  0.70094176399E+03  0.87717242791E+03  0.96269676328E+02 0.  0.
         23    2    4    4    0    0  0.25086483317E+03  0.13698590759E+03 -0.17434090536E+03  0.34721648109E+03  0.92012119094E+02 0.  0.
         13    1    3    3    0    0 -0.45645489485E+02 -0.44923800353E+03 -0.11286944039E+04  0.12156682738E+04  0.00000000000E+00 0. -1.
        -13    1    3    3    0    0 -0.79756747027E+02 -0.19084173035E+03 -0.49799030138E+03  0.53923653902E+03  0.00000000000E+00 0.  1.
          2    1    5    5  502    0 -0.36878174445E+02  0.54167802941E+02  0.54853378027E+02  0.85457847544E+02  0.00000000000E+00 0. -1.
          4    1    6    6  503    0  0.33566820556E+02  0.21817046146E+02  0.82975907253E+01  0.40884776587E+02  0.00000000000E+00 0. -1.
         -2    1    5    5    0  502 -0.88584422214E+02  0.44892602335E+03  0.64608838596E+03  0.79171458037E+03  0.00000000000E+00 0.  1.
         -4    1    6    6    0  503  0.21729801262E+03  0.11516886145E+03 -0.18263849608E+03  0.30633170450E+03  0.00000000000E+00 0.  1.
<mgrwt>
<rscale>  0 0.27687554E+04</rscale>
<asrwt>0</asrwt>
<pdfrwt beam="1">  1        1 0.31379827E+00 0.27687554E+04</pdfrwt>
<pdfrwt beam="2">  1       -1 0.14455461E+00 0.27687554E+04</pdfrwt>
<totfact> 0.93638408E-01</totfact>
</mgrwt>
</event>
<event>
12    1  0.4247462E-008  0.1373530E+04  0.7818608E-02  0.8973205E-01
         -1   -1    0    0    0  501 -0.00000000000E+00  0.00000000000E+00  0.10790730882E+04  0.10790730882E+04  0.00000000000E+00 0.  1.
          1   -1    0    0  501    0  0.00000000000E+00 -0.00000000000E+00 -0.43708480843E+03  0.43708480843E+03  0.00000000000E+00 0. -1.
         23    2    1    2    0    0 -0.33814180300E+03 -0.23116869792E+02  0.36186254593E+03  0.50506152583E+03  0.96272395458E+02 0.  0.
        254    2    1    2    0    0  0.33814180300E+03  0.23116869792E+02  0.28012573387E+03  0.10110963708E+04  0.91047854214E+03 0.  0.
         23    2    4    4    0    0 -0.56169738249E+02 -0.31823541908E+03  0.34061920819E+03  0.47851315356E+03  0.92328607102E+02 0.  0.
         23    2    4    4    0    0  0.39431154125E+03  0.34135228887E+03 -0.60493474321E+02  0.53258321726E+03  0.89344536441E+02 0.  0.
         13    1    3    3    0    0 -0.23744142654E+03  0.23439308435E+02  0.21633882038E+03  0.32207191343E+03  0.00000000000E+00 0.  1.
        -13    1    3    3    0    0 -0.10070037646E+03 -0.46556178228E+02  0.14552372555E+03  0.18298961240E+03  0.00000000000E+00 0. -1.
          2    1    5    5  502    0 -0.38293073973E+02 -0.21595999199E+03  0.28831214060E+03  0.36225539067E+03  0.00000000000E+00 0. -1.
          3    1    6    6  503    0  0.29165186584E+03  0.19748595897E+03 -0.46720816322E+02  0.35530880867E+03  0.00000000000E+00 0. -1.
         -2    1    5    5    0  502 -0.17876664276E+02 -0.10227542708E+03  0.52307067592E+02  0.11625776288E+03  0.00000000000E+00 0.  1.
         -3    1    6    6    0  503  0.10265967541E+03  0.14386632990E+03 -0.13772657999E+02  0.17727440859E+03  0.00000000000E+00 0.  1.
<mgrwt>
<rscale>  0 0.13735304E+04</rscale>
<asrwt>0</asrwt>
<pdfrwt beam="1">  1        1 0.67243817E-01 0.13735304E+04</pdfrwt>
<pdfrwt beam="2">  1       -1 0.16601124E+00 0.13735304E+04</pdfrwt>
<totfact> 0.13705565E+01</totfact>
</mgrwt>
</event>
<event>
12    1  0.4247462E-008  0.1665751E+04  0.7818608E-02  0.8781142E-01
         -2   -1    0    0    0  501 -0.00000000000E+00  0.00000000000E+00  0.65062340855E+03  0.65062340855E+03  0.00000000000E+00 0.  1.
          2   -1    0    0  501    0  0.00000000000E+00 -0.00000000000E+00 -0.10661804056E+04  0.10661804056E+04  0.00000000000E+00 0. -1.
         23    2    1    2    0    0 -0.56248755681E+02 -0.11404487058E+03 -0.72577922569E+03  0.74239087625E+03  0.90656349290E+02 0.  0.
        254    2    1    2    0    0  0.56248755681E+02  0.11404487058E+03  0.31022222866E+03  0.97441293790E+03  0.91491671062E+03 0.  0.
         23    2    4    4    0    0  0.48398652281E+02 -0.29967505685E+03 -0.14814466066E+03  0.34989142137E+03  0.91266626052E+02 0.  0.
         23    2    4    4    0    0  0.78501033994E+01  0.41371992742E+03  0.45836688931E+03  0.62452151653E+03  0.93279777623E+02 0.  0.
         13    1    3    3    0    0 -0.58214086020E+02 -0.10039551127E+03 -0.71633960540E+03  0.72567938427E+03  0.00000000000E+00 0. -1.
        -13    1    3    3    0    0  0.19653303397E+01 -0.13649359305E+02 -0.94396202987E+01  0.16711491979E+02  0.00000000000E+00 0.  1.
          3    1    5    5  502    0 -0.12457618967E+02 -0.17965883391E+01 -0.27519188711E+01  0.12883829301E+02  0.00000000000E+00 0. -1.
          3    1    6    6  503    0 -0.70352399681E+01  0.24329127406E+02  0.35049135862E+01  0.25567273241E+02  0.00000000000E+00 0. -1.
         -3    1    5    5    0  502  0.60856271248E+02 -0.29787846851E+03 -0.14539274178E+03  0.33700759207E+03  0.00000000000E+00 0.  1.
         -3    1    6    6    0  503  0.14885343367E+02  0.38939080002E+03  0.45486197573E+03  0.59895424328E+03  0.00000000000E+00 0.  1.
<mgrwt>
<rscale>  0 0.16657514E+04</rscale>
<asrwt>0</asrwt>
<pdfrwt beam="1">  1        2 0.16402775E+00 0.16657514E+04</pdfrwt>
<pdfrwt beam="2">  1       -2 0.10009591E+00 0.16657514E+04</pdfrwt>
<totfact> 0.17983808E+01</totfact>
</mgrwt>
</event>
<event>
12    1  0.4247462E-008  0.1792277E+04  0.7818608E-02  0.8710417E-01
          1   -1    0    0  501    0  0.00000000000E+00  0.00000000000E+00  0.25896522536E+04  0.25896522536E+04  0.00000000000E+00 0. -1.
         -1   -1    0    0    0  501 -0.00000000000E+00 -0.00000000000E+00 -0.31010506840E+03  0.31010506840E+03  0.00000000000E+00 0.  1.
         23    2    1    2    0    0  0.13008308794E+03  0.58644777137E+03  0.13215292719E+04  0.14545032729E+04  0.91090921928E+02 0.  0.
        254    2    1    2    0    0 -0.13008308794E+03 -0.58644777137E+03  0.95801791329E+03  0.14452540491E+04  0.90006574535E+03 0.  0.
         23    2    4    4    0    0 -0.18516584977E+03  0.16933169809E+03  0.74187564205E+02  0.27705372402E+03  0.91078841721E+02 0.  0.
         23    2    4    4    0    0  0.55082761827E+02 -0.75577946947E+03  0.88383034909E+03  0.11682003251E+04  0.96432341282E+02 0.  0.
         13    1    3    3    0    0  0.96339857035E+02  0.44956718326E+03  0.10960615586E+04  0.11885886423E+04  0.00000000000E+00 0.  1.
        -13    1    3    3    0    0  0.33743230907E+02  0.13688058811E+03  0.22546771330E+03  0.26591463061E+03  0.00000000000E+00 0. -1.
          1    1    5    5  502    0 -0.12127199324E+03  0.15744508992E+03  0.36918169366E+02  0.20213560774E+03  0.00000000000E+00 0. -1.
          1    1    6    6  503    0  0.82382675188E+02 -0.60688497687E+03  0.70242668423E+03  0.93193322027E+03  0.00000000000E+00 0. -1.
         -1    1    5    5    0  502 -0.63893856526E+02  0.11886608173E+02  0.37269394838E+02  0.74918116282E+02  0.00000000000E+00 0.  1.
         -1    1    6    6    0  503 -0.27299913362E+02 -0.14889449260E+03  0.18140366485E+03  0.23626710482E+03  0.00000000000E+00 0.  1.
<mgrwt>
<rscale>  0 0.17922771E+04</rscale>
<asrwt>0</asrwt>
<pdfrwt beam="1">  1        1 0.39840803E+00 0.17922771E+04</pdfrwt>
<pdfrwt beam="2">  1       -1 0.47708474E-01 0.17922771E+04</pdfrwt>
<totfact> 0.48677070E+00</totfact>
</mgrwt>
</event>
<event>
12    1  0.4247462E-008  0.1574287E+04  0.7818608E-02  0.8836502E-01
          2   -1    0    0  501    0  0.00000000000E+00  0.00000000000E+00  0.58559276625E+03  0.58559276625E+03  0.00000000000E+00 0.  1.
         -2   -1    0    0    0  501 -0.00000000000E+00 -0.00000000000E+00 -0.10580640880E+04  0.10580640880E+04  0.00000000000E+00 0. -1.
         23    2    1    2    0    0 -0.31805506143E+03 -0.25810493524E+02 -0.59736948535E+03  0.68335654325E+03  0.91107955214E+02 0.  0.
        254    2    1    2    0    0  0.31805506143E+03  0.25810493524E+02  0.12489816360E+03  0.96030031098E+03  0.89707966889E+03 0.  0.
         23    2    4    4    0    0  0.56941704297E+03  0.21666281357E+02  0.28966412816E+03  0.64548313303E+03  0.89654733935E+02 0.  0.
         23    2    4    4    0    0 -0.25136198154E+03  0.41442121677E+01 -0.16476596456E+03  0.31481717795E+03  0.93605620546E+02 0.  0.
         11    1    3    3    0    0 -0.25210959227E+03 -0.46573282352E+02 -0.51886835113E+03  0.57875096799E+03  0.00000000000E+00 0. -1.
        -11    1    3    3    0    0 -0.65945469159E+02  0.20762788828E+02 -0.78501134218E+02  0.10460557526E+03  0.00000000000E+00 0.  1.
          2    1    5    5  502    0  0.48832468647E+03 -0.79982754168E+01  0.26514317133E+03  0.55572103895E+03  0.00000000000E+00 0. -1.
          3    1    6    6  503    0 -0.11351140254E+03 -0.38330396505E+02 -0.10263551794E+03  0.15775965056E+03  0.00000000000E+00 0. -1.
         -2    1    5    5    0  502  0.81092356496E+02  0.29664556773E+02  0.24520956835E+02  0.89762094086E+02  0.00000000000E+00 0.  1.
         -3    1    6    6    0  503 -0.13785057900E+03  0.42474608673E+02 -0.62130446619E+02  0.15705752739E+03  0.00000000000E+00 0.  1.
<mgrwt>
<rscale>  0 0.15742867E+04</rscale>
<asrwt>0</asrwt>
<pdfrwt beam="1">  1        2 0.90091195E-01 0.15742867E+04</pdfrwt>
<pdfrwt beam="2">  1       -2 0.16277909E+00 0.15742867E+04</pdfrwt>
<totfact> 0.11782233E+01</totfact>
</mgrwt>
</event>
<event>
12    1  0.4247462E-008  0.1919027E+04  0.7818608E-02  0.8645443E-01
         -2   -1    0    0    0  501 -0.00000000000E+00  0.00000000000E+00  0.10776174964E+04  0.10776174964E+04  0.00000000000E+00 0.  1.
          2   -1    0    0  501    0  0.00000000000E+00 -0.00000000000E+00 -0.85435372030E+03  0.85435372030E+03  0.00000000000E+00 0. -1.
         23    2    1    2    0    0 -0.21985191427E+02 -0.71234319455E+03 -0.14307102068E+03  0.73323686417E+03  0.96181113329E+02 0.  0.
        254    2    1    2    0    0  0.21985191427E+02  0.71234319455E+03  0.36633479678E+03  0.11987343525E+04  0.89154174841E+03 0.  0.
         23    2    4    4    0    0  0.55250167168E+02 -0.17353851327E+03 -0.56574545999E+02  0.21221243895E+03  0.93087289306E+02 0.  0.
         23    2    4    4    0    0 -0.33264975742E+02  0.88588170781E+03  0.42290934278E+03  0.98652191358E+03  0.92088082429E+02 0.  0.
         11    1    3    3    0    0  0.70779273287E+01 -0.10263369043E+02 -0.14094133557E+02  0.18816971066E+02  0.00000000000E+00 0.  1.
        -11    1    3    3    0    0 -0.29063118755E+02 -0.70207982550E+03 -0.12897688713E+03  0.71441989310E+03  0.00000000000E+00 0. -1.
          2    1    6    6  502    0 -0.98713874879E+01  0.65733769966E+03  0.27085622869E+03  0.71102277904E+03  0.00000000000E+00 0. -1.
          2    1    5    5  503    0  0.26279736699E+02 -0.91978441612E+02 -0.77561221788E+02  0.12315194439E+03  0.00000000000E+00 0.  1.
         -2    1    5    5    0  503  0.28970430469E+02 -0.81560071655E+02  0.20986675789E+02  0.89060494557E+02  0.00000000000E+00 0. -1.
         -2    1    6    6    0  502 -0.23393588254E+02  0.22854400815E+03  0.15205311409E+03  0.27549913455E+03  0.00000000000E+00 0.  1.
<mgrwt>
<rscale>  0 0.19190274E+04</rscale>
<asrwt>0</asrwt>
<pdfrwt beam="1">  1        2 0.13143903E+00 0.19190274E+04</pdfrwt>
<pdfrwt beam="2">  1       -2 0.16578731E+00 0.19190274E+04</pdfrwt>
<totfact> 0.67319364E+00</totfact>
</mgrwt>
</event>
<event>
12    1  0.4247462E-008  0.1284310E+04  0.7818608E-02  0.9042101E-01
         -2   -1    0    0    0  501 -0.00000000000E+00  0.00000000000E+00  0.29148875927E+03  0.29148875927E+03  0.00000000000E+00 0.  1.
          2   -1    0    0  501    0  0.00000000000E+00 -0.00000000000E+00 -0.14146783411E+04  0.14146783411E+04  0.00000000000E+00 0. -1.
         23    2    1    2    0    0  0.31512777367E+03 -0.35749092288E+02 -0.28017147578E+03  0.43274923086E+03  0.90511488941E+02 0.  0.
        254    2    1    2    0    0 -0.31512777367E+03  0.35749092288E+02 -0.84301810606E+03  0.12734178695E+04  0.90018333241E+03 0.  0.
         23    2    4    4    0    0 -0.41871620666E+02  0.14033969764E+03 -0.93714047868E+03  0.95305383882E+03  0.92902527192E+02 0.  0.
         23    2    4    4    0    0 -0.27325615300E+03 -0.10459060535E+03  0.94122372623E+02  0.32036403071E+03  0.90365763765E+02 0.  0.
         13    1    3    3    0    0  0.26934295125E+03 -0.45195597960E+02 -0.27169922164E+03  0.38523854234E+03  0.00000000000E+00 0. -1.
        -13    1    3    3    0    0  0.45784822415E+02  0.94465056716E+01 -0.84722541365E+01  0.47510688514E+02  0.00000000000E+00 0.  1.
          1    1    5    5  502    0  0.13404257737E+02  0.54778748618E+02 -0.54459732038E+03  0.54750947644E+03  0.00000000000E+00 0. -1.
          1    1    6    6  503    0 -0.10282085351E+03 -0.21296390043E-01  0.95712244974E+01  0.10326537033E+03  0.00000000000E+00 0. -1.
         -1    1    5    5    0  502 -0.55275878402E+02  0.85560949024E+02 -0.39254315829E+03  0.40554436238E+03  0.00000000000E+00 0.  1.
         -1    1    6    6    0  503 -0.17043529949E+03 -0.10456930896E+03  0.84551148126E+02  0.21709866038E+03  0.00000000000E+00 0.  1.
<mgrwt>
<rscale>  0 0.12843097E+04</rscale>
<asrwt>0</asrwt>
<pdfrwt beam="1">  1        2 0.21764282E+00 0.12843097E+04</pdfrwt>
<pdfrwt beam="2">  1       -2 0.44844424E-01 0.12843097E+04</pdfrwt>
<totfact> 0.65649862E+01</totfact>
</mgrwt>
</event>
<event>
12    1  0.4247462E-008  0.1434370E+04  0.7818608E-02  0.8929309E-01
          2   -1    0    0  501    0  0.00000000000E+00  0.00000000000E+00  0.16325646924E+04  0.16325646924E+04  0.00000000000E+00 0. -1.
         -2   -1    0    0    0  501 -0.00000000000E+00 -0.00000000000E+00 -0.31505887506E+03  0.31505887506E+03  0.00000000000E+00 0.  1.
         23    2    1    2    0    0  0.12038506687E+03 -0.33677129043E+03  0.77740825761E+02  0.37774424657E+03  0.93485899686E+02 0.  0.
        254    2    1    2    0    0 -0.12038506687E+03  0.33677129043E+03  0.12397649916E+04  0.15698793209E+04  0.89420153288E+03 0.  0.
         23    2    4    4    0    0 -0.38644843911E+03  0.92972706431E+02  0.10984644426E+04  0.11717833505E+04  0.92009611147E+02 0.  0.
         23    2    4    4    0    0  0.26606337224E+03  0.24379858400E+03  0.14130054898E+03  0.39809597041E+03  0.91033449404E+02 0.  0.
         11    1    3    3    0    0 -0.15360410536E+01 -0.12270868491E+03  0.35954989687E+02  0.12787705837E+03  0.00000000000E+00 0. -1.
        -11    1    3    3    0    0  0.12192110793E+03 -0.21406260552E+03  0.41785836075E+02  0.24986718820E+03  0.00000000000E+00 0.  1.
          2    1    5    5  502    0 -0.10306200636E+03 -0.29528086142E+01  0.20337797909E+03  0.22801995222E+03  0.00000000000E+00 0. -1.
          1    1    6    6  503    0  0.19747611083E+02  0.97861053068E+01  0.36334475128E+02  0.42496236109E+02  0.00000000000E+00 0. -1.
         -2    1    5    5    0  502 -0.28338643275E+03  0.95925515045E+02  0.89508646350E+03  0.94376339823E+03  0.00000000000E+00 0.  1.
         -1    1    6    6    0  503  0.24631576116E+03  0.23401247869E+03  0.10496607385E+03  0.35559973431E+03  0.00000000000E+00 0.  1.
<mgrwt>
<rscale>  0 0.14343695E+04</rscale>
<asrwt>0</asrwt>
<pdfrwt beam="1">  1        2 0.25116379E+00 0.14343695E+04</pdfrwt>
<pdfrwt beam="2">  1       -2 0.48470597E-01 0.14343695E+04</pdfrwt>
<totfact> 0.41849718E+01</totfact>
</mgrwt>
</event>
<event>
12    1  0.4247462E-008  0.2307356E+04  0.7818608E-02  0.8475026E-01
         -1   -1    0    0    0  501 -0.00000000000E+00  0.00000000000E+00  0.14557210275E+04  0.14557210275E+04  0.00000000000E+00 0.  1.
          1   -1    0    0  501    0  0.00000000000E+00 -0.00000000000E+00 -0.91430519274E+03  0.91430519274E+03  0.00000000000E+00 0. -1.
         23    2    1    2    0    0 -0.10103458607E+03  0.66280408368E+03  0.95762357373E+03  0.11730786285E+04  0.97741080339E+02 0.  0.
        254    2    1    2    0    0  0.10103458607E+03 -0.66280408368E+03 -0.41620773892E+03  0.11969475918E+04  0.89996522965E+03 0.  0.
         23    2    4    4    0    0 -0.78694579311E+02  0.90685412743E+02 -0.38866696865E+03  0.41660201286E+03  0.89880719308E+02 0.  0.
         23    2    4    4    0    0  0.17972916539E+03 -0.75348949642E+03 -0.27540770274E+02  0.78034557891E+03  0.90176129816E+02 0.  0.
         13    1    3    3    0    0 -0.10289570843E+02  0.15091642994E+03  0.28833787764E+03  0.32560770226E+03  0.00000000000E+00 0.  1.
        -13    1    3    3    0    0 -0.90745015232E+02  0.51188765374E+03  0.66928569609E+03  0.84747092625E+03  0.00000000000E+00 0. -1.
          3    1    6    6  502    0  0.78846249355E+02 -0.23677207111E+03  0.27204267508E+02  0.25103349750E+03  0.00000000000E+00 0. -1.
          3    1    5    5  503    0 -0.68680854758E+02  0.24168352265E+02 -0.27544413872E+03  0.28490462021E+03  0.00000000000E+00 0. -1.
         -3    1    5    5    0  503 -0.10013724554E+02  0.66517060477E+02 -0.11322282993E+03  0.13169739265E+03  0.00000000000E+00 0.  1.
         -3    1    6    6    0  502  0.10088291603E+03 -0.51671742531E+03 -0.54745037781E+02  0.52931208141E+03  0.00000000000E+00 0.  1.
<mgrwt>
<rscale>  0 0.23073563E+04</rscale>
<asrwt>0</asrwt>
<pdfrwt beam="1">  1        1 0.14066234E+00 0.23073563E+04</pdfrwt>
<pdfrwt beam="2">  1       -1 0.22395708E+00 0.23073563E+04</pdfrwt>
<totfact> 0.16566101E+00</totfact>
</mgrwt>
</event>
<event>
12    1  0.4247462E-008  0.1350523E+04  0.7818608E-02  0.8990432E-01
         -1   -1    0    0    0  501 -0.00000000000E+00  0.00000000000E+00  0.38100571464E+03  0.38100571464E+03  0.00000000000E+00 0.  1.
          1   -1    0    0  501    0  0.00000000000E+00 -0.00000000000E+00 -0.11967757487E+04  0.11967757487E+04  0.00000000000E+00 0. -1.
         23    2    1    2    0    0 -0.60411866482E+02 -0.16923961775E+03 -0.61088686240E+03  0.64367491571E+03  0.94037208757E+02 0.  0.
        254    2    1    2    0    0  0.60411866482E+02  0.16923961775E+03 -0.20488317163E+03  0.93410654760E+03  0.89346868240E+03 0.  0.
         23    2    4    4    0    0 -0.98637774409E+02 -0.15848577369E+03 -0.44466744227E+03  0.49024633734E+03  0.88120293128E+02 0.  0.
         23    2    4    4    0    0  0.15904964089E+03  0.32772539145E+03  0.23978427064E+03  0.44386021026E+03  0.82551010550E+02 0.  0.
         11    1    3    3    0    0 -0.40572716524E+02 -0.17675472420E+03 -0.55612387469E+03  0.58494627263E+03  0.00000000000E+00 0. -1.
        -11    1    3    3    0    0 -0.19839149958E+02  0.75151064471E+01 -0.54762987705E+02  0.58728643083E+02  0.00000000000E+00 0.  1.
          1    1    5    5  502    0 -0.50328265007E+02 -0.13352345686E+03 -0.37909003195E+03  0.40505641596E+03  0.00000000000E+00 0. -1.
          3    1    6    6  503    0  0.12768292699E+03  0.28101271069E+03  0.23392748944E+03  0.38728948311E+03  0.00000000000E+00 0. -1.
         -1    1    5    5    0  502 -0.48309509402E+02 -0.24962316827E+02 -0.65577410321E+02  0.85189921379E+02  0.00000000000E+00 0.  1.
         -3    1    6    6    0  503  0.31366713899E+02  0.46712680753E+02  0.58567811987E+01  0.56570727148E+02  0.00000000000E+00 0.  1.
<mgrwt>
<rscale>  0 0.13505235E+04</rscale>
<asrwt>0</asrwt>
<pdfrwt beam="1">  1        1 0.18411935E+00 0.13505235E+04</pdfrwt>
<pdfrwt beam="2">  1       -1 0.58616263E-01 0.13505235E+04</pdfrwt>
<totfact> 0.31015352E+01</totfact>
</mgrwt>
</event>
<event>
12    1  0.4247462E-008  0.2362833E+04  0.7818608E-02  0.8453551E-01
          1   -1    0    0  501    0  0.00000000000E+00  0.00000000000E+00  0.14909875390E+04  0.14909875390E+04  0.00000000000E+00 0. -1.
         -1   -1    0    0    0  501 -0.00000000000E+00 -0.00000000000E+00 -0.93612133268E+03  0.93612133268E+03  0.00000000000E+00 0.  1.
         23    2    1    2    0    0  0.10076377048E+03  0.24129871165E+03 -0.76094662959E+03  0.80981927182E+03  0.91591889609E+02 0.  0.
        254    2    1    2    0    0 -0.10076377048E+03 -0.24129871165E+03  0.13158128359E+04  0.16172895999E+04  0.90326287700E+03 0.  0.
         23    2    4    4    0    0  0.35280237347E+03 -0.25260572793E+03  0.42883978974E+03  0.61695951724E+03  0.91958208645E+02 0.  0.
         23    2    4    4    0    0 -0.45356614395E+03  0.11307016278E+02  0.88697304616E+03  0.10003300826E+04  0.89938834775E+02 0.  0.
         11    1    3    3    0    0  0.11845719225E+02 -0.74308914633E+00 -0.94244714410E+02  0.94989154327E+02  0.00000000000E+00 0. -1.
        -11    1    3    3    0    0  0.88918051253E+02  0.24204180080E+03 -0.66670191518E+03  0.71483011749E+03  0.00000000000E+00 0.  1.
          4    1    5    5  502    0  0.25270673357E+02 -0.55876010319E+02  0.64978799426E+02  0.89347522830E+02  0.00000000000E+00 0. -1.
          3    1    6    6  503    0 -0.23124378613E+03  0.21228226115E+01  0.54862825218E+03  0.59537480136E+03  0.00000000000E+00 0. -1.
         -4    1    5    5    0  502  0.32753170012E+03 -0.19672971761E+03  0.36386099032E+03  0.52761199441E+03  0.00000000000E+00 0.  1.
         -3    1    6    6    0  503 -0.22232235782E+03  0.91841936661E+01  0.33834479398E+03  0.40495528125E+03  0.00000000000E+00 0.  1.
<mgrwt>
<rscale>  0 0.23628333E+04</rscale>
<asrwt>0</asrwt>
<pdfrwt beam="1">  1        1 0.22938270E+00 0.23628333E+04</pdfrwt>
<pdfrwt beam="2">  1       -1 0.14401867E+00 0.23628333E+04</pdfrwt>
<totfact> 0.23211768E+00</totfact>
</mgrwt>
</event>
<event>
12    1  0.4247462E-008  0.2871117E+04  0.7818608E-02  0.8281523E-01
          2   -1    0    0  501    0  0.00000000000E+00  0.00000000000E+00  0.16391245900E+04  0.16391245900E+04  0.00000000000E+00 0. -1.
         -2   -1    0    0    0  501 -0.00000000000E+00 -0.00000000000E+00 -0.12572738813E+04  0.12572738813E+04  0.00000000000E+00 0.  1.
         23    2    1    2    0    0 -0.22776013156E+03 -0.65827664135E+03  0.12705066762E+04  0.14514655232E+04  0.85802894442E+02 0.  0.
        254    2    1    2    0    0  0.22776013156E+03  0.65827664135E+03 -0.88865596741E+03  0.14449329482E+04  0.90162019843E+03 0.  0.
         23    2    4    4    0    0 -0.88586032042E+02  0.74305374606E+03 -0.40941886180E+03  0.85728169304E+03  0.85625593241E+02 0.  0.
         23    2    4    4    0    0  0.31634616360E+03 -0.84777104717E+02 -0.47923710561E+03  0.58765125512E+03  0.91671923418E+02 0.  0.
         13    1    3    3    0    0 -0.42969992588E+02 -0.24782548801E+03  0.43994417332E+03  0.50676894973E+03  0.00000000000E+00 0. -1.
        -13    1    3    3    0    0 -0.18479013897E+03 -0.41045115334E+03  0.83056250283E+03  0.94469657343E+03  0.00000000000E+00 0.  1.
          2    1    5    5  502    0 -0.48275337813E+02  0.59455153602E+03 -0.35451395195E+03  0.69390358073E+03  0.00000000000E+00 0. -1.
          3    1    6    6  503    0  0.20556638054E+03 -0.95663330414E+02 -0.29016620963E+03  0.36824643760E+03  0.00000000000E+00 0. -1.
         -2    1    5    5    0  502 -0.40310694229E+02  0.14850221004E+03 -0.54904909851E+02  0.16337811231E+03  0.00000000000E+00 0.  1.
         -3    1    6    6    0  503  0.11077978306E+03  0.10886225697E+02 -0.18907089598E+03  0.21940481752E+03  0.00000000000E+00 0.  1.
<mgrwt>
<rscale>  0 0.28711172E+04</rscale>
<asrwt>0</asrwt>
<pdfrwt beam="1">  1        2 0.25217301E+00 0.28711172E+04</pdfrwt>
<pdfrwt beam="2">  1       -2 0.19342675E+00 0.28711172E+04</pdfrwt>
<totfact> 0.13489260E+00</totfact>
</mgrwt>
</event>
<event>
12    1  0.4247462E-008  0.1559901E+04  0.7818608E-02  0.8845568E-01
         -2   -1    0    0    0  501 -0.00000000000E+00  0.00000000000E+00  0.44180426986E+03  0.44180426986E+03  0.00000000000E+00 0.  1.
          2   -1    0    0  501    0  0.00000000000E+00 -0.00000000000E+00 -0.13769061446E+04  0.13769061446E+04  0.00000000000E+00 0. -1.
         23    2    1    2    0    0  0.27381790631E+03 -0.48678752813E+02 -0.69213340164E+03  0.75007106142E+03  0.78816779491E+02 0.  0.
        254    2    1    2    0    0 -0.27381790631E+03  0.48678752813E+02 -0.24296847308E+03  0.10686393530E+04  0.10028013368E+04 0.  0.
         23    2    4    4    0    0  0.14373536151E+03  0.13762444206E+03  0.30092198975E+03  0.37101725450E+03  0.86599180232E+02 0.  0.
         23    2    4    4    0    0 -0.41755326782E+03 -0.88945689244E+02 -0.54389046283E+03  0.69762209852E+03  0.92723727730E+02 0.  0.
         13    1    3    3    0    0  0.10467760600E+03 -0.57923048008E+02 -0.29236748634E+03  0.31589749565E+03  0.00000000000E+00 0.  1.
        -13    1    3    3    0    0  0.16914030031E+03  0.92442951951E+01 -0.39976591529E+03  0.43417356577E+03  0.00000000000E+00 0. -1.
          1    1    5    5  502    0  0.29002467430E+02  0.86465322698E+02  0.13453921546E+03  0.16253675167E+03  0.00000000000E+00 0. -1.
          1    1    6    6  503    0 -0.28523736386E+02 -0.31746980204E+02 -0.40270832024E+02  0.58678907637E+02  0.00000000000E+00 0. -1.
         -1    1    5    5    0  502  0.11473289408E+03  0.51159119358E+02  0.16638277429E+03  0.20848050282E+03  0.00000000000E+00 0.  1.
         -1    1    6    6    0  503 -0.38902953144E+03 -0.57198709039E+02 -0.50361963081E+03  0.63894319089E+03  0.00000000000E+00 0.  1.
<mgrwt>
<rscale>  0 0.15599013E+04</rscale>
<asrwt>0</asrwt>
<pdfrwt beam="1">  1        2 0.21183171E+00 0.15599013E+04</pdfrwt>
<pdfrwt beam="2">  1       -2 0.67969888E-01 0.15599013E+04</pdfrwt>
<totfact> 0.28442264E+01</totfact>
</mgrwt>
</event>
<event>
12    1  0.4247462E-008  0.1710522E+04  0.7818608E-02  0.8755386E-01
          1   -1    0    0  501    0  0.00000000000E+00  0.00000000000E+00  0.13087044757E+04  0.13087044757E+04  0.00000000000E+00 0. -1.
         -1   -1    0    0    0  501 -0.00000000000E+00 -0.00000000000E+00 -0.55892788120E+03  0.55892788120E+03  0.00000000000E+00 0.  1.
         23    2    1    2    0    0  0.44143404585E+03  0.75428417895E+02  0.71833818739E+03  0.85133474373E+03  0.90595978705E+02 0.  0.
        254    2    1    2    0    0 -0.44143404585E+03 -0.75428417895E+02  0.31438407153E+02  0.10162976132E+04  0.91176696700E+03 0.  0.
         23    2    4    4    0    0  0.24483004915E+03  0.12066465853E+03 -0.51599245204E+02  0.29233896289E+03  0.91092668934E+02 0.  0.
         23    2    4    4    0    0 -0.68626409501E+03 -0.19609307642E+03  0.83037652358E+02  0.72395865032E+03  0.88374051372E+02 0.  0.
         13    1    3    3    0    0  0.11627409538E+03  0.43575169660E+02  0.14033087340E+03  0.18737986737E+03  0.00000000000E+00 0.  1.
        -13    1    3    3    0    0  0.32515995047E+03  0.31853248235E+02  0.57800731399E+03  0.66395487636E+03  0.00000000000E+00 0. -1.
          1    1    6    6  502    0  0.13332132999E+01  0.10784072739E+01  0.39312441168E+01  0.42889509507E+01  0.00000000000E+00 0. -1.
          1    1    5    5  503    0  0.10875473479E+02 -0.13242251170E+02  0.27323146213E+01  0.17352195326E+02  0.00000000000E+00 0. -1.
         -1    1    5    5    0  503  0.23395457567E+03  0.13390690970E+03 -0.54331559826E+02  0.27498676757E+03  0.00000000000E+00 0.  1.
         -1    1    6    6    0  502 -0.68759730830E+03 -0.19717148370E+03  0.79106408241E+02  0.71966969937E+03  0.00000000000E+00 0.  1.
<mgrwt>
<rscale>  0 0.17105220E+04</rscale>
<asrwt>0</asrwt>
<pdfrwt beam="1">  1        1 0.20133915E+00 0.17105220E+04</pdfrwt>
<pdfrwt beam="2">  1       -1 0.85988905E-01 0.17105220E+04</pdfrwt>
<totfact> 0.11319119E+01</totfact>
</mgrwt>
</event>
<event>
12    1  0.4247462E-008  0.1734849E+04  0.7818608E-02  0.8741735E-01
         -2   -1    0    0    0  501 -0.00000000000E+00  0.00000000000E+00  0.69331166564E+03  0.69331166564E+03  0.00000000000E+00 0.  1.
          2   -1    0    0  501    0  0.00000000000E+00 -0.00000000000E+00 -0.10852624366E+04  0.10852624366E+04  0.00000000000E+00 0. -1.
         23    2    1    2    0    0 -0.46772433724E+02 -0.13928942656E+01 -0.80377241333E+03  0.81005575355E+03  0.89166309373E+02 0.  0.
        254    2    1    2    0    0  0.46772433724E+02  0.13928942656E+01  0.41182164235E+03  0.96851834870E+03  0.87535200117E+03 0.  0.
         23    2    4    4    0    0 -0.16624643968E+03  0.93675552688E+02 -0.21052927211E+03  0.29849576824E+03  0.91455789108E+02 0.  0.
         23    2    4    4    0    0  0.21301887340E+03 -0.92282658422E+02  0.62235091446E+03  0.67002258046E+03  0.87843429642E+02 0.  0.
         11    1    3    3    0    0 -0.28967581615E+02  0.43514096582E+02 -0.43716727664E+03  0.44028152942E+03  0.00000000000E+00 0. -1.
        -11    1    3    3    0    0 -0.17804852109E+02 -0.44906990847E+02 -0.36660513669E+03  0.36977422414E+03  0.00000000000E+00 0.  1.
          2    1    5    5  502    0 -0.10038379733E+03  0.33600022772E+02 -0.55156362638E+02  0.11936537453E+03  0.00000000000E+00 0. -1.
          1    1    6    6  503    0 -0.69480088044E+01 -0.92219234781E+01  0.48801859564E+02  0.50149179414E+02  0.00000000000E+00 0. -1.
         -2    1    5    5    0  502 -0.65862642350E+02  0.60075529916E+02 -0.15537290947E+03  0.17913039371E+03  0.00000000000E+00 0.  1.
         -1    1    6    6    0  503  0.21996688221E+03 -0.83060734944E+02  0.57354905489E+03  0.61987340105E+03  0.00000000000E+00 0.  1.
<mgrwt>
<rscale>  0 0.17348488E+04</rscale>
<asrwt>0</asrwt>
<pdfrwt beam="1">  1        2 0.16696345E+00 0.17348488E+04</pdfrwt>
<pdfrwt beam="2">  1       -2 0.10666333E+00 0.17348488E+04</pdfrwt>
<totfact> 0.14946543E+01</totfact>
</mgrwt>
</event>
<event>
12    1  0.4247462E-008  0.1755775E+04  0.7818608E-02  0.8730178E-01
         -1   -1    0    0    0  501 -0.00000000000E+00  0.00000000000E+00  0.63893251640E+03  0.63893251640E+03  0.00000000000E+00 0.  1.
          1   -1    0    0  501    0  0.00000000000E+00 -0.00000000000E+00 -0.12062101619E+04  0.12062101619E+04  0.00000000000E+00 0. -1.
         23    2    1    2    0    0 -0.39649492081E+03 -0.41113450216E+03  0.10389468995E+03  0.58622052000E+03  0.81367010401E+02 0.  0.
        254    2    1    2    0    0  0.39649492081E+03  0.41113450216E+03 -0.67117233545E+03  0.12589221583E+04  0.89898436898E+03 0.  0.
         23    2    4    4    0    0 -0.14843258507E+03 -0.13768131575E+03 -0.35336074758E+03  0.41781142615E+03  0.93349841336E+02 0.  0.
         23    2    4    4    0    0  0.54492750587E+03  0.54881581791E+03 -0.31781158787E+03  0.84111073214E+03  0.91204548628E+02 0.  0.
         11    1    3    3    0    0 -0.23441606592E+03 -0.21001370554E+03  0.90886369897E+02  0.32759270552E+03  0.00000000000E+00 0.  1.
        -11    1    3    3    0    0 -0.16207885488E+03 -0.20112079662E+03  0.13008320053E+02  0.25862781448E+03  0.00000000000E+00 0. -1.
          2    1    5    5  502    0 -0.61372568213E+02 -0.55184279723E+02 -0.23595882800E+03  0.24997692967E+03  0.00000000000E+00 0. -1.
          4    1    6    6  503    0  0.41853897138E+03  0.37257277578E+03 -0.20515507208E+03  0.59671932046E+03  0.00000000000E+00 0. -1.
         -2    1    5    5    0  502 -0.87060016856E+02 -0.82497036024E+02 -0.11740191958E+03  0.16783449648E+03  0.00000000000E+00 0.  1.
         -4    1    6    6    0  503  0.12638853450E+03  0.17624304213E+03 -0.11265651579E+03  0.24439141168E+03  0.00000000000E+00 0.  1.
<mgrwt>
<rscale>  0 0.17557755E+04</rscale>
<asrwt>0</asrwt>
<pdfrwt beam="1">  1        1 0.18557079E+00 0.17557755E+04</pdfrwt>
<pdfrwt beam="2">  1       -1 0.98297311E-01 0.17557755E+04</pdfrwt>
<totfact> 0.99287854E+00</totfact>
</mgrwt>
</event>
<event>
12    1  0.4247462E-008  0.1157255E+04  0.7818608E-02  0.9151116E-01
         -1   -1    0    0    0  501 -0.00000000000E+00  0.00000000000E+00  0.39825964086E+03  0.39825964086E+03  0.00000000000E+00 0.  1.
          1   -1    0    0  501    0  0.00000000000E+00 -0.00000000000E+00 -0.84068282835E+03  0.84068282835E+03  0.00000000000E+00 0. -1.
         23    2    1    2    0    0 -0.12980786166E+03 -0.17956657311E+03 -0.26211017750E+03  0.35507892613E+03  0.91022324223E+02 0.  0.
        254    2    1    2    0    0  0.12980786166E+03  0.17956657311E+03 -0.18031300999E+03  0.88386354308E+03  0.83642557713E+03 0.  0.
         23    2    4    4    0    0  0.46589238081E+03  0.20501645431E+02 -0.42157196555E+02  0.47701322850E+03  0.91040446964E+02 0.  0.
         23    2    4    4    0    0 -0.33608451915E+03  0.15906492768E+03 -0.13815581344E+03  0.40685031458E+03  0.90474827747E+02 0.  0.
         11    1    3    3    0    0 -0.89869608493E+02 -0.15205859122E+03 -0.24819061151E+03  0.30462590391E+03  0.00000000000E+00 0. -1.
        -11    1    3    3    0    0 -0.39938253169E+02 -0.27507981891E+02 -0.13919565995E+02  0.50453022222E+02  0.00000000000E+00 0.  1.
          2    1    5    5  502    0  0.16418843672E+03 -0.25744634464E+02 -0.43458753253E+02  0.17178268885E+03  0.00000000000E+00 0. -1.
          4    1    6    6  503    0 -0.52073870114E+02  0.39136632339E+02  0.80654114371E+01  0.65638516141E+02  0.00000000000E+00 0. -1.
         -2    1    5    5    0  502  0.30170394409E+03  0.46246279895E+02  0.13015566976E+01  0.30523053965E+03  0.00000000000E+00 0.  1.
         -4    1    6    6    0  503 -0.28401064903E+03  0.11992829534E+03 -0.14622122488E+03  0.34121179843E+03  0.00000000000E+00 0.  1.
<mgrwt>
<rscale>  0 0.11572554E+04</rscale>
<asrwt>0</asrwt>
<pdfrwt beam="1">  1        1 0.12933582E+00 0.11572554E+04</pdfrwt>
<pdfrwt beam="2">  1       -1 0.61270715E-01 0.11572554E+04</pdfrwt>
<totfact> 0.54702393E+01</totfact>
</mgrwt>
</event>
<event>
12    1  0.4247462E-008  0.1843986E+04  0.7818608E-02  0.8683252E-01
         -1   -1    0    0    0  501 -0.00000000000E+00  0.00000000000E+00  0.47632879691E+03  0.47632879691E+03  0.00000000000E+00 0.  1.
          1   -1    0    0  501    0  0.00000000000E+00 -0.00000000000E+00 -0.17846310453E+04  0.17846310453E+04  0.00000000000E+00 0. -1.
         23    2    1    2    0    0 -0.32133947748E+03  0.33909780688E+03 -0.11606120555E+04  0.12545841745E+04  0.93352691781E+02 0.  0.
        254    2    1    2    0    0  0.32133947748E+03 -0.33909780688E+03 -0.14769019284E+03  0.10063756677E+04  0.87905244954E+03 0.  0.
         23    2    4    4    0    0  0.38566071879E+03 -0.18817685160E+03 -0.46273078881E+03  0.63752142578E+03  0.90382896108E+02 0.  0.
         23    2    4    4    0    0 -0.64321241312E+02 -0.15092095528E+03  0.31504059597E+03  0.36885424192E+03  0.99441026972E+02 0.  0.
         13    1    3    3    0    0 -0.29900170805E+03  0.31075214841E+03 -0.98440925852E+03  0.10747234563E+04  0.00000000000E+00 0. -1.
        -13    1    3    3    0    0 -0.22337769426E+02  0.28345658472E+02 -0.17620279699E+03  0.17986071823E+03  0.00000000000E+00 0.  1.
          2    1    5    5  502    0  0.53865716359E+02 -0.21688260336E+01 -0.90350549536E+02  0.10521141101E+03  0.00000000000E+00 0. -1.
          3    1    6    6  503    0 -0.73432787415E+02 -0.10832009069E+03  0.15433462521E+03  0.20234819706E+03  0.00000000000E+00 0. -1.
         -2    1    5    5    0  502  0.33179500243E+03 -0.18600802557E+03 -0.37238023928E+03  0.53231001477E+03  0.00000000000E+00 0.  1.
         -3    1    6    6    0  503  0.91115461029E+01 -0.42600864587E+02  0.16070597076E+03  0.16650604486E+03  0.00000000000E+00 0.  1.
<mgrwt>
<rscale>  0 0.18439861E+04</rscale>
<asrwt>0</asrwt>
<pdfrwt beam="1">  1        1 0.27455862E+00 0.18439861E+04</pdfrwt>
<pdfrwt beam="2">  1       -1 0.73281354E-01 0.18439861E+04</pdfrwt>
<totfact> 0.73617177E+00</totfact>
</mgrwt>
</event>
<event>
12    1  0.4247462E-008  0.2603854E+04  0.7818608E-02  0.8366893E-01
          1   -1    0    0  501    0  0.00000000000E+00  0.00000000000E+00  0.79190505886E+03  0.79190505886E+03  0.00000000000E+00 0. -1.
         -1   -1    0    0    0  501 -0.00000000000E+00 -0.00000000000E+00 -0.21404256003E+04  0.21404256003E+04  0.00000000000E+00 0.  1.
         23    2    1    2    0    0 -0.33370086530E+03 -0.82363453006E+03 -0.14059464188E+04  0.16657373905E+04  0.90915428963E+02 0.  0.
        254    2    1    2    0    0  0.33370086530E+03  0.82363453006E+03  0.57425877275E+02  0.12665932687E+04  0.90068344618E+03 0.  0.
         23    2    4    4    0    0  0.10920343891E+03  0.94218001507E+03 -0.96740905629E+02  0.95801798374E+03  0.93867366369E+02 0.  0.
         23    2    4    4    0    0  0.22449742639E+03 -0.11854548501E+03  0.15416678290E+03  0.30857528492E+03  0.83661120252E+02 0.  0.
         11    1    3    3    0    0 -0.27921832321E+03 -0.66720952782E+03 -0.12040418313E+04  0.14045811325E+04  0.00000000000E+00 0.  1.
        -11    1    3    3    0    0 -0.54482542093E+02 -0.15642500223E+03 -0.20190458741E+03  0.26115625808E+03  0.00000000000E+00 0. -1.
          2    1    5    5  502    0  0.11312814582E+03  0.94026228295E+03 -0.91891105370E+02  0.95149099490E+03  0.00000000000E+00 0. -1.
          2    1    6    6  503    0  0.17382832744E+03 -0.11930807537E+03  0.96684284741E+02  0.23194515555E+03  0.00000000000E+00 0. -1.
         -2    1    5    5    0  502 -0.39247069048E+01  0.19177321176E+01 -0.48498002594E+01  0.65269888401E+01  0.00000000000E+00 0.  1.
         -2    1    6    6    0  503  0.50669098948E+02  0.76259035203E+00  0.57482498162E+02  0.76630129370E+02  0.00000000000E+00 0.  1.
<mgrwt>
<rscale>  0 0.26038540E+04</rscale>
<asrwt>0</asrwt>
<pdfrwt beam="1">  1        1 0.12183155E+00 0.26038540E+04</pdfrwt>
<pdfrwt beam="2">  1       -1 0.32929624E+00 0.26038540E+04</pdfrwt>
<totfact> 0.42102694E-01</totfact>
</mgrwt>
</event>
<event>
12    1  0.4247462E-008  0.2266754E+04  0.7818608E-02  0.8491146E-01
         -1   -1    0    0    0  501 -0.00000000000E+00  0.00000000000E+00  0.86999768398E+03  0.86999768398E+03  0.00000000000E+00 0.  1.
          1   -1    0    0  501    0  0.00000000000E+00 -0.00000000000E+00 -0.14764911942E+04  0.14764911942E+04  0.00000000000E+00 0. -1.
         23    2    1    2    0    0 -0.12391590765E+03  0.84170025307E+03 -0.69269454103E+03  0.11011105547E+04  0.93831009468E+02 0.  0.
        254    2    1    2    0    0  0.12391590765E+03 -0.84170025307E+03  0.86201030832E+02  0.12453783235E+04  0.90538504661E+03 0.  0.
         23    2    4    4    0    0 -0.37908903437E+03 -0.46423679120E+03  0.21199140838E+02  0.60678799170E+03  0.92292843809E+02 0.  0.
         23    2    4    4    0    0  0.50300494201E+03 -0.37746346187E+03  0.65001889994E+02  0.63859033175E+03  0.89887314827E+02 0.  0.
         13    1    3    3    0    0  0.12193081432E+02  0.52592506939E+02 -0.58734564406E+02  0.79777140065E+02  0.00000000000E+00 0. -1.
        -13    1    3    3    0    0 -0.13610898908E+03  0.78910774613E+03 -0.63395997662E+03  0.10213334146E+04  0.00000000000E+00 0.  1.
          2    1    5    5  502    0 -0.89577256071E+02 -0.58778501664E+02  0.17526572095E+02  0.10856416440E+03  0.00000000000E+00 0.  1.
          2    1    6    6  503    0  0.38273287409E+03 -0.32090500309E+03  0.26268836593E+02  0.50015450182E+03  0.00000000000E+00 0. -1.
         -2    1    5    5    0  502 -0.28951177830E+03 -0.40545828954E+03  0.36725687433E+01  0.49822382730E+03  0.00000000000E+00 0. -1.
         -2    1    6    6    0  503  0.12027206792E+03 -0.56558458777E+02  0.38733053401E+02  0.13843582993E+03  0.00000000000E+00 0.  1.
<mgrwt>
<rscale>  0 0.22667544E+04</rscale>
<asrwt>0</asrwt>
<pdfrwt beam="1">  1        1 0.22715249E+00 0.22667544E+04</pdfrwt>
<pdfrwt beam="2">  1       -1 0.13384580E+00 0.22667544E+04</pdfrwt>
<totfact> 0.28994377E+00</totfact>
</mgrwt>
</event>
<event>
12    1  0.4247462E-008  0.1544736E+04  0.7818608E-02  0.8855237E-01
          1   -1    0    0  501    0  0.00000000000E+00  0.00000000000E+00  0.47473745856E+03  0.47473745856E+03  0.00000000000E+00 0. -1.
         -1   -1    0    0    0  501 -0.00000000000E+00 -0.00000000000E+00 -0.12565947592E+04  0.12565947592E+04  0.00000000000E+00 0.  1.
         23    2    1    2    0    0  0.15522682219E+03  0.31232239298E+03 -0.69061167542E+03  0.77880967164E+03  0.89215329021E+02 0.  0.
        254    2    1    2    0    0 -0.15522682219E+03 -0.31232239298E+03 -0.91245625169E+02  0.95252254607E+03  0.88166478504E+03 0.  0.
         23    2    4    4    0    0 -0.19471688127E+02 -0.12266125323E+03 -0.47239605192E+03  0.49683212349E+03  0.90880137420E+02 0.  0.
         23    2    4    4    0    0 -0.13575513406E+03 -0.18966113975E+03  0.38115042675E+03  0.45569042258E+03  0.89315782862E+02 0.  0.
         11    1    3    3    0    0  0.63844571632E+02  0.13113797937E+03 -0.38751752495E+03  0.41405691771E+03  0.00000000000E+00 0.  1.
        -11    1    3    3    0    0  0.91382250554E+02  0.18118441361E+03 -0.30309415048E+03  0.36475275394E+03  0.00000000000E+00 0. -1.
          4    1    5    5  502    0  0.52701623480E+01  0.12514433211E+02 -0.21226914699E+02  0.25198562606E+02  0.00000000000E+00 0.  1.
          4    1    6    6  503    0 -0.62098304134E+02 -0.58889567096E+02  0.21700680197E+03  0.23327265718E+03  0.00000000000E+00 0. -1.
         -4    1    5    5    0  502 -0.24741850475E+02 -0.13517568644E+03 -0.45116913722E+03  0.47163356088E+03  0.00000000000E+00 0. -1.
         -4    1    6    6    0  503 -0.73656829925E+02 -0.13077157266E+03  0.16414362478E+03  0.22241776540E+03  0.00000000000E+00 0.  1.
<mgrwt>
<rscale>  0 0.15447364E+04</rscale>
<asrwt>0</asrwt>
<pdfrwt beam="1">  1        1 0.73036532E-01 0.15447364E+04</pdfrwt>
<pdfrwt beam="2">  1       -1 0.19332227E+00 0.15447364E+04</pdfrwt>
<totfact> 0.76824772E+00</totfact>
</mgrwt>
</event>
<event>
12    1  0.4247462E-008  0.2193985E+04  0.7818608E-02  0.8520936E-01
          4   -1    0    0  501    0  0.00000000000E+00  0.00000000000E+00  0.20679265012E+04  0.20679265012E+04  0.00000000000E+00 0. -1.
         -4   -1    0    0    0  501 -0.00000000000E+00 -0.00000000000E+00 -0.58193192499E+03  0.58193192499E+03  0.00000000000E+00 0.  1.
         23    2    1    2    0    0 -0.74378112856E+03 -0.40235852504E+03  0.22793057110E+03  0.88119495406E+03  0.97208291477E+02 0.  0.
        254    2    1    2    0    0  0.74378112856E+03  0.40235852504E+03  0.12580640051E+04  0.17686634721E+04  0.91123141233E+03 0.  0.
         23    2    4    4    0    0  0.56685555417E+03  0.45004098598E+03  0.30157745846E+03  0.78951837396E+03  0.92348205340E+02 0.  0.
         23    2    4    4    0    0  0.17692557440E+03 -0.47682460935E+02  0.95648654667E+03  0.97914509818E+03  0.10140184108E+03 0.  0.
         13    1    3    3    0    0 -0.64635499072E+03 -0.32821227330E+03  0.22387928203E+03  0.75869625233E+03  0.00000000000E+00 0.  1.
        -13    1    3    3    0    0 -0.97426137840E+02 -0.74146251737E+02  0.40512890717E+01  0.12249870172E+03  0.00000000000E+00 0. -1.
          2    1    5    5  502    0  0.59365970808E+02  0.88297332750E+02  0.41416102501E+02  0.11417543960E+03  0.00000000000E+00 0.  1.
          4    1    6    6  503    0  0.22729542769E+02 -0.24150393170E+02  0.39516697882E+03  0.39655619369E+03  0.00000000000E+00 0. -1.
         -2    1    5    5    0  502  0.50748958336E+03  0.36174365322E+03  0.26016135596E+03  0.67534293437E+03  0.00000000000E+00 0. -1.
         -4    1    6    6    0  503  0.15419603163E+03 -0.23532067765E+02  0.56131956785E+03  0.58258890449E+03  0.00000000000E+00 0.  1.
<mgrwt>
<rscale>  0 0.21939849E+04</rscale>
<asrwt>0</asrwt>
<pdfrwt beam="1">  1        4 0.31814254E+00 0.21939849E+04</pdfrwt>
<pdfrwt beam="2">  1       -4 0.89527989E-01 0.21939849E+04</pdfrwt>
<totfact> 0.46576508E-02</totfact>
</mgrwt>
</event>
<event>
12    1  0.4247462E-008  0.7164459E+04  0.7818608E-02  0.7560708E-01
         -2   -1    0    0    0  501 -0.00000000000E+00  0.00000000000E+00  0.32015530567E+04  0.32015530567E+04  0.00000000000E+00 0.  1.
          2   -1    0    0  501    0  0.00000000000E+00 -0.00000000000E+00 -0.40081701232E+04  0.40081701232E+04  0.00000000000E+00 0. -1.
         23    2    1    2    0    0 -0.53729720112E+03  0.17890043907E+04 -0.34001513637E+04  0.38805829888E+04  0.93113070773E+02 0.  0.
        254    2    1    2    0    0  0.53729720112E+03 -0.17890043907E+04  0.25935342972E+04  0.33291401912E+04  0.93141251284E+03 0.  0.
         23    2    4    4    0    0  0.57539131648E+03 -0.43010458655E+03  0.93483606998E+03  0.11825899917E+04  0.92387706533E+02 0.  0.
         23    2    4    4    0    0 -0.38094115356E+02 -0.13588998042E+04  0.16586982273E+04  0.21465501995E+04  0.91313253263E+02 0.  0.
         13    1    3    3    0    0 -0.17537893771E+03  0.68161939441E+03 -0.12079072561E+04  0.13979995386E+04  0.00000000000E+00 0.  1.
        -13    1    3    3    0    0 -0.36191826341E+03  0.11073849963E+04 -0.21922441077E+04  0.24825834502E+04  0.00000000000E+00 0. -1.
          3    1    6    6  502    0 -0.62790204888E+01 -0.11362145592E+04  0.13484158642E+04  0.17633060691E+04  0.00000000000E+00 0. -1.
          3    1    5    5  503    0  0.42628190295E+03 -0.32680665862E+03  0.75999152143E+03  0.93064814272E+03  0.00000000000E+00 0. -1.
         -3    1    5    5    0  503  0.14910941353E+03 -0.10329792793E+03  0.17484454855E+03  0.25194184900E+03  0.00000000000E+00 0.  1.
         -3    1    6    6    0  502 -0.31815094867E+02 -0.22268524501E+03  0.31028236308E+03  0.38324413035E+03  0.00000000000E+00 0.  1.
<mgrwt>
<rscale>  0 0.71644593E+04</rscale>
<asrwt>0</asrwt>
<pdfrwt beam="1">  1        2 0.61664155E+00 0.71644593E+04</pdfrwt>
<pdfrwt beam="2">  1       -2 0.49254663E+00 0.71644593E+04</pdfrwt>
<totfact> 0.38416938E-04</totfact>
</mgrwt>
</event>
<event>
12    1  0.4247462E-008  0.1446838E+04  0.7818608E-02  0.8920596E-01
         -2   -1    0    0    0  501 -0.00000000000E+00  0.00000000000E+00  0.27086174100E+03  0.27086174100E+03  0.00000000000E+00 0.  1.
          2   -1    0    0  501    0  0.00000000000E+00 -0.00000000000E+00 -0.19321110652E+04  0.19321110652E+04  0.00000000000E+00 0. -1.
         23    2    1    2    0    0  0.12811097244E+02 -0.43224631764E+02 -0.11662977941E+04  0.11707720759E+04  0.91783529229E+02 0.  0.
        254    2    1    2    0    0 -0.12811097244E+02  0.43224631764E+02 -0.49495153006E+03  0.10322007302E+04  0.90467056844E+03 0.  0.
         23    2    4    4    0    0  0.31888259192E+03  0.30906632266E+03 -0.35395105345E+03  0.57493755771E+03  0.89798372996E+02 0.  0.
         23    2    4    4    0    0 -0.33169368916E+03 -0.26584169090E+03 -0.14100047662E+03  0.45726317253E+03  0.92281994458E+02 0.  0.
         13    1    3    3    0    0  0.24046651486E+02 -0.20287488362E+02 -0.10871519159E+04  0.10876070576E+04  0.00000000000E+00 0. -1.
        -13    1    3    3    0    0 -0.11235554242E+02 -0.22937143402E+02 -0.79145878213E+02  0.83165018275E+02  0.00000000000E+00 0.  1.
          1    1    6    6  502    0 -0.23762924622E+03 -0.15217122409E+03 -0.58347731072E+02  0.28814613970E+03  0.00000000000E+00 0. -1.
          1    1    5    5  503    0  0.15945483427E+03  0.10241542985E+03 -0.17931800133E+03  0.26090172488E+03  0.00000000000E+00 0. -1.
         -1    1    5    5    0  503  0.15942775765E+03  0.20665089281E+03 -0.17463305212E+03  0.31403583283E+03  0.00000000000E+00 0.  1.
         -1    1    6    6    0  502 -0.94064442941E+02 -0.11367046681E+03 -0.82652745544E+02  0.16911703284E+03  0.00000000000E+00 0.  1.
<mgrwt>
<rscale>  0 0.14468379E+04</rscale>
<asrwt>0</asrwt>
<pdfrwt beam="1">  1        2 0.29724786E+00 0.14468379E+04</pdfrwt>
<pdfrwt beam="2">  1       -2 0.41671036E-01 0.14468379E+04</pdfrwt>
<totfact> 0.38586116E+01</totfact>
</mgrwt>
</event>
<event>
12    1  0.5543031E-008  0.1840091E+04  0.7818608E-02  0.8685266E-01
          1   -1    0    0  501    0  0.00000000000E+00  0.00000000000E+00  0.11160387286E+04  0.11160387286E+04  0.00000000000E+00 0. -1.
         -1   -1    0    0    0  501 -0.00000000000E+00 -0.00000000000E+00 -0.75847132978E+03  0.75847132978E+03  0.00000000000E+00 0.  1.
         23    2    1    2    0    0  0.59640365004E+02  0.32861208879E+03 -0.48292294178E+03  0.59498122640E+03  0.96152036062E+02 0.  0.
        254    2    1    2    0    0 -0.59640365004E+02 -0.32861208879E+03  0.84049034056E+03  0.12795288319E+04  0.90511167330E+03 0.  0.
         23    2    4    4    0    0 -0.23309366080E+03  0.14303423869E+03 -0.88104919912E+01  0.28849620169E+03  0.91438424527E+02 0.  0.
         23    2    4    4    0    0  0.17345329579E+03 -0.47164632748E+03  0.84930083255E+03  0.99103263024E+03  0.91090427464E+02 0.  0.
         13    1    3    3    0    0  0.36378854855E+02  0.27670882280E+02 -0.63257580250E+02  0.78042426063E+02  0.00000000000E+00 0. -1.
        -13    1    3    3    0    0  0.23261510149E+02  0.30094120651E+03 -0.41966536153E+03  0.51693880034E+03  0.00000000000E+00 0.  1.
          1    1    5    5  502    0 -0.63668547194E+02  0.72919449660E+02  0.29455313839E+02  0.10118569837E+03  0.00000000000E+00 0. -1.
          3    1    6    6  503    0  0.10751802022E+01 -0.84939056677E+02  0.10873147668E+03  0.13797946725E+03  0.00000000000E+00 0. -1.
         -1    1    5    5    0  502 -0.16942511361E+03  0.70114789033E+02 -0.38265805831E+02  0.18731050333E+03  0.00000000000E+00 0.  1.
         -3    1    6    6    0  503  0.17237811559E+03 -0.38670727080E+03  0.74056935587E+03  0.85305316298E+03  0.00000000000E+00 0.  1.
<mgrwt>
<rscale>  0 0.18400906E+04</rscale>
<asrwt>0</asrwt>
<pdfrwt beam="1">  1        1 0.17169827E+00 0.18400906E+04</pdfrwt>
<pdfrwt beam="2">  1       -1 0.11668790E+00 0.18400906E+04</pdfrwt>
<totfact> 0.76862276E+00</totfact>
</mgrwt>
</event>
<event>
12    1  0.4247462E-008  0.1936358E+04  0.7818608E-02  0.8636968E-01
         -2   -1    0    0    0  501 -0.00000000000E+00  0.00000000000E+00  0.96138928443E+03  0.96138928443E+03  0.00000000000E+00 0.  1.
          2   -1    0    0  501    0  0.00000000000E+00 -0.00000000000E+00 -0.97501625274E+03  0.97501625274E+03  0.00000000000E+00 0. -1.
         23    2    1    2    0    0  0.55072716887E+03  0.41572866604E+03  0.20292617566E+01  0.69601961435E+03  0.91150684899E+02 0.  0.
        254    2    1    2    0    0 -0.55072716887E+03 -0.41572866604E+03 -0.15656230063E+02  0.12403859228E+04  0.10306218422E+04 0.  0.
         23    2    4    4    0    0 -0.66850638678E+03 -0.58772495019E+03 -0.23453636080E+03  0.92472286245E+03  0.88225061977E+02 0.  0.
         23    2    4    4    0    0  0.11777921790E+03  0.17199628415E+03  0.21888013073E+03  0.31566306037E+03  0.90994451050E+02 0.  0.
         13    1    3    3    0    0  0.34345858195E+03  0.27947633698E+03  0.41965227123E+02  0.44478298162E+03  0.00000000000E+00 0. -1.
        -13    1    3    3    0    0  0.20726858692E+03  0.13625232906E+03 -0.39935965366E+02  0.25123663274E+03  0.00000000000E+00 0.  1.
          1    1    5    5  502    0 -0.43055000541E+03 -0.33325964610E+03 -0.11564718144E+03  0.55660539833E+03  0.00000000000E+00 0. -1.
          3    1    6    6  503    0  0.12500496997E+03  0.16001013722E+03  0.17000312795E+03  0.26482173257E+03  0.00000000000E+00 0. -1.
         -1    1    5    5    0  502 -0.23795638136E+03 -0.25446530409E+03 -0.11888917935E+03  0.36811746411E+03  0.00000000000E+00 0.  1.
         -3    1    6    6    0  503 -0.72257520654E+01  0.11986146929E+02  0.48877002785E+02  0.50841327799E+02  0.00000000000E+00 0.  1.
<mgrwt>
<rscale>  0 0.19363576E+04</rscale>
<asrwt>0</asrwt>
<pdfrwt beam="1">  1        2 0.15000250E+00 0.19363576E+04</pdfrwt>
<pdfrwt beam="2">  1       -2 0.14790604E+00 0.19363576E+04</pdfrwt>
<totfact> 0.75915292E+00</totfact>
</mgrwt>
</event>
<event>
12    1  0.4247462E-008  0.1792804E+04  0.7818608E-02  0.8710136E-01
         -1   -1    0    0    0  501 -0.00000000000E+00  0.00000000000E+00  0.55535828826E+03  0.55535828826E+03  0.00000000000E+00 0.  1.
          1   -1    0    0  501    0  0.00000000000E+00 -0.00000000000E+00 -0.14468789026E+04  0.14468789026E+04  0.00000000000E+00 0. -1.
         23    2    1    2    0    0 -0.34515736320E+03 -0.41806032542E+03 -0.76441899035E+03  0.94165068442E+03  0.91986833889E+02 0.  0.
        254    2    1    2    0    0  0.34515736320E+03  0.41806032542E+03 -0.12710162401E+03  0.10605865064E+04  0.90265213331E+03 0.  0.
         23    2    4    4    0    0 -0.27077643744E+03  0.16762815564E+03 -0.19754398517E+03  0.38576196820E+03  0.91485476419E+02 0.  0.
         23    2    4    4    0    0  0.61593380065E+03  0.25043216979E+03  0.70442361155E+02  0.67482453825E+03  0.91297933908E+02 0.  0.
         13    1    3    3    0    0 -0.54397028195E+02 -0.98417220746E+02 -0.10897672871E+03  0.15659154963E+03  0.00000000000E+00 0.  1.
        -13    1    3    3    0    0 -0.29076033501E+03 -0.31964310467E+03 -0.65544226164E+03  0.78505913479E+03  0.00000000000E+00 0. -1.
          4    1    6    6  502    0  0.31003829684E+02  0.34088190990E+02 -0.61298393580E+01  0.46484590464E+02  0.00000000000E+00 0. -1.
          4    1    5    5  503    0 -0.13379807834E+03  0.85884875631E+02 -0.15179112743E+03  0.21981511321E+03  0.00000000000E+00 0. -1.
         -4    1    5    5    0  503 -0.13697835911E+03  0.81743280004E+02 -0.45752857737E+02  0.16594685499E+03  0.00000000000E+00 0.  1.
         -4    1    6    6    0  502  0.58492997096E+03  0.21634397880E+03  0.76572200513E+02  0.62833994779E+03  0.00000000000E+00 0.  1.
<mgrwt>
<rscale>  0 0.17928036E+04</rscale>
<asrwt>0</asrwt>
<pdfrwt beam="1">  1        1 0.22259675E+00 0.17928036E+04</pdfrwt>
<pdfrwt beam="2">  1       -1 0.85439736E-01 0.17928036E+04</pdfrwt>
<totfact> 0.91049775E+00</totfact>
</mgrwt>
</event>
<event>
12    1  0.4247462E-008  0.1783492E+04  0.7818608E-02  0.8715128E-01
          2   -1    0    0  501    0  0.00000000000E+00  0.00000000000E+00  0.50293569213E+03  0.50293569213E+03  0.00000000000E+00 0. -1.
         -2   -1    0    0    0  501 -0.00000000000E+00 -0.00000000000E+00 -0.15811391378E+04  0.15811391378E+04  0.00000000000E+00 0.  1.
         23    2    1    2    0    0  0.56490717871E+03 -0.30639920672E+03 -0.60359541487E+03  0.88658078426E+03  0.93260215140E+02 0.  0.
        254    2    1    2    0    0 -0.56490717871E+03  0.30639920672E+03 -0.47460803076E+03  0.11974940456E+04  0.89204182190E+03 0.  0.
         23    2    4    4    0    0  0.19151731285E+02  0.31886658137E+01 -0.52327170666E+03  0.53141741076E+03  0.90632384197E+02 0.  0.
         23    2    4    4    0    0 -0.58405891000E+03  0.30321054090E+03  0.48663675899E+02  0.66607663487E+03  0.90711012053E+02 0.  0.
         13    1    3    3    0    0  0.94574919868E+02 -0.32994114197E+02 -0.13800597030E+03  0.17052470460E+03  0.00000000000E+00 0. -1.
        -13    1    3    3    0    0  0.47033225884E+03 -0.27340509252E+03 -0.46558944457E+03  0.71605607966E+03  0.00000000000E+00 0.  1.
          2    1    5    5  502    0 -0.22072566469E+02  0.21716371863E+02 -0.78983703533E+02  0.84836456911E+02  0.00000000000E+00 0. -1.
          4    1    6    6  503    0 -0.11404593459E+03  0.93199999028E+02 -0.11718271147E+02  0.14774989981E+03  0.00000000000E+00 0. -1.
         -2    1    5    5    0  502  0.41224297753E+02 -0.18527706049E+02 -0.44428800313E+03  0.44658095385E+03  0.00000000000E+00 0.  1.
         -4    1    6    6    0  503 -0.47001297541E+03  0.21001054188E+03  0.60381947046E+02  0.51832673506E+03  0.00000000000E+00 0.  1.
<mgrwt>
<rscale>  0 0.17834924E+04</rscale>
<asrwt>0</asrwt>
<pdfrwt beam="1">  1        2 0.77374724E-01 0.17834924E+04</pdfrwt>
<pdfrwt beam="2">  1       -2 0.24325217E+00 0.17834924E+04</pdfrwt>
<totfact> 0.40879169E+00</totfact>
</mgrwt>
</event>
<event>
12    1  0.4247462E-008  0.1476541E+04  0.7818608E-02  0.8900205E-01
         -2   -1    0    0    0  501 -0.00000000000E+00  0.00000000000E+00  0.20308756898E+03  0.20308756898E+03  0.00000000000E+00 0.  1.
          2   -1    0    0  501    0  0.00000000000E+00 -0.00000000000E+00 -0.26837835910E+04  0.26837835910E+04  0.00000000000E+00 0. -1.
         23    2    1    2    0    0  0.77725471338E+02  0.17092717777E+03  0.31535438250E+02  0.21216735299E+03  0.93611713025E+02 0.  0.
        254    2    1    2    0    0 -0.77725471338E+02 -0.17092717777E+03 -0.25122314603E+04  0.26747038070E+04  0.89859679286E+03 0.  0.
         23    2    4    4    0    0  0.32123044505E+03  0.22708033694E+02 -0.17980114689E+04  0.18290877923E+04  0.94932902181E+02 0.  0.
         23    2    4    4    0    0 -0.39895591639E+03 -0.19363521146E+03 -0.71421999142E+03  0.84561601476E+03  0.91081446716E+02 0.  0.
         13    1    3    3    0    0  0.61609176007E+02  0.68048325213E+02  0.52783046360E+02  0.10588821991E+03  0.00000000000E+00 0. -1.
        -13    1    3    3    0    0  0.16116295331E+02  0.10287885256E+03 -0.21247608110E+02  0.10627913308E+03  0.00000000000E+00 0.  1.
          2    1    5    5  502    0  0.11615644261E+02  0.12470194568E+02 -0.23837306471E+03  0.23898147821E+03  0.00000000000E+00 0. -1.
          1    1    6    6  503    0 -0.11435525256E+03 -0.46995998324E+02 -0.28042177018E+03  0.30646715458E+03  0.00000000000E+00 0. -1.
         -2    1    5    5    0  502  0.30961480079E+03  0.10237839126E+02 -0.15596384042E+04  0.15901063140E+04  0.00000000000E+00 0.  1.
         -1    1    6    6    0  503 -0.28460066383E+03 -0.14663921314E+03 -0.43379822124E+03  0.53914886018E+03  0.00000000000E+00 0.  1.
<mgrwt>
<rscale>  0 0.14765407E+04</rscale>
<asrwt>0</asrwt>
<pdfrwt beam="1">  1        2 0.41288976E+00 0.14765407E+04</pdfrwt>
<pdfrwt beam="2">  1       -2 0.31244243E-01 0.14765407E+04</pdfrwt>
<totfact> 0.25084431E+01</totfact>
</mgrwt>
</event>
<event>
12    1  0.4247462E-008  0.1218607E+04  0.7818608E-02  0.9096724E-01
         -1   -1    0    0    0  501 -0.00000000000E+00  0.00000000000E+00  0.58743805226E+03  0.58743805226E+03  0.00000000000E+00 0.  1.
          1   -1    0    0  501    0  0.00000000000E+00 -0.00000000000E+00 -0.63198322205E+03  0.63198322205E+03  0.00000000000E+00 0. -1.
         23    2    1    2    0    0  0.23625554979E+03  0.70973916147E+02  0.13594212467E+03  0.29670009461E+03  0.93256116721E+02 0.  0.
        254    2    1    2    0    0 -0.23625554979E+03 -0.70973916147E+02 -0.18048729447E+03  0.92272117970E+03  0.87062318510E+03 0.  0.
         23    2    4    4    0    0  0.54154825204E+02 -0.25397831417E+03 -0.41479036577E+03  0.49780083406E+03  0.91197004860E+02 0.  0.
         23    2    4    4    0    0 -0.29041037499E+03  0.18300439802E+03  0.23430307130E+03  0.42492034564E+03  0.88490538059E+02 0.  0.
         13    1    3    3    0    0  0.12322240903E+03  0.69628896091E+02  0.11356969517E+03  0.18146630794E+03  0.00000000000E+00 0.  1.
        -13    1    3    3    0    0  0.11303314076E+03  0.13450200559E+01  0.22372429501E+02  0.11523378667E+03  0.00000000000E+00 0. -1.
          4    1    5    5  502    0  0.28379741419E+02 -0.22001371958E+03 -0.38945603338E+03  0.44820469482E+03  0.00000000000E+00 0. -1.
          3    1    6    6  503    0 -0.18223775276E+03  0.15747176484E+03  0.18311538297E+03  0.30255445581E+03  0.00000000000E+00 0. -1.
         -4    1    5    5    0  502  0.25775083785E+02 -0.33964594583E+02 -0.25334332390E+02  0.49596139234E+02  0.00000000000E+00 0.  1.
         -3    1    6    6    0  503 -0.10817262223E+03  0.25532633180E+02  0.51187688328E+02  0.12236588983E+03  0.00000000000E+00 0.  1.
<mgrwt>
<rscale>  0 0.12186074E+04</rscale>
<asrwt>0</asrwt>
<pdfrwt beam="1">  1        1 0.97228188E-01 0.12186074E+04</pdfrwt>
<pdfrwt beam="2">  1       -1 0.90375085E-01 0.12186074E+04</pdfrwt>
<totfact> 0.37579267E+01</totfact>
</mgrwt>
</event>
<event>
12    1  0.4247462E-008  0.2157397E+04  0.7818608E-02  0.8536373E-01
          2   -1    0    0  501    0  0.00000000000E+00  0.00000000000E+00  0.26559662331E+04  0.26559662331E+04  0.00000000000E+00 0.  1.
         -2   -1    0    0    0  501 -0.00000000000E+00 -0.00000000000E+00 -0.43810438690E+03  0.43810438690E+03  0.00000000000E+00 0. -1.
         23    2    1    2    0    0 -0.19338658183E+03  0.45379986030E+03 -0.14152024093E+03  0.52157021969E+03  0.93138779402E+02 0.  0.
        254    2    1    2    0    0  0.19338658183E+03 -0.45379986030E+03  0.23593820871E+04  0.25725004003E+04  0.89874456508E+03 0.  0.
         23    2    4    4    0    0 -0.22717163165E+03 -0.32846172675E+03  0.18499779219E+04  0.18946805321E+04  0.88892918815E+02 0.  0.
         23    2    4    4    0    0  0.42055821348E+03 -0.12533813355E+03  0.50940416523E+03  0.67781986821E+03  0.85838869660E+02 0.  0.
         11    1    3    3    0    0 -0.16041353280E+02  0.14117441023E+03 -0.50603250493E+02  0.15082515732E+03  0.00000000000E+00 0.  1.
        -11    1    3    3    0    0 -0.17734522855E+03  0.31262545007E+03 -0.90916990441E+02  0.37074506237E+03  0.00000000000E+00 0. -1.
          2    1    5    5  502    0 -0.93878782766E+02 -0.21308606637E+03  0.10525196367E+04  0.10779686838E+04  0.00000000000E+00 0. -1.
          2    1    6    6  503    0  0.23498905971E+03 -0.10303565429E+03  0.25129788919E+03  0.35914736996E+03  0.00000000000E+00 0.  1.
         -2    1    5    5    0  502 -0.13329284888E+03 -0.11537566038E+03  0.79745828520E+03  0.81671184834E+03  0.00000000000E+00 0.  1.
         -2    1    6    6    0  503  0.18556915377E+03 -0.22302479263E+02  0.25810627604E+03  0.31867249825E+03  0.00000000000E+00 0. -1.
<mgrwt>
<rscale>  0 0.21573970E+04</rscale>
<asrwt>0</asrwt>
<pdfrwt beam="1">  1        2 0.40861018E+00 0.21573970E+04</pdfrwt>
<pdfrwt beam="2">  1       -2 0.67400677E-01 0.21573970E+04</pdfrwt>
<totfact> 0.52245650E+00</totfact>
</mgrwt>
</event>
<event>
12    1  0.4247462E-008  0.2361117E+04  0.7818608E-02  0.8454206E-01
         -2   -1    0    0    0  501 -0.00000000000E+00  0.00000000000E+00  0.82644100907E+03  0.82644100907E+03  0.00000000000E+00 0. -1.
          2   -1    0    0  501    0  0.00000000000E+00 -0.00000000000E+00 -0.16864105869E+04  0.16864105869E+04  0.00000000000E+00 0.  1.
         23    2    1    2    0    0 -0.73588667364E+03 -0.69068970086E+02  0.35759967712E+03  0.82615591135E+03  0.91413028089E+02 0.  0.
        254    2    1    2    0    0  0.73588667364E+03  0.69068970086E+02 -0.12175692550E+04  0.16866956847E+04  0.90342001467E+03 0.  0.
         23    2    4    4    0    0  0.67975021397E+03  0.21841477180E+03 -0.35130554744E+03  0.80088025917E+03  0.90709624254E+02 0.  0.
         23    2    4    4    0    0  0.56136459672E+02 -0.14934580172E+03 -0.86626370753E+03  0.88581542548E+03  0.93811973890E+02 0.  0.
         13    1    3    3    0    0 -0.36735342623E+02  0.39044452281E+01  0.41035616562E+02  0.55214598765E+02  0.00000000000E+00 0.  1.
        -13    1    3    3    0    0 -0.69915133102E+03 -0.72973415314E+02  0.31656406055E+03  0.77094131258E+03  0.00000000000E+00 0. -1.
          2    1    5    5  502    0  0.32403502413E+03  0.14118100168E+03 -0.14138771965E+03  0.38068524973E+03  0.00000000000E+00 0.  1.
          3    1    6    6  503    0 -0.12427267508E+02 -0.42467148835E+02 -0.10360876660E+03  0.11266176025E+03  0.00000000000E+00 0. -1.
         -2    1    5    5    0  502  0.35571518985E+03  0.77233770125E+02 -0.20991782779E+03  0.42019500944E+03  0.00000000000E+00 0. -1.
         -3    1    6    6    0  503  0.68563727180E+02 -0.10687865288E+03 -0.76265494093E+03  0.77315366523E+03  0.00000000000E+00 0.  1.
<mgrwt>
<rscale>  0 0.23611174E+04</rscale>
<asrwt>0</asrwt>
<pdfrwt beam="1">  1        2 0.25944778E+00 0.23611174E+04</pdfrwt>
<pdfrwt beam="2">  1       -2 0.12714477E+00 0.23611174E+04</pdfrwt>
<totfact> 0.41360612E+00</totfact>
</mgrwt>
</event>
<event>
12    1  0.4247462E-008  0.1873120E+04  0.7818608E-02  0.8668353E-01
         -2   -1    0    0    0  501 -0.00000000000E+00  0.00000000000E+00  0.48803054689E+03  0.48803054689E+03  0.00000000000E+00 0.  1.
          2   -1    0    0  501    0  0.00000000000E+00 -0.00000000000E+00 -0.17973142683E+04  0.17973142683E+04  0.00000000000E+00 0. -1.
         23    2    1    2    0    0  0.24995403510E+03 -0.30622696477E+03  0.19240989083E+03  0.44895800006E+03  0.91048042888E+02 0.  0.
        254    2    1    2    0    0 -0.24995403510E+03  0.30622696477E+03 -0.15016936123E+04  0.18363868152E+04  0.98029631039E+03 0.  0.
         23    2    4    4    0    0 -0.19636862140E+02  0.12814444872E+03  0.11151978230E+03  0.19454651164E+03  0.92763555640E+02 0.  0.
         23    2    4    4    0    0 -0.23031717296E+03  0.17808251605E+03 -0.16132133946E+04  0.16418403035E+04  0.91775504196E+02 0.  0.
         11    1    3    3    0    0  0.60337980242E+02 -0.80898578564E+02  0.95456405757E+02  0.13891428031E+03  0.00000000000E+00 0. -1.
        -11    1    3    3    0    0  0.18961605485E+03 -0.22532838620E+03  0.96953485072E+02  0.31004371975E+03  0.00000000000E+00 0.  1.
          2    1    5    5  502    0 -0.43601792473E+01  0.12424224323E+03  0.12312319760E+03  0.17496990585E+03  0.00000000000E+00 0. -1.
          1    1    6    6  503    0 -0.20958783198E+03  0.11607927717E+03 -0.12961089176E+04  0.13180666843E+04  0.00000000000E+00 0. -1.
         -2    1    5    5    0  502 -0.15276682893E+02  0.39022054918E+01 -0.11603415296E+02  0.19576605795E+02  0.00000000000E+00 0.  1.
         -1    1    6    6    0  503 -0.20729340971E+02  0.62003238879E+02 -0.31710447699E+03  0.32377361927E+03  0.00000000000E+00 0.  1.
<mgrwt>
<rscale>  0 0.18731196E+04</rscale>
<asrwt>0</asrwt>
<pdfrwt beam="1">  1        2 0.27650989E+00 0.18731196E+04</pdfrwt>
<pdfrwt beam="2">  1       -2 0.75081622E-01 0.18731196E+04</pdfrwt>
<totfact> 0.12944120E+01</totfact>
</mgrwt>
</event>
<event>
12    1  0.4247462E-008  0.1946954E+04  0.7818608E-02  0.8631831E-01
          1   -1    0    0  501    0  0.00000000000E+00  0.00000000000E+00  0.38554662941E+04  0.38554662941E+04  0.00000000000E+00 0. -1.
         -1   -1    0    0    0  501 -0.00000000000E+00 -0.00000000000E+00 -0.24579583010E+03  0.24579583010E+03  0.00000000000E+00 0.  1.
         23    2    1    2    0    0  0.73502355062E+02 -0.74568600639E+03  0.16639655697E+04  0.18271974156E+04  0.91753813505E+02 0.  0.
        254    2    1    2    0    0 -0.73502355062E+02  0.74568600639E+03  0.19457048944E+04  0.22740647086E+04  0.90782847866E+03 0.  0.
         23    2    4    4    0    0  0.11230143475E+03  0.15967404940E+03 -0.16456215271E+02  0.21584493535E+03  0.90613546425E+02 0.  0.
         23    2    4    4    0    0 -0.18580378981E+03  0.58601195699E+03  0.19621611096E+04  0.20582197733E+04  0.90880981660E+02 0.  0.
         13    1    3    3    0    0  0.54253322171E-01 -0.42029192349E+03  0.97467995717E+03  0.10614359721E+04  0.00000000000E+00 0.  1.
        -13    1    3    3    0    0  0.73448101740E+02 -0.32539408290E+03  0.68928561248E+03  0.76576144354E+03  0.00000000000E+00 0. -1.
          4    1    5    5  502    0 -0.15772401705E+02  0.21949984423E+02 -0.44278923709E+01  0.27389353818E+02  0.00000000000E+00 0. -1.
          3    1    6    6  503    0 -0.10574744320E+03  0.45588544130E+03  0.15194535134E+04  0.15898908883E+04  0.00000000000E+00 0. -1.
         -4    1    5    5    0  502  0.12807383645E+03  0.13772406498E+03 -0.12028322900E+02  0.18845558153E+03  0.00000000000E+00 0.  1.
         -3    1    6    6    0  503 -0.80056346611E+02  0.13012651569E+03  0.44270759627E+03  0.46832888499E+03  0.00000000000E+00 0.  1.
<mgrwt>
<rscale>  0 0.19469541E+04</rscale>
<asrwt>0</asrwt>
<pdfrwt beam="1">  1        1 0.59314862E+00 0.19469541E+04</pdfrwt>
<pdfrwt beam="2">  1       -1 0.37814746E-01 0.19469541E+04</pdfrwt>
<totfact> 0.81089886E-01</totfact>
</mgrwt>
</event>
<event>
12    1  0.4247462E-008  0.1441858E+04  0.7818608E-02  0.8924065E-01
          2   -1    0    0  501    0  0.00000000000E+00  0.00000000000E+00  0.26442958662E+04  0.26442958662E+04  0.00000000000E+00 0. -1.
         -2   -1    0    0    0  501 -0.00000000000E+00 -0.00000000000E+00 -0.19655091275E+03  0.19655091275E+03  0.00000000000E+00 0.  1.
         23    2    1    2    0    0  0.13780545601E+03  0.27487931389E+03  0.12860213998E+04  0.13255166757E+04  0.92706180590E+02 0.  0.
        254    2    1    2    0    0 -0.13780545601E+03 -0.27487931389E+03  0.11617235537E+04  0.15153301033E+04  0.92307893802E+03 0.  0.
         23    2    4    4    0    0 -0.37009819939E+02 -0.59972397668E+03  0.60404212083E+03  0.85642278053E+03  0.86916743514E+02 0.  0.
         23    2    4    4    0    0 -0.10079563607E+03  0.32484466279E+03  0.55768143289E+03  0.65890732278E+03  0.86408704575E+02 0.  0.
         11    1    3    3    0    0  0.25429948222E+02  0.14558718005E+03  0.52140357188E+03  0.54194464111E+03  0.00000000000E+00 0. -1.
        -11    1    3    3    0    0  0.11237550779E+03  0.12929213384E+03  0.76461782788E+03  0.78357203456E+03  0.00000000000E+00 0.  1.
          3    1    5    5  502    0 -0.18786714454E+02 -0.56829472285E+03  0.58330987122E+03  0.81459329639E+03  0.00000000000E+00 0. -1.
          3    1    6    6  503    0 -0.45230398336E+02  0.14658000651E+03  0.17242393308E+03  0.23078453142E+03  0.00000000000E+00 0. -1.
         -3    1    5    5    0  502 -0.18223105484E+02 -0.31429253828E+02  0.20732249604E+02  0.41829484139E+02  0.00000000000E+00 0.  1.
         -3    1    6    6    0  503 -0.55565237736E+02  0.17826465627E+03  0.38525749981E+03  0.42812279136E+03  0.00000000000E+00 0.  1.
<mgrwt>
<rscale>  0 0.14418582E+04</rscale>
<asrwt>0</asrwt>
<pdfrwt beam="1">  1        2 0.40681472E+00 0.14418582E+04</pdfrwt>
<pdfrwt beam="2">  1       -2 0.30238604E-01 0.14418582E+04</pdfrwt>
<totfact> 0.28222412E+01</totfact>
</mgrwt>
</event>
<event>
12    1  0.4247462E-008  0.2145248E+04  0.7818608E-02  0.8541569E-01
          1   -1    0    0  501    0  0.00000000000E+00  0.00000000000E+00  0.18436662388E+04  0.18436662388E+04  0.00000000000E+00 0. -1.
         -1   -1    0    0    0  501 -0.00000000000E+00 -0.00000000000E+00 -0.62404042663E+03  0.62404042663E+03  0.00000000000E+00 0.  1.
         23    2    1    2    0    0 -0.77108239165E+03  0.25044753473E+03  0.10170779065E+03  0.82235469498E+03  0.92901815395E+02 0.  0.
        254    2    1    2    0    0  0.77108239165E+03 -0.25044753473E+03  0.11179180215E+04  0.16453519704E+04  0.89451125285E+03 0.  0.
         23    2    4    4    0    0  0.85317104278E+03 -0.37659223164E+03  0.63494213566E+03  0.11318131891E+04  0.90150109181E+02 0.  0.
         23    2    4    4    0    0 -0.82088651130E+02  0.12614469691E+03  0.48297588584E+03  0.51353878136E+03  0.88347849143E+02 0.  0.
         11    1    3    3    0    0 -0.37920904312E+03  0.11738536438E+03  0.33372894098E+01  0.39697601899E+03  0.00000000000E+00 0.  1.
        -11    1    3    3    0    0 -0.39187334853E+03  0.13306217036E+03  0.98370501240E+02  0.42537867599E+03  0.00000000000E+00 0. -1.
          3    1    5    5  502    0  0.47943483330E+03 -0.19029188996E+03  0.30187881544E+03  0.59766176218E+03  0.00000000000E+00 0. -1.
          3    1    6    6  503    0 -0.94670760153E+02  0.77343700857E+02  0.37403143301E+03  0.39350236819E+03  0.00000000000E+00 0. -1.
         -3    1    5    5    0  502  0.37373620948E+03 -0.18630034168E+03  0.33306332022E+03  0.53415142690E+03  0.00000000000E+00 0.  1.
         -3    1    6    6    0  503  0.12582109023E+02  0.48800996052E+02  0.10894445283E+03  0.12003641317E+03  0.00000000000E+00 0.  1.
<mgrwt>
<rscale>  0 0.21452480E+04</rscale>
<asrwt>0</asrwt>
<pdfrwt beam="1">  1        1 0.28364096E+00 0.21452480E+04</pdfrwt>
<pdfrwt beam="2">  1       -1 0.96006221E-01 0.21452480E+04</pdfrwt>
<totfact> 0.36441555E+00</totfact>
</mgrwt>
</event>
<event>
12    1  0.4247462E-008  0.2725778E+04  0.7818608E-02  0.8326689E-01
          2   -1    0    0  501    0  0.00000000000E+00  0.00000000000E+00  0.28226386526E+04  0.28226386526E+04  0.00000000000E+00 0. -1.
         -2   -1    0    0    0  501 -0.00000000000E+00 -0.00000000000E+00 -0.65806025597E+03  0.65806025597E+03  0.00000000000E+00 0.  1.
         23    2    1    2    0    0 -0.99565820266E+03 -0.71200922227E+03  0.10298680020E+04  0.16022446250E+04  0.90924956804E+02 0.  0.
        254    2    1    2    0    0  0.99565820266E+03  0.71200922227E+03  0.11347103946E+04  0.18784542835E+04  0.86181809362E+03 0.  0.
         23    2    4    4    0    0  0.37273447326E+03  0.37108634317E+03 -0.38357235425E+01  0.53360443127E+03  0.89905031245E+02 0.  0.
         23    2    4    4    0    0  0.62292372940E+03  0.34092287909E+03  0.11385461182E+04  0.13448498523E+04  0.89841414620E+02 0.  0.
         11    1    3    3    0    0 -0.22260358595E+03 -0.14527372228E+03  0.17833810747E+03  0.32009575355E+03  0.00000000000E+00 0.  1.
        -11    1    3    3    0    0 -0.77305461671E+03 -0.56673549999E+03  0.85152989450E+03  0.12821488715E+04  0.00000000000E+00 0. -1.
          1    1    5    5  502    0  0.29769011046E+03  0.29353509717E+03 -0.39540226737E+02  0.41993533391E+03  0.00000000000E+00 0. -1.
          1    1    6    6  503    0  0.22204331426E+03  0.16925955560E+03  0.42037379638E+03  0.50464458706E+03  0.00000000000E+00 0. -1.
         -1    1    5    5    0  502  0.75044362807E+02  0.77551246005E+02  0.35704503195E+02  0.11366909736E+03  0.00000000000E+00 0.  1.
         -1    1    6    6    0  503  0.40088041514E+03  0.17166332349E+03  0.71817232178E+03  0.84020526519E+03  0.00000000000E+00 0.  1.
<mgrwt>
<rscale>  0 0.27257779E+04</rscale>
<asrwt>0</asrwt>
<pdfrwt beam="1">  1        2 0.43425209E+00 0.27257779E+04</pdfrwt>
<pdfrwt beam="2">  1       -2 0.10124004E+00 0.27257779E+04</pdfrwt>
<totfact> 0.15727613E+00</totfact>
</mgrwt>
</event>
<event>
12    1  0.4247462E-008  0.1380396E+04  0.7818608E-02  0.8968132E-01
         -2   -1    0    0    0  501 -0.00000000000E+00  0.00000000000E+00  0.20326365856E+03  0.20326365856E+03  0.00000000000E+00 0. -1.
          2   -1    0    0  501    0  0.00000000000E+00 -0.00000000000E+00 -0.23436222402E+04  0.23436222402E+04  0.00000000000E+00 0.  1.
         23    2    1    2    0    0  0.19928666864E+03 -0.19303606592E+03 -0.11245431427E+04  0.11618523212E+04  0.91243835176E+02 0.  0.
        254    2    1    2    0    0 -0.19928666864E+03  0.19303606592E+03 -0.10158154390E+04  0.13850335776E+04  0.89969934197E+03 0.  0.
         23    2    4    4    0    0 -0.34676352981E+03 -0.20524859545E+03 -0.19516527149E+03  0.45666661750E+03  0.89905421454E+02 0.  0.
         23    2    4    4    0    0  0.14747686117E+03  0.39828466137E+03 -0.82065016748E+03  0.92836696008E+03  0.89545625904E+02 0.  0.
         13    1    3    3    0    0  0.96382872570E+02 -0.49135617398E+02 -0.31047629304E+03  0.32878487734E+03  0.00000000000E+00 0. -1.
        -13    1    3    3    0    0  0.10290379607E+03 -0.14390044852E+03 -0.81406684966E+03  0.83306744387E+03  0.00000000000E+00 0.  1.
          2    1    5    5  502    0 -0.24450706598E+03 -0.14115330473E+03 -0.18050157357E+03  0.33509517874E+03  0.00000000000E+00 0. -1.
          1    1    6    6  503    0  0.18832389018E+02  0.38679759298E+02 -0.15575923330E+03  0.16159121701E+03  0.00000000000E+00 0. -1.
         -2    1    5    5    0  502 -0.10225646382E+03 -0.64095290723E+02 -0.14663697916E+02  0.12157143877E+03  0.00000000000E+00 0.  1.
         -1    1    6    6    0  503  0.12864447216E+03  0.35960490207E+03 -0.66489093418E+03  0.76677574307E+03  0.00000000000E+00 0.  1.
<mgrwt>
<rscale>  0 0.13803959E+04</rscale>
<asrwt>0</asrwt>
<pdfrwt beam="1">  1        2 0.36055725E+00 0.13803959E+04</pdfrwt>
<pdfrwt beam="2">  1       -2 0.31271334E-01 0.13803959E+04</pdfrwt>
<totfact> 0.39695540E+01</totfact>
</mgrwt>
</event>
<event>
12    1  0.4247462E-008  0.1431654E+04  0.7818608E-02  0.8931220E-01
         -1   -1    0    0    0  501 -0.00000000000E+00  0.00000000000E+00  0.39564317046E+03  0.39564317046E+03  0.00000000000E+00 0.  1.
          1   -1    0    0  501    0  0.00000000000E+00 -0.00000000000E+00 -0.12951264840E+04  0.12951264840E+04  0.00000000000E+00 0. -1.
         23    2    1    2    0    0  0.44523359804E+01 -0.12173955189E+03 -0.75924364888E+03  0.77438008724E+03  0.91505515458E+02 0.  0.
        254    2    1    2    0    0 -0.44523359804E+01  0.12173955189E+03 -0.14023966461E+03  0.91638956718E+03  0.89736410309E+03 0.  0.
         23    2    4    4    0    0  0.13491539204E+03  0.23890549605E+03 -0.45666298285E+03  0.54006238644E+03  0.88590644512E+02 0.  0.
         23    2    4    4    0    0 -0.13936772802E+03 -0.11716594416E+03  0.31642331824E+03  0.37632718073E+03  0.91363059013E+02 0.  0.
         13    1    3    3    0    0 -0.22204838812E+02 -0.60418921177E+02 -0.57094460141E+03  0.57456177978E+03  0.00000000000E+00 0. -1.
        -13    1    3    3    0    0  0.26657174793E+02 -0.61320630710E+02 -0.18829904747E+03  0.19981830746E+03  0.00000000000E+00 0.  1.
          2    1    5    5  502    0 -0.10643319153E+02  0.17188268354E+02 -0.56266763618E+02  0.59788506418E+02  0.00000000000E+00 0. -1.
          3    1    6    6  503    0 -0.11263599662E+02 -0.52855800418E+02  0.13284114540E+03  0.14341329864E+03  0.00000000000E+00 0. -1.
         -2    1    5    5    0  502  0.14555871119E+03  0.22171722769E+03 -0.40039621923E+03  0.48027388002E+03  0.00000000000E+00 0.  1.
         -3    1    6    6    0  503 -0.12810412835E+03 -0.64310143742E+02  0.18358217284E+03  0.23291388209E+03  0.00000000000E+00 0.  1.
<mgrwt>
<rscale>  0 0.14316535E+04</rscale>
<asrwt>0</asrwt>
<pdfrwt beam="1">  1        1 0.19925023E+00 0.14316535E+04</pdfrwt>
<pdfrwt beam="2">  1       -1 0.60868180E-01 0.14316535E+04</pdfrwt>
<totfact> 0.24276489E+01</totfact>
</mgrwt>
</event>
<event>
12    1  0.4247462E-008  0.1567304E+04  0.7818608E-02  0.8840890E-01
         -1   -1    0    0    0  501 -0.00000000000E+00  0.00000000000E+00  0.52158531692E+03  0.52158531692E+03  0.00000000000E+00 0.  1.
          1   -1    0    0  501    0  0.00000000000E+00 -0.00000000000E+00 -0.11773916058E+04  0.11773916058E+04  0.00000000000E+00 0. -1.
         23    2    1    2    0    0  0.48609081567E+03 -0.12516901324E+03 -0.89484660738E+02  0.51756079749E+03  0.88938808398E+02 0.  0.
        254    2    1    2    0    0 -0.48609081567E+03  0.12516901324E+03 -0.56632162811E+03  0.11814161252E+04  0.90723332801E+03 0.  0.
         23    2    4    4    0    0 -0.18585891863E+03  0.22885775539E+03  0.18516672032E+03  0.36057441552E+03  0.93849800079E+02 0.  0.
         23    2    4    4    0    0 -0.30023189704E+03 -0.10368874215E+03 -0.75148834843E+03  0.82084170968E+03  0.90309618898E+02 0.  0.
         11    1    3    3    0    0  0.11388759683E+02 -0.12426450894E+02  0.10022377899E+02  0.19610420385E+02  0.00000000000E+00 0. -1.
        -11    1    3    3    0    0  0.47470205599E+03 -0.11274256235E+03 -0.99507038637E+02  0.49795037711E+03  0.00000000000E+00 0.  1.
          4    1    5    5  502    0 -0.10434947080E+03  0.19194634980E+03  0.11519392055E+03  0.24698553114E+03  0.00000000000E+00 0. -1.
          1    1    6    6  503    0 -0.29016949799E+03 -0.76983808714E+02 -0.66144887684E+03  0.72638795492E+03  0.00000000000E+00 0. -1.
         -4    1    5    5    0  502 -0.81509447821E+02  0.36911405592E+02  0.69972799778E+02  0.11358888438E+03  0.00000000000E+00 0.  1.
         -1    1    6    6    0  503 -0.10062399052E+02 -0.26704933440E+02 -0.90039471589E+02  0.94453754763E+02  0.00000000000E+00 0.  1.
<mgrwt>
<rscale>  0 0.15673036E+04</rscale>
<asrwt>0</asrwt>
<pdfrwt beam="1">  1        1 0.18113717E+00 0.15673036E+04</pdfrwt>
<pdfrwt beam="2">  1       -1 0.80243895E-01 0.15673036E+04</pdfrwt>
<totfact> 0.16555673E+01</totfact>
</mgrwt>
</event>
<event>
12    1  0.4247462E-008  0.1509311E+04  0.7818608E-02  0.8878285E-01
          2   -1    0    0  501    0  0.00000000000E+00  0.00000000000E+00  0.10799537067E+04  0.10799537067E+04  0.00000000000E+00 0. -1.
         -2   -1    0    0    0  501 -0.00000000000E+00 -0.00000000000E+00 -0.52734216038E+03  0.52734216038E+03  0.00000000000E+00 0.  1.
         23    2    1    2    0    0 -0.30039974817E+03 -0.11379435108E+03 -0.20121623947E+03  0.38984290265E+03  0.91106260396E+02 0.  0.
        254    2    1    2    0    0  0.30039974817E+03  0.11379435108E+03  0.75382778580E+03  0.12174529644E+04  0.90041447508E+03 0.  0.
         23    2    4    4    0    0 -0.18902171820E+03  0.26379766039E+03  0.47720177229E+02  0.34051100974E+03  0.91389916606E+02 0.  0.
         23    2    4    4    0    0  0.48942146638E+03 -0.15000330931E+03  0.70610760858E+03  0.87694195471E+03  0.91678091611E+02 0.  0.
         13    1    3    3    0    0 -0.12315148351E+03 -0.92644169609E+02 -0.11033654628E+03  0.18953464986E+03  0.00000000000E+00 0.  1.
        -13    1    3    3    0    0 -0.17724826466E+03 -0.21150181472E+02 -0.90879693184E+02  0.20030825279E+03  0.00000000000E+00 0. -1.
          2    1    5    5  502    0 -0.60621226830E+02  0.12697668738E+03  0.58917677744E+02  0.15254279738E+03  0.00000000000E+00 0.  1.
          3    1    6    6  503    0  0.49102594662E+03 -0.15449222119E+03  0.69513035069E+03  0.86497429506E+03  0.00000000000E+00 0. -1.
         -2    1    5    5    0  502 -0.12840049137E+03  0.13682097301E+03 -0.11197500515E+02  0.18796821236E+03  0.00000000000E+00 0. -1.
         -3    1    6    6    0  503 -0.16044802443E+01  0.44889118819E+01  0.10977257881E+02  0.11967659643E+02  0.00000000000E+00 0.  1.
<mgrwt>
<rscale>  0 0.15093113E+04</rscale>
<asrwt>0</asrwt>
<pdfrwt beam="1">  1        2 0.16614672E+00 0.15093113E+04</pdfrwt>
<pdfrwt beam="2">  1       -2 0.81129563E-01 0.15093113E+04</pdfrwt>
<totfact> 0.28995959E+01</totfact>
</mgrwt>
</event>
<event>
12    1  0.4247462E-008  0.1837309E+04  0.7818608E-02  0.8686707E-01
         -1   -1    0    0    0  501 -0.00000000000E+00  0.00000000000E+00  0.63222173374E+03  0.63222173374E+03  0.00000000000E+00 0.  1.
          1   -1    0    0  501    0  0.00000000000E+00 -0.00000000000E+00 -0.13348581870E+04  0.13348581870E+04  0.00000000000E+00 0. -1.
         23    2    1    2    0    0  0.27975325608E+03 -0.32572812081E+03 -0.85106915965E+03  0.95773715480E+03  0.92633958141E+02 0.  0.
        254    2    1    2    0    0 -0.27975325608E+03  0.32572812081E+03  0.14843270634E+03  0.10093427660E+04  0.90132117360E+03 0.  0.
         23    2    4    4    0    0  0.21704058329E+03 -0.16399636722E+03  0.98887245756E+02  0.30399805113E+03  0.92923110492E+02 0.  0.
         23    2    4    4    0    0 -0.49679383937E+03  0.48972448803E+03  0.49545460584E+02  0.70534471486E+03  0.91772659857E+02 0.  0.
         13    1    3    3    0    0  0.81519110202E+02 -0.11564231077E+03 -0.19523701636E+03  0.24111408487E+03  0.00000000000E+00 0.  1.
        -13    1    3    3    0    0  0.19823414588E+03 -0.21008581004E+03 -0.65583214329E+03  0.71662306992E+03  0.00000000000E+00 0. -1.
          2    1    5    5  502    0  0.55999375395E+00 -0.36938684129E+01  0.24169427683E+02  0.24456481582E+02  0.00000000000E+00 0.  1.
          3    1    6    6  503    0 -0.48459216565E+03  0.46803392360E+03  0.63698688316E+02  0.67671474311E+03  0.00000000000E+00 0. -1.
         -2    1    5    5    0  502  0.21648058953E+03 -0.16030249881E+03  0.74717818073E+02  0.27954156955E+03  0.00000000000E+00 0. -1.
         -3    1    6    6    0  503 -0.12201673719E+02  0.21690564429E+02 -0.14153227732E+02  0.28629971744E+02  0.00000000000E+00 0.  1.
<mgrwt>
<rscale>  0 0.18373093E+04</rscale>
<asrwt>0</asrwt>
<pdfrwt beam="1">  1        1 0.20536280E+00 0.18373093E+04</pdfrwt>
<pdfrwt beam="2">  1       -1 0.97264881E-01 0.18373093E+04</pdfrwt>
<totfact> 0.81580014E+00</totfact>
</mgrwt>
</event>
<event>
12    1  0.4247462E-008  0.1473072E+04  0.7818608E-02  0.8902560E-01
         -1   -1    0    0    0  501 -0.00000000000E+00  0.00000000000E+00  0.50349456560E+03  0.50349456560E+03  0.00000000000E+00 0.  1.
          1   -1    0    0  501    0  0.00000000000E+00 -0.00000000000E+00 -0.10774408363E+04  0.10774408363E+04  0.00000000000E+00 0. -1.
         23    2    1    2    0    0  0.39525297624E+02  0.43293402082E+03 -0.51771407212E+02  0.44761114628E+03  0.93173730896E+02 0.  0.
        254    2    1    2    0    0 -0.39525297624E+02 -0.43293402082E+03 -0.52217486344E+03  0.11333242556E+04  0.90706293318E+03 0.  0.
         23    2    4    4    0    0 -0.63428468329E+02 -0.50308433364E+03  0.79646048869E+02  0.51993383776E+03  0.82889596435E+02 0.  0.
         23    2    4    4    0    0  0.23903170706E+02  0.70150312818E+02 -0.60182091231E+03  0.61339041783E+03  0.92557907431E+02 0.  0.
         11    1    3    3    0    0 -0.30517942446E+02  0.12314693381E+03 -0.19639112354E+02  0.12838304737E+03  0.00000000000E+00 0. -1.
        -11    1    3    3    0    0  0.70043240070E+02  0.30978708701E+03 -0.32132294858E+02  0.31922809890E+03  0.00000000000E+00 0.  1.
          2    1    5    5  502    0 -0.70720024911E+02 -0.49257589974E+03  0.67300105514E+02  0.50215699052E+03  0.00000000000E+00 0. -1.
          1    1    6    6  503    0 -0.20959876812E+02  0.31318195859E+02 -0.42930564450E+03  0.43095647370E+03  0.00000000000E+00 0. -1.
         -2    1    5    5    0  502  0.72915565815E+01 -0.10508433906E+02  0.12345943355E+02  0.17776847242E+02  0.00000000000E+00 0.  1.
         -1    1    6    6    0  503  0.44863047518E+02  0.38832116959E+02 -0.17251526781E+03  0.18243394412E+03  0.00000000000E+00 0.  1.
<mgrwt>
<rscale>  0 0.14730724E+04</rscale>
<asrwt>0</asrwt>
<pdfrwt beam="1">  1        1 0.16576013E+00 0.14730724E+04</pdfrwt>
<pdfrwt beam="2">  1       -1 0.77460703E-01 0.14730724E+04</pdfrwt>
<totfact> 0.21359476E+01</totfact>
</mgrwt>
</event>
<event>
12    1  0.4247462E-008  0.1743224E+04  0.7818608E-02  0.8737089E-01
          2   -1    0    0  501    0  0.00000000000E+00  0.00000000000E+00  0.12228321861E+04  0.12228321861E+04  0.00000000000E+00 0.  1.
         -2   -1    0    0    0  501 -0.00000000000E+00 -0.00000000000E+00 -0.62126894870E+03  0.62126894870E+03  0.00000000000E+00 0. -1.
         23    2    1    2    0    0 -0.24380223270E+03 -0.46791851735E+03 -0.17055651240E+03  0.56336134621E+03  0.99494798516E+02 0.  0.
        254    2    1    2    0    0  0.24380223270E+03  0.46791851735E+03  0.77211974983E+03  0.12807397886E+04  0.87506470077E+03 0.  0.
         23    2    4    4    0    0  0.16178011625E+03 -0.20474082998E+03  0.44277580258E+03  0.52181218980E+03  0.90254842519E+02 0.  0.
         23    2    4    4    0    0  0.82022116448E+02  0.67265934733E+03  0.32934394725E+03  0.75892759882E+03  0.91134184182E+02 0.  0.
         13    1    3    3    0    0  0.14149862074E-01 -0.41557870317E+02 -0.33684593692E+02  0.53494940299E+02  0.00000000000E+00 0.  1.
        -13    1    3    3    0    0 -0.24381638256E+03 -0.42636064703E+03 -0.13687191871E+03  0.50986640591E+03  0.00000000000E+00 0. -1.
          4    1    5    5  502    0  0.29440633176E+02  0.31648195605E+01  0.44498501673E+02  0.53449823347E+02  0.00000000000E+00 0. -1.
          1    1    6    6  503    0  0.58786291622E+01  0.87744113200E+02  0.78768787713E+02  0.11805977130E+03  0.00000000000E+00 0. -1.
         -4    1    5    5    0  502  0.13233948307E+03 -0.20790564954E+03  0.39827730090E+03  0.46836236645E+03  0.00000000000E+00 0.  1.
         -1    1    6    6    0  503  0.76143487286E+02  0.58491523413E+03  0.25057515954E+03  0.64086782752E+03  0.00000000000E+00 0.  1.
<mgrwt>
<rscale>  0 0.17432242E+04</rscale>
<asrwt>0</asrwt>
<pdfrwt beam="1">  1        2 0.18812803E+00 0.17432242E+04</pdfrwt>
<pdfrwt beam="2">  1       -2 0.95579839E-01 0.17432242E+04</pdfrwt>
<totfact> 0.15996975E+01</totfact>
</mgrwt>
</event>
<event>
12    1  0.4247462E-008  0.1658292E+04  0.7818608E-02  0.8785516E-01
         -2   -1    0    0    0  501 -0.00000000000E+00  0.00000000000E+00  0.15420383996E+04  0.15420383996E+04  0.00000000000E+00 0.  1.
          2   -1    0    0  501    0  0.00000000000E+00 -0.00000000000E+00 -0.44582749261E+03  0.44582749261E+03  0.00000000000E+00 0. -1.
         23    2    1    2    0    0  0.15923752129E+03 -0.20413336163E+03  0.99983981873E+03  0.10367749144E+04  0.90529235259E+02 0.  0.
        254    2    1    2    0    0 -0.15923752129E+03  0.20413336163E+03  0.96371088299E+02  0.95109097789E+03  0.91008771228E+03 0.  0.
         23    2    4    4    0    0 -0.31500274747E+03 -0.20371647444E+02 -0.30957291898E+03  0.45153185234E+03  0.91672714455E+02 0.  0.
         23    2    4    4    0    0  0.15576522618E+03  0.22450500908E+03  0.40594400728E+03  0.49955912555E+03  0.10051605887E+03 0.  0.
         13    1    3    3    0    0  0.67429082517E+02 -0.13202953047E+03  0.68822400534E+03  0.70401048260E+03  0.00000000000E+00 0.  1.
        -13    1    3    3    0    0  0.91808438771E+02 -0.72103831160E+02  0.31161581339E+03  0.33276443177E+03  0.00000000000E+00 0. -1.
          3    1    5    5  502    0 -0.28348670902E+03 -0.14041234493E+02 -0.30872922720E+03  0.41937525700E+03  0.00000000000E+00 0. -1.
          3    1    6    6  503    0  0.13373253021E+03  0.22751267223E+03  0.39427545568E+03  0.47444656245E+03  0.00000000000E+00 0. -1.
         -3    1    5    5    0  502 -0.31516038450E+02 -0.63304129507E+01 -0.84369177860E+00  0.32156595335E+02  0.00000000000E+00 0.  1.
         -3    1    6    6    0  503  0.22032695968E+02 -0.30076631590E+01  0.11668551592E+02  0.25112563102E+02  0.00000000000E+00 0.  1.
<mgrwt>
<rscale>  0 0.16582920E+04</rscale>
<asrwt>0</asrwt>
<pdfrwt beam="1">  1        2 0.68588846E-01 0.16582920E+04</pdfrwt>
<pdfrwt beam="2">  1       -2 0.23723667E+00 0.16582920E+04</pdfrwt>
<totfact> 0.51696277E+00</totfact>
</mgrwt>
</event>
<event>
12    1  0.4247462E-008  0.1460326E+04  0.7818608E-02  0.8911273E-01
         -2   -1    0    0    0  501 -0.00000000000E+00  0.00000000000E+00  0.66975807363E+03  0.66975807363E+03  0.00000000000E+00 0. -1.
          2   -1    0    0  501    0  0.00000000000E+00 -0.00000000000E+00 -0.79601536877E+03  0.79601536877E+03  0.00000000000E+00 0.  1.
         23    2    1    2    0    0 -0.19093780168E+03  0.12264907967E+03 -0.39786828783E+03  0.46712554979E+03  0.91690042813E+02 0.  0.
        254    2    1    2    0    0  0.19093780168E+03 -0.12264907967E+03  0.27161099270E+03  0.99864789261E+03  0.93382281039E+03 0.  0.
         23    2    4    4    0    0 -0.10453408161E+03  0.35832192263E+03  0.14973849660E+03  0.41274036638E+03  0.92795572211E+02 0.  0.
         23    2    4    4    0    0  0.29547188329E+03 -0.48097100230E+03  0.12187249609E+03  0.58590752622E+03  0.98984772115E+02 0.  0.
         11    1    3    3    0    0 -0.19253749630E+03  0.13317762395E+03 -0.38028021353E+03  0.44656467371E+03  0.00000000000E+00 0.  1.
        -11    1    3    3    0    0  0.15996946177E+01 -0.10528544284E+02 -0.17588074306E+02  0.20560876086E+02  0.00000000000E+00 0. -1.
          4    1    5    5  502    0 -0.77652694208E+01  0.41407196527E+00 -0.67613926027E+01  0.10304721961E+02  0.00000000000E+00 0. -1.
          1    1    6    6  503    0  0.12117060471E+03 -0.16579230644E+03  0.90403742270E+02  0.22437076667E+03  0.00000000000E+00 0. -1.
         -4    1    5    5    0  502 -0.96768812188E+02  0.35790785066E+03  0.15649988921E+03  0.40243564442E+03  0.00000000000E+00 0.  1.
         -1    1    6    6    0  503  0.17430127858E+03 -0.31517869586E+03  0.31468753822E+02  0.36153675955E+03  0.00000000000E+00 0.  1.
<mgrwt>
<rscale>  0 0.14603256E+04</rscale>
<asrwt>0</asrwt>
<pdfrwt beam="1">  1        2 0.12246390E+00 0.14603256E+04</pdfrwt>
<pdfrwt beam="2">  1       -2 0.10303970E+00 0.14603256E+04</pdfrwt>
<totfact> 0.25847348E+01</totfact>
</mgrwt>
</event>
<event>
12    1  0.4247462E-008  0.2433493E+04  0.7818608E-02  0.8427070E-01
         -2   -1    0    0    0  501 -0.00000000000E+00  0.00000000000E+00  0.59577993520E+03  0.59577993520E+03  0.00000000000E+00 0.  1.
          2   -1    0    0  501    0  0.00000000000E+00 -0.00000000000E+00 -0.24849315487E+04  0.24849315487E+04  0.00000000000E+00 0. -1.
         23    2    1    2    0    0  0.11863182555E+03  0.12572854920E+03  0.49312552045E+03  0.53016832861E+03  0.89579571468E+02 0.  0.
        254    2    1    2    0    0 -0.11863182555E+03 -0.12572854920E+03 -0.23822771339E+04  0.25505431552E+04  0.89450816984E+03 0.  0.
         23    2    4    4    0    0  0.16477161089E+03 -0.40135305565E+03 -0.77102227168E+03  0.88926690210E+03  0.89923971860E+02 0.  0.
         23    2    4    4    0    0 -0.28340343644E+03  0.27562450646E+03 -0.16112548622E+04  0.16612762531E+04  0.86082413094E+02 0.  0.
         11    1    3    3    0    0  0.12000222982E+03  0.83719553794E+02  0.31766186494E+03  0.34974070293E+03  0.00000000000E+00 0.  1.
        -11    1    3    3    0    0 -0.13704042710E+01  0.42008995404E+02  0.17546365552E+03  0.18042762568E+03  0.00000000000E+00 0. -1.
          3    1    5    5  502    0  0.15615455406E+03 -0.31465074979E+03 -0.56113747558E+03  0.66201556296E+03  0.00000000000E+00 0. -1.
          3    1    6    6  503    0 -0.14759142109E+03  0.19670875802E+03 -0.10537771484E+04  0.10820923443E+04  0.00000000000E+00 0. -1.
         -3    1    5    5    0  502  0.86170568250E+01 -0.86702305867E+02 -0.20988479609E+03  0.22725133914E+03  0.00000000000E+00 0.  1.
         -3    1    6    6    0  503 -0.13581201535E+03  0.78915748440E+02 -0.55747771381E+03  0.57918390884E+03  0.00000000000E+00 0.  1.
<mgrwt>
<rscale>  0 0.24334933E+04</rscale>
<asrwt>0</asrwt>
<pdfrwt beam="1">  1        2 0.38229716E+00 0.24334933E+04</pdfrwt>
<pdfrwt beam="2">  1       -2 0.91658452E-01 0.24334933E+04</pdfrwt>
<totfact> 0.32263643E+00</totfact>
</mgrwt>
</event>
<event>
12    1  0.4247462E-008  0.1256653E+04  0.7818608E-02  0.9064664E-01
         -1   -1    0    0    0  501 -0.00000000000E+00  0.00000000000E+00  0.29592121443E+03  0.29592121443E+03  0.00000000000E+00 0.  1.
          1   -1    0    0  501    0  0.00000000000E+00 -0.00000000000E+00 -0.13341188084E+04  0.13341188084E+04  0.00000000000E+00 0. -1.
         23    2    1    2    0    0  0.17053224914E+02  0.12754599178E+03  0.88203224316E+02  0.18113417703E+03  0.92037974822E+02 0.  0.
        254    2    1    2    0    0 -0.17053224914E+02 -0.12754599178E+03 -0.11264008183E+04  0.14489058458E+04  0.90221425063E+03 0.  0.
         23    2    4    4    0    0  0.43015949900E+03 -0.28601754376E+02 -0.48462651652E+03  0.65568791151E+03  0.95961043406E+02 0.  0.
         23    2    4    4    0    0 -0.44721272391E+03 -0.98944237401E+02 -0.64177430176E+03  0.79321793428E+03  0.86782799702E+02 0.  0.
         11    1    3    3    0    0  0.49416757767E+02  0.46778263740E+02  0.56778451422E+02  0.88622877705E+02  0.00000000000E+00 0.  1.
        -11    1    3    3    0    0 -0.32363532853E+02  0.80767728037E+02  0.31424772893E+02  0.92511299323E+02  0.00000000000E+00 0. -1.
          2    1    6    6  502    0 -0.12786546201E+03 -0.17113454857E+01 -0.13129154706E+03  0.18327568145E+03  0.00000000000E+00 0. -1.
          2    1    5    5  503    0  0.22201883741E+03  0.32053678267E+02 -0.26265376916E+03  0.34540817146E+03  0.00000000000E+00 0. -1.
         -2    1    5    5    0  503  0.20814066159E+03 -0.60655432643E+02 -0.22197274736E+03  0.31027974005E+03  0.00000000000E+00 0.  1.
         -2    1    6    6    0  502 -0.31934726190E+03 -0.97232891915E+02 -0.51048275470E+03  0.60994225284E+03  0.00000000000E+00 0.  1.
<mgrwt>
<rscale>  0 0.12566528E+04</rscale>
<asrwt>0</asrwt>
<pdfrwt beam="1">  1        1 0.20524905E+00 0.12566528E+04</pdfrwt>
<pdfrwt beam="2">  1       -1 0.45526339E-01 0.12566528E+04</pdfrwt>
<totfact> 0.40384882E+01</totfact>
</mgrwt>
</event>
<event>
12    1  0.4247462E-008  0.1506944E+04  0.7818608E-02  0.8879848E-01
          1   -1    0    0  501    0  0.00000000000E+00  0.00000000000E+00  0.16193732031E+04  0.16193732031E+04  0.00000000000E+00 0. -1.
         -1   -1    0    0    0  501 -0.00000000000E+00 -0.00000000000E+00 -0.35058030166E+03  0.35058030166E+03  0.00000000000E+00 0.  1.
         23    2    1    2    0    0 -0.30413934994E+03 -0.33932524758E+03  0.56699312220E+03  0.73326489339E+03  0.92486947329E+02 0.  0.
        254    2    1    2    0    0  0.30413934994E+03  0.33932524758E+03  0.70179977928E+03  0.12366886114E+04  0.91062254726E+03 0.  0.
         23    2    4    4    0    0  0.25782890622E+01  0.29454333175E+03  0.83647222890E+03  0.89120081081E+03  0.88264792593E+02 0.  0.
         23    2    4    4    0    0  0.30156106088E+03  0.44781915833E+02 -0.13467244962E+03  0.34548780061E+03  0.90998122289E+02 0.  0.
         11    1    3    3    0    0 -0.29686671733E+03 -0.31265825586E+03  0.55585868562E+03  0.70346564322E+03  0.00000000000E+00 0. -1.
        -11    1    3    3    0    0 -0.72726326079E+01 -0.26666991719E+02  0.11134436580E+02  0.29799250164E+02  0.00000000000E+00 0.  1.
          2    1    6    6  502    0  0.65508905218E+02  0.20561684218E+02 -0.73203323452E+02  0.10036396806E+03  0.00000000000E+00 0.  1.
          2    1    5    5  503    0 -0.42349288290E+02  0.16038722687E+03  0.43841891141E+03  0.46875224441E+03  0.00000000000E+00 0.  1.
         -2    1    5    5    0  503  0.44927577352E+02  0.13415610487E+03  0.39805331749E+03  0.42244856639E+03  0.00000000000E+00 0. -1.
         -2    1    6    6    0  502  0.23605215566E+03  0.24220231615E+02 -0.61469126169E+02  0.24512383255E+03  0.00000000000E+00 0. -1.
<mgrwt>
<rscale>  0 0.15069444E+04</rscale>
<asrwt>0</asrwt>
<pdfrwt beam="1">  1        1 0.24913433E+00 0.15069444E+04</pdfrwt>
<pdfrwt beam="2">  1       -1 0.53935432E-01 0.15069444E+04</pdfrwt>
<totfact> 0.18156229E+01</totfact>
</mgrwt>
</event>
<event>
12    1  0.4247462E-008  0.1968477E+04  0.7818608E-02  0.8621502E-01
          2   -1    0    0  501    0  0.00000000000E+00  0.00000000000E+00  0.27795149085E+04  0.27795149085E+04  0.00000000000E+00 0. -1.
         -2   -1    0    0    0  501 -0.00000000000E+00 -0.00000000000E+00 -0.34852312144E+03  0.34852312144E+03  0.00000000000E+00 0.  1.
         23    2    1    2    0    0  0.54416125205E+02 -0.68172750910E+02 -0.25916954925E+03  0.28913087465E+03  0.93910429498E+02 0.  0.
        254    2    1    2    0    0 -0.54416125205E+02  0.68172750910E+02  0.26901613363E+04  0.28389071552E+04  0.90267224521E+03 0.  0.
         23    2    4    4    0    0 -0.28588014145E+03  0.24716659326E+03  0.23483183666E+04  0.23802550005E+04  0.90531412982E+02 0.  0.
         23    2    4    4    0    0  0.23146401625E+03 -0.17899384235E+03  0.34184296970E+03  0.45865215470E+03  0.88830156268E+02 0.  0.
         11    1    3    3    0    0  0.28741301358E+01 -0.53033326989E+02 -0.49197960215E+02  0.72396365136E+02  0.00000000000E+00 0. -1.
        -11    1    3    3    0    0  0.51541995069E+02 -0.15139423921E+02 -0.20997158904E+03  0.21673450952E+03  0.00000000000E+00 0.  1.
          4    1    5    5  502    0 -0.16084333530E+03  0.83521576612E+02  0.12013538427E+04  0.12149475247E+04  0.00000000000E+00 0. -1.
          3    1    6    6  503    0  0.23177598144E+03 -0.17202787208E+03  0.30029171762E+03  0.41651987950E+03  0.00000000000E+00 0. -1.
         -4    1    5    5    0  502 -0.12503680615E+03  0.16364501665E+03  0.11469645238E+04  0.11653074758E+04  0.00000000000E+00 0.  1.
         -3    1    6    6    0  503 -0.31196519876E+00 -0.69659702633E+01  0.41551252082E+02  0.42132275200E+02  0.00000000000E+00 0.  1.
<mgrwt>
<rscale>  0 0.19684768E+04</rscale>
<asrwt>0</asrwt>
<pdfrwt beam="1">  1        2 0.42761766E+00 0.19684768E+04</pdfrwt>
<pdfrwt beam="2">  1       -2 0.53618944E-01 0.19684768E+04</pdfrwt>
<totfact> 0.72750021E+00</totfact>
</mgrwt>
</event>
<event>
12    1  0.4247462E-008  0.1716003E+04  0.7818608E-02  0.8752289E-01
          2   -1    0    0  501    0  0.00000000000E+00  0.00000000000E+00  0.37261009203E+03  0.37261009203E+03  0.00000000000E+00 0. -1.
         -2   -1    0    0    0  501 -0.00000000000E+00 -0.00000000000E+00 -0.19757028480E+04  0.19757028480E+04  0.00000000000E+00 0.  1.
         23    2    1    2    0    0 -0.11174544911E+03  0.32083151156E+03  0.11452794373E+03  0.37409375545E+03  0.10681565321E+03 0.  0.
        254    2    1    2    0    0  0.11174544911E+03 -0.32083151156E+03 -0.17176206997E+04  0.19742191846E+04  0.91208586027E+03 0.  0.
         23    2    4    4    0    0  0.88096228603E+02 -0.23402035113E+03 -0.15308854311E+02  0.26705900023E+03  0.92518529760E+02 0.  0.
         23    2    4    4    0    0  0.23649220510E+02 -0.86811160426E+02 -0.17023118454E+04  0.17071601843E+04  0.91841237121E+02 0.  0.
         13    1    3    3    0    0 -0.35045723367E+02  0.11251835136E+03  0.94776288605E+02  0.15123203034E+03  0.00000000000E+00 0. -1.
        -13    1    3    3    0    0 -0.76699725747E+02  0.20831316020E+03  0.19751655128E+02  0.22286172512E+03  0.00000000000E+00 0.  1.
          2    1    5    5  502    0  0.69747230477E+02 -0.61262343654E+02 -0.26718481215E+01  0.92870284168E+02  0.00000000000E+00 0. -1.
          1    1    6    6  503    0  0.29921022484E+02 -0.83745372572E+02 -0.81784483584E+03  0.82266562498E+03  0.00000000000E+00 0. -1.
         -2    1    5    5    0  502  0.18348998126E+02 -0.17275800748E+03 -0.12637006190E+02  0.17418871607E+03  0.00000000000E+00 0.  1.
         -1    1    6    6    0  503 -0.62718019735E+01 -0.30657878533E+01 -0.88446700955E+03  0.88449455936E+03  0.00000000000E+00 0.  1.
<mgrwt>
<rscale>  0 0.17160033E+04</rscale>
<asrwt>0</asrwt>
<pdfrwt beam="1">  1        2 0.57324629E-01 0.17160033E+04</pdfrwt>
<pdfrwt beam="2">  1       -2 0.30395429E+00 0.17160033E+04</pdfrwt>
<totfact> 0.24663793E+00</totfact>
</mgrwt>
</event>
<event>
12    1  0.4247462E-008  0.1214434E+04  0.7818608E-02  0.9100315E-01
          2   -1    0    0  501    0  0.00000000000E+00  0.00000000000E+00  0.14028969240E+04  0.14028969240E+04  0.00000000000E+00 0. -1.
         -2   -1    0    0    0  501 -0.00000000000E+00 -0.00000000000E+00 -0.26282243653E+03  0.26282243653E+03  0.00000000000E+00 0.  1.
         23    2    1    2    0    0  0.15162673485E+03 -0.19362950514E+03  0.20032776980E+03  0.33006013290E+03  0.91243761399E+02 0.  0.
        254    2    1    2    0    0 -0.15162673485E+03  0.19362950514E+03  0.93974671762E+03  0.13356592276E+04  0.91672167366E+03 0.  0.
         23    2    4    4    0    0  0.15185445937E+03 -0.30315409289E+03  0.43934472897E+03  0.56245740413E+03  0.91500599592E+02 0.  0.
         23    2    4    4    0    0 -0.30348119422E+03  0.49678359803E+03  0.50040198866E+03  0.77320182345E+03  0.92434468787E+02 0.  0.
         11    1    3    3    0    0  0.15550273613E+03 -0.17905686007E+03  0.15759056122E+03  0.28474066282E+03  0.00000000000E+00 0.  1.
        -11    1    3    3    0    0 -0.38760012795E+01 -0.14572645071E+02  0.42737208583E+02  0.45319470073E+02  0.00000000000E+00 0. -1.
          4    1    5    5  502    0 -0.44569365593E+01 -0.16032750320E+01  0.30799079571E+02  0.31161162955E+02  0.00000000000E+00 0. -1.
          3    1    6    6  503    0 -0.23289534392E+02  0.83818469542E+01  0.34002492506E+02  0.42057428204E+02  0.00000000000E+00 0. -1.
         -4    1    5    5    0  502  0.15631139593E+03 -0.30155081786E+03  0.40854564940E+03  0.53129624118E+03  0.00000000000E+00 0.  1.
         -3    1    6    6    0  503 -0.28019165983E+03  0.48840175108E+03  0.46639949615E+03  0.73114439525E+03  0.00000000000E+00 0.  1.
<mgrwt>
<rscale>  0 0.12144345E+04</rscale>
<asrwt>0</asrwt>
<pdfrwt beam="1">  1        2 0.21583029E+00 0.12144345E+04</pdfrwt>
<pdfrwt beam="2">  1       -2 0.40434222E-01 0.12144345E+04</pdfrwt>
<totfact> 0.82238528E+01</totfact>
</mgrwt>
</event>
<event>
12    1  0.4247462E-008  0.2050199E+04  0.7818608E-02  0.8583504E-01
          1   -1    0    0  501    0  0.00000000000E+00  0.00000000000E+00  0.48078529009E+03  0.48078529009E+03  0.00000000000E+00 0. -1.
         -1   -1    0    0    0  501 -0.00000000000E+00 -0.00000000000E+00 -0.21856503307E+04  0.21856503307E+04  0.00000000000E+00 0.  1.
         23    2    1    2    0    0 -0.28126860090E+02 -0.54419550651E+02 -0.17369893897E+04  0.17405029715E+04  0.92010032342E+02 0.  0.
        254    2    1    2    0    0  0.28126860090E+02  0.54419550651E+02  0.32124349080E+02  0.92593264931E+03  0.92334537932E+03 0.  0.
         23    2    4    4    0    0 -0.36406145683E+03 -0.12348717791E+03 -0.18132073389E+03  0.43486744473E+03  0.91883940327E+02 0.  0.
         23    2    4    4    0    0  0.39218831692E+03  0.17790672856E+03  0.21344508297E+03  0.49106520458E+03  0.10061685602E+03 0.  0.
         13    1    3    3    0    0 -0.35088318284E+02 -0.98347902975E+01 -0.23262032082E+03  0.23545727179E+03  0.00000000000E+00 0. -1.
        -13    1    3    3    0    0  0.69614581940E+01 -0.44584760354E+02 -0.15043690689E+04  0.15050456997E+04  0.00000000000E+00 0.  1.
          4    1    6    6  502    0  0.23251155300E+03  0.15790490703E+03  0.12751485527E+03  0.30863509240E+03  0.00000000000E+00 0.  1.
          4    1    5    5  503    0 -0.26807522455E+03 -0.47616282355E+02 -0.11354401287E+03  0.29499810037E+03  0.00000000000E+00 0. -1.
         -4    1    5    5    0  503 -0.95986232279E+02 -0.75870895553E+02 -0.67776721022E+02  0.13986934436E+03  0.00000000000E+00 0.  1.
         -4    1    6    6    0  502  0.15967676392E+03  0.20001821524E+02  0.85930227702E+02  0.18243011219E+03  0.00000000000E+00 0. -1.
<mgrwt>
<rscale>  0 0.20501986E+04</rscale>
<asrwt>0</asrwt>
<pdfrwt beam="1">  1        1 0.73966969E-01 0.20501986E+04</pdfrwt>
<pdfrwt beam="2">  1       -1 0.33625389E+00 0.20501986E+04</pdfrwt>
<totfact> 0.82852354E-01</totfact>
</mgrwt>
</event>
<event>
12    1  0.4247462E-008  0.1179969E+04  0.7818608E-02  0.9130572E-01
         -1   -1    0    0    0  501 -0.00000000000E+00  0.00000000000E+00  0.36813542601E+03  0.36813542601E+03  0.00000000000E+00 0.  1.
          1   -1    0    0  501    0  0.00000000000E+00 -0.00000000000E+00 -0.94552644823E+03  0.94552644823E+03  0.00000000000E+00 0. -1.
         23    2    1    2    0    0 -0.38533521029E+02  0.19537918355E+03  0.49782104476E+02  0.22420302676E+03  0.90171401643E+02 0.  0.
        254    2    1    2    0    0  0.38533521029E+02 -0.19537918355E+03 -0.62717312669E+03  0.10894588475E+04  0.86828370474E+03 0.  0.
         23    2    4    4    0    0  0.31609398179E+03  0.20753838603E+03 -0.22505701748E+03  0.44928395458E+03  0.90652213040E+02 0.  0.
         23    2    4    4    0    0 -0.27756046076E+03 -0.40291756958E+03 -0.40211610921E+03  0.64017489290E+03  0.93510165040E+02 0.  0.
         11    1    3    3    0    0 -0.33998181935E+02  0.80759631836E+02 -0.20077933021E+02  0.89895038259E+02  0.00000000000E+00 0. -1.
        -11    1    3    3    0    0 -0.45353390943E+01  0.11461955171E+03  0.69860037497E+02  0.13430798850E+03  0.00000000000E+00 0.  1.
          2    1    5    5  502    0  0.18966892445E+03  0.17380072232E+03 -0.13589061264E+03  0.29094200554E+03  0.00000000000E+00 0. -1.
          3    1    6    6  503    0 -0.27968273807E+03 -0.39840363846E+03 -0.40599115992E+03  0.63385859231E+03  0.00000000000E+00 0. -1.
         -2    1    5    5    0  502  0.12642505734E+03  0.33737663707E+02 -0.89166404843E+02  0.15834194905E+03  0.00000000000E+00 0.  1.
         -3    1    6    6    0  503  0.21222773113E+01 -0.45139311146E+01  0.38750507131E+01  0.63163005884E+01  0.00000000000E+00 0.  1.
<mgrwt>
<rscale>  0 0.11799691E+04</rscale>
<asrwt>0</asrwt>
<pdfrwt beam="1">  1        1 0.14546560E+00 0.11799691E+04</pdfrwt>
<pdfrwt beam="2">  1       -1 0.56636221E-01 0.11799691E+04</pdfrwt>
<totfact> 0.52262679E+01</totfact>
</mgrwt>
</event>
<event>
12    1  0.4247462E-008  0.1698557E+04  0.7818608E-02  0.8762188E-01
         -2   -1    0    0    0  501 -0.00000000000E+00  0.00000000000E+00  0.28457768283E+03  0.28457768283E+03  0.00000000000E+00 0. -1.
          2   -1    0    0  501    0  0.00000000000E+00 -0.00000000000E+00 -0.25345410865E+04  0.25345410865E+04  0.00000000000E+00 0.  1.
         23    2    1    2    0    0  0.32317646365E+03  0.69400884396E+02  0.35294931122E+02  0.34260796994E+03  0.82915496070E+02 0.  0.
        254    2    1    2    0    0 -0.32317646365E+03 -0.69400884396E+02 -0.22852583348E+04  0.24765107993E+04  0.89523213376E+03 0.  0.
         23    2    4    4    0    0  0.28231302660E+03 -0.14415518486E+03 -0.65390854024E+03  0.73242234780E+03  0.91459030395E+02 0.  0.
         23    2    4    4    0    0 -0.60548949025E+03  0.74754300464E+02 -0.16313497945E+04  0.17440884515E+04  0.91305238266E+02 0.  0.
         13    1    3    3    0    0  0.18943782056E+02 -0.10471909431E+02 -0.11649543879E+02  0.24581286344E+02  0.00000000000E+00 0.  1.
        -13    1    3    3    0    0  0.30423268159E+03  0.79872793827E+02  0.46944475001E+02  0.31802668359E+03  0.00000000000E+00 0. -1.
          4    1    5    5  502    0  0.46624964472E+02 -0.40187722874E+02 -0.64386542697E+02  0.89076187965E+02  0.00000000000E+00 0. -1.
          3    1    6    6  503    0 -0.19584427614E+03 -0.13264548386E+01 -0.62267621785E+03  0.65274988491E+03  0.00000000000E+00 0. -1.
         -4    1    5    5    0  502  0.23568806213E+03 -0.10396746199E+03 -0.58952199755E+03  0.64334615984E+03  0.00000000000E+00 0.  1.
         -3    1    6    6    0  503 -0.40964521411E+03  0.76080755303E+02 -0.10086735767E+04  0.10913385666E+04  0.00000000000E+00 0.  1.
<mgrwt>
<rscale>  0 0.16985568E+04</rscale>
<asrwt>0</asrwt>
<pdfrwt beam="1">  1        2 0.38992940E+00 0.16985568E+04</pdfrwt>
<pdfrwt beam="2">  1       -2 0.43781182E-01 0.16985568E+04</pdfrwt>
<totfact> 0.15677206E+01</totfact>
</mgrwt>
</event>
<event>
12    1  0.4247462E-008  0.1846874E+04  0.7818608E-02  0.8681762E-01
          2   -1    0    0  501    0  0.00000000000E+00  0.00000000000E+00  0.21060048636E+04  0.21060048636E+04  0.00000000000E+00 0. -1.
         -2   -1    0    0    0  501 -0.00000000000E+00 -0.00000000000E+00 -0.40490702080E+03  0.40490702080E+03  0.00000000000E+00 0.  1.
         23    2    1    2    0    0  0.66988429223E+03 -0.19119736651E+03  0.72757367733E+03  0.10112681420E+04  0.89433780869E+02 0.  0.
        254    2    1    2    0    0 -0.66988429223E+03  0.19119736651E+03  0.97352416547E+03  0.14996437424E+04  0.90326112248E+03 0.  0.
         23    2    4    4    0    0 -0.42151173092E+03  0.83753668912E+02  0.11017958516E+04  0.11865296971E+04  0.95978160131E+02 0.  0.
         23    2    4    4    0    0 -0.24837256131E+03  0.10744369759E+03 -0.12827168611E+03  0.31311404527E+03  0.91398591482E+02 0.  0.
         13    1    3    3    0    0  0.48675350145E+03 -0.17921301953E+03  0.54603242834E+03  0.75312528197E+03  0.00000000000E+00 0. -1.
        -13    1    3    3    0    0  0.18313079078E+03 -0.11984346979E+02  0.18154124899E+03  0.25814286004E+03  0.00000000000E+00 0.  1.
          2    1    5    5  502    0 -0.22492403746E+03  0.89933024250E+02  0.56039609230E+03  0.61051007505E+03  0.00000000000E+00 0. -1.
          3    1    6    6  503    0 -0.83971112493E+02 -0.29782423569E+01 -0.61470122992E+02  0.10410856680E+03  0.00000000000E+00 0. -1.
         -2    1    5    5    0  502 -0.19658769346E+03 -0.61793553377E+01  0.54139975928E+03  0.57601962206E+03  0.00000000000E+00 0.  1.
         -3    1    6    6    0  503 -0.16440144882E+03  0.11042193995E+03 -0.66801563115E+02  0.20900547847E+03  0.00000000000E+00 0.  1.
<mgrwt>
<rscale>  0 0.18468743E+04</rscale>
<asrwt>0</asrwt>
<pdfrwt beam="1">  1        2 0.32400074E+00 0.18468743E+04</pdfrwt>
<pdfrwt beam="2">  1       -2 0.62293389E-01 0.18468743E+04</pdfrwt>
<totfact> 0.13115493E+01</totfact>
</mgrwt>
</event>
<event>
12    1  0.4247462E-008  0.1920786E+04  0.7818608E-02  0.8644578E-01
          1   -1    0    0  501    0  0.00000000000E+00  0.00000000000E+00  0.75292279279E+03  0.75292279279E+03  0.00000000000E+00 0. -1.
         -1   -1    0    0    0  501 -0.00000000000E+00 -0.00000000000E+00 -0.12250325111E+04  0.12250325111E+04  0.00000000000E+00 0.  1.
         23    2    1    2    0    0  0.46447473961E+03 -0.55877654691E+03  0.40993773843E-01  0.73233967665E+03  0.91396866451E+02 0.  0.
        254    2    1    2    0    0 -0.46447473961E+03  0.55877654691E+03 -0.47215071211E+03  0.12456156273E+04  0.89479829170E+03 0.  0.
         23    2    4    4    0    0 -0.29674926227E+03  0.69473608246E+03 -0.60899786458E+03  0.97399983228E+03  0.84136349395E+02 0.  0.
         23    2    4    4    0    0 -0.16772547734E+03 -0.13595953554E+03  0.13684715248E+03  0.27161579498E+03  0.91821380353E+02 0.  0.
         13    1    3    3    0    0  0.42132045986E+03 -0.47980908025E+03  0.24764058147E+02  0.63901560385E+03  0.00000000000E+00 0.  1.
        -13    1    3    3    0    0  0.43154279752E+02 -0.78967466660E+02 -0.24723064374E+02  0.93324072798E+02  0.00000000000E+00 0. -1.
          2    1    5    5  502    0 -0.81300437110E+02  0.10868232912E+03 -0.10787104018E+03  0.17337177119E+03  0.00000000000E+00 0. -1.
          1    1    6    6  503    0 -0.12084603756E+03 -0.44887499355E+02  0.53553697551E+02  0.13959459486E+03  0.00000000000E+00 0.  1.
         -2    1    5    5    0  502 -0.21544882516E+03  0.58605375334E+03 -0.50112682441E+03  0.80062806109E+03  0.00000000000E+00 0.  1.
         -1    1    6    6    0  503 -0.46879439782E+02 -0.91072036187E+02  0.83293454925E+02  0.13202120013E+03  0.00000000000E+00 0. -1.
<mgrwt>
<rscale>  0 0.19207862E+04</rscale>
<asrwt>0</asrwt>
<pdfrwt beam="1">  1        1 0.11583428E+00 0.19207862E+04</pdfrwt>
<pdfrwt beam="2">  1       -1 0.18846654E+00 0.19207862E+04</pdfrwt>
<totfact> 0.41181355E+00</totfact>
</mgrwt>
</event>
<event>
12    1  0.4247462E-008  0.1339697E+04  0.7818608E-02  0.8998664E-01
         -2   -1    0    0    0  501 -0.00000000000E+00  0.00000000000E+00  0.81363109068E+03  0.81363109068E+03  0.00000000000E+00 0.  1.
          2   -1    0    0  501    0  0.00000000000E+00 -0.00000000000E+00 -0.55147479449E+03  0.55147479449E+03  0.00000000000E+00 0. -1.
         23    2    1    2    0    0 -0.15401904871E+03 -0.19233715807E+03 -0.17804926298E+03  0.31727389471E+03  0.90806026625E+02 0.  0.
        254    2    1    2    0    0  0.15401904871E+03  0.19233715807E+03  0.44020555917E+03  0.10478319905E+04  0.91839833197E+03 0.  0.
         23    2    4    4    0    0  0.25688383652E+03 -0.25334056350E+03 -0.45308418044E+02  0.37436782203E+03  0.89037446318E+02 0.  0.
         23    2    4    4    0    0 -0.10286478781E+03  0.44567772157E+03  0.48551397722E+03  0.67346416843E+03  0.92845936962E+02 0.  0.
         13    1    3    3    0    0 -0.87008519844E+02 -0.12284107859E+03 -0.15884281230E+03  0.21884115731E+03  0.00000000000E+00 0. -1.
        -13    1    3    3    0    0 -0.67010528869E+02 -0.69496079481E+02 -0.19206450681E+02  0.98432737392E+02  0.00000000000E+00 0.  1.
          4    1    5    5  502    0  0.10350567095E+03 -0.72775566087E+02 -0.53349477586E+02  0.13731669125E+03  0.00000000000E+00 0. -1.
          1    1    6    6  503    0 -0.18345304907E+02  0.73133876938E+01  0.27612267041E+02  0.33948094834E+02  0.00000000000E+00 0. -1.
         -4    1    5    5    0  502  0.15337816557E+03 -0.18056499741E+03  0.80410595417E+01  0.23705113078E+03  0.00000000000E+00 0.  1.
         -1    1    6    6    0  503 -0.84519482898E+02  0.43836433388E+03  0.45790171017E+03  0.63951607360E+03  0.00000000000E+00 0.  1.
<mgrwt>
<rscale>  0 0.13396970E+04</rscale>
<asrwt>0</asrwt>
<pdfrwt beam="1">  1        2 0.84842276E-01 0.13396970E+04</pdfrwt>
<pdfrwt beam="2">  1       -2 0.12517401E+00 0.13396970E+04</pdfrwt>
<totfact> 0.25620865E+01</totfact>
</mgrwt>
</event>
<event>
12    1  0.4247462E-008  0.2588970E+04  0.7818608E-02  0.8371958E-01
          1   -1    0    0  501    0  0.00000000000E+00  0.00000000000E+00  0.52018230130E+03  0.52018230130E+03  0.00000000000E+00 0. -1.
         -1   -1    0    0    0  501 -0.00000000000E+00 -0.00000000000E+00 -0.32213536161E+04  0.32213536161E+04  0.00000000000E+00 0.  1.
         23    2    1    2    0    0 -0.10436962438E+04 -0.41465271876E+03 -0.85879650273E+03  0.14164130036E+04  0.86346030669E+02 0.  0.
        254    2    1    2    0    0  0.10436962438E+04  0.41465271876E+03 -0.18423748121E+04  0.23251229139E+04  0.86637918363E+03 0.  0.
         23    2    4    4    0    0  0.74862771305E+03  0.67662931049E+03 -0.13209931765E+04  0.16648624229E+04  0.92050194232E+02 0.  0.
         23    2    4    4    0    0  0.29506853076E+03 -0.26197659173E+03 -0.52138163562E+03  0.66026049099E+03  0.91694784685E+02 0.  0.
         13    1    3    3    0    0 -0.99730200190E+03 -0.41438401598E+03 -0.82278671771E+03  0.13576830921E+04  0.00000000000E+00 0. -1.
        -13    1    3    3    0    0 -0.46394241911E+02 -0.26870277521E+00 -0.36009785019E+02  0.58729911466E+02  0.00000000000E+00 0.  1.
          2    1    5    5  502    0  0.25918159998E+03  0.18681402907E+03 -0.45765956617E+03  0.55814591437E+03  0.00000000000E+00 0. -1.
          4    1    6    6  503    0  0.13405332753E+03 -0.16376587787E+03 -0.22443313811E+03  0.30847980624E+03  0.00000000000E+00 0. -1.
         -2    1    5    5    0  502  0.48944611306E+03  0.48981528142E+03 -0.86333361029E+03  0.11067165085E+04  0.00000000000E+00 0.  1.
         -4    1    6    6    0  503  0.16101520323E+03 -0.98210713864E+02 -0.29694849751E+03  0.35178068475E+03  0.00000000000E+00 0.  1.
<mgrwt>
<rscale>  0 0.25889698E+04</rscale>
<asrwt>0</asrwt>
<pdfrwt beam="1">  1        1 0.80028047E-01 0.25889698E+04</pdfrwt>
<pdfrwt beam="2">  1       -1 0.49559286E+00 0.25889698E+04</pdfrwt>
<totfact> 0.58661572E-02</totfact>
</mgrwt>
</event>
<event>
12    1  0.4247462E-008  0.2224264E+04  0.7818608E-02  0.8508396E-01
         -1   -1    0    0    0  501 -0.00000000000E+00  0.00000000000E+00  0.92769142856E+03  0.92769142856E+03  0.00000000000E+00 0.  1.
          1   -1    0    0  501    0  0.00000000000E+00 -0.00000000000E+00 -0.13332418527E+04  0.13332418527E+04  0.00000000000E+00 0. -1.
         23    2    1    2    0    0  0.57061377315E+03  0.87826413796E+02  0.56862219181E+03  0.81545237011E+03  0.91202049465E+02 0.  0.
        254    2    1    2    0    0 -0.57061377315E+03 -0.87826413796E+02 -0.97417261598E+03  0.14454809112E+04  0.89838144561E+03 0.  0.
         23    2    4    4    0    0  0.80896890534E+02 -0.24258507149E+03 -0.63236415054E+03  0.68799255758E+03  0.89763670808E+02 0.  0.
         23    2    4    4    0    0 -0.65151066369E+03  0.15475865769E+03 -0.34180846545E+03  0.75748835361E+03  0.92407747358E+02 0.  0.
         11    1    3    3    0    0  0.40801067889E+03  0.46088534936E+02  0.34810320223E+03  0.53830540266E+03  0.00000000000E+00 0.  1.
        -11    1    3    3    0    0  0.16260309427E+03  0.41737878861E+02  0.22051898958E+03  0.27714696745E+03  0.00000000000E+00 0. -1.
          2    1    5    5  502    0  0.41639899985E+02 -0.20361475932E+03 -0.42091199665E+03  0.46942492521E+03  0.00000000000E+00 0. -1.
          3    1    6    6  503    0 -0.57726199243E+03  0.16325200768E+03 -0.28835105582E+03  0.66560420470E+03  0.00000000000E+00 0. -1.
         -2    1    5    5    0  502  0.39256990549E+02 -0.38970312166E+02 -0.21145215388E+03  0.21856763237E+03  0.00000000000E+00 0.  1.
         -3    1    6    6    0  503 -0.74248671254E+02 -0.84933499854E+01 -0.53457409626E+02  0.91884148910E+02  0.00000000000E+00 0.  1.
<mgrwt>
<rscale>  0 0.22242635E+04</rscale>
<asrwt>0</asrwt>
<pdfrwt beam="1">  1        1 0.20511413E+00 0.22242635E+04</pdfrwt>
<pdfrwt beam="2">  1       -1 0.14272176E+00 0.22242635E+04</pdfrwt>
<totfact> 0.31051545E+00</totfact>
</mgrwt>
</event>
<event>
12    1  0.4247462E-008  0.1289008E+04  0.7818608E-02  0.9038328E-01
          2   -1    0    0  501    0  0.00000000000E+00  0.00000000000E+00  0.17734857241E+04  0.17734857241E+04  0.00000000000E+00 0. -1.
         -2   -1    0    0    0  501 -0.00000000000E+00 -0.00000000000E+00 -0.23421964569E+03  0.23421964569E+03  0.00000000000E+00 0.  1.
         23    2    1    2    0    0 -0.40391177042E+02 -0.14328192474E+03  0.83150186343E+03  0.84958767926E+03  0.90789419618E+02 0.  0.
        254    2    1    2    0    0  0.40391177042E+02  0.14328192474E+03  0.70776421501E+03  0.11581176906E+04  0.90451381638E+03 0.  0.
         23    2    4    4    0    0 -0.32399546813E+03  0.24128776995E+03  0.83228164554E+02  0.42276024545E+03  0.92770935460E+02 0.  0.
         23    2    4    4    0    0  0.36438664517E+03 -0.98005845212E+02  0.62453605046E+03  0.73535744512E+03  0.91227851524E+02 0.  0.
         13    1    3    3    0    0 -0.28897209037E+02 -0.14868589048E+03  0.64059083145E+03  0.65825462858E+03  0.00000000000E+00 0. -1.
        -13    1    3    3    0    0 -0.11493968005E+02  0.54039657421E+01  0.19091103199E+03  0.19133305067E+03  0.00000000000E+00 0.  1.
          3    1    5    5  502    0 -0.27585294413E+03  0.21065994152E+03  0.36493562450E+02  0.34900463871E+03  0.00000000000E+00 0. -1.
          3    1    6    6  503    0  0.26432125017E+03 -0.58735175041E+02  0.36522089398E+03  0.45464474645E+03  0.00000000000E+00 0. -1.
         -3    1    5    5    0  502 -0.48142524000E+02  0.30627828433E+02  0.46734602104E+02  0.73755606739E+02  0.00000000000E+00 0.  1.
         -3    1    6    6    0  503  0.10006539500E+03 -0.39270670171E+02  0.25931515647E+03  0.28071269866E+03  0.00000000000E+00 0.  1.
<mgrwt>
<rscale>  0 0.12890077E+04</rscale>
<asrwt>0</asrwt>
<pdfrwt beam="1">  1        2 0.27284395E+00 0.12890077E+04</pdfrwt>
<pdfrwt beam="2">  1       -2 0.36033793E-01 0.12890077E+04</pdfrwt>
<totfact> 0.63432192E+01</totfact>
</mgrwt>
</event>
<event>
12    1  0.4247462E-008  0.1192288E+04  0.7818608E-02  0.9119634E-01
         -1   -1    0    0    0  501 -0.00000000000E+00  0.00000000000E+00  0.30328824163E+03  0.30328824163E+03  0.00000000000E+00 0.  1.
          1   -1    0    0  501    0  0.00000000000E+00 -0.00000000000E+00 -0.11717822023E+04  0.11717822023E+04  0.00000000000E+00 0. -1.
         23    2    1    2    0    0 -0.78408183464E+02  0.17531718017E+03 -0.21522295555E+02  0.22056384438E+03  0.10630730617E+03 0.  0.
        254    2    1    2    0    0  0.78408183464E+02 -0.17531718017E+03 -0.84697166509E+03  0.12545065995E+04  0.90528550738E+03 0.  0.
         23    2    4    4    0    0 -0.99161955396E+01 -0.96106181892E+02  0.17611862480E+03  0.21975516536E+03  0.89105743767E+02 0.  0.
         23    2    4    4    0    0  0.88324379004E+02 -0.79210998275E+02 -0.10230902899E+04  0.10347514342E+04  0.99605276198E+02 0.  0.
         11    1    3    3    0    0 -0.19436432711E+02  0.66655266296E+02 -0.59278575010E+02  0.91294298271E+02  0.00000000000E+00 0. -1.
        -11    1    3    3    0    0 -0.58971750753E+02  0.10866191387E+03  0.37756279456E+02  0.12926954611E+03  0.00000000000E+00 0.  1.
          4    1    5    5  502    0  0.30563773999E+02 -0.80533917391E+02  0.98589399414E+02  0.13091877561E+03  0.00000000000E+00 0. -1.
          3    1    6    6  503    0  0.87646655370E+02 -0.10064748419E+03 -0.88253067631E+03  0.89256498190E+03  0.00000000000E+00 0. -1.
         -4    1    5    5    0  502 -0.40479969539E+02 -0.15572264501E+02  0.77529225383E+02  0.88836389751E+02  0.00000000000E+00 0.  1.
         -3    1    6    6    0  503  0.67772363410E+00  0.21436485915E+02 -0.14055961357E+03  0.14218645226E+03  0.00000000000E+00 0.  1.
<mgrwt>
<rscale>  0 0.11922882E+04</rscale>
<asrwt>0</asrwt>
<pdfrwt beam="1">  1        1 0.18027418E+00 0.11922882E+04</pdfrwt>
<pdfrwt beam="2">  1       -1 0.46659731E-01 0.11922882E+04</pdfrwt>
<totfact> 0.50766720E+01</totfact>
</mgrwt>
</event>
<event>
12    1  0.4247462E-008  0.1767126E+04  0.7818608E-02  0.8723980E-01
          2   -1    0    0  501    0  0.00000000000E+00  0.00000000000E+00  0.24358680387E+04  0.24358680387E+04  0.00000000000E+00 0.  1.
         -2   -1    0    0    0  501 -0.00000000000E+00 -0.00000000000E+00 -0.32049492500E+03  0.32049492500E+03  0.00000000000E+00 0. -1.
         23    2    1    2    0    0 -0.38959205112E+03  0.15219332212E+03  0.15626261713E+04  0.16201441311E+04  0.90120367790E+02 0.  0.
        254    2    1    2    0    0  0.38959205112E+03 -0.15219332212E+03  0.55274694242E+03  0.11362188326E+04  0.90028844249E+03 0.  0.
         23    2    4    4    0    0  0.24291205945E+03  0.36471332475E+03  0.26015934890E+03  0.51770039663E+03  0.91152268106E+02 0.  0.
         23    2    4    4    0    0  0.14667999167E+03 -0.51690664687E+03  0.29258759352E+03  0.61851843600E+03  0.90829809212E+02 0.  0.
         13    1    3    3    0    0 -0.25976480884E+03  0.14570644149E+03  0.10972406247E+04  0.11369455183E+04  0.00000000000E+00 0.  1.
        -13    1    3    3    0    0 -0.12982724229E+03  0.64868806342E+01  0.46538554655E+03  0.48319861279E+03  0.00000000000E+00 0. -1.
          1    1    5    5  502    0  0.37640553481E+02  0.16661080784E+02  0.40648381698E+02  0.57850616366E+02  0.00000000000E+00 0. -1.
          3    1    6    6  503    0  0.16460214643E+01  0.27538829990E+01  0.78305113332E+01  0.84622790058E+01  0.00000000000E+00 0. -1.
         -1    1    5    5    0  502  0.20527150597E+03  0.34805224397E+03  0.21951096720E+03  0.45984978027E+03  0.00000000000E+00 0.  1.
         -3    1    6    6    0  503  0.14503397021E+03 -0.51966052987E+03  0.28475708219E+03  0.61005615699E+03  0.00000000000E+00 0.  1.
<mgrwt>
<rscale>  0 0.17671257E+04</rscale>
<asrwt>0</asrwt>
<pdfrwt beam="1">  1        2 0.37474892E+00 0.17671257E+04</pdfrwt>
<pdfrwt beam="2">  1       -2 0.49306913E-01 0.17671257E+04</pdfrwt>
<totfact> 0.13987288E+01</totfact>
</mgrwt>
</event>
<event>
12    1  0.4247462E-008  0.1721881E+04  0.7818608E-02  0.8748982E-01
         -1   -1    0    0    0  501 -0.00000000000E+00  0.00000000000E+00  0.21739054296E+03  0.21739054296E+03  0.00000000000E+00 0.  1.
          1   -1    0    0  501    0  0.00000000000E+00 -0.00000000000E+00 -0.34096175295E+04  0.34096175295E+04  0.00000000000E+00 0. -1.
         23    2    1    2    0    0 -0.58506986314E+03 -0.17852083023E+03 -0.14096105020E+04  0.15396449746E+04  0.96583896358E+02 0.  0.
        254    2    1    2    0    0  0.58506986314E+03  0.17852083023E+03 -0.17826164845E+04  0.20873630978E+04  0.89732198211E+03 0.  0.
         23    2    4    4    0    0  0.70288531214E+03  0.20701479972E+03 -0.17888860348E+04  0.19355468663E+04  0.96568819762E+02 0.  0.
         23    2    4    4    0    0 -0.11781544900E+03 -0.28493969495E+02  0.62695502774E+01  0.15181623146E+03  0.91194706836E+02 0.  0.
         11    1    3    3    0    0 -0.45490587651E+03 -0.16063084552E+03 -0.11848184213E+04  0.12792717915E+04  0.00000000000E+00 0. -1.
        -11    1    3    3    0    0 -0.13016398663E+03 -0.17889984702E+02 -0.22479208064E+03  0.26037318312E+03  0.00000000000E+00 0.  1.
          1    1    5    5  502    0  0.57189772572E+03  0.20518510615E+03 -0.14441851636E+04  0.15667924953E+04  0.00000000000E+00 0. -1.
          3    1    6    6  503    0 -0.97470313146E+02 -0.50319799814E+02  0.29967338952E+02  0.11371273281E+03  0.00000000000E+00 0. -1.
         -1    1    5    5    0  502  0.13098758641E+03  0.18296935759E+01 -0.34470087116E+03  0.36875437102E+03  0.00000000000E+00 0.  1.
         -3    1    6    6    0  503 -0.20345135852E+02  0.21825830319E+02 -0.23697788675E+02  0.38103498659E+02  0.00000000000E+00 0.  1.
<mgrwt>
<rscale>  0 0.17218811E+04</rscale>
<asrwt>0</asrwt>
<pdfrwt beam="1">  1        1 0.52455647E+00 0.17218811E+04</pdfrwt>
<pdfrwt beam="2">  1       -1 0.33444704E-01 0.17218811E+04</pdfrwt>
<totfact> 0.23676279E+00</totfact>
</mgrwt>
</event>
<event>
12    1  0.4247462E-008  0.1545958E+04  0.7818608E-02  0.8854454E-01
         -2   -1    0    0    0  501 -0.00000000000E+00  0.00000000000E+00  0.19764217240E+03  0.19764217240E+03  0.00000000000E+00 0.  1.
          2   -1    0    0  501    0  0.00000000000E+00 -0.00000000000E+00 -0.30231237606E+04  0.30231237606E+04  0.00000000000E+00 0. -1.
         23    2    1    2    0    0  0.40813786776E+03 -0.60790575382E+02 -0.15552452315E+04  0.16116771441E+04  0.91888374248E+02 0.  0.
        254    2    1    2    0    0 -0.40813786776E+03  0.60790575382E+02 -0.12702363567E+04  0.16090887890E+04  0.89743763893E+03 0.  0.
         23    2    4    4    0    0 -0.60749208288E+03 -0.15504654211E+03 -0.10628311455E+04  0.12377579080E+04  0.96687816249E+02 0.  0.
         23    2    4    4    0    0  0.19935421512E+03  0.21583711750E+03 -0.20740521113E+03  0.37133088099E+03  0.92422601128E+02 0.  0.
         11    1    3    3    0    0  0.16419871803E+03 -0.34263754300E+02 -0.80621206071E+03  0.82347623566E+03  0.00000000000E+00 0.  1.
        -11    1    3    3    0    0  0.24393914974E+03 -0.26526821082E+02 -0.74903317081E+03  0.78820090839E+03  0.00000000000E+00 0. -1.
          4    1    5    5  502    0 -0.51099488807E+03 -0.11767162186E+03 -0.94661344335E+03  0.10821457376E+04  0.00000000000E+00 0. -1.
          3    1    6    6  503    0  0.18765617179E+03  0.14762381412E+03 -0.15836491291E+03  0.28650842038E+03  0.00000000000E+00 0. -1.
         -4    1    5    5    0  502 -0.96497194807E+02 -0.37374920258E+02 -0.11621770220E+03  0.15561217039E+03  0.00000000000E+00 0.  1.
         -3    1    6    6    0  503  0.11698043327E+02  0.68213303371E+02 -0.49040298227E+02  0.84822460614E+02  0.00000000000E+00 0.  1.
<mgrwt>
<rscale>  0 0.15459583E+04</rscale>
<asrwt>0</asrwt>
<pdfrwt beam="1">  1        2 0.46509594E+00 0.15459583E+04</pdfrwt>
<pdfrwt beam="2">  1       -2 0.30406490E-01 0.15459583E+04</pdfrwt>
<totfact> 0.16324672E+01</totfact>
</mgrwt>
</event>
<event>
12    1  0.4247462E-008  0.1429123E+04  0.7818608E-02  0.8933003E-01
         -2   -1    0    0    0  501 -0.00000000000E+00  0.00000000000E+00  0.18535079352E+03  0.18535079352E+03  0.00000000000E+00 0.  1.
          2   -1    0    0  501    0  0.00000000000E+00 -0.00000000000E+00 -0.27547665122E+04  0.27547665122E+04  0.00000000000E+00 0. -1.
         23    2    1    2    0    0 -0.26191377489E+03  0.21139228419E+03 -0.13058588770E+04  0.13517967727E+04  0.93816760732E+02 0.  0.
        254    2    1    2    0    0  0.26191377489E+03 -0.21139228419E+03 -0.12635568417E+04  0.15883205331E+04  0.90161006002E+03 0.  0.
         23    2    4    4    0    0  0.20168197783E+03  0.25581771334E+03 -0.13966268135E+03  0.36635602206E+03  0.92697074907E+02 0.  0.
         23    2    4    4    0    0  0.60231797060E+02 -0.46720999753E+03 -0.11238941603E+04  0.12219645110E+04  0.90255921588E+02 0.  0.
         13    1    3    3    0    0 -0.10144106571E+03  0.81226157731E+02 -0.33786820352E+03  0.36199848268E+03  0.00000000000E+00 0.  1.
        -13    1    3    3    0    0 -0.16047270918E+03  0.13016612646E+03 -0.96799067351E+03  0.98979828999E+03  0.00000000000E+00 0. -1.
          2    1    5    5  502    0  0.27328123301E+02  0.10303319612E+03 -0.50831961056E+02  0.11809552951E+03  0.00000000000E+00 0. -1.
          3    1    6    6  503    0  0.72449193458E+02 -0.44974497309E+03 -0.10397898652E+04  0.11352014756E+04  0.00000000000E+00 0. -1.
         -2    1    5    5    0  502  0.17435385453E+03  0.15278451722E+03 -0.88830720298E+02  0.24826049255E+03  0.00000000000E+00 0.  1.
         -3    1    6    6    0  503 -0.12217396398E+02 -0.17465024444E+02 -0.84104295113E+02  0.86763035390E+02  0.00000000000E+00 0.  1.
<mgrwt>
<rscale>  0 0.14291230E+04</rscale>
<asrwt>0</asrwt>
<pdfrwt beam="1">  1        2 0.42381026E+00 0.14291230E+04</pdfrwt>
<pdfrwt beam="2">  1       -2 0.28515505E-01 0.14291230E+04</pdfrwt>
<totfact> 0.27109168E+01</totfact>
</mgrwt>
</event>
<event>
12    1  0.4247462E-008  0.1979465E+04  0.7818608E-02  0.8616282E-01
          2   -1    0    0  501    0  0.00000000000E+00  0.00000000000E+00  0.20253358719E+04  0.20253358719E+04  0.00000000000E+00 0. -1.
         -2   -1    0    0    0  501 -0.00000000000E+00 -0.00000000000E+00 -0.48365832492E+03  0.48365832492E+03  0.00000000000E+00 0.  1.
         23    2    1    2    0    0  0.28037031458E+02  0.23948170069E+03 -0.33283405475E+03  0.41911239579E+03  0.82092217663E+02 0.  0.
        254    2    1    2    0    0 -0.28037031458E+02 -0.23948170069E+03  0.18745116017E+04  0.20898818010E+04  0.89200596252E+03 0.  0.
         23    2    4    4    0    0  0.72107123420E+02 -0.52668084404E+03  0.76973075303E+03  0.94044657345E+03  0.96758341429E+02 0.  0.
         23    2    4    4    0    0 -0.10014415488E+03  0.28719914334E+03  0.11047808487E+04  0.11494352276E+04  0.90268593971E+02 0.  0.
         11    1    3    3    0    0 -0.25060360183E+02  0.61813774236E+02 -0.11592694337E+03  0.13374610475E+03  0.00000000000E+00 0. -1.
        -11    1    3    3    0    0  0.53097391641E+02  0.17766792646E+03 -0.21690711139E+03  0.28536629104E+03  0.00000000000E+00 0.  1.
          2    1    5    5  502    0  0.16827793398E+02 -0.92233382559E+01  0.37515905840E+02  0.42138910643E+02  0.00000000000E+00 0. -1.
          4    1    6    6  503    0 -0.67288595825E+01  0.45091723076E+02  0.77791586750E+02  0.90166911948E+02  0.00000000000E+00 0. -1.
         -2    1    5    5    0  502  0.55279330022E+02 -0.51745750578E+03  0.73221484719E+03  0.89830766281E+03  0.00000000000E+00 0.  1.
         -4    1    6    6    0  503 -0.93415295296E+02  0.24210742027E+03  0.10269892619E+04  0.10592683156E+04  0.00000000000E+00 0.  1.
<mgrwt>
<rscale>  0 0.19794651E+04</rscale>
<asrwt>0</asrwt>
<pdfrwt beam="1">  1        2 0.31159013E+00 0.19794651E+04</pdfrwt>
<pdfrwt beam="2">  1       -2 0.74408974E-01 0.19794651E+04</pdfrwt>
<totfact> 0.97802781E+00</totfact>
</mgrwt>
</event>
<event>
12    1  0.4247462E-008  0.2627116E+04  0.7818608E-02  0.8359049E-01
         -2   -1    0    0    0  501 -0.00000000000E+00  0.00000000000E+00  0.97589538667E+03  0.97589538667E+03  0.00000000000E+00 0.  1.
          2   -1    0    0  501    0  0.00000000000E+00 -0.00000000000E+00 -0.17680524773E+04  0.17680524773E+04  0.00000000000E+00 0. -1.
         23    2    1    2    0    0 -0.10054298032E+03 -0.11395810085E+04 -0.13912924887E+03  0.11559489546E+04  0.90040391665E+02 0.  0.
        254    2    1    2    0    0  0.10054298032E+03  0.11395810085E+04 -0.65302784172E+03  0.15879989093E+04  0.88687169769E+03 0.  0.
         23    2    4    4    0    0 -0.28867019960E+03  0.77127458757E+03 -0.63545924327E+03  0.10442665892E+04  0.92137320601E+02 0.  0.
         23    2    4    4    0    0  0.38921317992E+03  0.36830642088E+03 -0.17568598458E+02  0.54373232013E+03  0.90551980731E+02 0.  0.
         11    1    3    3    0    0 -0.62619155161E+02 -0.47457516053E+03 -0.18630864119E+02  0.47905098964E+03  0.00000000000E+00 0. -1.
        -11    1    3    3    0    0 -0.37923825160E+02 -0.66500584793E+03 -0.12049838475E+03  0.67689796500E+03  0.00000000000E+00 0.  1.
          3    1    5    5  502    0 -0.28572919291E+03  0.69139212953E+03 -0.56178173145E+03  0.93555489537E+03  0.00000000000E+00 0. -1.
          3    1    6    6  503    0  0.38505250977E+03  0.34234955908E+03 -0.26635282975E+02  0.51592450434E+03  0.00000000000E+00 0. -1.
         -3    1    5    5    0  502 -0.29410066869E+01  0.79882458045E+02 -0.73677511813E+02  0.10871169381E+03  0.00000000000E+00 0.  1.
         -3    1    6    6    0  503  0.41606701520E+01  0.25956861801E+02  0.90666845172E+01  0.27807815787E+02  0.00000000000E+00 0.  1.
<mgrwt>
<rscale>  0 0.26271157E+04</rscale>
<asrwt>0</asrwt>
<pdfrwt beam="1">  1        2 0.27200807E+00 0.26271157E+04</pdfrwt>
<pdfrwt beam="2">  1       -2 0.15013775E+00 0.26271157E+04</pdfrwt>
<totfact> 0.23714910E+00</totfact>
</mgrwt>
</event>
<event>
12    1  0.4247462E-008  0.1485008E+04  0.7818608E-02  0.8894484E-01
         -2   -1    0    0    0  501 -0.00000000000E+00  0.00000000000E+00  0.29198236207E+03  0.29198236207E+03  0.00000000000E+00 0. -1.
          2   -1    0    0  501    0  0.00000000000E+00 -0.00000000000E+00 -0.18881683605E+04  0.18881683605E+04  0.00000000000E+00 0.  1.
         23    2    1    2    0    0  0.10027595012E+03 -0.44720775986E+03 -0.41164292461E+03  0.62281404163E+03  0.91637254572E+02 0.  0.
        254    2    1    2    0    0 -0.10027595012E+03  0.44720775986E+03 -0.11845430738E+04  0.15573366809E+04  0.90116879516E+03 0.  0.
         23    2    4    4    0    0 -0.22840902288E+03  0.53777456727E+03 -0.31758717880E+03  0.67161348589E+03  0.93972822407E+02 0.  0.
         23    2    4    4    0    0  0.12813307276E+03 -0.90566807409E+02 -0.86695589503E+03  0.88572319504E+03  0.90953962946E+02 0.  0.
         13    1    3    3    0    0  0.60736785673E+02 -0.17171941496E+03 -0.21637648910E+03  0.28283440322E+03  0.00000000000E+00 0.  1.
        -13    1    3    3    0    0  0.39539164447E+02 -0.27548834491E+03 -0.19526643550E+03  0.33997963842E+03  0.00000000000E+00 0. -1.
          4    1    5    5  502    0 -0.32453511061E+02  0.19905676893E+02 -0.21108143321E+02  0.43531828209E+02  0.00000000000E+00 0.  1.
          4    1    6    6  503    0  0.78753577426E+02 -0.59854785931E+02 -0.73361442513E+03  0.74025323107E+03  0.00000000000E+00 0. -1.
         -4    1    5    5    0  502 -0.19595551182E+03  0.51786889038E+03 -0.29647903548E+03  0.62808165768E+03  0.00000000000E+00 0. -1.
         -4    1    6    6    0  503  0.49379495338E+02 -0.30712021478E+02 -0.13334146990E+03  0.14546996397E+03  0.00000000000E+00 0.  1.
<mgrwt>
<rscale>  0 0.14850076E+04</rscale>
<asrwt>0</asrwt>
<pdfrwt beam="1">  1        2 0.29048744E+00 0.14850076E+04</pdfrwt>
<pdfrwt beam="2">  1       -2 0.44920364E-01 0.14850076E+04</pdfrwt>
<totfact> 0.35050780E+01</totfact>
</mgrwt>
</event>
<event>
12    1  0.4247462E-008  0.1748583E+04  0.7818608E-02  0.8734131E-01
         -2   -1    0    0    0  501 -0.00000000000E+00  0.00000000000E+00  0.43178369206E+03  0.43178369206E+03  0.00000000000E+00 0.  1.
          2   -1    0    0  501    0  0.00000000000E+00 -0.00000000000E+00 -0.17702973827E+04  0.17702973827E+04  0.00000000000E+00 0. -1.
         23    2    1    2    0    0  0.32673226694E+03  0.33723387290E+03  0.36185217934E+02  0.47951379779E+03  0.90241082545E+02 0.  0.
        254    2    1    2    0    0 -0.32673226694E+03 -0.33723387290E+03 -0.13746989085E+04  0.17225672769E+04  0.92572148896E+03 0.  0.
         23    2    4    4    0    0  0.15656041060E+03 -0.43887636250E+03 -0.96024831165E+03  0.10711713007E+04  0.90595318003E+02 0.  0.
         23    2    4    4    0    0 -0.48329267754E+03  0.10164248959E+03 -0.41445059688E+03  0.65139597624E+03  0.92975334151E+02 0.  0.
         11    1    3    3    0    0  0.10599925925E+03  0.12627063385E+03  0.54480979325E+02  0.17363263818E+03  0.00000000000E+00 0. -1.
        -11    1    3    3    0    0  0.22073300769E+03  0.21096323906E+03 -0.18295761391E+02  0.30588115961E+03  0.00000000000E+00 0.  1.
          1    1    5    5  502    0  0.41195654243E+02 -0.21473397588E+03 -0.51537745409E+03  0.55984076532E+03  0.00000000000E+00 0. -1.
          3    1    6    6  503    0 -0.15477233906E+03  0.30236601080E+02 -0.78638333685E+02  0.17621780985E+03  0.00000000000E+00 0. -1.
         -1    1    5    5    0  502  0.11536475635E+03 -0.22414238661E+03 -0.44487085756E+03  0.51133053536E+03  0.00000000000E+00 0.  1.
         -3    1    6    6    0  503 -0.32852033848E+03  0.71405888513E+02 -0.33581226319E+03  0.47517816640E+03  0.00000000000E+00 0.  1.
<mgrwt>
<rscale>  0 0.17485829E+04</rscale>
<asrwt>0</asrwt>
<pdfrwt beam="1">  1        2 0.27235344E+00 0.17485829E+04</pdfrwt>
<pdfrwt beam="2">  1       -2 0.66428262E-01 0.17485829E+04</pdfrwt>
<totfact> 0.17696717E+01</totfact>
</mgrwt>
</event>
<event>
12    1  0.4247462E-008  0.1769877E+04  0.7818608E-02  0.8722484E-01
          1   -1    0    0  501    0  0.00000000000E+00  0.00000000000E+00  0.16726376982E+04  0.16726376982E+04  0.00000000000E+00 0. -1.
         -1   -1    0    0    0  501 -0.00000000000E+00 -0.00000000000E+00 -0.46819245069E+03  0.46819245069E+03  0.00000000000E+00 0.  1.
         23    2    1    2    0    0  0.45001884705E+03  0.40947207554E+03  0.17957898958E+03  0.64097668341E+03  0.91750486823E+02 0.  0.
        254    2    1    2    0    0 -0.45001884705E+03 -0.40947207554E+03  0.10248662579E+04  0.14998534654E+04  0.91050822504E+03 0.  0.
         23    2    4    4    0    0 -0.22814305638E+03 -0.23271579068E+03  0.11338702990E+04  0.11832801336E+04  0.91017175702E+02 0.  0.
         23    2    4    4    0    0 -0.22187579067E+03 -0.17675628487E+03 -0.10900404109E+03  0.31657333183E+03  0.88685639905E+02 0.  0.
         13    1    3    3    0    0  0.13463915280E+03  0.17781103549E+03  0.82414952335E+02  0.23777445232E+03  0.00000000000E+00 0. -1.
        -13    1    3    3    0    0  0.31537969425E+03  0.23166104006E+03  0.97164037246E+02  0.40320223110E+03  0.00000000000E+00 0.  1.
          4    1    5    5  502    0 -0.16436225292E+03 -0.10576959847E+03  0.69735091347E+03  0.72422403623E+03  0.00000000000E+00 0. -1.
          3    1    6    6  503    0 -0.60223782902E+02 -0.10255604380E+03 -0.35506632001E+02  0.12411835909E+03  0.00000000000E+00 0. -1.
         -4    1    5    5    0  502 -0.63780803458E+02 -0.12694619221E+03  0.43651938553E+03  0.45905609738E+03  0.00000000000E+00 0.  1.
         -3    1    6    6    0  503 -0.16165200777E+03 -0.74200241071E+02 -0.73497409088E+02  0.19245497274E+03  0.00000000000E+00 0.  1.
<mgrwt>
<rscale>  0 0.17698772E+04</rscale>
<asrwt>0</asrwt>
<pdfrwt beam="1">  1        1 0.25732887E+00 0.17698772E+04</pdfrwt>
<pdfrwt beam="2">  1       -1 0.72029609E-01 0.17698772E+04</pdfrwt>
<totfact> 0.91546870E+00</totfact>
</mgrwt>
</event>
<event>
12    1  0.4247462E-008  0.2447904E+04  0.7818608E-02  0.8421783E-01
          2   -1    0    0  501    0  0.00000000000E+00  0.00000000000E+00  0.28814939647E+04  0.28814939647E+04  0.00000000000E+00 0.  1.
         -2   -1    0    0    0  501 -0.00000000000E+00 -0.00000000000E+00 -0.51988972220E+03  0.51988972220E+03  0.00000000000E+00 0. -1.
         23    2    1    2    0    0 -0.71157129464E+03 -0.54612527926E+03  0.24898781034E+03  0.93537982802E+03  0.91400027145E+02 0.  0.
        254    2    1    2    0    0  0.71157129464E+03  0.54612527926E+03  0.21126164322E+04  0.24660038589E+04  0.90190926075E+03 0.  0.
         23    2    4    4    0    0  0.43349415292E+03  0.42049824358E+03  0.41435510410E+03  0.73815387979E+03  0.91896923204E+02 0.  0.
         23    2    4    4    0    0  0.27807714172E+03  0.12562703569E+03  0.16982613281E+04  0.17278499791E+04  0.90911842103E+02 0.  0.
         13    1    3    3    0    0 -0.60073745507E+03 -0.49669114415E+03  0.20186610200E+03  0.80519407954E+03  0.00000000000E+00 0. -1.
        -13    1    3    3    0    0 -0.11083383957E+03 -0.49434135112E+02  0.47121708345E+02  0.13018574847E+03  0.00000000000E+00 0.  1.
          3    1    5    5  502    0  0.33754875173E+03  0.27021375858E+03  0.30196598981E+03  0.52738799202E+03  0.00000000000E+00 0. -1.
          3    1    6    6  503    0 -0.28505955383E+01 -0.63499102197E+01  0.63811804591E+02  0.64190292567E+02  0.00000000000E+00 0. -1.
         -3    1    5    5    0  502  0.95945401187E+02  0.15028448499E+03  0.11238911429E+03  0.21076588778E+03  0.00000000000E+00 0.  1.
         -3    1    6    6    0  503  0.28092773726E+03  0.13197694591E+03  0.16344495235E+04  0.16636596865E+04  0.00000000000E+00 0.  1.
<mgrwt>
<rscale>  0 0.24479045E+04</rscale>
<asrwt>0</asrwt>
<pdfrwt beam="1">  1        2 0.44330676E+00 0.24479045E+04</pdfrwt>
<pdfrwt beam="2">  1       -2 0.79983036E-01 0.24479045E+04</pdfrwt>
<totfact> 0.25551095E+00</totfact>
</mgrwt>
</event>
<event>
12    1  0.4247462E-008  0.1899363E+04  0.7818608E-02  0.8655174E-01
         -2   -1    0    0    0  501 -0.00000000000E+00  0.00000000000E+00  0.60425192020E+03  0.60425192020E+03  0.00000000000E+00 0. -1.
          2   -1    0    0  501    0  0.00000000000E+00 -0.00000000000E+00 -0.14925807917E+04  0.14925807917E+04  0.00000000000E+00 0.  1.
         23    2    1    2    0    0 -0.24169439379E+03 -0.58980315596E+03 -0.74514624413E+03  0.98485273796E+03  0.91695406326E+02 0.  0.
        254    2    1    2    0    0  0.24169439379E+03  0.58980315596E+03 -0.14318262736E+03  0.11119799739E+04  0.89984123870E+03 0.  0.
         23    2    4    4    0    0  0.27784956649E+03  0.20106459083E+03 -0.47377977605E+03  0.59244979092E+03  0.94351085228E+02 0.  0.
         23    2    4    4    0    0 -0.36155172700E+02  0.38873856513E+03  0.33059714869E+03  0.51953018301E+03  0.90511147357E+02 0.  0.
         11    1    3    3    0    0 -0.14409155034E+03 -0.28719125499E+03 -0.43382742849E+03  0.53985871257E+03  0.00000000000E+00 0. -1.
        -11    1    3    3    0    0 -0.97602843446E+02 -0.30261190097E+03 -0.31131881564E+03  0.44499402539E+03  0.00000000000E+00 0.  1.
          4    1    5    5  502    0  0.17137695013E+03  0.93197320216E+02 -0.33108548802E+03  0.38428296854E+03  0.00000000000E+00 0. -1.
          3    1    6    6  503    0  0.26248693926E+02  0.90699340649E+02  0.57834731087E+02  0.11072587975E+03  0.00000000000E+00 0. -1.
         -4    1    5    5    0  502  0.10647261636E+03  0.10786727061E+03 -0.14269428803E+03  0.20816682238E+03  0.00000000000E+00 0.  1.
         -3    1    6    6    0  503 -0.62403866626E+02  0.29803922449E+03  0.27276241760E+03  0.40880430325E+03  0.00000000000E+00 0.  1.
<mgrwt>
<rscale>  0 0.18993629E+04</rscale>
<asrwt>0</asrwt>
<pdfrwt beam="1">  1        2 0.22962781E+00 0.18993629E+04</pdfrwt>
<pdfrwt beam="2">  1       -2 0.92961835E-01 0.18993629E+04</pdfrwt>
<totfact> 0.11769935E+01</totfact>
</mgrwt>
</event>
<event>
12    1  0.4247462E-008  0.1187307E+04  0.7818608E-02  0.9124040E-01
          2   -1    0    0  501    0  0.00000000000E+00  0.00000000000E+00  0.61910331810E+03  0.61910331810E+03  0.00000000000E+00 0. -1.
         -2   -1    0    0    0  501 -0.00000000000E+00 -0.00000000000E+00 -0.56924994207E+03  0.56924994207E+03  0.00000000000E+00 0.  1.
         23    2    1    2    0    0  0.15204542192E+03  0.14972232701E+03  0.10690289775E+03  0.25566706081E+03  0.91666956437E+02 0.  0.
        254    2    1    2    0    0 -0.15204542192E+03 -0.14972232701E+03 -0.57049521715E+02  0.93268619937E+03  0.90615358137E+03 0.  0.
         23    2    4    4    0    0  0.65601500530E+00  0.17803235434E+03 -0.38580905748E+03  0.43552302193E+03  0.95580982697E+02 0.  0.
         23    2    4    4    0    0 -0.15270143693E+03 -0.32775468136E+03  0.32875953576E+03  0.49716317743E+03  0.91364832686E+02 0.  0.
         11    1    3    3    0    0  0.10411426166E+03  0.13499562319E+03  0.11391426454E+03  0.20503672214E+03  0.00000000000E+00 0. -1.
        -11    1    3    3    0    0  0.47931160258E+02  0.14726703829E+02 -0.70113667925E+01  0.50630338668E+02  0.00000000000E+00 0.  1.
          3    1    5    5  502    0 -0.81130116827E+01  0.54113415838E+02 -0.22911523821E+03  0.23555864474E+03  0.00000000000E+00 0. -1.
          3    1    6    6  503    0 -0.13379897965E+03 -0.28246020858E+03  0.31999537393E+03  0.44730635556E+03  0.00000000000E+00 0. -1.
         -3    1    5    5    0  502  0.87690266880E+01  0.12391893850E+03 -0.15669381927E+03  0.19996437719E+03  0.00000000000E+00 0.  1.
         -3    1    6    6    0  503 -0.18902457276E+02 -0.45294472774E+02  0.87641618351E+01  0.49856821877E+02  0.00000000000E+00 0.  1.
<mgrwt>
<rscale>  0 0.11873071E+04</rscale>
<asrwt>0</asrwt>
<pdfrwt beam="1">  1        2 0.95246665E-01 0.11873071E+04</pdfrwt>
<pdfrwt beam="2">  1       -2 0.87576914E-01 0.11873071E+04</pdfrwt>
<totfact> 0.53079943E+01</totfact>
</mgrwt>
</event>
<event>
12    1  0.4247462E-008  0.1632815E+04  0.7818608E-02  0.8800638E-01
         -1   -1    0    0    0  501 -0.00000000000E+00  0.00000000000E+00  0.12872589909E+04  0.12872589909E+04  0.00000000000E+00 0.  1.
          1   -1    0    0  501    0  0.00000000000E+00 -0.00000000000E+00 -0.51778313175E+03  0.51778313175E+03  0.00000000000E+00 0. -1.
         23    2    1    2    0    0 -0.40345541445E+03  0.28172078422E+03 -0.38423087958E+02  0.50089985891E+03  0.85331490464E+02 0.  0.
        254    2    1    2    0    0  0.40345541445E+03 -0.28172078422E+03  0.80789894712E+03  0.13041422637E+04  0.89774354000E+03 0.  0.
         23    2    4    4    0    0 -0.20440401747E+03 -0.32508425725E+03  0.41655699917E+03  0.57414756146E+03  0.93085509652E+02 0.  0.
         23    2    4    4    0    0  0.60785943192E+03  0.43363473034E+02  0.39134194795E+03  0.72999470228E+03  0.91489154335E+02 0.  0.
         11    1    3    3    0    0 -0.24864919954E+03  0.18656777266E+03  0.15828018246E+02  0.31126272566E+03  0.00000000000E+00 0. -1.
        -11    1    3    3    0    0 -0.15480621491E+03  0.95153011559E+02 -0.54251106204E+02  0.18963713325E+03  0.00000000000E+00 0.  1.
          2    1    5    5  502    0 -0.20374480545E+03 -0.30601272935E+03  0.41584401128E+03  0.55505132915E+03  0.00000000000E+00 0. -1.
          4    1    6    6  503    0  0.39371844924E+03  0.68453627284E+02  0.27387073020E+03  0.48446392355E+03  0.00000000000E+00 0. -1.
         -2    1    5    5    0  502 -0.65921201860E+00 -0.19071527901E+02  0.71298789260E+00  0.19096232317E+02  0.00000000000E+00 0.  1.
         -4    1    6    6    0  503  0.21414098268E+03 -0.25090154250E+02  0.11747121775E+03  0.24553077873E+03  0.00000000000E+00 0.  1.
<mgrwt>
<rscale>  0 0.16328147E+04</rscale>
<asrwt>0</asrwt>
<pdfrwt beam="1">  1        1 0.79658944E-01 0.16328147E+04</pdfrwt>
<pdfrwt beam="2">  1       -1 0.19803984E+00 0.16328147E+04</pdfrwt>
<totfact> 0.62727254E+00</totfact>
</mgrwt>
</event>
<event>
12    1  0.4247462E-008  0.1193159E+04  0.7818608E-02  0.9118866E-01
          3   -1    0    0  501    0  0.00000000000E+00  0.00000000000E+00  0.96028858848E+03  0.96028858848E+03  0.00000000000E+00 0. -1.
         -3   -1    0    0    0  501 -0.00000000000E+00 -0.00000000000E+00 -0.37062503851E+03  0.37062503851E+03  0.00000000000E+00 0.  1.
         23    2    1    2    0    0 -0.87175430100E+02  0.13924418671E+03 -0.66889437705E+02  0.20070017541E+03  0.93903484422E+02 0.  0.
        254    2    1    2    0    0  0.87175430100E+02 -0.13924418671E+03  0.65655298768E+03  0.11302134516E+04  0.90516966441E+03 0.  0.
         23    2    4    4    0    0 -0.67720546210E+02  0.36492708745E+03  0.29494023872E+03  0.48340269735E+03  0.94501702882E+02 0.  0.
         23    2    4    4    0    0  0.15489597631E+03 -0.50417127416E+03  0.36161274895E+03  0.64681075424E+03  0.97051194881E+02 0.  0.
         11    1    3    3    0    0 -0.89229089203E+02  0.59671280715E+02 -0.53663632382E+02  0.12000948939E+03  0.00000000000E+00 0.  1.
        -11    1    3    3    0    0  0.20536591027E+01  0.79572905998E+02 -0.13225805323E+02  0.80690686025E+02  0.00000000000E+00 0. -1.
          3    1    5    5  502    0 -0.36363742615E+02  0.32639585845E+03  0.22697375867E+03  0.39921631394E+03  0.00000000000E+00 0. -1.
          3    1    6    6  503    0  0.98626111159E+02 -0.41752193817E+03  0.32094781091E+03  0.53577903653E+03  0.00000000000E+00 0. -1.
         -3    1    5    5    0  502 -0.31356803595E+02  0.38531228999E+02  0.67966480052E+02  0.84186383403E+02  0.00000000000E+00 0.  1.
         -3    1    6    6    0  503  0.56269865151E+02 -0.86649335991E+02  0.40664938045E+02  0.11103171771E+03  0.00000000000E+00 0.  1.
<mgrwt>
<rscale>  0 0.11931588E+04</rscale>
<asrwt>0</asrwt>
<pdfrwt beam="1">  1        3 0.14773671E+00 0.11931588E+04</pdfrwt>
<pdfrwt beam="2">  1       -3 0.57019237E-01 0.11931588E+04</pdfrwt>
<totfact> 0.26321803E+00</totfact>
</mgrwt>
</event>
<event>
12    1  0.4247462E-008  0.1451825E+04  0.7818608E-02  0.8917136E-01
         -1   -1    0    0    0  501 -0.00000000000E+00  0.00000000000E+00  0.58107675353E+03  0.58107675353E+03  0.00000000000E+00 0.  1.
          1   -1    0    0  501    0  0.00000000000E+00 -0.00000000000E+00 -0.90684958364E+03  0.90684958364E+03  0.00000000000E+00 0. -1.
         23    2    1    2    0    0 -0.31896534852E+03  0.27867845367E+03 -0.22704180037E+03  0.48955890901E+03  0.93377578569E+02 0.  0.
        254    2    1    2    0    0  0.31896534852E+03 -0.27867845367E+03 -0.98731029736E+02  0.99836742816E+03  0.89865963039E+03 0.  0.
         23    2    4    4    0    0 -0.22705337925E+03  0.12556985987E+03 -0.14506894369E+03  0.31118989445E+03  0.92049580390E+02 0.  0.
         23    2    4    4    0    0  0.54601872777E+03 -0.40424831354E+03  0.46337913949E+02  0.68717753371E+03  0.92263809215E+02 0.  0.
         11    1    3    3    0    0 -0.23736843031E+03  0.25395105016E+03 -0.19427382171E+03  0.39821756038E+03  0.00000000000E+00 0. -1.
        -11    1    3    3    0    0 -0.81596918208E+02  0.24727403505E+02 -0.32767978660E+02  0.91341348635E+02  0.00000000000E+00 0.  1.
          2    1    5    5  502    0 -0.10787911441E+03  0.88582957141E+01 -0.50518402606E+02  0.11945075023E+03  0.00000000000E+00 0. -1.
          4    1    6    6  503    0  0.23877345484E+01 -0.12452160929E+02  0.98958850514E+01  0.16083722486E+02  0.00000000000E+00 0. -1.
         -2    1    5    5    0  502 -0.11917426484E+03  0.11671156416E+03 -0.94550541079E+02  0.19173914422E+03  0.00000000000E+00 0.  1.
         -4    1    6    6    0  503  0.54363099322E+03 -0.39179615261E+03  0.36442028898E+02  0.67109381123E+03  0.00000000000E+00 0.  1.
<mgrwt>
<rscale>  0 0.14518254E+04</rscale>
<asrwt>0</asrwt>
<pdfrwt beam="1">  1        1 0.13951532E+00 0.14518254E+04</pdfrwt>
<pdfrwt beam="2">  1       -1 0.89396424E-01 0.14518254E+04</pdfrwt>
<totfact> 0.21393140E+01</totfact>
</mgrwt>
</event>
<event>
12    1  0.4247462E-008  0.2355552E+04  0.7818608E-02  0.8456334E-01
         -2   -1    0    0    0  501 -0.00000000000E+00  0.00000000000E+00  0.69206366093E+03  0.69206366093E+03  0.00000000000E+00 0.  1.
          2   -1    0    0  501    0  0.00000000000E+00 -0.00000000000E+00 -0.20043766330E+04  0.20043766330E+04  0.00000000000E+00 0. -1.
         23    2    1    2    0    0 -0.10121183728E+04 -0.16875905423E+03 -0.67284321428E+03  0.12304482668E+04  0.91769970273E+02 0.  0.
        254    2    1    2    0    0  0.10121183728E+04  0.16875905423E+03 -0.63946975778E+03  0.14659920271E+04  0.82906443266E+03 0.  0.
         23    2    4    4    0    0 -0.10881463958E+03  0.13008634529E+03 -0.11546402914E+03  0.22460298262E+03  0.91386403592E+02 0.  0.
         23    2    4    4    0    0  0.11209330123E+04  0.38672708947E+02 -0.52400572864E+03  0.12413890445E+04  0.92078007624E+02 0.  0.
         13    1    3    3    0    0 -0.61433659250E+03 -0.77645386784E+02 -0.36018816458E+03  0.71636147920E+03  0.00000000000E+00 0.  1.
        -13    1    3    3    0    0 -0.39778178027E+03 -0.91113667451E+02 -0.31265504970E+03  0.51408678763E+03  0.00000000000E+00 0. -1.
          4    1    5    5  502    0 -0.53854987146E+02  0.11250733464E+03 -0.11058376263E+03  0.16669441666E+03  0.00000000000E+00 0. -1.
          1    1    6    6  503    0  0.10308400393E+04  0.54964733977E+02 -0.46306083523E+03  0.11314051642E+04  0.00000000000E+00 0. -1.
         -4    1    5    5    0  502 -0.54959652433E+02  0.17579010647E+02 -0.48802665122E+01  0.57908565965E+02  0.00000000000E+00 0.  1.
         -1    1    6    6    0  503  0.90092973090E+02 -0.16292025030E+02 -0.60944893409E+02  0.10998388024E+03  0.00000000000E+00 0.  1.
<mgrwt>
<rscale>  0 0.23555519E+04</rscale>
<asrwt>0</asrwt>
<pdfrwt beam="1">  1        2 0.30836563E+00 0.23555519E+04</pdfrwt>
<pdfrwt beam="2">  1       -2 0.10647133E+00 0.23555519E+04</pdfrwt>
<totfact> 0.42623218E+00</totfact>
</mgrwt>
</event>
<event>
12    1  0.4247462E-008  0.2146022E+04  0.7818608E-02  0.8541237E-01
         -2   -1    0    0    0  501 -0.00000000000E+00  0.00000000000E+00  0.13756986452E+04  0.13756986452E+04  0.00000000000E+00 0.  1.
          2   -1    0    0  501    0  0.00000000000E+00 -0.00000000000E+00 -0.83692234363E+03  0.83692234363E+03  0.00000000000E+00 0. -1.
         23    2    1    2    0    0 -0.86195323874E+03  0.41353507811E+01  0.39960492191E+02  0.86809594963E+03  0.94938137305E+02 0.  0.
        254    2    1    2    0    0  0.86195323874E+03 -0.41353507811E+01  0.49881580934E+03  0.13445250392E+04  0.90329944224E+03 0.  0.
         23    2    4    4    0    0  0.81251159311E+03  0.65196269126E+02 -0.10007089613E+02  0.82065666466E+03  0.94612773852E+02 0.  0.
         23    2    4    4    0    0  0.49441645638E+02 -0.69331619907E+02  0.50882289895E+03  0.52386837449E+03  0.91027366485E+02 0.  0.
         11    1    3    3    0    0 -0.44844589615E+03  0.21043355046E+02  0.64336165995E+02  0.45352583920E+03  0.00000000000E+00 0.  1.
        -11    1    3    3    0    0 -0.41350734259E+03 -0.16908004265E+02 -0.24375673804E+02  0.41457011043E+03  0.00000000000E+00 0. -1.
          2    1    5    5  502    0  0.23056267250E+02  0.51684034174E+01  0.15931525891E+02  0.28497673073E+02  0.00000000000E+00 0. -1.
          1    1    6    6  503    0  0.40517297672E+02 -0.58018207074E+02  0.16242904486E+03  0.17717493722E+03  0.00000000000E+00 0. -1.
         -2    1    5    5    0  502  0.78945532586E+03  0.60027865709E+02 -0.25938615504E+02  0.79215899159E+03  0.00000000000E+00 0.  1.
         -1    1    6    6    0  503  0.89243479658E+01 -0.11313412833E+02  0.34639385409E+03  0.34669343727E+03  0.00000000000E+00 0.  1.
<mgrwt>
<rscale>  0 0.21460223E+04</rscale>
<asrwt>0</asrwt>
<pdfrwt beam="1">  1        2 0.12875728E+00 0.21460223E+04</pdfrwt>
<pdfrwt beam="2">  1       -2 0.21164595E+00 0.21460223E+04</pdfrwt>
<totfact> 0.33244722E+00</totfact>
</mgrwt>
</event>
<event>
12    1  0.4247462E-008  0.1369541E+04  0.7818608E-02  0.8976166E-01
         -2   -1    0    0    0  501 -0.00000000000E+00  0.00000000000E+00  0.10415285567E+04  0.10415285567E+04  0.00000000000E+00 0. -1.
          2   -1    0    0  501    0  0.00000000000E+00 -0.00000000000E+00 -0.45021381697E+03  0.45021381697E+03  0.00000000000E+00 0.  1.
         23    2    1    2    0    0 -0.22973926434E+03  0.33093744759E+01 -0.15731984847E+03  0.29229513282E+03  0.88858474054E+02 0.  0.
        254    2    1    2    0    0  0.22973926434E+03 -0.33093744759E+01  0.74863458819E+03  0.11994472408E+04  0.90853115268E+03 0.  0.
         23    2    4    4    0    0  0.55158946062E+02  0.21668570985E+03  0.85294977928E+03  0.88633113220E+03  0.89801691211E+02 0.  0.
         23    2    4    4    0    0  0.17458031827E+03 -0.21999508432E+03 -0.10431519109E+03  0.31311610865E+03  0.91016008197E+02 0.  0.
         11    1    3    3    0    0 -0.14307635450E+03  0.14760683164E+02 -0.46537277165E+02  0.15117684727E+03  0.00000000000E+00 0. -1.
        -11    1    3    3    0    0 -0.86662909836E+02 -0.11451308688E+02 -0.11078257131E+03  0.14111828555E+03  0.00000000000E+00 0.  1.
          4    1    5    5  502    0  0.38895006127E+02  0.41450479690E+02  0.32189326467E+03  0.32687342750E+03  0.00000000000E+00 0. -1.
          3    1    6    6  503    0 -0.58674622515E+01 -0.39158028029E+02 -0.10455042848E+02  0.40952242836E+02  0.00000000000E+00 0. -1.
         -4    1    5    5    0  502  0.16263939934E+02  0.17523523016E+03  0.53105651461E+03  0.55945770469E+03  0.00000000000E+00 0.  1.
         -3    1    6    6    0  503  0.18044778053E+03 -0.18083705629E+03 -0.93860148238E+02  0.27216386581E+03  0.00000000000E+00 0.  1.
<mgrwt>
<rscale>  0 0.13695409E+04</rscale>
<asrwt>0</asrwt>
<pdfrwt beam="1">  1        2 0.69263664E-01 0.13695409E+04</pdfrwt>
<pdfrwt beam="2">  1       -2 0.16023516E+00 0.13695409E+04</pdfrwt>
<totfact> 0.16992176E+01</totfact>
</mgrwt>
</event>
<event>
12    1  0.4247462E-008  0.1423636E+04  0.7818608E-02  0.8936885E-01
         -2   -1    0    0    0  501 -0.00000000000E+00  0.00000000000E+00  0.54415613826E+03  0.54415613826E+03  0.00000000000E+00 0.  1.
          2   -1    0    0  501    0  0.00000000000E+00 -0.00000000000E+00 -0.93113931404E+03  0.93113931404E+03  0.00000000000E+00 0. -1.
         23    2    1    2    0    0 -0.27150636217E+03  0.36158461782E+02 -0.43939013555E+03  0.52581375421E+03  0.91614812292E+02 0.  0.
        254    2    1    2    0    0  0.27150636217E+03 -0.36158461782E+02  0.52406959777E+02  0.94948169809E+03  0.90760446590E+03 0.  0.
         23    2    4    4    0    0  0.51557198342E+03 -0.16573934912E+03 -0.17874705381E+03  0.57774756684E+03  0.92508052705E+02 0.  0.
         23    2    4    4    0    0 -0.24406562125E+03  0.12958088733E+03  0.23115401358E+03  0.37173413125E+03  0.91623427678E+02 0.  0.
         13    1    3    3    0    0 -0.15223381755E+02 -0.19259869384E+02 -0.22385018703E+02  0.33223229570E+02  0.00000000000E+00 0.  1.
        -13    1    3    3    0    0 -0.25628298042E+03  0.55418331166E+02 -0.41700511685E+03  0.49259052464E+03  0.00000000000E+00 0. -1.
          4    1    5    5  502    0  0.21089794619E+03 -0.45547902121E+02 -0.29308835414E+02  0.21774196410E+03  0.00000000000E+00 0. -1.
          3    1    6    6  503    0 -0.53188637476E+02 -0.81344374832E+01  0.27201047444E+02  0.60291767363E+02  0.00000000000E+00 0. -1.
         -4    1    5    5    0  502  0.30467403723E+03 -0.12019144699E+03 -0.14943821839E+03  0.36000560274E+03  0.00000000000E+00 0.  1.
         -3    1    6    6    0  503 -0.19087698377E+03  0.13771532482E+03  0.20395296614E+03  0.31144236388E+03  0.00000000000E+00 0.  1.
<mgrwt>
<rscale>  0 0.14236364E+04</rscale>
<asrwt>0</asrwt>
<pdfrwt beam="1">  1        2 0.14325220E+00 0.14236364E+04</pdfrwt>
<pdfrwt beam="2">  1       -2 0.83716330E-01 0.14236364E+04</pdfrwt>
<totfact> 0.33876423E+01</totfact>
</mgrwt>
</event>
<event>
12    1  0.4247462E-008  0.1599498E+04  0.7818608E-02  0.8820857E-01
          4   -1    0    0  501    0  0.00000000000E+00  0.00000000000E+00  0.26256375500E+03  0.26256375500E+03  0.00000000000E+00 0. -1.
         -4   -1    0    0    0  501 -0.00000000000E+00 -0.00000000000E+00 -0.24359729876E+04  0.24359729876E+04  0.00000000000E+00 0.  1.
         23    2    1    2    0    0  0.31419475662E+03  0.15002182607E+03 -0.43519091518E+02  0.36025123553E+03  0.81621982255E+02 0.  0.
        254    2    1    2    0    0 -0.31419475662E+03 -0.15002182607E+03 -0.21298901411E+04  0.23382855071E+04  0.89995678011E+03 0.  0.
         23    2    4    4    0    0 -0.26049986475E+03 -0.47492140117E+03 -0.84003973288E+03  0.10040685968E+04  0.95270548983E+02 0.  0.
         23    2    4    4    0    0 -0.53694891873E+02  0.32489957510E+03 -0.12898504082E+04  0.13342169102E+04  0.89318602133E+02 0.  0.
         11    1    3    3    0    0  0.10171286864E+03  0.51790269008E+02 -0.53271015465E+02  0.12595848800E+03  0.00000000000E+00 0.  1.
        -11    1    3    3    0    0  0.21248188799E+03  0.98231557065E+02  0.97519239467E+01  0.23429274753E+03  0.00000000000E+00 0. -1.
          2    1    5    5  502    0 -0.52147369567E+02 -0.48118953087E+02 -0.72331018693E+02  0.10132402511E+03  0.00000000000E+00 0. -1.
          4    1    6    6  503    0 -0.19647232798E+02  0.21010566486E+03 -0.65435284823E+03  0.68753767471E+03  0.00000000000E+00 0.  1.
         -2    1    5    5    0  502 -0.20835249518E+03 -0.42680244808E+03 -0.76770871418E+03  0.90274457172E+03  0.00000000000E+00 0.  1.
         -4    1    6    6    0  503 -0.34047659074E+02  0.11479391024E+03 -0.63549755997E+03  0.64667923552E+03  0.00000000000E+00 0. -1.
<mgrwt>
<rscale>  0 0.15994977E+04</rscale>
<asrwt>0</asrwt>
<pdfrwt beam="1">  1        4 0.40394424E-01 0.15994977E+04</pdfrwt>
<pdfrwt beam="2">  1       -4 0.37476508E+00 0.15994977E+04</pdfrwt>
<totfact> 0.11781031E-01</totfact>
</mgrwt>
</event>
<event>
12    1  0.4247462E-008  0.1770286E+04  0.7818608E-02  0.8722263E-01
          2   -1    0    0  501    0  0.00000000000E+00  0.00000000000E+00  0.23583489314E+04  0.23583489314E+04  0.00000000000E+00 0. -1.
         -2   -1    0    0    0  501 -0.00000000000E+00 -0.00000000000E+00 -0.33221462504E+03  0.33221462504E+03  0.00000000000E+00 0.  1.
         23    2    1    2    0    0  0.41651853760E+03  0.38975092479E+03  0.11588910234E+04  0.12971729236E+04  0.11931351161E+03 0.  0.
        254    2    1    2    0    0 -0.41651853760E+03 -0.38975092479E+03  0.86724328295E+03  0.13933906328E+04  0.92953379083E+03 0.  0.
         23    2    4    4    0    0  0.23771630282E+03  0.91873370560E+02  0.25173757592E+03  0.36969151925E+03  0.91379732078E+02 0.  0.
         23    2    4    4    0    0 -0.65423484042E+03 -0.48162429535E+03  0.61550570703E+03  0.10236991136E+04  0.95537487184E+02 0.  0.
         13    1    3    3    0    0  0.19474655404E+02  0.16645032674E+01  0.96429536047E+02  0.98390488343E+02  0.00000000000E+00 0.  1.
        -13    1    3    3    0    0  0.39704388219E+03  0.38808642152E+03  0.10624614873E+04  0.11987824352E+04  0.00000000000E+00 0. -1.
          4    1    5    5  502    0  0.43456926144E+01 -0.13818975276E+02  0.15347839090E+02  0.21104627140E+02  0.00000000000E+00 0. -1.
          3    1    6    6  503    0 -0.57475918688E+02 -0.79641997052E+02  0.65744673706E+02  0.11818921712E+03  0.00000000000E+00 0. -1.
         -4    1    5    5    0  502  0.23337061020E+03  0.10569234584E+03  0.23638973683E+03  0.34858689211E+03  0.00000000000E+00 0.  1.
         -3    1    6    6    0  503 -0.59675892173E+03 -0.40198229830E+03  0.54976103333E+03  0.90550989645E+03  0.00000000000E+00 0.  1.
<mgrwt>
<rscale>  0 0.17702859E+04</rscale>
<asrwt>0</asrwt>
<pdfrwt beam="1">  1        2 0.36282290E+00 0.17702859E+04</pdfrwt>
<pdfrwt beam="2">  1       -2 0.51109944E-01 0.17702859E+04</pdfrwt>
<totfact> 0.14389724E+01</totfact>
</mgrwt>
</event>
<event>
12    1  0.4247462E-008  0.1555815E+04  0.7818608E-02  0.8848162E-01
         -2   -1    0    0    0  501 -0.00000000000E+00  0.00000000000E+00  0.41027455429E+03  0.41027455429E+03  0.00000000000E+00 0.  1.
          2   -1    0    0  501    0  0.00000000000E+00 -0.00000000000E+00 -0.14749636077E+04  0.14749636077E+04  0.00000000000E+00 0. -1.
         23    2    1    2    0    0 -0.32647086394E+03 -0.27373110941E+03 -0.70230263763E+03  0.82651794225E+03  0.91602231311E+02 0.  0.
        254    2    1    2    0    0  0.32647086394E+03  0.27373110941E+03 -0.36238641576E+03  0.10587202197E+04  0.89891748458E+03 0.  0.
         23    2    4    4    0    0  0.35444847641E+03  0.48624581461E+03  0.21950328005E+02  0.60898799689E+03  0.91191275858E+02 0.  0.
         23    2    4    4    0    0 -0.27977612476E+02 -0.21251470520E+03 -0.38433674377E+03  0.44973222284E+03  0.92731294237E+02 0.  0.
         13    1    3    3    0    0 -0.13488958016E+03 -0.11255654455E+03 -0.20673935343E+03  0.27130303134E+03  0.00000000000E+00 0. -1.
        -13    1    3    3    0    0 -0.19158128377E+03 -0.16117456486E+03 -0.49556328420E+03  0.55521491091E+03  0.00000000000E+00 0.  1.
          4    1    5    5  502    0  0.19087075924E+03  0.33243179150E+03 -0.51228344514E+00  0.38333119515E+03  0.00000000000E+00 0.  1.
          3    1    6    6  503    0 -0.35853323764E+02 -0.23092216088E+02 -0.90463470279E+02  0.10001175293E+03  0.00000000000E+00 0. -1.
         -4    1    5    5    0  502  0.16357771717E+03  0.15381402311E+03  0.22462611450E+02  0.22565680174E+03  0.00000000000E+00 0. -1.
         -3    1    6    6    0  503  0.78757112881E+01 -0.18942248911E+03 -0.29387327349E+03  0.34972046992E+03  0.00000000000E+00 0.  1.
<mgrwt>
<rscale>  0 0.15558149E+04</rscale>
<asrwt>0</asrwt>
<pdfrwt beam="1">  1        2 0.22691748E+00 0.15558149E+04</pdfrwt>
<pdfrwt beam="2">  1       -2 0.63119163E-01 0.15558149E+04</pdfrwt>
<totfact> 0.29336812E+01</totfact>
</mgrwt>
</event>
<event>
12    1  0.4247462E-008  0.2723178E+04  0.7818608E-02  0.8327523E-01
          2   -1    0    0  501    0  0.00000000000E+00  0.00000000000E+00  0.14019859737E+04  0.14019859737E+04  0.00000000000E+00 0. -1.
         -2   -1    0    0    0  501 -0.00000000000E+00 -0.00000000000E+00 -0.13223563865E+04  0.13223563865E+04  0.00000000000E+00 0.  1.
         23    2    1    2    0    0  0.24878353762E+03 -0.41927349619E+03 -0.10693124586E+04  0.11791400066E+04  0.96221139855E+02 0.  0.
        254    2    1    2    0    0 -0.24878353762E+03  0.41927349619E+03  0.11489420458E+04  0.15452023536E+04  0.91098791189E+03 0.  0.
         23    2    4    4    0    0 -0.53535649953E+03  0.25307784299E+03  0.10099035409E+04  0.11742015263E+04  0.90493570778E+02 0.  0.
         23    2    4    4    0    0  0.28657296191E+03  0.16619565320E+03  0.13903850495E+03  0.37100082724E+03  0.92546476514E+02 0.  0.
         11    1    3    3    0    0  0.19407227739E+03 -0.37362105456E+03 -0.96464843593E+03  0.10525223733E+04  0.00000000000E+00 0.  1.
        -11    1    3    3    0    0  0.54711260231E+02 -0.45652441625E+02 -0.10466402270E+03  0.12661763333E+03  0.00000000000E+00 0. -1.
          2    1    5    5  502    0 -0.10700507046E+03  0.87894869435E+02  0.20071216556E+03  0.24384619452E+03  0.00000000000E+00 0.  1.
          3    1    6    6  503    0  0.16260922282E+03  0.13031362227E+03  0.50252895775E+02  0.21435660249E+03  0.00000000000E+00 0. -1.
         -2    1    5    5    0  502 -0.42835142907E+03  0.16518297355E+03  0.80919137530E+03  0.93035533180E+03  0.00000000000E+00 0. -1.
         -3    1    6    6    0  503  0.12396373909E+03  0.35882030929E+02  0.88785609175E+02  0.15664422475E+03  0.00000000000E+00 0.  1.
<mgrwt>
<rscale>  0 0.27231784E+04</rscale>
<asrwt>0</asrwt>
<pdfrwt beam="1">  1        2 0.21569015E+00 0.27231784E+04</pdfrwt>
<pdfrwt beam="2">  1       -2 0.20343944E+00 0.27231784E+04</pdfrwt>
<totfact> 0.15960368E+00</totfact>
</mgrwt>
</event>
<event>
12    1  0.4247462E-008  0.1411168E+04  0.7818608E-02  0.8945774E-01
         -2   -1    0    0    0  501 -0.00000000000E+00  0.00000000000E+00  0.58032490701E+03  0.58032490701E+03  0.00000000000E+00 0.  1.
          2   -1    0    0  501    0  0.00000000000E+00 -0.00000000000E+00 -0.85787907059E+03  0.85787907059E+03  0.00000000000E+00 0. -1.
         23    2    1    2    0    0  0.93147874642E+02 -0.70137877878E+02 -0.47510352155E+03  0.49740212916E+03  0.89942611921E+02 0.  0.
        254    2    1    2    0    0 -0.93147874642E+02  0.70137877878E+02  0.19754935796E+03  0.94080184844E+03  0.91240699293E+03 0.  0.
         23    2    4    4    0    0  0.31329094890E+03 -0.20917902850E+03 -0.34404178741E+02  0.38863350363E+03  0.89136232792E+02 0.  0.
         23    2    4    4    0    0 -0.40643882355E+03  0.27931690638E+03  0.23195353671E+03  0.55216834482E+03  0.88752387856E+02 0.  0.
         11    1    3    3    0    0  0.98665835409E+02 -0.30240780224E+02 -0.38710550127E+03  0.40062466347E+03  0.00000000000E+00 0. -1.
        -11    1    3    3    0    0 -0.55179607671E+01 -0.39897097654E+02 -0.87998020273E+02  0.96777465685E+02  0.00000000000E+00 0.  1.
          2    1    5    5  502    0  0.22831154918E+02 -0.18856276004E+02 -0.28831090354E+02  0.41328592410E+02  0.00000000000E+00 0. -1.
          3    1    6    6  503    0 -0.72068540622E+01 -0.58264883781E+01 -0.49831062745E+00  0.92808957421E+01  0.00000000000E+00 0. -1.
         -2    1    5    5    0  502  0.29045979399E+03 -0.19032275250E+03 -0.55730883874E+01  0.34730491122E+03  0.00000000000E+00 0.  1.
         -3    1    6    6    0  503 -0.39923196948E+03  0.28514339476E+03  0.23245184733E+03  0.54288744907E+03  0.00000000000E+00 0.  1.
<mgrwt>
<rscale>  0 0.14111677E+04</rscale>
<asrwt>0</asrwt>
<pdfrwt beam="1">  1        2 0.13198139E+00 0.14111677E+04</pdfrwt>
<pdfrwt beam="2">  1       -2 0.89280756E-01 0.14111677E+04</pdfrwt>
<totfact> 0.32822388E+01</totfact>
</mgrwt>
</event>
<event>
12    1  0.4247462E-008  0.1531409E+04  0.7818608E-02  0.8863831E-01
         -1   -1    0    0    0  501 -0.00000000000E+00  0.00000000000E+00  0.79470638966E+03  0.79470638966E+03  0.00000000000E+00 0.  1.
          1   -1    0    0  501    0  0.00000000000E+00 -0.00000000000E+00 -0.73776097674E+03  0.73776097674E+03  0.00000000000E+00 0. -1.
         23    2    1    2    0    0  0.15828448543E+03  0.20105297393E+03 -0.41738563398E+03  0.50073122671E+03  0.10509384997E+03 0.  0.
        254    2    1    2    0    0 -0.15828448543E+03 -0.20105297393E+03  0.47433104690E+03  0.10317361397E+04  0.87978022440E+03 0.  0.
         23    2    4    4    0    0  0.82243611208E+02 -0.37195485813E+03 -0.76901698651E+02  0.39959335758E+03  0.92986838302E+02 0.  0.
         23    2    4    4    0    0 -0.24052809664E+03  0.17090188420E+03  0.55123274555E+03  0.63214278211E+03  0.93197306369E+02 0.  0.
         11    1    3    3    0    0  0.10872142202E+02  0.10675616800E+02  0.36884643739E+01  0.15677277811E+02  0.00000000000E+00 0.  1.
        -11    1    3    3    0    0  0.14741234323E+03  0.19037735713E+03 -0.42107409835E+03  0.48505394890E+03  0.00000000000E+00 0. -1.
          1    1    6    6  502    0 -0.30738245458E+02 -0.50007349276E+01  0.96020085391E+02  0.10094406313E+03  0.00000000000E+00 0. -1.
          1    1    5    5  503    0 -0.19830922232E+02 -0.43687445932E+02 -0.15206275164E+02  0.50329804420E+02  0.00000000000E+00 0. -1.
         -1    1    5    5    0  503  0.10207453344E+03 -0.32826741220E+03 -0.61695423487E+02  0.34926355316E+03  0.00000000000E+00 0.  1.
         -1    1    6    6    0  502 -0.20978985118E+03  0.17590261913E+03  0.45521266016E+03  0.53119871898E+03  0.00000000000E+00 0.  1.
<mgrwt>
<rscale>  0 0.15314090E+04</rscale>
<asrwt>0</asrwt>
<pdfrwt beam="1">  1        1 0.11350169E+00 0.15314090E+04</pdfrwt>
<pdfrwt beam="2">  1       -1 0.12226252E+00 0.15314090E+04</pdfrwt>
<totfact> 0.14339871E+01</totfact>
</mgrwt>
</event>
<event>
12    1  0.4247462E-008  0.1912866E+04  0.7818608E-02  0.8648479E-01
         -1   -1    0    0    0  501 -0.00000000000E+00  0.00000000000E+00  0.34860581473E+03  0.34860581473E+03  0.00000000000E+00 0.  1.
          1   -1    0    0  501    0  0.00000000000E+00 -0.00000000000E+00 -0.26240630559E+04  0.26240630559E+04  0.00000000000E+00 0. -1.
         23    2    1    2    0    0 -0.14274049940E+03  0.44896674656E+03 -0.16234552465E+04  0.16930454567E+04  0.94074392907E+02 0.  0.
        254    2    1    2    0    0  0.14274049940E+03 -0.44896674656E+03 -0.65200199463E+03  0.12796234139E+04  0.99518012975E+03 0.  0.
         23    2    4    4    0    0  0.38244733974E+03 -0.63839640475E+02 -0.70870944667E+03  0.81341104068E+03  0.95010388577E+02 0.  0.
         23    2    4    4    0    0 -0.23970684034E+03 -0.38512710609E+03  0.56707452042E+02  0.46621237319E+03  0.91411075111E+02 0.  0.
         11    1    3    3    0    0 -0.42110282658E+02  0.41558052487E+02 -0.25022531323E+03  0.25712459045E+03  0.00000000000E+00 0.  1.
        -11    1    3    3    0    0 -0.10063021674E+03  0.40740869407E+03 -0.13732299333E+04  0.14359208663E+04  0.00000000000E+00 0. -1.
          2    1    5    5  502    0  0.37069536357E+03 -0.55111836917E+02 -0.62752348400E+03  0.73091592547E+03  0.00000000000E+00 0. -1.
          3    1    6    6  503    0 -0.16478193562E+03 -0.25653098708E+03 -0.53975919372E+01  0.30494322035E+03  0.00000000000E+00 0. -1.
         -2    1    5    5    0  502  0.11751976169E+02 -0.87278035572E+01 -0.81185962668E+02  0.82495115208E+02  0.00000000000E+00 0.  1.
         -3    1    6    6    0  503 -0.74924904715E+02 -0.12859611901E+03  0.62105043980E+02  0.16126915284E+03  0.00000000000E+00 0.  1.
<mgrwt>
<rscale>  0 0.19128655E+04</rscale>
<asrwt>0</asrwt>
<pdfrwt beam="1">  1        1 0.40370200E+00 0.19128655E+04</pdfrwt>
<pdfrwt beam="2">  1       -1 0.53631665E-01 0.19128655E+04</pdfrwt>
<totfact> 0.36429755E+00</totfact>
</mgrwt>
</event>
<event>
12    1  0.4247462E-008  0.1399393E+04  0.7818608E-02  0.8954258E-01
         -1   -1    0    0    0  501 -0.00000000000E+00  0.00000000000E+00  0.32923695331E+03  0.32923695331E+03  0.00000000000E+00 0.  1.
          1   -1    0    0  501    0  0.00000000000E+00 -0.00000000000E+00 -0.14870002522E+04  0.14870002522E+04  0.00000000000E+00 0. -1.
         23    2    1    2    0    0  0.31732113981E+03 -0.17449216828E+03 -0.75562741241E+02  0.38189213866E+03  0.94824338372E+02 0.  0.
        254    2    1    2    0    0 -0.31732113981E+03  0.17449216828E+03 -0.10822005577E+04  0.14343450669E+04  0.86893469334E+03 0.  0.
         23    2    4    4    0    0 -0.37950905644E+03 -0.70392162628E+00 -0.11527527329E+04  0.12171229764E+04  0.92313904784E+02 0.  0.
         23    2    4    4    0    0  0.62187916636E+02  0.17519608991E+03  0.70552175193E+02  0.21722209052E+03  0.87446099337E+02 0.  0.
         11    1    3    3    0    0  0.22635637935E+03 -0.14284256056E+03 -0.14913740333E+02  0.26807392121E+03  0.00000000000E+00 0.  1.
        -11    1    3    3    0    0  0.90964760454E+02 -0.31649607725E+02 -0.60649000908E+02  0.11381821746E+03  0.00000000000E+00 0. -1.
          1    1    5    5  502    0 -0.28360374496E+03 -0.80635387453E+01 -0.72163180717E+03  0.77540219882E+03  0.00000000000E+00 0. -1.
          3    1    6    6  503    0  0.77269296309E+02  0.16717055812E+03  0.76088409858E+02  0.19926360874E+03  0.00000000000E+00 0. -1.
         -1    1    5    5    0  502 -0.95905311478E+02  0.73596171190E+01 -0.43112092572E+03  0.44172077756E+03  0.00000000000E+00 0.  1.
         -3    1    6    6    0  503 -0.15081379674E+02  0.80255317883E+01 -0.55362346654E+01  0.17958481774E+02  0.00000000000E+00 0.  1.
<mgrwt>
<rscale>  0 0.13993933E+04</rscale>
<asrwt>0</asrwt>
<pdfrwt beam="1">  1        1 0.22876927E+00 0.13993933E+04</pdfrwt>
<pdfrwt beam="2">  1       -1 0.50651840E-01 0.13993933E+04</pdfrwt>
<totfact> 0.25500883E+01</totfact>
</mgrwt>
</event>
<event>
12    1  0.4247462E-008  0.2451518E+04  0.7818608E-02  0.8420464E-01
          2   -1    0    0  501    0  0.00000000000E+00  0.00000000000E+00  0.23992637351E+04  0.23992637351E+04  0.00000000000E+00 0. -1.
         -2   -1    0    0    0  501 -0.00000000000E+00 -0.00000000000E+00 -0.62622748008E+03  0.62622748008E+03  0.00000000000E+00 0.  1.
         23    2    1    2    0    0 -0.23871279182E+03 -0.51595580838E+03  0.19486029403E+04  0.20313527008E+04  0.78397594616E+02 0.  0.
        254    2    1    2    0    0  0.23871279182E+03  0.51595580838E+03 -0.17556668526E+03  0.99413851441E+03  0.79642547152E+03 0.  0.
         23    2    4    4    0    0 -0.11784656579E+03  0.97505566513E+02 -0.36383955358E+03  0.40575504464E+03  0.94142375829E+02 0.  0.
         23    2    4    4    0    0  0.35655935761E+03  0.41845024187E+03  0.18827286832E+03  0.58838346977E+03  0.92267297230E+02 0.  0.
         11    1    3    3    0    0 -0.19333232158E+03 -0.33258623711E+03  0.12764936087E+04  0.13332017569E+04  0.00000000000E+00 0. -1.
        -11    1    3    3    0    0 -0.45380470238E+02 -0.18336957127E+03  0.67210933164E+03  0.69815094386E+03  0.00000000000E+00 0.  1.
          2    1    6    6  502    0  0.26544365887E+03  0.35922029523E+03  0.13061257301E+03  0.46535921691E+03  0.00000000000E+00 0. -1.
          2    1    5    5  503    0 -0.87475616805E+01 -0.24573402560E+01  0.34968621262E+01  0.97358307923E+01  0.00000000000E+00 0.  1.
         -2    1    5    5    0  503 -0.10909900411E+03  0.99962906769E+02 -0.36733641571E+03  0.39601921385E+03  0.00000000000E+00 0. -1.
         -2    1    6    6    0  502  0.91115698742E+02  0.59229946636E+02  0.57660295316E+02  0.12302425286E+03  0.00000000000E+00 0.  1.
<mgrwt>
<rscale>  0 0.24515178E+04</rscale>
<asrwt>0</asrwt>
<pdfrwt beam="1">  1        2 0.36911749E+00 0.24515178E+04</pdfrwt>
<pdfrwt beam="2">  1       -2 0.96342691E-01 0.24515178E+04</pdfrwt>
<totfact> 0.32130607E+00</totfact>
</mgrwt>
</event>
<event>
12    1  0.4247462E-008  0.1732148E+04  0.7818608E-02  0.8743239E-01
         -1   -1    0    0    0  501 -0.00000000000E+00  0.00000000000E+00  0.66008083069E+03  0.66008083069E+03  0.00000000000E+00 0.  1.
          1   -1    0    0  501    0  0.00000000000E+00 -0.00000000000E+00 -0.11363514380E+04  0.11363514380E+04  0.00000000000E+00 0. -1.
         23    2    1    2    0    0  0.55786433793E+03 -0.13374189436E+02  0.12710793231E+03  0.57954646777E+03  0.91247977332E+02 0.  0.
        254    2    1    2    0    0 -0.55786433793E+03  0.13374189436E+02 -0.60337853967E+03  0.12168858010E+04  0.89741512243E+03 0.  0.
         23    2    4    4    0    0 -0.46951742736E+02 -0.19933344353E+03  0.15588383320E+03  0.27297638511E+03  0.90983787125E+02 0.  0.
         23    2    4    4    0    0 -0.51091259519E+03  0.21270763296E+03 -0.75926237287E+03  0.94390941585E+03  0.90605835564E+02 0.  0.
         13    1    3    3    0    0  0.33169258660E+03  0.28060910118E+02  0.10248105227E+03  0.34829549632E+03  0.00000000000E+00 0.  1.
        -13    1    3    3    0    0  0.22617175133E+03 -0.41435099554E+02  0.24626880043E+02  0.23125097145E+03  0.00000000000E+00 0. -1.
          2    1    5    5  502    0  0.54581093793E+01 -0.14895202729E+03  0.12271526723E+03  0.19306872922E+03  0.00000000000E+00 0.  1.
          3    1    6    6  503    0 -0.26253231197E+03  0.11449292869E+03 -0.46831830918E+03  0.54895708781E+03  0.00000000000E+00 0. -1.
         -2    1    5    5    0  502 -0.52409852115E+02 -0.50381416234E+02  0.33168565966E+02  0.79907655883E+02  0.00000000000E+00 0. -1.
         -3    1    6    6    0  503 -0.24838028322E+03  0.98214704272E+02 -0.29094406369E+03  0.39495232804E+03  0.00000000000E+00 0.  1.
<mgrwt>
<rscale>  0 0.17321476E+04</rscale>
<asrwt>0</asrwt>
<pdfrwt beam="1">  1        1 0.17482330E+00 0.17321476E+04</pdfrwt>
<pdfrwt beam="2">  1       -1 0.10155090E+00 0.17321476E+04</pdfrwt>
<totfact> 0.10397783E+01</totfact>
</mgrwt>
</event>
<event>
12    1  0.4247462E-008  0.1872691E+04  0.7818608E-02  0.8668571E-01
         -1   -1    0    0    0  501 -0.00000000000E+00  0.00000000000E+00  0.50678930051E+03  0.50678930051E+03  0.00000000000E+00 0.  1.
          1   -1    0    0  501    0  0.00000000000E+00 -0.00000000000E+00 -0.17299946544E+04  0.17299946544E+04  0.00000000000E+00 0. -1.
         23    2    1    2    0    0 -0.33950987506E+02  0.13816934599E+03  0.37728430864E+03  0.41370440804E+03  0.92544313527E+02 0.  0.
        254    2    1    2    0    0  0.33950987506E+02 -0.13816934599E+03 -0.16004896625E+04  0.18230795469E+04  0.86128301775E+03 0.  0.
         23    2    4    4    0    0  0.10991248211E+03  0.34015466472E+03 -0.54737031076E+03  0.66033425523E+03  0.92957634825E+02 0.  0.
         23    2    4    4    0    0 -0.75961494602E+02 -0.47832401071E+03 -0.10531193517E+04  0.11627452916E+04  0.91390570103E+02 0.  0.
         11    1    3    3    0    0  0.24831481622E+02  0.14117578617E+02  0.36770472296E+02  0.46561530671E+02  0.00000000000E+00 0. -1.
        -11    1    3    3    0    0 -0.58782469128E+02  0.12405176737E+03  0.34051383634E+03  0.36714287737E+03  0.00000000000E+00 0.  1.
          1    1    6    6  502    0 -0.86517107640E+02 -0.44456444407E+03 -0.92642682045E+03  0.10312077426E+04  0.00000000000E+00 0. -1.
          1    1    5    5  503    0  0.24651256177E+02  0.20500336430E+03 -0.26576277723E+03  0.33654705105E+03  0.00000000000E+00 0. -1.
         -1    1    5    5    0  503  0.85261225931E+02  0.13515130042E+03 -0.28160753353E+03  0.32378720418E+03  0.00000000000E+00 0.  1.
         -1    1    6    6    0  502  0.10555613038E+02 -0.33759566635E+02 -0.12669253129E+03  0.13153754898E+03  0.00000000000E+00 0.  1.
<mgrwt>
<rscale>  0 0.18726909E+04</rscale>
<asrwt>0</asrwt>
<pdfrwt beam="1">  1        1 0.26615302E+00 0.18726909E+04</pdfrwt>
<pdfrwt beam="2">  1       -1 0.77967585E-01 0.18726909E+04</pdfrwt>
<totfact> 0.70243073E+00</totfact>
</mgrwt>
</event>
<event>
12    1  0.4247462E-008  0.1353723E+04  0.7818608E-02  0.8988014E-01
         -1   -1    0    0    0  501 -0.00000000000E+00  0.00000000000E+00  0.20496549703E+03  0.20496549703E+03  0.00000000000E+00 0.  1.
          1   -1    0    0  501    0  0.00000000000E+00 -0.00000000000E+00 -0.22352141260E+04  0.22352141260E+04  0.00000000000E+00 0. -1.
         23    2    1    2    0    0  0.31054964742E+03  0.10490716698E+03 -0.25936152822E+03  0.42767121275E+03  0.90485726467E+02 0.  0.
        254    2    1    2    0    0 -0.31054964742E+03 -0.10490716698E+03 -0.17708871008E+04  0.20125084103E+04  0.89816612084E+03 0.  0.
         23    2    4    4    0    0 -0.94063592500E+02  0.37804735821E+03 -0.57136471586E+03  0.69809155885E+03  0.95427572171E+02 0.  0.
         23    2    4    4    0    0 -0.21648605492E+03 -0.48295452519E+03 -0.11995223849E+04  0.13144168515E+04  0.93415320323E+02 0.  0.
         11    1    3    3    0    0  0.72432984239E+02  0.36432090007E+02 -0.11565779348E+03  0.14124644980E+03  0.00000000000E+00 0. -1.
        -11    1    3    3    0    0  0.23811666319E+03  0.68475076977E+02 -0.14370373474E+03  0.28642476295E+03  0.00000000000E+00 0.  1.
          2    1    5    5  502    0 -0.87249544607E+01  0.22741541526E+03 -0.33952911308E+03  0.40874676091E+03  0.00000000000E+00 0. -1.
          4    1    6    6  503    0 -0.89245135032E+02 -0.10084576264E+03 -0.29418678508E+03  0.32354354650E+03  0.00000000000E+00 0. -1.
         -2    1    5    5    0  502 -0.85338638039E+02  0.15063194295E+03 -0.23183560278E+03  0.28934479794E+03  0.00000000000E+00 0.  1.
         -4    1    6    6    0  503 -0.12724091989E+03 -0.38210876255E+03 -0.90533559985E+03  0.99087330496E+03  0.00000000000E+00 0.  1.
<mgrwt>
<rscale>  0 0.13537234E+04</rscale>
<asrwt>0</asrwt>
<pdfrwt beam="1">  1        1 0.34387907E+00 0.13537234E+04</pdfrwt>
<pdfrwt beam="2">  1       -1 0.31533156E-01 0.13537234E+04</pdfrwt>
<totfact> 0.18891172E+01</totfact>
</mgrwt>
</event>
<event>
12    1  0.4247462E-008  0.1595615E+04  0.7818608E-02  0.8823247E-01
          2   -1    0    0  501    0  0.00000000000E+00  0.00000000000E+00  0.86875070292E+03  0.86875070292E+03  0.00000000000E+00 0. -1.
         -2   -1    0    0    0  501 -0.00000000000E+00 -0.00000000000E+00 -0.73265739051E+03  0.73265739051E+03  0.00000000000E+00 0.  1.
         23    2    1    2    0    0  0.28791296037E+03 -0.30973491315E+03 -0.29581894308E+03  0.52595109622E+03  0.10142050757E+03 0.  0.
        254    2    1    2    0    0 -0.28791296037E+03  0.30973491315E+03  0.43191225549E+03  0.10754569972E+04  0.88951108325E+03 0.  0.
         23    2    4    4    0    0 -0.49404142076E+03 -0.33184974550E+02  0.43472513666E+03  0.66506655166E+03  0.90274058986E+02 0.  0.
         23    2    4    4    0    0  0.20612846039E+03  0.34291988770E+03 -0.28128811732E+01  0.41039044555E+03  0.91265622944E+02 0.  0.
         13    1    3    3    0    0  0.34672304631E+01 -0.43733927012E+02 -0.17284436555E+02  0.47153258699E+02  0.00000000000E+00 0. -1.
        -13    1    3    3    0    0  0.28444572991E+03 -0.26600098614E+03 -0.27853450652E+03  0.47879783752E+03  0.00000000000E+00 0.  1.
          3    1    6    6  502    0  0.32755250201E+02  0.30737011738E+02 -0.27118461546E+02  0.52469812873E+02  0.00000000000E+00 0. -1.
          3    1    5    5  503    0 -0.37089572534E+03  0.11987714053E+02  0.33969795625E+03  0.50309248239E+03  0.00000000000E+00 0. -1.
         -3    1    5    5    0  503 -0.12314569543E+03 -0.45172688603E+02  0.95027180418E+02  0.16197406927E+03  0.00000000000E+00 0.  1.
         -3    1    6    6    0  502  0.17337321019E+03  0.31218287596E+03  0.24305580373E+02  0.35792063267E+03  0.00000000000E+00 0.  1.
<mgrwt>
<rscale>  0 0.15956148E+04</rscale>
<asrwt>0</asrwt>
<pdfrwt beam="1">  1        2 0.13365395E+00 0.15956148E+04</pdfrwt>
<pdfrwt beam="2">  1       -2 0.11271652E+00 0.15956148E+04</pdfrwt>
<totfact> 0.18296494E+01</totfact>
</mgrwt>
</event>
<event>
12    1  0.4247462E-008  0.1673590E+04  0.7818608E-02  0.8776572E-01
         -1   -1    0    0    0  501 -0.00000000000E+00  0.00000000000E+00  0.41169432383E+03  0.41169432383E+03  0.00000000000E+00 0.  1.
          1   -1    0    0  501    0  0.00000000000E+00 -0.00000000000E+00 -0.17008398112E+04  0.17008398112E+04  0.00000000000E+00 0. -1.
         23    2    1    2    0    0 -0.24457164125E+03 -0.43567162627E+03 -0.59364701256E+02  0.51097041169E+03  0.89115319812E+02 0.  0.
        254    2    1    2    0    0  0.24457164125E+03  0.43567162627E+03 -0.12297807861E+04  0.16015637234E+04  0.89611412464E+03 0.  0.
         23    2    4    4    0    0 -0.17388212554E+03 -0.14730193502E+02  0.28206592788E+02  0.19850243062E+03  0.90308531713E+02 0.  0.
         23    2    4    4    0    0  0.41845376680E+03  0.45040181977E+03 -0.12579873789E+04  0.14030612927E+04  0.89907682909E+02 0.  0.
         13    1    3    3    0    0 -0.22125917244E+03 -0.42905853930E+03 -0.61468692536E+02  0.48664694769E+03  0.00000000000E+00 0.  1.
        -13    1    3    3    0    0 -0.23312468818E+02 -0.66130869697E+01  0.21039912806E+01  0.24323464001E+02  0.00000000000E+00 0. -1.
          4    1    5    5  502    0 -0.18107960570E+03 -0.99380859619E+01  0.38153985027E+02  0.18532219437E+03  0.00000000000E+00 0. -1.
          4    1    6    6  503    0  0.36222489262E+03  0.34695171581E+03 -0.10605884368E+04  0.11732136200E+04  0.00000000000E+00 0. -1.
         -4    1    5    5    0  502  0.71974801532E+01 -0.47921075402E+01 -0.99473922392E+01  0.13180236250E+02  0.00000000000E+00 0.  1.
         -4    1    6    6    0  503  0.56228874179E+02  0.10345010396E+03 -0.19739894217E+03  0.22984767276E+03  0.00000000000E+00 0.  1.
<mgrwt>
<rscale>  0 0.16735903E+04</rscale>
<asrwt>0</asrwt>
<pdfrwt beam="1">  1        1 0.26166766E+00 0.16735903E+04</pdfrwt>
<pdfrwt beam="2">  1       -1 0.63337589E-01 0.16735903E+04</pdfrwt>
<totfact> 0.11476389E+01</totfact>
</mgrwt>
</event>
<event>
12    1  0.4247462E-008  0.1084149E+04  0.7818608E-02  0.9220780E-01
         -1   -1    0    0    0  501 -0.00000000000E+00  0.00000000000E+00  0.85213937653E+03  0.85213937653E+03  0.00000000000E+00 0.  1.
          1   -1    0    0  501    0  0.00000000000E+00 -0.00000000000E+00 -0.34483181425E+03  0.34483181425E+03  0.00000000000E+00 0. -1.
         23    2    1    2    0    0  0.14895881631E+02  0.12090051431E+02  0.22976914765E+03  0.24960708655E+03  0.95612655080E+02 0.  0.
        254    2    1    2    0    0 -0.14895881631E+02 -0.12090051431E+02  0.27753841464E+03  0.94736410424E+03  0.90559544928E+03 0.  0.
         23    2    4    4    0    0 -0.42062122770E+02 -0.46494555425E+02  0.59962010712E+03  0.60953852780E+03  0.89788519041E+02 0.  0.
         23    2    4    4    0    0  0.27166241139E+02  0.34404503994E+02 -0.32208169248E+03  0.33782557644E+03  0.92020806973E+02 0.  0.
         13    1    3    3    0    0 -0.39133793899E+02  0.65711887575E+01  0.65393461310E+02  0.76491431734E+02  0.00000000000E+00 0.  1.
        -13    1    3    3    0    0  0.54029675530E+02  0.55188626735E+01  0.16437568634E+03  0.17311565481E+03  0.00000000000E+00 0. -1.
          4    1    5    5  502    0 -0.61113846108E+02 -0.27611332307E+02  0.24832896722E+03  0.25722473407E+03  0.00000000000E+00 0. -1.
          1    1    6    6  503    0  0.48978847828E+02 -0.88763236274E+01 -0.20804297868E+03  0.21391493084E+03  0.00000000000E+00 0. -1.
         -4    1    5    5    0  502  0.19051723338E+02 -0.18883223118E+02  0.35129113990E+03  0.35231379372E+03  0.00000000000E+00 0.  1.
         -1    1    6    6    0  503 -0.21812606689E+02  0.43280827621E+02 -0.11403871379E+03  0.12391064560E+03  0.00000000000E+00 0.  1.
<mgrwt>
<rscale>  0 0.10841490E+04</rscale>
<asrwt>0</asrwt>
<pdfrwt beam="1">  1        1 0.53051048E-01 0.10841490E+04</pdfrwt>
<pdfrwt beam="2">  1       -1 0.13109837E+00 0.10841490E+04</pdfrwt>
<totfact> 0.36177836E+01</totfact>
</mgrwt>
</event>
<event>
12    1  0.4247462E-008  0.1780559E+04  0.7818608E-02  0.8716707E-01
          1   -1    0    0  501    0  0.00000000000E+00  0.00000000000E+00  0.12450784681E+04  0.12450784681E+04  0.00000000000E+00 0. -1.
         -1   -1    0    0    0  501 -0.00000000000E+00 -0.00000000000E+00 -0.63658429460E+03  0.63658429460E+03  0.00000000000E+00 0.  1.
         23    2    1    2    0    0 -0.17190689222E+03  0.14920299994E+03 -0.44520691557E+03  0.50911321663E+03  0.95778676628E+02 0.  0.
        254    2    1    2    0    0  0.17190689222E+03 -0.14920299994E+03  0.10537010891E+04  0.13725495461E+04  0.84958387257E+03 0.  0.
         23    2    4    4    0    0 -0.16693901454E+03 -0.31519074413E+03  0.86776835243E+03  0.94270309221E+03  0.91942192874E+02 0.  0.
         23    2    4    4    0    0  0.33884590676E+03  0.16598774420E+03  0.18593273667E+03  0.42984645388E+03  0.88478876552E+02 0.  0.
         11    1    3    3    0    0 -0.16537512110E+03  0.10673711968E+03 -0.30967189913E+03  0.36693109504E+03  0.00000000000E+00 0. -1.
        -11    1    3    3    0    0 -0.65317711232E+01  0.42465880259E+02 -0.13553501644E+03  0.14218212159E+03  0.00000000000E+00 0.  1.
          2    1    5    5  502    0 -0.16354124332E+03 -0.26854668051E+03  0.67963020278E+03  0.74883928210E+03  0.00000000000E+00 0. -1.
          3    1    6    6  503    0  0.31448106552E+03  0.15718032665E+03  0.19544552596E+03  0.40224737323E+03  0.00000000000E+00 0. -1.
         -2    1    5    5    0  502 -0.33977712219E+01 -0.46644063625E+02  0.18813814964E+03  0.19386381011E+03  0.00000000000E+00 0.  1.
         -3    1    6    6    0  503  0.24364841239E+02  0.88074175502E+01 -0.95127892880E+01  0.27599080647E+02  0.00000000000E+00 0.  1.
<mgrwt>
<rscale>  0 0.17805588E+04</rscale>
<asrwt>0</asrwt>
<pdfrwt beam="1">  1        1 0.19155053E+00 0.17805588E+04</pdfrwt>
<pdfrwt beam="2">  1       -1 0.97936045E-01 0.17805588E+04</pdfrwt>
<totfact> 0.93611409E+00</totfact>
</mgrwt>
</event>
<event>
12    1  0.4247462E-008  0.4275109E+04  0.7818608E-02  0.7951237E-01
         -2   -1    0    0    0  501 -0.00000000000E+00  0.00000000000E+00  0.28239559511E+04  0.28239559511E+04  0.00000000000E+00 0.  1.
          2   -1    0    0  501    0  0.00000000000E+00 -0.00000000000E+00 -0.16179923417E+04  0.16179923417E+04  0.00000000000E+00 0. -1.
         23    2    1    2    0    0  0.63537438084E+03  0.25550958235E+03  0.25758744051E+04  0.26667849021E+04  0.87332771529E+02 0.  0.
        254    2    1    2    0    0 -0.63537438084E+03 -0.25550958235E+03 -0.13699107957E+04  0.17751633906E+04  0.89753201880E+03 0.  0.
         23    2    4    4    0    0 -0.62756187086E+03  0.19493388155E+03 -0.89852268168E+03  0.11168841967E+04  0.90852515173E+02 0.  0.
         23    2    4    4    0    0 -0.78125099807E+01 -0.45044346389E+03 -0.47138811399E+03  0.65827919386E+03  0.90357033950E+02 0.  0.
         13    1    3    3    0    0  0.34394798624E+03  0.18488333596E+03  0.14470359702E+04  0.14987979064E+04  0.00000000000E+00 0.  1.
        -13    1    3    3    0    0  0.29142639461E+03  0.70626246383E+02  0.11288384349E+04  0.11679869958E+04  0.00000000000E+00 0. -1.
          1    1    5    5  502    0 -0.39161586136E+03  0.87292564252E+02 -0.49465882130E+03  0.63692254170E+03  0.00000000000E+00 0. -1.
          3    1    6    6  503    0  0.67420261029E+01 -0.26840233017E+02 -0.66880520392E+02  0.72379949104E+02  0.00000000000E+00 0. -1.
         -1    1    5    5    0  502 -0.23594600950E+03  0.10764131730E+03 -0.40386386038E+03  0.47996165504E+03  0.00000000000E+00 0.  1.
         -3    1    6    6    0  503 -0.14554536084E+02 -0.42360323088E+03 -0.40450759359E+03  0.58589924476E+03  0.00000000000E+00 0.  1.
<mgrwt>
<rscale>  0 0.42751089E+04</rscale>
<asrwt>0</asrwt>
<pdfrwt beam="1">  1        2 0.24892190E+00 0.42751089E+04</pdfrwt>
<pdfrwt beam="2">  1       -2 0.43445476E+00 0.42751089E+04</pdfrwt>
<totfact> 0.36996358E-02</totfact>
</mgrwt>
</event>
<event>
12    1  0.4247462E-008  0.1719409E+04  0.7818608E-02  0.8750372E-01
         -2   -1    0    0    0  501 -0.00000000000E+00  0.00000000000E+00  0.15422878481E+04  0.15422878481E+04  0.00000000000E+00 0.  1.
          2   -1    0    0  501    0  0.00000000000E+00 -0.00000000000E+00 -0.47921772813E+03  0.47921772813E+03  0.00000000000E+00 0. -1.
         23    2    1    2    0    0  0.31071404516E+03  0.15324998187E+03 -0.21957212058E+03  0.41882738243E+03  0.84709417046E+02 0.  0.
        254    2    1    2    0    0 -0.31071404516E+03 -0.15324998187E+03  0.12826422405E+04  0.16026781938E+04  0.89631328273E+03 0.  0.
         23    2    4    4    0    0 -0.16881050236E+03  0.36124646156E+03  0.67174556614E+03  0.78638589173E+03  0.90358582183E+02 0.  0.
         23    2    4    4    0    0 -0.14190354280E+03 -0.51449644343E+03  0.61089667440E+03  0.81629230205E+03  0.91077823002E+02 0.  0.
         11    1    3    3    0    0  0.10344136592E+03  0.86057628502E+01 -0.68586228827E+02  0.12441159963E+03  0.00000000000E+00 0.  1.
        -11    1    3    3    0    0  0.20727267924E+03  0.14464421902E+03 -0.15098589176E+03  0.29441578280E+03  0.00000000000E+00 0. -1.
          4    1    5    5  502    0 -0.64693442876E+02  0.18388899076E+03  0.40583172252E+03  0.45022193358E+03  0.00000000000E+00 0. -1.
          1    1    6    6  503    0 -0.90150354495E+01 -0.48049619301E+01  0.32165146569E+02  0.33748409994E+02  0.00000000000E+00 0. -1.
         -4    1    5    5    0  502 -0.10411705948E+03  0.17735747081E+03  0.26591384362E+03  0.33616395815E+03  0.00000000000E+00 0.  1.
         -1    1    6    6    0  503 -0.13288850735E+03 -0.50969148150E+03  0.57873152783E+03  0.78254389206E+03  0.00000000000E+00 0.  1.
<mgrwt>
<rscale>  0 0.17194088E+04</rscale>
<asrwt>0</asrwt>
<pdfrwt beam="1">  1        2 0.73725805E-01 0.17194088E+04</pdfrwt>
<pdfrwt beam="2">  1       -2 0.23727505E+00 0.17194088E+04</pdfrwt>
<totfact> 0.47320154E+00</totfact>
</mgrwt>
</event>
<event>
12    1  0.4247462E-008  0.1603858E+04  0.7818608E-02  0.8818181E-01
          1   -1    0    0  501    0  0.00000000000E+00  0.00000000000E+00  0.53068062827E+03  0.53068062827E+03  0.00000000000E+00 0. -1.
         -1   -1    0    0    0  501 -0.00000000000E+00 -0.00000000000E+00 -0.12118215933E+04  0.12118215933E+04  0.00000000000E+00 0.  1.
         23    2    1    2    0    0 -0.46911149715E+03 -0.25800477099E+03 -0.18345367170E+03  0.57316645862E+03  0.90733020517E+02 0.  0.
        254    2    1    2    0    0  0.46911149715E+03  0.25800477099E+03 -0.49768729329E+03  0.11693357629E+04  0.91270007445E+03 0.  0.
         23    2    4    4    0    0  0.71195851341E+03  0.57551601126E+02 -0.26411061775E+03  0.76700131466E+03  0.91320789946E+02 0.  0.
         23    2    4    4    0    0 -0.24284701625E+03  0.20045316987E+03 -0.23357667554E+03  0.40233444825E+03  0.90326066441E+02 0.  0.
         13    1    3    3    0    0 -0.16412141040E+02 -0.32810585694E+02 -0.20006655704E+02  0.41787069526E+02  0.00000000000E+00 0.  1.
        -13    1    3    3    0    0 -0.45269935611E+03 -0.22519418530E+03 -0.16344701600E+03  0.53137938910E+03  0.00000000000E+00 0. -1.
          1    1    5    5  502    0  0.55924700455E+03  0.66812611025E+02 -0.17421055917E+03  0.58955106311E+03  0.00000000000E+00 0. -1.
          3    1    6    6  503    0 -0.18397348951E+03  0.18246880667E+03 -0.21852815232E+03  0.33896262863E+03  0.00000000000E+00 0. -1.
         -1    1    5    5    0  502  0.15271150886E+03 -0.92610098997E+01 -0.89900058578E+02  0.17745025155E+03  0.00000000000E+00 0.  1.
         -3    1    6    6    0  503 -0.58873526744E+02  0.17984363197E+02 -0.15048523218E+02  0.63371819620E+02  0.00000000000E+00 0.  1.
<mgrwt>
<rscale>  0 0.16038582E+04</rscale>
<asrwt>0</asrwt>
<pdfrwt beam="1">  1        1 0.81643174E-01 0.16038582E+04</pdfrwt>
<pdfrwt beam="2">  1       -1 0.18643409E+00 0.16038582E+04</pdfrwt>
<totfact> 0.73255536E+00</totfact>
</mgrwt>
</event>
<event>
12    1  0.4247462E-008  0.2201439E+04  0.7818608E-02  0.8517829E-01
         -2   -1    0    0    0  501 -0.00000000000E+00  0.00000000000E+00  0.45967586720E+03  0.45967586720E+03  0.00000000000E+00 0.  1.
          2   -1    0    0  501    0  0.00000000000E+00 -0.00000000000E+00 -0.26357340489E+04  0.26357340489E+04  0.00000000000E+00 0. -1.
         23    2    1    2    0    0 -0.14259177699E+03 -0.19384523382E+03  0.29271054816E+03  0.38984295412E+03  0.91595165425E+02 0.  0.
        254    2    1    2    0    0  0.14259177699E+03  0.19384523382E+03 -0.24687687299E+04  0.27055669620E+04  0.10804467385E+04 0.  0.
         23    2    4    4    0    0 -0.31665557670E+03  0.26100899035E+03 -0.38841430470E+03  0.57213753491E+03  0.89884589684E+02 0.  0.
         23    2    4    4    0    0  0.45924735369E+03 -0.67163756525E+02 -0.20803544252E+04  0.21334294271E+04  0.90705479335E+02 0.  0.
         11    1    3    3    0    0 -0.57153296110E+02 -0.15144606686E+03  0.19210899373E+03  0.25121360612E+03  0.00000000000E+00 0.  1.
        -11    1    3    3    0    0 -0.85438480879E+02 -0.42399166957E+02  0.10060155443E+03  0.13862934800E+03  0.00000000000E+00 0. -1.
          4    1    5    5  502    0 -0.22488834909E+02  0.31496008070E+02 -0.76865374274E+02  0.86058305713E+02  0.00000000000E+00 0. -1.
          4    1    6    6  503    0  0.29540680292E+02  0.39030675150E+01 -0.64359167474E+02  0.70922409477E+02  0.00000000000E+00 0. -1.
         -4    1    5    5    0  502 -0.29416674179E+03  0.22951298228E+03 -0.31154893043E+03  0.48607922920E+03  0.00000000000E+00 0.  1.
         -4    1    6    6    0  503  0.42970667339E+03 -0.71066824040E+02 -0.20159952577E+04  0.20625070176E+04  0.00000000000E+00 0.  1.
<mgrwt>
<rscale>  0 0.22014389E+04</rscale>
<asrwt>0</asrwt>
<pdfrwt beam="1">  1        2 0.40549753E+00 0.22014389E+04</pdfrwt>
<pdfrwt beam="2">  1       -2 0.70719367E-01 0.22014389E+04</pdfrwt>
<totfact> 0.48180257E+00</totfact>
</mgrwt>
</event>
<event>
12    1  0.4247462E-008  0.1719313E+04  0.7818608E-02  0.8750426E-01
          2   -1    0    0  501    0  0.00000000000E+00  0.00000000000E+00  0.14565269864E+04  0.14565269864E+04  0.00000000000E+00 0. -1.
         -2   -1    0    0    0  501 -0.00000000000E+00 -0.00000000000E+00 -0.50737749419E+03  0.50737749419E+03  0.00000000000E+00 0.  1.
         23    2    1    2    0    0 -0.29902563981E+03  0.85382941169E+02 -0.26801063221E+03  0.42042029067E+03  0.90647349253E+02 0.  0.
        254    2    1    2    0    0  0.29902563981E+03 -0.85382941169E+02  0.12171601245E+04  0.15434841900E+04  0.89674862487E+03 0.  0.
         23    2    4    4    0    0  0.77853639042E+01 -0.37364462607E+03  0.99858770938E+03  0.10702253875E+04  0.92379911965E+02 0.  0.
         23    2    4    4    0    0  0.29124027590E+03  0.28826168490E+03  0.21857241507E+03  0.47325880251E+03  0.91018109381E+02 0.  0.
         13    1    3    3    0    0 -0.85649604691E+02  0.67457943900E+02 -0.10429781165E+03  0.15087896637E+03  0.00000000000E+00 0.  1.
        -13    1    3    3    0    0 -0.21337603511E+03  0.17924997268E+02 -0.16371282056E+03  0.26954132430E+03  0.00000000000E+00 0. -1.
          4    1    5    5  502    0 -0.36129355104E+02 -0.15373954719E+03  0.35045706580E+03  0.38439736425E+03  0.00000000000E+00 0. -1.
          1    1    6    6  503    0  0.33318500199E+02  0.85217120258E+02  0.48904473845E+02  0.10374838602E+03  0.00000000000E+00 0. -1.
         -4    1    5    5    0  502  0.43914719008E+02 -0.21990507888E+03  0.64813064358E+03  0.68582802320E+03  0.00000000000E+00 0.  1.
         -1    1    6    6    0  503  0.25792177570E+03  0.20304456464E+03  0.16966794123E+03  0.36951041649E+03  0.00000000000E+00 0.  1.
<mgrwt>
<rscale>  0 0.17193127E+04</rscale>
<asrwt>0</asrwt>
<pdfrwt beam="1">  1        2 0.22408107E+00 0.17193127E+04</pdfrwt>
<pdfrwt beam="2">  1       -2 0.78058077E-01 0.17193127E+04</pdfrwt>
<totfact> 0.18645130E+01</totfact>
</mgrwt>
</event>
<event>
12    1  0.4247462E-008  0.1456809E+04  0.7818608E-02  0.8913693E-01
         -1   -1    0    0    0  501 -0.00000000000E+00  0.00000000000E+00  0.38514945384E+03  0.38514945384E+03  0.00000000000E+00 0.  1.
          1   -1    0    0  501    0  0.00000000000E+00 -0.00000000000E+00 -0.13775777757E+04  0.13775777757E+04  0.00000000000E+00 0. -1.
         23    2    1    2    0    0  0.40144335155E+03 -0.15309916873E+03 -0.45516546153E+03  0.63162806574E+03  0.84748428254E+02 0.  0.
        254    2    1    2    0    0 -0.40144335155E+03  0.15309916873E+03 -0.53726286030E+03  0.11310991638E+04  0.89785177910E+03 0.  0.
         23    2    4    4    0    0 -0.77076954499E+02 -0.35913004295E+03 -0.15868958307E+03  0.41046441313E+03  0.91560941471E+02 0.  0.
         23    2    4    4    0    0 -0.32436639705E+03  0.51222921168E+03 -0.37857327723E+03  0.72063475064E+03  0.91675475213E+02 0.  0.
         13    1    3    3    0    0  0.23119982800E+03 -0.63236090107E+02 -0.20116743184E+03  0.31292251307E+03  0.00000000000E+00 0.  1.
        -13    1    3    3    0    0  0.17024352355E+03 -0.89863078620E+02 -0.25399802969E+03  0.31870555267E+03  0.00000000000E+00 0. -1.
          2    1    5    5  502    0 -0.82548147825E+02 -0.36100436222E+03 -0.14898599370E+03  0.39916810064E+03  0.00000000000E+00 0.  1.
          3    1    6    6  503    0 -0.26419285903E+03  0.39262408963E+03 -0.33509900148E+03  0.57986453876E+03  0.00000000000E+00 0.  1.
         -2    1    5    5    0  502  0.54711933259E+01  0.18743192677E+01 -0.97035893676E+01  0.11296312484E+02  0.00000000000E+00 0. -1.
         -3    1    6    6    0  503 -0.60173538019E+02  0.11960512205E+03 -0.43474275748E+02  0.14077021187E+03  0.00000000000E+00 0. -1.
<mgrwt>
<rscale>  0 0.14568093E+04</rscale>
<asrwt>0</asrwt>
<pdfrwt beam="1">  1        1 0.21193504E+00 0.14568093E+04</pdfrwt>
<pdfrwt beam="2">  1       -1 0.59253762E-01 0.14568093E+04</pdfrwt>
<totfact> 0.22328129E+01</totfact>
</mgrwt>
</event>
<event>
12    1  0.4247462E-008  0.1852868E+04  0.7818608E-02  0.8678679E-01
         -2   -1    0    0    0  501 -0.00000000000E+00  0.00000000000E+00  0.73782939000E+03  0.73782939000E+03  0.00000000000E+00 0.  1.
          2   -1    0    0  501    0  0.00000000000E+00 -0.00000000000E+00 -0.11632504619E+04  0.11632504619E+04  0.00000000000E+00 0. -1.
         23    2    1    2    0    0 -0.51681919121E+03 -0.21514904312E+03  0.27981911152E+03  0.63240048749E+03  0.90776947829E+02 0.  0.
        254    2    1    2    0    0  0.51681919121E+03  0.21514904312E+03 -0.70524018338E+03  0.12686793644E+04  0.89375188177E+03 0.  0.
         23    2    4    4    0    0  0.41569371021E+03  0.71423709997E+02  0.96565923578E+02  0.44240964828E+03  0.92188460434E+02 0.  0.
         23    2    4    4    0    0  0.10112548099E+03  0.14372533312E+03 -0.80180610696E+03  0.82626971609E+03  0.94579470734E+02 0.  0.
         11    1    3    3    0    0 -0.51053509490E+03 -0.20526572148E+03  0.28489819430E+03  0.61963463480E+03  0.00000000000E+00 0.  1.
        -11    1    3    3    0    0 -0.62840963083E+01 -0.98833216378E+01 -0.50790827767E+01  0.12765852688E+02  0.00000000000E+00 0. -1.
          4    1    5    5  502    0  0.37972329599E+03  0.90859149310E+02  0.81648789584E+02  0.39888806872E+03  0.00000000000E+00 0. -1.
          1    1    6    6  503    0  0.39087058468E+02 -0.37342649255E+01 -0.17765193294E+03  0.18193941890E+03  0.00000000000E+00 0. -1.
         -4    1    5    5    0  502  0.35970414225E+02 -0.19435439313E+02  0.14917133994E+02  0.43521579560E+02  0.00000000000E+00 0.  1.
         -1    1    6    6    0  503  0.62038422524E+02  0.14745959804E+03 -0.62415417402E+03  0.64433029718E+03  0.00000000000E+00 0.  1.
<mgrwt>
<rscale>  0 0.18528685E+04</rscale>
<asrwt>0</asrwt>
<pdfrwt beam="1">  1        2 0.17896161E+00 0.18528685E+04</pdfrwt>
<pdfrwt beam="2">  1       -2 0.11351221E+00 0.18528685E+04</pdfrwt>
<totfact> 0.11406510E+01</totfact>
</mgrwt>
</event>
<event>
12    1  0.4247462E-008  0.1256046E+04  0.7818608E-02  0.9065166E-01
          1   -1    0    0  501    0  0.00000000000E+00  0.00000000000E+00  0.29544454152E+03  0.29544454152E+03  0.00000000000E+00 0. -1.
         -1   -1    0    0    0  501 -0.00000000000E+00 -0.00000000000E+00 -0.13349819599E+04  0.13349819599E+04  0.00000000000E+00 0.  1.
         23    2    1    2    0    0 -0.19522404523E+03 -0.85098000533E+02 -0.54074136026E+03  0.58812693206E+03  0.90210708831E+02 0.  0.
        254    2    1    2    0    0  0.19522404523E+03  0.85098000533E+02 -0.49879605811E+03  0.10422995694E+04  0.89007684340E+03 0.  0.
         23    2    4    4    0    0 -0.14721628642E+03 -0.30387463824E+03 -0.55934111347E+02  0.35444864427E+03  0.92156312090E+02 0.  0.
         23    2    4    4    0    0  0.34244033165E+03  0.38897263877E+03 -0.44286194677E+03  0.68785092509E+03  0.91908088829E+02 0.  0.
         13    1    3    3    0    0 -0.76410394226E+02 -0.18688316880E+02 -0.10232175776E+03  0.12906410672E+03  0.00000000000E+00 0. -1.
        -13    1    3    3    0    0 -0.11881365100E+03 -0.66409683653E+02 -0.43841960250E+03  0.45906282533E+03  0.00000000000E+00 0.  1.
          3    1    5    5  502    0 -0.11096592214E+03 -0.28902490741E+03 -0.40040153923E+02  0.31217310407E+03  0.00000000000E+00 0. -1.
          3    1    6    6  503    0  0.22990332485E+03  0.28557991249E+03 -0.25957245556E+03  0.44920962242E+03  0.00000000000E+00 0. -1.
         -3    1    5    5    0  502 -0.36250364286E+02 -0.14849730834E+02 -0.15893957423E+02  0.42275540201E+02  0.00000000000E+00 0.  1.
         -3    1    6    6    0  503  0.11253700680E+03  0.10339272628E+03 -0.18328949121E+03  0.23864130266E+03  0.00000000000E+00 0.  1.
<mgrwt>
<rscale>  0 0.12560464E+04</rscale>
<asrwt>0</asrwt>
<pdfrwt beam="1">  1        1 0.45453006E-01 0.12560464E+04</pdfrwt>
<pdfrwt beam="2">  1       -1 0.20538184E+00 0.12560464E+04</pdfrwt>
<totfact> 0.12189500E+01</totfact>
</mgrwt>
</event>
<event>
12    1  0.4247462E-008  0.1287578E+04  0.7818608E-02  0.9039475E-01
          2   -1    0    0  501    0  0.00000000000E+00  0.00000000000E+00  0.26593923794E+04  0.26593923794E+04  0.00000000000E+00 0. -1.
         -2   -1    0    0    0  501 -0.00000000000E+00 -0.00000000000E+00 -0.15584912396E+03  0.15584912396E+03  0.00000000000E+00 0.  1.
         23    2    1    2    0    0  0.11790757027E+03 -0.97228040393E+02  0.28159703624E+02  0.17891148990E+03  0.88661521212E+02 0.  0.
        254    2    1    2    0    0 -0.11790757027E+03  0.97228040393E+02  0.24753835519E+04  0.26363300135E+04  0.89406751667E+03 0.  0.
         23    2    4    4    0    0  0.36945603037E+03  0.14814642716E+03  0.10391054682E+04  0.11163903589E+04  0.90233792635E+02 0.  0.
         23    2    4    4    0    0 -0.48736360064E+03 -0.50918386763E+02  0.14362780837E+04  0.15199396546E+04  0.84887328092E+02 0.  0.
         11    1    3    3    0    0  0.72439277199E+02 -0.41322237316E+02 -0.27547492078E+02  0.87828472022E+02  0.00000000000E+00 0.  1.
        -11    1    3    3    0    0  0.45468293071E+02 -0.55905803076E+02  0.55707195701E+02  0.91083017875E+02  0.00000000000E+00 0. -1.
          2    1    5    5  502    0  0.96832358267E+02  0.82423711236E+02  0.29773750413E+03  0.32375576466E+03  0.00000000000E+00 0. -1.
          1    1    6    6  503    0 -0.14522894180E+03 -0.53130919463E+02  0.48016601126E+03  0.50445390127E+03  0.00000000000E+00 0. -1.
         -2    1    5    5    0  502  0.27262367210E+03  0.65722715920E+02  0.74136796403E+03  0.79263459429E+03  0.00000000000E+00 0.  1.
         -1    1    6    6    0  503 -0.34213465884E+03  0.22125326995E+01  0.95611207244E+03  0.10154857533E+04  0.00000000000E+00 0.  1.
<mgrwt>
<rscale>  0 0.12875775E+04</rscale>
<asrwt>0</asrwt>
<pdfrwt beam="1">  1        2 0.40913726E+00 0.12875775E+04</pdfrwt>
<pdfrwt beam="2">  1       -2 0.23976790E-01 0.12875775E+04</pdfrwt>
<totfact> 0.42904528E+01</totfact>
</mgrwt>
</event>
<event>
12    1  0.4247462E-008  0.1265389E+04  0.7818608E-02  0.9057471E-01
          1   -1    0    0  501    0  0.00000000000E+00  0.00000000000E+00  0.43788312317E+03  0.43788312317E+03  0.00000000000E+00 0. -1.
         -1   -1    0    0    0  501 -0.00000000000E+00 -0.00000000000E+00 -0.91417654638E+03  0.91417654638E+03  0.00000000000E+00 0.  1.
         23    2    1    2    0    0  0.18059017117E+03  0.19714600791E+03 -0.25310023087E+03  0.37961733690E+03  0.92575575902E+02 0.  0.
        254    2    1    2    0    0 -0.18059017117E+03 -0.19714600791E+03 -0.22319319234E+03  0.97244233264E+03  0.90793696414E+03 0.  0.
         23    2    4    4    0    0 -0.10086641828E+03 -0.85819393594E+02  0.34516156806E+03  0.38065070044E+03  0.90661155019E+02 0.  0.
         23    2    4    4    0    0 -0.79723752895E+02 -0.11132661432E+03 -0.56835476040E+03  0.59179163220E+03  0.91873339134E+02 0.  0.
         11    1    3    3    0    0 -0.93063108093E+01  0.16586633315E+02 -0.29749627701E+02  0.35309547915E+02  0.00000000000E+00 0. -1.
        -11    1    3    3    0    0  0.18989648198E+03  0.18055937460E+03 -0.22335060317E+03  0.34430778899E+03  0.00000000000E+00 0.  1.
          2    1    5    5  502    0 -0.83009953233E+02 -0.44363439058E+02  0.30838157346E+03  0.32242512605E+03  0.00000000000E+00 0.  1.
          4    1    6    6  503    0  0.88141461377E+01  0.10769333390E+02 -0.41226566906E+02  0.43512038940E+02  0.00000000000E+00 0. -1.
         -2    1    5    5    0  502 -0.17856465046E+02 -0.41455954535E+02  0.36779994601E+02  0.58225574392E+02  0.00000000000E+00 0. -1.
         -4    1    6    6    0  503 -0.88537899033E+02 -0.12209594771E+03 -0.52712819349E+03  0.54827959326E+03  0.00000000000E+00 0.  1.
<mgrwt>
<rscale>  0 0.12653892E+04</rscale>
<asrwt>0</asrwt>
<pdfrwt beam="1">  1        1 0.67366634E-01 0.12653892E+04</pdfrwt>
<pdfrwt beam="2">  1       -1 0.14064255E+00 0.12653892E+04</pdfrwt>
<totfact> 0.21679396E+01</totfact>
</mgrwt>
</event>
<event>
12    1  0.4247462E-008  0.1392397E+04  0.7818608E-02  0.8959340E-01
          1   -1    0    0  501    0  0.00000000000E+00  0.00000000000E+00  0.81941654400E+03  0.81941654400E+03  0.00000000000E+00 0. -1.
         -1   -1    0    0    0  501 -0.00000000000E+00 -0.00000000000E+00 -0.59150913565E+03  0.59150913565E+03  0.00000000000E+00 0.  1.
         23    2    1    2    0    0 -0.23726845270E+03  0.31760425815E+03  0.11607261262E+03  0.42178773243E+03  0.85224740486E+02 0.  0.
        254    2    1    2    0    0  0.23726845270E+03 -0.31760425815E+03  0.11183479573E+03  0.98913794722E+03  0.89928753670E+03 0.  0.
         23    2    4    4    0    0 -0.26668992751E+02 -0.45036179506E+03 -0.24123125278E+03  0.51976202993E+03  0.91777278313E+02 0.  0.
         23    2    4    4    0    0  0.26393744545E+03  0.13275753691E+03  0.35306604851E+03  0.46937591729E+03  0.91490865150E+02 0.  0.
         11    1    3    3    0    0 -0.24005822140E+03  0.31432029162E+03  0.10397404708E+03  0.40894473692E+03  0.00000000000E+00 0. -1.
        -11    1    3    3    0    0  0.27897687086E+01  0.32839665288E+01  0.12098565540E+02  0.12842995513E+02  0.00000000000E+00 0.  1.
          2    1    5    5  502    0 -0.19021664447E+02 -0.14036053556E+03 -0.12398178124E+03  0.18824023412E+03  0.00000000000E+00 0. -1.
          2    1    6    6  503    0  0.82486218939E+01  0.28967860935E+02  0.17193655467E+02  0.34681385766E+02  0.00000000000E+00 0. -1.
         -2    1    5    5    0  502 -0.76473283047E+01 -0.31000125950E+03 -0.11724947154E+03  0.33152179581E+03  0.00000000000E+00 0.  1.
         -2    1    6    6    0  503  0.25568882355E+03  0.10378967598E+03  0.33587239304E+03  0.43469453152E+03  0.00000000000E+00 0.  1.
<mgrwt>
<rscale>  0 0.13923970E+04</rscale>
<asrwt>0</asrwt>
<pdfrwt beam="1">  1        1 0.12606408E+00 0.13923970E+04</pdfrwt>
<pdfrwt beam="2">  1       -1 0.91001405E-01 0.13923970E+04</pdfrwt>
<totfact> 0.24468157E+01</totfact>
</mgrwt>
</event>
<event>
12    1  0.4247462E-008  0.1232635E+04  0.7818608E-02  0.9084761E-01
          1   -1    0    0  501    0  0.00000000000E+00  0.00000000000E+00  0.67768267701E+03  0.67768267701E+03  0.00000000000E+00 0. -1.
         -1   -1    0    0    0  501 -0.00000000000E+00 -0.00000000000E+00 -0.56050919529E+03  0.56050919529E+03  0.00000000000E+00 0.  1.
         23    2    1    2    0    0 -0.48128088072E+02  0.28543417210E+03 -0.27727564622E+02  0.30420533918E+03  0.89348145389E+02 0.  0.
        254    2    1    2    0    0  0.48128088072E+02 -0.28543417210E+03  0.14490104634E+03  0.93398653312E+03  0.87609677054E+03 0.  0.
         23    2    4    4    0    0  0.89095936868E+02 -0.16922411348E+03 -0.35352956855E+03  0.41210025178E+03  0.90931705841E+02 0.  0.
         23    2    4    4    0    0 -0.40967848796E+02 -0.11621005862E+03  0.49843061490E+03  0.52188628133E+03  0.93536465721E+02 0.  0.
         13    1    3    3    0    0 -0.50389731465E+02  0.64100820416E+02 -0.10121431346E+02  0.82161326594E+02  0.00000000000E+00 0. -1.
        -13    1    3    3    0    0  0.22616433926E+01  0.22133335168E+03 -0.17606133277E+02  0.22204401259E+03  0.00000000000E+00 0.  1.
          1    1    5    5  502    0  0.56699489540E+02 -0.17009813605E+03 -0.30273877339E+03  0.35185078217E+03  0.00000000000E+00 0. -1.
          1    1    6    6  503    0  0.24853972358E+02 -0.69934518822E+02  0.24335065518E+03  0.25441717364E+03  0.00000000000E+00 0. -1.
         -1    1    5    5    0  502  0.32396447328E+02  0.87402256773E+00 -0.50790795160E+02  0.60249469607E+02  0.00000000000E+00 0.  1.
         -1    1    6    6    0  503 -0.65821821153E+02 -0.46275539797E+02  0.25507995972E+03  0.26746910770E+03  0.00000000000E+00 0.  1.
<mgrwt>
<rscale>  0 0.12326352E+04</rscale>
<asrwt>0</asrwt>
<pdfrwt beam="1">  1        1 0.10425887E+00 0.12326352E+04</pdfrwt>
<pdfrwt beam="2">  1       -1 0.86232183E-01 0.12326352E+04</pdfrwt>
<totfact> 0.37509418E+01</totfact>
</mgrwt>
</event>
<event>
12    1  0.4247462E-008  0.1434558E+04  0.7818608E-02  0.8929177E-01
         -3   -1    0    0    0  501 -0.00000000000E+00  0.00000000000E+00  0.78387780492E+03  0.78387780492E+03  0.00000000000E+00 0.  1.
          3   -1    0    0  501    0  0.00000000000E+00 -0.00000000000E+00 -0.65633834591E+03  0.65633834591E+03  0.00000000000E+00 0. -1.
         23    2    1    2    0    0  0.42415337504E+03 -0.49525561772E+02  0.86276786471E+02  0.44479589147E+03  0.89670699544E+02 0.  0.
        254    2    1    2    0    0 -0.42415337504E+03  0.49525561772E+02  0.41262672534E+02  0.99542025936E+03  0.89822047281E+03 0.  0.
         23    2    4    4    0    0 -0.54538790700E+03 -0.18377477236E+02 -0.28991401858E+03  0.62439408619E+03  0.89622184384E+02 0.  0.
         23    2    4    4    0    0  0.12123453196E+03  0.67903039009E+02  0.33117669112E+03  0.37102617317E+03  0.93133162682E+02 0.  0.
         11    1    3    3    0    0  0.11251542355E+03 -0.41999325326E+02 -0.42969613800E+01  0.12017540406E+03  0.00000000000E+00 0. -1.
        -11    1    3    3    0    0  0.31163795149E+03 -0.75262364467E+01  0.90573747851E+02  0.32462048741E+03  0.00000000000E+00 0.  1.
          4    1    5    5  502    0 -0.38861354965E+03 -0.36374858240E+02 -0.16777087269E+03  0.42484195532E+03  0.00000000000E+00 0. -1.
          3    1    6    6  503    0  0.28504419819E+02  0.11433586763E+02  0.10481910524E+02  0.32451491549E+02  0.00000000000E+00 0. -1.
         -4    1    5    5    0  502 -0.15677435735E+03  0.17997381004E+02 -0.12214314589E+03  0.19955213087E+03  0.00000000000E+00 0.  1.
         -3    1    6    6    0  503  0.92730112141E+02  0.56469452246E+02  0.32069478059E+03  0.33857468162E+03  0.00000000000E+00 0.  1.
<mgrwt>
<rscale>  0 0.14345579E+04</rscale>
<asrwt>0</asrwt>
<pdfrwt beam="1">  1        3 0.10097513E+00 0.14345579E+04</pdfrwt>
<pdfrwt beam="2">  1       -3 0.12059658E+00 0.14345579E+04</pdfrwt>
<totfact> 0.12151377E+00</totfact>
</mgrwt>
</event>
<event>
12    1  0.4247462E-008  0.1316921E+04  0.7818608E-02  0.9016253E-01
         -2   -1    0    0    0  501 -0.00000000000E+00  0.00000000000E+00  0.52530990082E+03  0.52530990082E+03  0.00000000000E+00 0.  1.
          2   -1    0    0  501    0  0.00000000000E+00 -0.00000000000E+00 -0.82536096233E+03  0.82536096233E+03  0.00000000000E+00 0. -1.
         23    2    1    2    0    0  0.17472192526E+03 -0.22330633777E+03 -0.30122084371E+03  0.42044115721E+03  0.75121889852E+02 0.  0.
        254    2    1    2    0    0 -0.17472192526E+03  0.22330633777E+03  0.11697821939E+01  0.93022970595E+03  0.88596414475E+03 0.  0.
         23    2    4    4    0    0 -0.34935975219E+03  0.45551299827E+03  0.13706650991E+03  0.59682498785E+03  0.88704621856E+02 0.  0.
         23    2    4    4    0    0  0.17463782693E+03 -0.23220666050E+03 -0.13589672772E+03  0.33340471810E+03  0.90953183947E+02 0.  0.
         11    1    3    3    0    0  0.96158856165E+01 -0.55770072241E+02 -0.76245358681E+02  0.94953256576E+02  0.00000000000E+00 0.  1.
        -11    1    3    3    0    0  0.16510603965E+03 -0.16753626553E+03 -0.22497548502E+03  0.32548790063E+03  0.00000000000E+00 0. -1.
          1    1    5    5  502    0 -0.16584938042E+03  0.16124113501E+03  0.26501089485E+02  0.23282402872E+03  0.00000000000E+00 0. -1.
          3    1    6    6  503    0  0.49311443081E+01 -0.85542084704E+01  0.12434946724E+02  0.15878241929E+02  0.00000000000E+00 0. -1.
         -1    1    5    5    0  502 -0.18351037177E+03  0.29427186325E+03  0.11056542043E+03  0.36400095913E+03  0.00000000000E+00 0.  1.
         -3    1    6    6    0  503  0.16970668262E+03 -0.22365245203E+03 -0.14833167444E+03  0.31752647617E+03  0.00000000000E+00 0.  1.
<mgrwt>
<rscale>  0 0.13169211E+04</rscale>
<asrwt>0</asrwt>
<pdfrwt beam="1">  1        2 0.12697861E+00 0.13169211E+04</pdfrwt>
<pdfrwt beam="2">  1       -2 0.80816908E-01 0.13169211E+04</pdfrwt>
<totfact> 0.43709906E+01</totfact>
</mgrwt>
</event>
<event>
12    1  0.4247462E-008  0.2121841E+04  0.7818608E-02  0.8551683E-01
          1   -1    0    0  501    0  0.00000000000E+00  0.00000000000E+00  0.17712540792E+04  0.17712540792E+04  0.00000000000E+00 0. -1.
         -1   -1    0    0    0  501 -0.00000000000E+00 -0.00000000000E+00 -0.63545503345E+03  0.63545503345E+03  0.00000000000E+00 0.  1.
         23    2    1    2    0    0  0.26170430255E+03 -0.54095007005E+02 -0.46821024402E+03  0.54689012033E+03  0.91937801518E+02 0.  0.
        254    2    1    2    0    0 -0.26170430255E+03  0.54095007005E+02  0.16040092897E+04  0.18598189923E+04  0.90258820662E+03 0.  0.
         23    2    4    4    0    0  0.26050159428E+03  0.25074449833E+03  0.56247699272E+03  0.67475679898E+03  0.90457096849E+02 0.  0.
         23    2    4    4    0    0 -0.52220589683E+03 -0.19664949132E+03  0.10415322970E+04  0.11850621933E+04  0.90624804188E+02 0.  0.
         13    1    3    3    0    0  0.33628757687E+02 -0.10184616785E+02 -0.16188219640E+02  0.38686925670E+02  0.00000000000E+00 0. -1.
        -13    1    3    3    0    0  0.22807554486E+03 -0.43910390219E+02 -0.45202202438E+03  0.50820319466E+03  0.00000000000E+00 0.  1.
          2    1    5    5  502    0  0.21145817916E+03  0.24127229650E+03  0.46093290984E+03  0.56159240554E+03  0.00000000000E+00 0. -1.
          4    1    6    6  503    0 -0.20155503557E+03 -0.11103532516E+03  0.36452011620E+03  0.43107794064E+03  0.00000000000E+00 0. -1.
         -2    1    5    5    0  502  0.49043415122E+02  0.94722018265E+01  0.10154408288E+03  0.11316439344E+03  0.00000000000E+00 0.  1.
         -4    1    6    6    0  503 -0.32065086126E+03 -0.85614166168E+02  0.67701218082E+03  0.75398425265E+03  0.00000000000E+00 0.  1.
<mgrwt>
<rscale>  0 0.21218410E+04</rscale>
<asrwt>0</asrwt>
<pdfrwt beam="1">  1        1 0.27250063E+00 0.21218410E+04</pdfrwt>
<pdfrwt beam="2">  1       -1 0.97762314E-01 0.21218410E+04</pdfrwt>
<totfact> 0.39255609E+00</totfact>
</mgrwt>
</event>
<event>
12    1  0.4247462E-008  0.1625433E+04  0.7818608E-02  0.8805074E-01
         -2   -1    0    0    0  501 -0.00000000000E+00  0.00000000000E+00  0.36036712239E+03  0.36036712239E+03  0.00000000000E+00 0.  1.
          2   -1    0    0  501    0  0.00000000000E+00 -0.00000000000E+00 -0.18328760495E+04  0.18328760495E+04  0.00000000000E+00 0. -1.
         23    2    1    2    0    0  0.30136262076E+03 -0.42045299228E+03 -0.22875705981E+03  0.57238837472E+03  0.87741160220E+02 0.  0.
        254    2    1    2    0    0 -0.30136262076E+03  0.42045299228E+03 -0.12437518673E+04  0.16208547972E+04  0.90147180665E+03 0.  0.
         23    2    4    4    0    0  0.26656973641E+03  0.24171427127E+03 -0.76888392211E+03  0.85380648453E+03  0.91202050639E+02 0.  0.
         23    2    4    4    0    0 -0.56793235717E+03  0.17873872101E+03 -0.47486794522E+03  0.76704831266E+03  0.91481450809E+02 0.  0.
         13    1    3    3    0    0  0.29916362568E+03 -0.41312765552E+03 -0.20904925736E+03  0.55124851627E+03  0.00000000000E+00 0.  1.
        -13    1    3    3    0    0  0.21989950776E+01 -0.73253367554E+01 -0.19707802448E+02  0.21139858449E+02  0.00000000000E+00 0. -1.
          1    1    5    5  502    0  0.85812572989E+02  0.13262647542E+03 -0.28453900479E+03  0.32544742266E+03  0.00000000000E+00 0. -1.
          3    1    6    6  503    0 -0.35677424537E+03  0.66445362786E+02 -0.29827605136E+03  0.46975680007E+03  0.00000000000E+00 0. -1.
         -1    1    5    5    0  502  0.18075716342E+03  0.10908779584E+03 -0.48434491732E+03  0.52835906187E+03  0.00000000000E+00 0.  1.
         -3    1    6    6    0  503 -0.21115811181E+03  0.11229335822E+03 -0.17659189386E+03  0.29729151259E+03  0.00000000000E+00 0.  1.
<mgrwt>
<rscale>  0 0.16254332E+04</rscale>
<asrwt>0</asrwt>
<pdfrwt beam="1">  1        2 0.28198093E+00 0.16254332E+04</pdfrwt>
<pdfrwt beam="2">  1       -2 0.55441095E-01 0.16254332E+04</pdfrwt>
<totfact> 0.24211092E+01</totfact>
</mgrwt>
</event>
<event>
12    1  0.4247462E-008  0.2049992E+04  0.7818608E-02  0.8583598E-01
         -1   -1    0    0    0  501 -0.00000000000E+00  0.00000000000E+00  0.62540521874E+03  0.62540521874E+03  0.00000000000E+00 0.  1.
          1   -1    0    0  501    0  0.00000000000E+00 -0.00000000000E+00 -0.16798980512E+04  0.16798980512E+04  0.00000000000E+00 0. -1.
         23    2    1    2    0    0 -0.13101567462E+03  0.28032412694E+03  0.43303952132E+03  0.53977605686E+03  0.89934650679E+02 0.  0.
        254    2    1    2    0    0  0.13101567462E+03 -0.28032412694E+03 -0.14875323537E+04  0.17655272130E+04  0.89921472042E+03 0.  0.
         23    2    4    4    0    0 -0.24752769033E+02  0.40608487708E+02 -0.13774726188E+04  0.13811629633E+04  0.88986329146E+02 0.  0.
         23    2    4    4    0    0  0.15576844365E+03 -0.32093261465E+03 -0.11005973496E+03  0.38436424977E+03  0.91439488485E+02 0.  0.
         11    1    3    3    0    0 -0.26062079737E+02  0.78139698827E+02  0.57183604299E+02  0.10027466845E+03  0.00000000000E+00 0. -1.
        -11    1    3    3    0    0 -0.10495359488E+03  0.20218442812E+03  0.37585591702E+03  0.43950138841E+03  0.00000000000E+00 0.  1.
          4    1    5    5  502    0  0.32746849255E+02  0.14278383750E+02 -0.37510987796E+03  0.37680717738E+03  0.00000000000E+00 0. -1.
          1    1    6    6  503    0  0.10329929716E+03 -0.28811066377E+03 -0.85574042691E+02  0.31780719965E+03  0.00000000000E+00 0. -1.
         -4    1    5    5    0  502 -0.57499618288E+02  0.26330103958E+02 -0.10023627408E+04  0.10043557859E+04  0.00000000000E+00 0.  1.
         -1    1    6    6    0  503  0.52469146496E+02 -0.32821950884E+02 -0.24485692268E+02  0.66557050112E+02  0.00000000000E+00 0.  1.
<mgrwt>
<rscale>  0 0.20499922E+04</rscale>
<asrwt>0</asrwt>
<pdfrwt beam="1">  1        1 0.25844585E+00 0.20499922E+04</pdfrwt>
<pdfrwt beam="2">  1       -1 0.96216190E-01 0.20499922E+04</pdfrwt>
<totfact> 0.47271393E+00</totfact>
</mgrwt>
</event>
<event>
12    1  0.4247462E-008  0.1672203E+04  0.7818608E-02  0.8777379E-01
         -1   -1    0    0    0  501 -0.00000000000E+00  0.00000000000E+00  0.29747227977E+03  0.29747227977E+03  0.00000000000E+00 0.  1.
          1   -1    0    0  501    0  0.00000000000E+00 -0.00000000000E+00 -0.23500193548E+04  0.23500193548E+04  0.00000000000E+00 0. -1.
         23    2    1    2    0    0 -0.41904042223E+03 -0.30395155654E+03 -0.31652463369E+03  0.61330996335E+03  0.89329968249E+02 0.  0.
        254    2    1    2    0    0  0.41904042223E+03  0.30395155654E+03 -0.17360224414E+04  0.20341816713E+04  0.92527819090E+03 0.  0.
         23    2    4    4    0    0  0.13820317459E+03 -0.32551143032E+03 -0.60749601106E+03  0.70883716642E+03  0.91328617132E+02 0.  0.
         23    2    4    4    0    0  0.28083724764E+03  0.62946298685E+03 -0.11285264303E+04  0.13253445048E+04  0.88729595508E+02 0.  0.
         13    1    3    3    0    0 -0.24254065840E+03 -0.14890751141E+03 -0.21825955545E+03  0.35865952026E+03  0.00000000000E+00 0. -1.
        -13    1    3    3    0    0 -0.17649976383E+03 -0.15504404513E+03 -0.98265078242E+02  0.25465044309E+03  0.00000000000E+00 0.  1.
          4    1    5    5  502    0  0.20042802152E+02 -0.13352410852E+03 -0.17415039888E+03  0.22036052937E+03  0.00000000000E+00 0. -1.
          3    1    6    6  503    0  0.22532693615E+02  0.15350818058E+02 -0.29630641060E+02  0.40265925871E+02  0.00000000000E+00 0. -1.
         -4    1    5    5    0  502  0.11816037244E+03 -0.19198732180E+03 -0.43334561218E+03  0.48847663705E+03  0.00000000000E+00 0.  1.
         -3    1    6    6    0  503  0.25830455403E+03  0.61411216880E+03 -0.10988957893E+04  0.12850785790E+04  0.00000000000E+00 0.  1.
<mgrwt>
<rscale>  0 0.16722029E+04</rscale>
<asrwt>0</asrwt>
<pdfrwt beam="1">  1        1 0.36154145E+00 0.16722029E+04</pdfrwt>
<pdfrwt beam="2">  1       -1 0.45764965E-01 0.16722029E+04</pdfrwt>
<totfact> 0.77923356E+00</totfact>
</mgrwt>
</event>
<event>
12    1  0.4247462E-008  0.2501980E+04  0.7818608E-02  0.8402281E-01
         -1   -1    0    0    0  501 -0.00000000000E+00  0.00000000000E+00  0.67227169156E+03  0.67227169156E+03  0.00000000000E+00 0.  1.
          1   -1    0    0  501    0  0.00000000000E+00 -0.00000000000E+00 -0.23278914120E+04  0.23278914120E+04  0.00000000000E+00 0. -1.
         23    2    1    2    0    0 -0.57347260513E+03  0.14108900931E+03 -0.17829192460E+04  0.18804809149E+04  0.92900462814E+02 0.  0.
        254    2    1    2    0    0  0.57347260513E+03 -0.14108900931E+03  0.12729952565E+03  0.11196821886E+04  0.94271209652E+03 0.  0.
         23    2    4    4    0    0  0.82598622047E+03 -0.12705202378E+03  0.13346736410E+03  0.85118618114E+03  0.91153302326E+02 0.  0.
         23    2    4    4    0    0 -0.25251361535E+03 -0.14036985529E+02 -0.61678384539E+01  0.26849600749E+03  0.89954993807E+02 0.  0.
         11    1    3    3    0    0 -0.68110139097E+02  0.20180603528E+02 -0.13458005069E+03  0.15217765227E+03  0.00000000000E+00 0.  1.
        -11    1    3    3    0    0 -0.50536246603E+03  0.12090840578E+03 -0.16483391954E+04  0.17283032626E+04  0.00000000000E+00 0. -1.
          3    1    6    6  502    0 -0.16931983545E+03 -0.46562573793E+01  0.38355686480E+02  0.17367223755E+03  0.00000000000E+00 0. -1.
          3    1    5    5  503    0  0.79998081715E+03 -0.13279475097E+03  0.14190383518E+03  0.82324993297E+03  0.00000000000E+00 0. -1.
         -3    1    5    5    0  503  0.26005403322E+02  0.57427271872E+01 -0.84364710832E+01  0.27936248171E+02  0.00000000000E+00 0.  1.
         -3    1    6    6    0  502 -0.83193779893E+02 -0.93807281500E+01 -0.44523524934E+02  0.94823769942E+02  0.00000000000E+00 0.  1.
<mgrwt>
<rscale>  0 0.25019796E+04</rscale>
<asrwt>0</asrwt>
<pdfrwt beam="1">  1        1 0.35813713E+00 0.25019796E+04</pdfrwt>
<pdfrwt beam="2">  1       -1 0.10342642E+00 0.25019796E+04</pdfrwt>
<totfact> 0.13945266E+00</totfact>
</mgrwt>
</event>
<event>
12    1  0.4247462E-008  0.1917117E+04  0.7818608E-02  0.8646383E-01
         -2   -1    0    0    0  501 -0.00000000000E+00  0.00000000000E+00  0.57561699403E+03  0.57561699403E+03  0.00000000000E+00 0.  1.
          2   -1    0    0  501    0  0.00000000000E+00 -0.00000000000E+00 -0.15962606772E+04  0.15962606772E+04  0.00000000000E+00 0. -1.
         23    2    1    2    0    0  0.47484237761E+02  0.30913271339E+01  0.44111452211E+03  0.45271072307E+03  0.90003711197E+02 0.  0.
        254    2    1    2    0    0 -0.47484237761E+02 -0.30913271339E+01 -0.14617582053E+04  0.17191669482E+04  0.90362250737E+03 0.  0.
         23    2    4    4    0    0  0.65634808986E+02  0.40021179253E+03 -0.10314625711E+04  0.11121450528E+04  0.92055287043E+02 0.  0.
         23    2    4    4    0    0 -0.11311904675E+03 -0.40330311966E+03 -0.43029563424E+03  0.60702189541E+03  0.88723861519E+02 0.  0.
         13    1    3    3    0    0  0.32140598407E+02  0.40968392777E+02  0.33456279419E+03  0.33859074194E+03  0.00000000000E+00 0.  1.
        -13    1    3    3    0    0  0.15343639354E+02 -0.37877065643E+02  0.10655172792E+03  0.11411998113E+03  0.00000000000E+00 0. -1.
          3    1    6    6  502    0 -0.11269765552E+03 -0.40620561784E+03 -0.43202785082E+03  0.60361563052E+03  0.00000000000E+00 0. -1.
          3    1    5    5  503    0  0.41887800979E+02  0.30005423137E+03 -0.86398403097E+03  0.91556296092E+03  0.00000000000E+00 0. -1.
         -3    1    5    5    0  503  0.23747008007E+02  0.10015756116E+03 -0.16747854011E+03  0.19658209187E+03  0.00000000000E+00 0.  1.
         -3    1    6    6    0  502 -0.42139122663E+00  0.29024981806E+01  0.17322165794E+01  0.34062648946E+01  0.00000000000E+00 0.  1.
<mgrwt>
<rscale>  0 0.19171174E+04</rscale>
<asrwt>0</asrwt>
<pdfrwt beam="1">  1        2 0.24557856E+00 0.19171174E+04</pdfrwt>
<pdfrwt beam="2">  1       -2 0.88556463E-01 0.19171174E+04</pdfrwt>
<totfact> 0.11496776E+01</totfact>
</mgrwt>
</event>
<event>
12    1  0.4247462E-008  0.1074812E+04  0.7818608E-02  0.9230096E-01
         -2   -1    0    0    0  501 -0.00000000000E+00  0.00000000000E+00  0.69235948344E+03  0.69235948344E+03  0.00000000000E+00 0.  1.
          2   -1    0    0  501    0  0.00000000000E+00 -0.00000000000E+00 -0.41713183629E+03  0.41713183629E+03  0.00000000000E+00 0. -1.
         23    2    1    2    0    0 -0.73661770109E+02  0.77838557150E+02  0.59857564433E+02  0.15337289389E+03  0.91953353430E+02 0.  0.
        254    2    1    2    0    0  0.73661770109E+02 -0.77838557150E+02  0.21537008272E+03  0.95611842584E+03  0.92536115887E+03 0.  0.
         23    2    4    4    0    0  0.52268826736E+02 -0.19350491181E+03  0.54843232003E+03  0.59114421039E+03  0.92180728368E+02 0.  0.
         23    2    4    4    0    0  0.21392943373E+02  0.11566635466E+03 -0.33306223732E+03  0.36497421544E+03  0.91865991462E+02 0.  0.
         11    1    3    3    0    0 -0.59681229549E+02  0.92660229863E+01 -0.13328913883E+01  0.60410967067E+02  0.00000000000E+00 0. -1.
        -11    1    3    3    0    0 -0.13980540560E+02  0.68572534164E+02  0.61190455821E+02  0.92961926828E+02  0.00000000000E+00 0.  1.
          1    1    5    5  502    0 -0.11402976920E+02  0.27636906286E+01  0.14023754642E+02  0.18284735787E+02  0.00000000000E+00 0. -1.
          3    1    6    6  503    0  0.92483487580E+01 -0.13980939675E+01  0.22387275166E+01  0.96176152130E+01  0.00000000000E+00 0. -1.
         -1    1    5    5    0  502  0.63671803656E+02 -0.19626860244E+03  0.53440856539E+03  0.57285947461E+03  0.00000000000E+00 0.  1.
         -3    1    6    6    0  503  0.12144594615E+02  0.11706444862E+03 -0.33530096483E+03  0.35535660023E+03  0.00000000000E+00 0.  1.
<mgrwt>
<rscale>  0 0.10748120E+04</rscale>
<asrwt>0</asrwt>
<pdfrwt beam="1">  1        2 0.64174129E-01 0.10748120E+04</pdfrwt>
<pdfrwt beam="2">  1       -2 0.10651684E+00 0.10748120E+04</pdfrwt>
<totfact> 0.53548092E+01</totfact>
</mgrwt>
</event>
<event>
12    1  0.4247462E-008  0.3153916E+04  0.7818608E-02  0.8201095E-01
         -2   -1    0    0    0  501 -0.00000000000E+00  0.00000000000E+00  0.21469596913E+04  0.21469596913E+04  0.00000000000E+00 0.  1.
          2   -1    0    0  501    0  0.00000000000E+00 -0.00000000000E+00 -0.11582871583E+04  0.11582871583E+04  0.00000000000E+00 0. -1.
         23    2    1    2    0    0 -0.65197542491E+03 -0.51817109655E+02  0.18019355784E+04  0.19192877999E+04  0.94534981344E+02 0.  0.
        254    2    1    2    0    0  0.65197542491E+03  0.51817109655E+02 -0.81326304547E+03  0.13859590497E+04  0.91199163300E+03 0.  0.
         23    2    4    4    0    0  0.15204948117E+03 -0.36537387138E+03 -0.53513169598E+03  0.67171146851E+03  0.90627006364E+02 0.  0.
         23    2    4    4    0    0  0.49992594374E+03  0.41719098103E+03 -0.27813134949E+03  0.71424758115E+03  0.93905781072E+02 0.  0.
         13    1    3    3    0    0 -0.48449534765E+03 -0.62851609969E+01  0.12462682762E+04  0.13371461630E+04  0.00000000000E+00 0.  1.
        -13    1    3    3    0    0 -0.16748007726E+03 -0.45531948658E+02  0.55566730226E+03  0.58214163692E+03  0.00000000000E+00 0. -1.
          2    1    5    5  502    0  0.80659725352E+02 -0.13616350751E+03 -0.15105972177E+03  0.21878192708E+03  0.00000000000E+00 0.  1.
          1    1    6    6  503    0  0.38291073665E+03  0.34561429470E+03 -0.18301071749E+03  0.54732330086E+03  0.00000000000E+00 0. -1.
         -2    1    5    5    0  502  0.71389755818E+02 -0.22921036386E+03 -0.38407197420E+03  0.45292954144E+03  0.00000000000E+00 0. -1.
         -1    1    6    6    0  503  0.11701520709E+03  0.71576686330E+02 -0.95120632005E+02  0.16692428029E+03  0.00000000000E+00 0.  1.
<mgrwt>
<rscale>  0 0.31539156E+04</rscale>
<asrwt>0</asrwt>
<pdfrwt beam="1">  1        2 0.17819802E+00 0.31539156E+04</pdfrwt>
<pdfrwt beam="2">  1       -2 0.33030149E+00 0.31539156E+04</pdfrwt>
<totfact> 0.35053233E-01</totfact>
</mgrwt>
</event>
<event>
12    1  0.4247462E-008  0.1275870E+04  0.7818608E-02  0.9048923E-01
         -1   -1    0    0    0  501 -0.00000000000E+00  0.00000000000E+00  0.30734056851E+03  0.30734056851E+03  0.00000000000E+00 0.  1.
          1   -1    0    0  501    0  0.00000000000E+00 -0.00000000000E+00 -0.13241361149E+04  0.13241361149E+04  0.00000000000E+00 0. -1.
         23    2    1    2    0    0 -0.14654849554E+03 -0.78584244833E+02 -0.60413958067E+03  0.63003024900E+03  0.65586101013E+02 0.  0.
        254    2    1    2    0    0  0.14654849554E+03  0.78584244833E+02 -0.41265596568E+03  0.10014464344E+04  0.89719455517E+03 0.  0.
         23    2    4    4    0    0  0.11471813428E+03 -0.11752206489E+03  0.24456626077E+03  0.30849981403E+03  0.91584896552E+02 0.  0.
         23    2    4    4    0    0  0.31830361259E+02  0.19610630972E+03 -0.65722222645E+03  0.69294662034E+03  0.93611468824E+02 0.  0.
         13    1    3    3    0    0 -0.14556368025E+03 -0.85130563261E+02 -0.54423819702E+03  0.56976417306E+03  0.00000000000E+00 0. -1.
        -13    1    3    3    0    0 -0.98481528631E+00  0.65463184279E+01 -0.59901383652E+02  0.60266075943E+02  0.00000000000E+00 0.  1.
          2    1    5    5  502    0  0.11772719758E+03 -0.87502807697E+02  0.23468106799E+03  0.27675194322E+03  0.00000000000E+00 0. -1.
          3    1    6    6  503    0  0.49396356438E+02  0.13820019364E+03 -0.55574422424E+03  0.57479643034E+03  0.00000000000E+00 0. -1.
         -2    1    5    5    0  502 -0.30090632982E+01 -0.30019257190E+02  0.98851927854E+01  0.31747870804E+02  0.00000000000E+00 0.  1.
         -3    1    6    6    0  503 -0.17565995180E+02  0.57906116079E+02 -0.10147800221E+03  0.11815019001E+03  0.00000000000E+00 0.  1.
<mgrwt>
<rscale>  0 0.12758695E+04</rscale>
<asrwt>0</asrwt>
<pdfrwt beam="1">  1        1 0.20371324E+00 0.12758695E+04</pdfrwt>
<pdfrwt beam="2">  1       -1 0.47283165E-01 0.12758695E+04</pdfrwt>
<totfact> 0.38177016E+01</totfact>
</mgrwt>
</event>
<event>
12    1  0.4247462E-008  0.2716007E+04  0.7818608E-02  0.8329830E-01
         -1   -1    0    0    0  501 -0.00000000000E+00  0.00000000000E+00  0.89923273535E+03  0.89923273535E+03  0.00000000000E+00 0.  1.
          1   -1    0    0  501    0  0.00000000000E+00 -0.00000000000E+00 -0.20508302807E+04  0.20508302807E+04  0.00000000000E+00 0. -1.
         23    2    1    2    0    0 -0.48921471795E+03 -0.33597665605E+03  0.63482273848E+03  0.87394505793E+03  0.92567279915E+02 0.  0.
        254    2    1    2    0    0  0.48921471795E+03  0.33597665605E+03 -0.17864202838E+04  0.20761179581E+04  0.87564661356E+03 0.  0.
         23    2    4    4    0    0  0.52090949488E+03  0.57317120840E+03 -0.15119851449E+04  0.17013824902E+04  0.93441766233E+02 0.  0.
         23    2    4    4    0    0 -0.31694776928E+02 -0.23719455236E+03 -0.27443513891E+03  0.37473546786E+03  0.88578839756E+02 0.  0.
         13    1    3    3    0    0 -0.23447513947E+03 -0.12673979676E+03  0.23145479589E+03  0.35300550938E+03  0.00000000000E+00 0. -1.
        -13    1    3    3    0    0 -0.25473957849E+03 -0.20923685929E+03  0.40336794259E+03  0.52093954855E+03  0.00000000000E+00 0.  1.
          4    1    5    5  502    0  0.51116533966E+03  0.53412605157E+03 -0.14184140704E+04  0.15995246540E+04  0.00000000000E+00 0.  1.
          4    1    6    6  503    0 -0.28852428994E+02 -0.19989608104E+03 -0.26983256587E+03  0.33704676156E+03  0.00000000000E+00 0. -1.
         -4    1    5    5    0  502  0.97441552236E+01  0.39045156834E+02 -0.93571074425E+02  0.10185783623E+03  0.00000000000E+00 0. -1.
         -4    1    6    6    0  503 -0.28423479348E+01 -0.37298471317E+02 -0.46025730451E+01  0.37688706305E+02  0.00000000000E+00 0.  1.
<mgrwt>
<rscale>  0 0.27160072E+04</rscale>
<asrwt>0</asrwt>
<pdfrwt beam="1">  1        1 0.31551235E+00 0.27160072E+04</pdfrwt>
<pdfrwt beam="2">  1       -1 0.13834350E+00 0.27160072E+04</pdfrwt>
<totfact> 0.10375573E+00</totfact>
</mgrwt>
</event>
<event>
12    1  0.4247462E-008  0.1533062E+04  0.7818608E-02  0.8862760E-01
         -2   -1    0    0    0  501 -0.00000000000E+00  0.00000000000E+00  0.42028060959E+03  0.42028060959E+03  0.00000000000E+00 0. -1.
          2   -1    0    0  501    0  0.00000000000E+00 -0.00000000000E+00 -0.13980423694E+04  0.13980423694E+04  0.00000000000E+00 0.  1.
         23    2    1    2    0    0  0.19593248905E+03  0.44206910615E+03 -0.16188084115E+03  0.51775545155E+03  0.89725503653E+02 0.  0.
        254    2    1    2    0    0 -0.19593248905E+03 -0.44206910615E+03 -0.81588091864E+03  0.13005675274E+04  0.88994358536E+03 0.  0.
         23    2    4    4    0    0  0.61746631744E+02  0.25712394363E+02  0.15372247807E+03  0.18968430127E+03  0.88745479480E+02 0.  0.
         23    2    4    4    0    0 -0.25767912079E+03 -0.46778150051E+03 -0.96960339671E+03  0.11108832262E+04  0.93342025534E+02 0.  0.
         13    1    3    3    0    0  0.18789937805E+03  0.37922348729E+03 -0.11390006688E+03  0.43828056633E+03  0.00000000000E+00 0. -1.
        -13    1    3    3    0    0  0.80331109988E+01  0.62845618856E+02 -0.47980774275E+02  0.79474885226E+02  0.00000000000E+00 0.  1.
          2    1    6    6  502    0 -0.24625535962E+03 -0.37726248260E+03 -0.82174610680E+03  0.93714211673E+03  0.00000000000E+00 0. -1.
          2    1    5    5  503    0  0.49141736287E+02  0.36614246193E+02  0.16041748056E+03  0.17172443431E+03  0.00000000000E+00 0. -1.
         -2    1    5    5    0  503  0.12604895456E+02 -0.10901851830E+02 -0.66950024913E+01  0.17959866958E+02  0.00000000000E+00 0.  1.
         -2    1    6    6    0  502 -0.11423761172E+02 -0.90519017917E+02 -0.14785728991E+03  0.17374110943E+03  0.00000000000E+00 0.  1.
<mgrwt>
<rscale>  0 0.15330624E+04</rscale>
<asrwt>0</asrwt>
<pdfrwt beam="1">  1        2 0.21508344E+00 0.15330624E+04</pdfrwt>
<pdfrwt beam="2">  1       -2 0.64658556E-01 0.15330624E+04</pdfrwt>
<totfact> 0.30872476E+01</totfact>
</mgrwt>
</event>
<event>
12    1  0.6188420E-008  0.1909809E+04  0.7818608E-02  0.8649989E-01
          2   -1    0    0  501    0  0.00000000000E+00  0.00000000000E+00  0.10070701023E+04  0.10070701023E+04  0.00000000000E+00 0. -1.
         -2   -1    0    0    0  501 -0.00000000000E+00 -0.00000000000E+00 -0.90544077478E+03  0.90544077478E+03  0.00000000000E+00 0.  1.
         23    2    1    2    0    0 -0.34011461451E+03 -0.10012931379E+03 -0.60138857819E+03  0.70345553740E+03  0.86473352253E+02 0.  0.
        254    2    1    2    0    0  0.34011461451E+03  0.10012931379E+03  0.70301790569E+03  0.12090553397E+04  0.91753845051E+03 0.  0.
         23    2    4    4    0    0  0.93991664588E+01 -0.35445218399E+03  0.46733788188E+03  0.59278769070E+03  0.85251717463E+02 0.  0.
         23    2    4    4    0    0  0.33071544805E+03  0.45458149779E+03  0.23568002380E+03  0.61626764896E+03  0.90684595327E+02 0.  0.
         11    1    3    3    0    0 -0.21771404607E+01  0.10088464261E+01 -0.42428914275E+02  0.42496711381E+02  0.00000000000E+00 0. -1.
        -11    1    3    3    0    0 -0.33793747405E+03 -0.10113816022E+03 -0.55895966391E+03  0.66095882602E+03  0.00000000000E+00 0.  1.
          1    1    5    5  502    0  0.71606031877E+01 -0.27234995840E+03  0.41133677715E+03  0.49337989249E+03  0.00000000000E+00 0. -1.
          3    1    6    6  503    0  0.21242021964E+03  0.32509207687E+03  0.12115787672E+03  0.40680024489E+03  0.00000000000E+00 0. -1.
         -1    1    5    5    0  502  0.22385632710E+01 -0.82102225594E+02  0.56001104738E+02  0.99407798210E+02  0.00000000000E+00 0.  1.
         -3    1    6    6    0  503  0.11829522841E+03  0.12948942092E+03  0.11452214709E+03  0.20946740407E+03  0.00000000000E+00 0.  1.
<mgrwt>
<rscale>  0 0.19098087E+04</rscale>
<asrwt>0</asrwt>
<pdfrwt beam="1">  1        2 0.15493386E+00 0.19098087E+04</pdfrwt>
<pdfrwt beam="2">  1       -2 0.13929858E+00 0.19098087E+04</pdfrwt>
<totfact> 0.84877841E+00</totfact>
</mgrwt>
</event>
<event>
12    1  0.4247462E-008  0.2310356E+04  0.7818608E-02  0.8473849E-01
          2   -1    0    0  501    0  0.00000000000E+00  0.00000000000E+00  0.13096681580E+04  0.13096681580E+04  0.00000000000E+00 0. -1.
         -2   -1    0    0    0  501 -0.00000000000E+00 -0.00000000000E+00 -0.10189114366E+04  0.10189114366E+04  0.00000000000E+00 0.  1.
         23    2    1    2    0    0 -0.14403626983E+03  0.97178360158E+03  0.17942940463E+03  0.10023864561E+04  0.86451610150E+02 0.  0.
        254    2    1    2    0    0  0.14403626983E+03 -0.97178360158E+03  0.11132731677E+03  0.13261931385E+04  0.88390307947E+03 0.  0.
         23    2    4    4    0    0  0.22532960942E+03 -0.88798502609E+03 -0.23433018662E+03  0.95011791706E+03  0.92317823343E+02 0.  0.
         23    2    4    4    0    0 -0.81293339588E+02 -0.83798575482E+02  0.34565750339E+03  0.37607522147E+03  0.91228582360E+02 0.  0.
         13    1    3    3    0    0 -0.12696296579E+03  0.68283536048E+03  0.15702946455E+03  0.71206880071E+03  0.00000000000E+00 0. -1.
        -13    1    3    3    0    0 -0.17073304045E+02  0.28894824109E+03  0.22399940082E+02  0.29031765543E+03  0.00000000000E+00 0.  1.
          2    1    5    5  502    0  0.37510229565E+02 -0.57531171435E+02 -0.27107695895E+02  0.73835494076E+02  0.00000000000E+00 0. -1.
          2    1    6    6  503    0 -0.13680652057E+01  0.20023822135E+01 -0.54174157610E+01  0.59354469473E+01  0.00000000000E+00 0. -1.
         -2    1    5    5    0  502  0.18781937986E+03 -0.83045385466E+03 -0.20722249072E+03  0.87628242298E+03  0.00000000000E+00 0.  1.
         -2    1    6    6    0  503 -0.79925274382E+02 -0.85800957696E+02  0.35107491915E+03  0.37013977452E+03  0.00000000000E+00 0.  1.
<mgrwt>
<rscale>  0 0.23103557E+04</rscale>
<asrwt>0</asrwt>
<pdfrwt beam="1">  1        2 0.20148741E+00 0.23103557E+04</pdfrwt>
<pdfrwt beam="2">  1       -2 0.15675560E+00 0.23103557E+04</pdfrwt>
<totfact> 0.39368988E+00</totfact>
</mgrwt>
</event>
<event>
12    1  0.4247462E-008  0.2577050E+04  0.7818608E-02  0.8376039E-01
         -1   -1    0    0    0  501 -0.00000000000E+00  0.00000000000E+00  0.20393046868E+04  0.20393046868E+04  0.00000000000E+00 0.  1.
          1   -1    0    0  501    0  0.00000000000E+00 -0.00000000000E+00 -0.81414860622E+03  0.81414860622E+03  0.00000000000E+00 0. -1.
         23    2    1    2    0    0 -0.11963512907E+03 -0.46954514306E+03 -0.59204567416E+03  0.77031398027E+03  0.89890724903E+02 0.  0.
        254    2    1    2    0    0  0.11963512907E+03  0.46954514306E+03  0.18172017547E+04  0.20831393127E+04  0.89580241872E+03 0.  0.
         23    2    4    4    0    0  0.14471761474E+03  0.89865275040E+02 -0.29650306758E+02  0.19508769095E+03  0.90338866470E+02 0.  0.
         23    2    4    4    0    0 -0.25082485666E+02  0.37967986802E+03  0.18468520615E+04  0.18880516218E+04  0.95343884119E+02 0.  0.
         13    1    3    3    0    0 -0.13307076235E+03 -0.44527827868E+03 -0.55173760837E+03  0.72138405980E+03  0.00000000000E+00 0. -1.
        -13    1    3    3    0    0  0.13435633276E+02 -0.24266864386E+02 -0.40308065794E+02  0.48929920465E+02  0.00000000000E+00 0.  1.
          1    1    5    5  502    0  0.33455376104E+02  0.18664408549E+02 -0.48338192228E+02  0.61678222775E+02  0.00000000000E+00 0. -1.
          3    1    6    6  503    0  0.22207778341E+02  0.25845952061E+03  0.11204892109E+04  0.11501263327E+04  0.00000000000E+00 0. -1.
         -1    1    5    5    0  502  0.11126223863E+03  0.71200866491E+02  0.18687885470E+02  0.13340946817E+03  0.00000000000E+00 0.  1.
         -3    1    6    6    0  503 -0.47290264007E+02  0.12122034741E+03  0.72636285053E+03  0.73792528912E+03  0.00000000000E+00 0.  1.
<mgrwt>
<rscale>  0 0.25770503E+04</rscale>
<asrwt>0</asrwt>
<pdfrwt beam="1">  1        1 0.12525363E+00 0.25770503E+04</pdfrwt>
<pdfrwt beam="2">  1       -1 0.31373918E+00 0.25770503E+04</pdfrwt>
<totfact> 0.51000172E-01</totfact>
</mgrwt>
</event>
<event>
12    1  0.4247462E-008  0.1694864E+04  0.7818608E-02  0.8764299E-01
         -2   -1    0    0    0  501 -0.00000000000E+00  0.00000000000E+00  0.27518543073E+03  0.27518543073E+03  0.00000000000E+00 0. -1.
          2   -1    0    0  501    0  0.00000000000E+00 -0.00000000000E+00 -0.26096616246E+04  0.26096616246E+04  0.00000000000E+00 0.  1.
         23    2    1    2    0    0 -0.12721224219E+03 -0.12430318358E+03 -0.18538727591E+04  0.18646817016E+04  0.92517054859E+02 0.  0.
        254    2    1    2    0    0  0.12721224219E+03  0.12430318358E+03 -0.48060343480E+03  0.10201653537E+04  0.88211306045E+03 0.  0.
         23    2    4    4    0    0 -0.14971503001E+01 -0.19865156431E+03 -0.60145878501E+03  0.63994540125E+03  0.91174344319E+02 0.  0.
         23    2    4    4    0    0  0.12870939249E+03  0.32295474789E+03  0.12085535021E+03  0.38021995248E+03  0.95369385506E+02 0.  0.
         11    1    3    3    0    0  0.14077031840E+02 -0.16916574891E+02 -0.27077460820E+03  0.27166748385E+03  0.00000000000E+00 0. -1.
        -11    1    3    3    0    0 -0.14128927403E+03 -0.10738660869E+03 -0.15830981509E+04  0.15930142178E+04  0.00000000000E+00 0.  1.
          1    1    5    5  502    0 -0.32740272243E+02 -0.35512694152E+02 -0.19417683818E+03  0.20009428117E+03  0.00000000000E+00 0. -1.
          1    1    6    6  503    0  0.11436915343E+03  0.18534236958E+03  0.10231694610E+03  0.24062596427E+03  0.00000000000E+00 0. -1.
         -1    1    5    5    0  502  0.31243121943E+02 -0.16313887016E+03 -0.40728194682E+03  0.43985112008E+03  0.00000000000E+00 0.  1.
         -1    1    6    6    0  503  0.14340239062E+02  0.13761237831E+03  0.18538404104E+02  0.13959398822E+03  0.00000000000E+00 0.  1.
<mgrwt>
<rscale>  0 0.16948638E+04</rscale>
<asrwt>0</asrwt>
<pdfrwt beam="1">  1        2 0.40148639E+00 0.16948638E+04</pdfrwt>
<pdfrwt beam="2">  1       -2 0.42336221E-01 0.16948638E+04</pdfrwt>
<totfact> 0.15154660E+01</totfact>
</mgrwt>
</event>
<event>
12    1  0.4247462E-008  0.1682225E+04  0.7818608E-02  0.8771567E-01
         -3   -1    0    0    0  501 -0.00000000000E+00  0.00000000000E+00  0.30893572591E+03  0.30893572591E+03  0.00000000000E+00 0.  1.
          3   -1    0    0  501    0  0.00000000000E+00 -0.00000000000E+00 -0.22900249816E+04  0.22900249816E+04  0.00000000000E+00 0. -1.
         23    2    1    2    0    0 -0.31605284101E+03  0.34150347966E+03 -0.13448866986E+04  0.14260481283E+04  0.91536917249E+02 0.  0.
        254    2    1    2    0    0  0.31605284101E+03 -0.34150347966E+03 -0.63620255712E+03  0.11729125792E+04  0.86859438170E+03 0.  0.
         23    2    4    4    0    0  0.43361664440E+03 -0.22668691031E+01 -0.66790419365E+03  0.80160359353E+03  0.91890022672E+02 0.  0.
         23    2    4    4    0    0 -0.11756380339E+03 -0.33923661056E+03  0.31701636531E+02  0.37130898571E+03  0.89233644460E+02 0.  0.
         13    1    3    3    0    0 -0.99242431986E+02  0.62126308317E+02 -0.41453647020E+03  0.43075424968E+03  0.00000000000E+00 0.  1.
        -13    1    3    3    0    0 -0.21681040903E+03  0.27937717134E+03 -0.93035022836E+03  0.99529387858E+03  0.00000000000E+00 0. -1.
          4    1    5    5  502    0  0.30601071997E+03 -0.31691648932E+02 -0.51878248667E+03  0.60314358972E+03  0.00000000000E+00 0. -1.
          3    1    6    6  503    0 -0.99390710579E+02 -0.29242335865E+03  0.58568236491E+02  0.31435675968E+03  0.00000000000E+00 0. -1.
         -4    1    5    5    0  502  0.12760592443E+03  0.29424779829E+02 -0.14912170698E+03  0.19846000380E+03  0.00000000000E+00 0.  1.
         -3    1    6    6    0  503 -0.18173092808E+02 -0.46813251910E+02 -0.26866599959E+02  0.56952226031E+02  0.00000000000E+00 0.  1.
<mgrwt>
<rscale>  0 0.16822253E+04</rscale>
<asrwt>0</asrwt>
<pdfrwt beam="1">  1        3 0.35231153E+00 0.16822253E+04</pdfrwt>
<pdfrwt beam="2">  1       -3 0.47528574E-01 0.16822253E+04</pdfrwt>
<totfact> 0.22106090E-01</totfact>
</mgrwt>
</event>
<event>
12    1  0.4247462E-008  0.1530147E+04  0.7818608E-02  0.8864649E-01
         -1   -1    0    0    0  501 -0.00000000000E+00  0.00000000000E+00  0.22610692463E+04  0.22610692463E+04  0.00000000000E+00 0.  1.
          1   -1    0    0  501    0  0.00000000000E+00 -0.00000000000E+00 -0.25887647168E+03  0.25887647168E+03  0.00000000000E+00 0. -1.
         23    2    1    2    0    0  0.42019697122E+03  0.24661855758E+03  0.64138904949E+03  0.81011149193E+03  0.86686267601E+02 0.  0.
        254    2    1    2    0    0 -0.42019697122E+03 -0.24661855758E+03  0.13608037251E+04  0.17098342260E+04  0.91343313638E+03 0.  0.
         23    2    4    4    0    0  0.12116614118E+03 -0.30874414603E+03  0.14351994077E+03  0.37299075376E+03  0.92303561791E+02 0.  0.
         23    2    4    4    0    0 -0.54136311240E+03  0.62125588449E+02  0.12172837843E+04  0.13368434722E+04  0.91853413170E+02 0.  0.
         11    1    3    3    0    0  0.22749502787E+03  0.17912991804E+03  0.34880093999E+03  0.45332506106E+03  0.00000000000E+00 0. -1.
        -11    1    3    3    0    0  0.19270194335E+03  0.67488639539E+02  0.29258810950E+03  0.35678643088E+03  0.00000000000E+00 0.  1.
          4    1    5    5  502    0  0.12909569501E+03 -0.29142489947E+03  0.15078386452E+03  0.35260451543E+03  0.00000000000E+00 0. -1.
          1    1    6    6  503    0 -0.39535919469E+03  0.73614870875E+02  0.95934979587E+03  0.10402307787E+04  0.00000000000E+00 0. -1.
         -4    1    5    5    0  502 -0.79295538245E+01 -0.17319246557E+02 -0.72639237521E+01  0.20386238335E+02  0.00000000000E+00 0.  1.
         -1    1    6    6    0  503 -0.14600391771E+03 -0.11489282426E+02  0.25793398844E+03  0.29661269358E+03  0.00000000000E+00 0.  1.
<mgrwt>
<rscale>  0 0.15301472E+04</rscale>
<asrwt>0</asrwt>
<pdfrwt beam="1">  1        1 0.39827151E-01 0.15301472E+04</pdfrwt>
<pdfrwt beam="2">  1       -1 0.34785679E+00 0.15301472E+04</pdfrwt>
<totfact> 0.16539272E+00</totfact>
</mgrwt>
</event>
<event>
12    1  0.4247462E-008  0.1457760E+04  0.7818608E-02  0.8913038E-01
         -1   -1    0    0    0  501 -0.00000000000E+00  0.00000000000E+00  0.60847326843E+03  0.60847326843E+03  0.00000000000E+00 0.  1.
          1   -1    0    0  501    0  0.00000000000E+00 -0.00000000000E+00 -0.87311347718E+03  0.87311347718E+03  0.00000000000E+00 0. -1.
         23    2    1    2    0    0  0.18800109311E+03 -0.91998681778E+02  0.31224729006E+03  0.38663823714E+03  0.90457657560E+02 0.  0.
        254    2    1    2    0    0 -0.18800109311E+03  0.91998681778E+02 -0.57688749881E+03  0.10949485085E+04  0.90681027864E+03 0.  0.
         23    2    4    4    0    0 -0.20194752988E+03  0.47369882173E+03 -0.43004622010E+03  0.67584321861E+03  0.81553210767E+02 0.  0.
         23    2    4    4    0    0  0.13946436776E+02 -0.38170013995E+03 -0.14684127871E+03  0.41910528986E+03  0.90539399801E+02 0.  0.
         13    1    3    3    0    0 -0.18167828107E+00 -0.24642686867E+02  0.59564205012E+02  0.64460759705E+02  0.00000000000E+00 0. -1.
        -13    1    3    3    0    0  0.18818277139E+03 -0.67355994912E+02  0.25268308505E+03  0.32217747743E+03  0.00000000000E+00 0.  1.
          1    1    5    5  502    0 -0.28032696665E+02  0.15252050136E+03 -0.14813947671E+03  0.21446127851E+03  0.00000000000E+00 0. -1.
          3    1    6    6  503    0 -0.10040581858E+02 -0.25739471489E+02  0.10002176624E+02  0.29383281196E+02  0.00000000000E+00 0. -1.
         -1    1    5    5    0  502 -0.17391483322E+03  0.32117832037E+03 -0.28190674339E+03  0.46138194010E+03  0.00000000000E+00 0.  1.
         -3    1    6    6    0  503  0.23987018635E+02 -0.35596066846E+03 -0.15684345534E+03  0.38972200866E+03  0.00000000000E+00 0.  1.
<mgrwt>
<rscale>  0 0.14577602E+04</rscale>
<asrwt>0</asrwt>
<pdfrwt beam="1">  1        1 0.13432515E+00 0.14577602E+04</pdfrwt>
<pdfrwt beam="2">  1       -1 0.93611272E-01 0.14577602E+04</pdfrwt>
<totfact> 0.20581860E+01</totfact>
</mgrwt>
</event>
<event>
12    1  0.4247462E-008  0.1678727E+04  0.7818608E-02  0.8773591E-01
          1   -1    0    0  501    0  0.00000000000E+00  0.00000000000E+00  0.46931059283E+03  0.46931059283E+03  0.00000000000E+00 0. -1.
         -1   -1    0    0    0  501 -0.00000000000E+00 -0.00000000000E+00 -0.15012047750E+04  0.15012047750E+04  0.00000000000E+00 0.  1.
         23    2    1    2    0    0 -0.16552280018E+03  0.51513179747E+03 -0.92840951105E+02  0.55923138254E+03  0.10659142025E+03 0.  0.
        254    2    1    2    0    0  0.16552280018E+03 -0.51513179747E+03 -0.93905323106E+03  0.14112839853E+04  0.90395959544E+03 0.  0.
         23    2    4    4    0    0 -0.15621102132E+03  0.17213024905E+03 -0.81888032189E+02  0.26289755493E+03  0.91535614661E+02 0.  0.
         23    2    4    4    0    0  0.32173382150E+03 -0.68726204653E+03 -0.85716519887E+03  0.11483864303E+04  0.90650111701E+02 0.  0.
         11    1    3    3    0    0 -0.46422819390E+02  0.47206782916E+02  0.56332519377E+01  0.66447663922E+02  0.00000000000E+00 0.  1.
        -11    1    3    3    0    0 -0.11909998079E+03  0.46792501456E+03 -0.98474203043E+02  0.49278371862E+03  0.00000000000E+00 0. -1.
          2    1    5    5  502    0 -0.21464847380E+02  0.69635892406E+02 -0.55407343249E+02  0.91541634626E+02  0.00000000000E+00 0. -1.
          1    1    6    6  503    0  0.14535145113E+03 -0.38150208919E+03 -0.40878494050E+03  0.57773351641E+03  0.00000000000E+00 0. -1.
         -2    1    5    5    0  502 -0.13474617394E+03  0.10249435665E+03 -0.26480688940E+02  0.17135592030E+03  0.00000000000E+00 0.  1.
         -1    1    6    6    0  503  0.17638237037E+03 -0.30575995734E+03 -0.44838025837E+03  0.57065291394E+03  0.00000000000E+00 0.  1.
<mgrwt>
<rscale>  0 0.16787273E+04</rscale>
<asrwt>0</asrwt>
<pdfrwt beam="1">  1        1 0.72201630E-01 0.16787273E+04</pdfrwt>
<pdfrwt beam="2">  1       -1 0.23095458E+00 0.16787273E+04</pdfrwt>
<totfact> 0.42882227E+00</totfact>
</mgrwt>
</event>
<event>
12    1  0.4247462E-008  0.2721279E+04  0.7818608E-02  0.8328134E-01
         -2   -1    0    0    0  501 -0.00000000000E+00  0.00000000000E+00  0.59483401969E+03  0.59483401969E+03  0.00000000000E+00 0.  1.
          2   -1    0    0  501    0  0.00000000000E+00 -0.00000000000E+00 -0.31123628988E+04  0.31123628988E+04  0.00000000000E+00 0. -1.
         23    2    1    2    0    0 -0.36818582020E+03  0.30058505527E+03  0.37881522390E+03  0.61406703032E+03  0.87550957881E+02 0.  0.
        254    2    1    2    0    0  0.36818582020E+03 -0.30058505527E+03 -0.28963441030E+04  0.30931298882E+04  0.97607948875E+03 0.  0.
         23    2    4    4    0    0  0.40611715402E+03 -0.61961291760E+03 -0.21430333793E+04  0.22691114209E+04  0.86158372389E+02 0.  0.
         23    2    4    4    0    0 -0.37931333815E+02  0.31902786233E+03 -0.75331072367E+03  0.82401846724E+03  0.91169210472E+02 0.  0.
         13    1    3    3    0    0 -0.76016489841E+01  0.33887991879E+02  0.30027129084E+02  0.45910886964E+02  0.00000000000E+00 0. -1.
        -13    1    3    3    0    0 -0.36058417122E+03  0.26669706339E+03  0.34878809481E+03  0.56815614336E+03  0.00000000000E+00 0.  1.
          4    1    5    5  502    0  0.22332234819E+03 -0.33199355334E+03 -0.10263484640E+04  0.11015823892E+04  0.00000000000E+00 0. -1.
          3    1    6    6  503    0 -0.45397919065E+02  0.12802130617E+03 -0.39817689178E+03  0.42070804965E+03  0.00000000000E+00 0. -1.
         -4    1    5    5    0  502  0.18279480582E+03 -0.28761936426E+03 -0.11166849154E+04  0.11675290317E+04  0.00000000000E+00 0.  1.
         -3    1    6    6    0  503  0.74665852504E+01  0.19100655616E+03 -0.35513383188E+03  0.40331041759E+03  0.00000000000E+00 0.  1.
<mgrwt>
<rscale>  0 0.27212786E+04</rscale>
<asrwt>0</asrwt>
<pdfrwt beam="1">  1        2 0.47882506E+00 0.27212786E+04</pdfrwt>
<pdfrwt beam="2">  1       -2 0.91512927E-01 0.27212786E+04</pdfrwt>
<totfact> 0.13155068E+00</totfact>
</mgrwt>
</event>
<event>
12    1  0.4247462E-008  0.1742875E+04  0.7818608E-02  0.8737282E-01
         -1   -1    0    0    0  501 -0.00000000000E+00  0.00000000000E+00  0.65088154303E+03  0.65088154303E+03  0.00000000000E+00 0.  1.
          1   -1    0    0  501    0  0.00000000000E+00 -0.00000000000E+00 -0.11667301806E+04  0.11667301806E+04  0.00000000000E+00 0. -1.
         23    2    1    2    0    0 -0.52895990183E+03  0.34388074608E+03 -0.25619938318E+03  0.68714817376E+03  0.92097467395E+02 0.  0.
        254    2    1    2    0    0  0.52895990183E+03 -0.34388074608E+03 -0.25964925436E+03  0.11304635498E+04  0.90137536960E+03 0.  0.
         23    2    4    4    0    0  0.17499896547E+03 -0.23487552582E+03  0.31485255260E+03  0.43989640003E+03  0.92658309601E+02 0.  0.
         23    2    4    4    0    0  0.35396093635E+03 -0.10900522026E+03 -0.57450180696E+03  0.69056714979E+03  0.98286213018E+02 0.  0.
         13    1    3    3    0    0 -0.35939174752E+03  0.21726480591E+03 -0.21406228945E+03  0.47136937516E+03  0.00000000000E+00 0. -1.
        -13    1    3    3    0    0 -0.16956815431E+03  0.12661594017E+03 -0.42137093730E+02  0.21577879861E+03  0.00000000000E+00 0.  1.
          4    1    6    6  502    0  0.24279007049E+03 -0.35629636075E+02 -0.31938562955E+03  0.40276999598E+03  0.00000000000E+00 0. -1.
          4    1    5    5  503    0  0.16404006157E+03 -0.20658646321E+03  0.31323475855E+03  0.40951571710E+03  0.00000000000E+00 0. -1.
         -4    1    5    5    0  503  0.10958903900E+02 -0.28289062611E+02  0.16177940437E+01  0.30380682936E+02  0.00000000000E+00 0.  1.
         -4    1    6    6    0  502  0.11117086587E+03 -0.73375584188E+02 -0.25511617740E+03  0.28779715382E+03  0.00000000000E+00 0.  1.
<mgrwt>
<rscale>  0 0.17428748E+04</rscale>
<asrwt>0</asrwt>
<pdfrwt beam="1">  1        1 0.17949695E+00 0.17428748E+04</pdfrwt>
<pdfrwt beam="2">  1       -1 0.10013562E+00 0.17428748E+04</pdfrwt>
<totfact> 0.10186502E+01</totfact>
</mgrwt>
</event>
<event>
12    1  0.4247462E-008  0.2508704E+04  0.7818608E-02  0.8399891E-01
          2   -1    0    0  501    0  0.00000000000E+00  0.00000000000E+00  0.31105204974E+04  0.31105204974E+04  0.00000000000E+00 0.  1.
         -2   -1    0    0    0  501 -0.00000000000E+00 -0.00000000000E+00 -0.50583138751E+03  0.50583138751E+03  0.00000000000E+00 0. -1.
         23    2    1    2    0    0  0.90691297405E+03 -0.57768398206E+03  0.13754324859E+04  0.17481760218E+04  0.89971963488E+02 0.  0.
        254    2    1    2    0    0 -0.90691297405E+03  0.57768398206E+03  0.12292566239E+04  0.18681758631E+04  0.90708284198E+03 0.  0.
         23    2    4    4    0    0 -0.60352406066E+03 -0.12234713380E+03  0.40689920598E+03  0.74272492722E+03  0.82844678397E+02 0.  0.
         23    2    4    4    0    0 -0.30338891340E+03  0.70003111586E+03  0.82235741794E+03  0.11254509358E+04  0.90992803068E+02 0.  0.
         11    1    3    3    0    0  0.69889785952E+03 -0.47091064159E+03  0.10261360797E+04  0.13278442320E+04  0.00000000000E+00 0. -1.
        -11    1    3    3    0    0  0.20801511453E+03 -0.10677334048E+03  0.34929640623E+03  0.42033178980E+03  0.00000000000E+00 0.  1.
          4    1    6    6  502    0 -0.23032021841E+03  0.50461704758E+03  0.65256482462E+03  0.85646168511E+03  0.00000000000E+00 0. -1.
          4    1    5    5  503    0 -0.41866896160E+03 -0.11357048721E+03  0.25416147688E+03  0.50277232552E+03  0.00000000000E+00 0. -1.
         -4    1    5    5    0  503 -0.18485509906E+03 -0.87766465852E+01  0.15273772910E+03  0.23995260170E+03  0.00000000000E+00 0.  1.
         -4    1    6    6    0  502 -0.73068694985E+02  0.19541406828E+03  0.16979259331E+03  0.26898925074E+03  0.00000000000E+00 0.  1.
<mgrwt>
<rscale>  0 0.25087040E+04</rscale>
<asrwt>0</asrwt>
<pdfrwt beam="1">  1        2 0.47854160E+00 0.25087040E+04</pdfrwt>
<pdfrwt beam="2">  1       -2 0.77820216E-01 0.25087040E+04</pdfrwt>
<totfact> 0.19427422E+00</totfact>
</mgrwt>
</event>
<event>
12    1  0.4247462E-008  0.1677766E+04  0.7818608E-02  0.8774148E-01
          2   -1    0    0  501    0  0.00000000000E+00  0.00000000000E+00  0.24572599862E+04  0.24572599862E+04  0.00000000000E+00 0. -1.
         -2   -1    0    0    0  501 -0.00000000000E+00 -0.00000000000E+00 -0.28638597157E+03  0.28638597157E+03  0.00000000000E+00 0.  1.
         23    2    1    2    0    0  0.25067861586E+03 -0.12736394979E+03 -0.74862589664E+02  0.30085718147E+03  0.76480665255E+02 0.  0.
        254    2    1    2    0    0 -0.25067861586E+03  0.12736394979E+03  0.22457366043E+04  0.24427887763E+04  0.91914240768E+03 0.  0.
         23    2    4    4    0    0 -0.57676900418E+03  0.17571120290E+03  0.12681503334E+04  0.14071706719E+04  0.91581224163E+02 0.  0.
         23    2    4    4    0    0  0.32609038832E+03 -0.48347253110E+02  0.97758627085E+03  0.10356181044E+04  0.90319117489E+02 0.  0.
         13    1    3    3    0    0  0.69757327472E+02 -0.30112658037E+02 -0.56403253667E+02  0.94626549839E+02  0.00000000000E+00 0. -1.
        -13    1    3    3    0    0  0.18092128838E+03 -0.97251291755E+02 -0.18459335997E+02  0.20623063163E+03  0.00000000000E+00 0.  1.
          1    1    5    5  502    0 -0.17116874675E+03  0.50295226792E+02  0.28447238539E+03  0.33578696781E+03  0.00000000000E+00 0. -1.
          3    1    6    6  503    0  0.20737314545E+03 -0.39691074920E+02  0.74501682807E+03  0.77435720245E+03  0.00000000000E+00 0. -1.
         -1    1    5    5    0  502 -0.40560025743E+03  0.12541597611E+03  0.98367794805E+03  0.10713837041E+04  0.00000000000E+00 0.  1.
         -3    1    6    6    0  503  0.11871724287E+03 -0.86561781900E+01  0.23256944278E+03  0.26126090196E+03  0.00000000000E+00 0.  1.
<mgrwt>
<rscale>  0 0.16777661E+04</rscale>
<asrwt>0</asrwt>
<pdfrwt beam="1">  1        2 0.37803998E+00 0.16777661E+04</pdfrwt>
<pdfrwt beam="2">  1       -2 0.44059382E-01 0.16777661E+04</pdfrwt>
<totfact> 0.17186290E+01</totfact>
</mgrwt>
</event>
<event>
12    1  0.4247462E-008  0.3063897E+04  0.7818608E-02  0.8225716E-01
         -1   -1    0    0    0  501 -0.00000000000E+00  0.00000000000E+00  0.77588926789E+03  0.77588926789E+03  0.00000000000E+00 0.  1.
          1   -1    0    0  501    0  0.00000000000E+00 -0.00000000000E+00 -0.30247441625E+04  0.30247441625E+04  0.00000000000E+00 0. -1.
         23    2    1    2    0    0 -0.13869167441E+04  0.42135403582E+02 -0.12584458746E+04  0.18754530982E+04  0.91240653987E+02 0.  0.
        254    2    1    2    0    0  0.13869167441E+04 -0.42135403582E+02 -0.99040901996E+03  0.19251803321E+04  0.89448076393E+03 0.  0.
         23    2    4    4    0    0  0.13244857337E+04  0.23926502342E+03 -0.81712481925E+03  0.15767736772E+04  0.83737977605E+02 0.  0.
         23    2    4    4    0    0  0.62431010460E+02 -0.28140042701E+03 -0.17328420071E+03  0.34840665489E+03  0.90972257152E+02 0.  0.
         13    1    3    3    0    0 -0.13760522418E+04  0.33966769135E+02 -0.12407697079E+04  0.18531548725E+04  0.00000000000E+00 0. -1.
        -13    1    3    3    0    0 -0.10864502359E+02  0.81686344473E+01 -0.17676166713E+02  0.22298225712E+02  0.00000000000E+00 0.  1.
          4    1    5    5  502    0  0.10454112038E+04  0.16026718915E+03 -0.61780769715E+03  0.12248495857E+04  0.00000000000E+00 0. -1.
          1    1    6    6  503    0  0.71322339665E+02 -0.22021295080E+03 -0.16866121268E+03  0.28640395335E+03  0.00000000000E+00 0. -1.
         -4    1    5    5    0  502  0.27907452984E+03  0.78997834274E+02 -0.19931712211E+03  0.35192409152E+03  0.00000000000E+00 0.  1.
         -1    1    6    6    0  503 -0.88913292058E+01 -0.61187476208E+02 -0.46229880315E+01  0.62002701538E+02  0.00000000000E+00 0.  1.
<mgrwt>
<rscale>  0 0.30638972E+04</rscale>
<asrwt>0</asrwt>
<pdfrwt beam="1">  1        1 0.46534526E+00 0.30638972E+04</pdfrwt>
<pdfrwt beam="2">  1       -1 0.11936758E+00 0.30638972E+04</pdfrwt>
<totfact> 0.30411072E-01</totfact>
</mgrwt>
</event>
<event>
12    1  0.4247462E-008  0.1686840E+04  0.7818608E-02  0.8768906E-01
          1   -1    0    0  501    0  0.00000000000E+00  0.00000000000E+00  0.17758540625E+04  0.17758540625E+04  0.00000000000E+00 0. -1.
         -1   -1    0    0    0  501 -0.00000000000E+00 -0.00000000000E+00 -0.40057214907E+03  0.40057214907E+03  0.00000000000E+00 0.  1.
         23    2    1    2    0    0  0.61988494478E+02 -0.26688316365E+03  0.13059288554E+04  0.13374685717E+04  0.91119747786E+02 0.  0.
        254    2    1    2    0    0 -0.61988494478E+02  0.26688316365E+03  0.69353057975E+02  0.83895763981E+03  0.78991827315E+03 0.  0.
         23    2    4    4    0    0  0.38150459421E+02 -0.14914757838E+03  0.29650373830E+03  0.34597813511E+03  0.89921885305E+02 0.  0.
         23    2    4    4    0    0 -0.10013895390E+03  0.41603074204E+03 -0.22715068032E+03  0.49297950470E+03  0.91224843552E+02 0.  0.
         11    1    3    3    0    0  0.55552227534E+02 -0.15487840159E+03  0.57870445733E+03  0.60164127036E+03  0.00000000000E+00 0. -1.
        -11    1    3    3    0    0  0.64362669440E+01 -0.11200476206E+03  0.72722439807E+03  0.73582730135E+03  0.00000000000E+00 0.  1.
          2    1    5    5  502    0 -0.16424036119E+02 -0.12029155389E+02  0.79132953223E+01  0.21841927219E+02  0.00000000000E+00 0. -1.
          1    1    6    6  503    0  0.17571979310E+02  0.56116391412E+02 -0.27979934901E+02  0.65120661844E+02  0.00000000000E+00 0. -1.
         -2    1    5    5    0  502  0.54574495540E+02 -0.13711842299E+03  0.28859044297E+03  0.32413620789E+03  0.00000000000E+00 0.  1.
         -1    1    6    6    0  503 -0.11771093321E+03  0.35991435062E+03 -0.19917074542E+03  0.42785884286E+03  0.00000000000E+00 0.  1.
<mgrwt>
<rscale>  0 0.16868405E+04</rscale>
<asrwt>0</asrwt>
<pdfrwt beam="1">  1        1 0.27320831E+00 0.16868405E+04</pdfrwt>
<pdfrwt beam="2">  1       -1 0.61626485E-01 0.16868405E+04</pdfrwt>
<totfact> 0.10765002E+01</totfact>
</mgrwt>
</event>
<event>
12    1  0.4247462E-008  0.2130746E+04  0.7818608E-02  0.8547819E-01
          1   -1    0    0  501    0  0.00000000000E+00  0.00000000000E+00  0.85119944410E+03  0.85119944410E+03  0.00000000000E+00 0. -1.
         -1   -1    0    0    0  501 -0.00000000000E+00 -0.00000000000E+00 -0.13334356901E+04  0.13334356901E+04  0.00000000000E+00 0.  1.
         23    2    1    2    0    0 -0.44497751406E+03 -0.30287351290E+03 -0.90739197724E+03  0.10590660474E+04  0.92321934271E+02 0.  0.
        254    2    1    2    0    0  0.44497751406E+03  0.30287351290E+03  0.42515573125E+03  0.11255690868E+04  0.89241863523E+03 0.  0.
         23    2    4    4    0    0  0.48316439422E+03 -0.11968720939E+03 -0.15436387792E+02  0.50678729430E+03  0.93926671740E+02 0.  0.
         23    2    4    4    0    0 -0.38186880157E+02  0.42256072229E+03  0.44059211904E+03  0.61878179250E+03  0.93561153927E+02 0.  0.
         13    1    3    3    0    0 -0.25987555521E+03 -0.21576912102E+03 -0.62394543354E+03  0.70950653402E+03  0.00000000000E+00 0.  1.
        -13    1    3    3    0    0 -0.18510195885E+03 -0.87104391888E+02 -0.28344654370E+03  0.34955951338E+03  0.00000000000E+00 0. -1.
          4    1    5    5  502    0  0.20136848420E+03 -0.64318204942E+02  0.37707094655E+02  0.21472755506E+03  0.00000000000E+00 0. -1.
          1    1    6    6  503    0 -0.16897485677E+01  0.53353448755E+02  0.10821584569E+03  0.12066530157E+03  0.00000000000E+00 0. -1.
         -4    1    5    5    0  502  0.28179591002E+03 -0.55369004447E+02 -0.53143482448E+02  0.29205973924E+03  0.00000000000E+00 0.  1.
         -1    1    6    6    0  503 -0.36497131589E+02  0.36920727354E+03  0.33237627335E+03  0.49811649093E+03  0.00000000000E+00 0.  1.
<mgrwt>
<rscale>  0 0.21307461E+04</rscale>
<asrwt>0</asrwt>
<pdfrwt beam="1">  1        1 0.13095376E+00 0.21307461E+04</pdfrwt>
<pdfrwt beam="2">  1       -1 0.20514395E+00 0.21307461E+04</pdfrwt>
<totfact> 0.25424712E+00</totfact>
</mgrwt>
</event>
<event>
12    1  0.4247462E-008  0.2069549E+04  0.7818608E-02  0.8574777E-01
          1   -1    0    0  501    0  0.00000000000E+00  0.00000000000E+00  0.12185732991E+04  0.12185732991E+04  0.00000000000E+00 0. -1.
         -1   -1    0    0    0  501 -0.00000000000E+00 -0.00000000000E+00 -0.87869843254E+03  0.87869843254E+03  0.00000000000E+00 0.  1.
         23    2    1    2    0    0 -0.42058867899E+03 -0.47317774070E+03  0.70692891777E+03  0.95345938809E+03  0.92435376218E+02 0.  0.
        254    2    1    2    0    0  0.42058867899E+03  0.47317774070E+03 -0.36705405121E+03  0.11438123435E+04  0.87908247027E+03 0.  0.
         23    2    4    4    0    0 -0.47212764829E+02 -0.21630790742E+03 -0.13806703642E+03  0.27523328099E+03  0.87593929266E+02 0.  0.
         23    2    4    4    0    0  0.46780144382E+03  0.68948564812E+03 -0.22898701479E+03  0.86857906255E+03  0.88124259773E+02 0.  0.
         13    1    3    3    0    0 -0.25866989866E+03 -0.29758816738E+03  0.37195600675E+03  0.54205175472E+03  0.00000000000E+00 0. -1.
        -13    1    3    3    0    0 -0.16191878033E+03 -0.17558957332E+03  0.33497291101E+03  0.41140763337E+03  0.00000000000E+00 0.  1.
          1    1    5    5  502    0 -0.38071419471E+02 -0.37573730839E+02 -0.82089538108E+01  0.54116588514E+02  0.00000000000E+00 0. -1.
          3    1    6    6  503    0  0.38471639555E+03  0.50195129252E+03 -0.16269404386E+03  0.65301696530E+03  0.00000000000E+00 0. -1.
         -1    1    5    5    0  502 -0.91413453580E+01 -0.17873417658E+03 -0.12985808261E+03  0.22111669248E+03  0.00000000000E+00 0.  1.
         -3    1    6    6    0  503  0.83085048273E+02  0.18753435559E+03 -0.66292970931E+02  0.21556209725E+03  0.00000000000E+00 0.  1.
<mgrwt>
<rscale>  0 0.20695492E+04</rscale>
<asrwt>0</asrwt>
<pdfrwt beam="1">  1        1 0.18747282E+00 0.20695492E+04</pdfrwt>
<pdfrwt beam="2">  1       -1 0.13518437E+00 0.20695492E+04</pdfrwt>
<totfact> 0.43842078E+00</totfact>
</mgrwt>
</event>
<event>
12    1  0.4247462E-008  0.1759357E+04  0.7818608E-02  0.8728216E-01
         -2   -1    0    0    0  501 -0.00000000000E+00  0.00000000000E+00  0.37124508561E+03  0.37124508561E+03  0.00000000000E+00 0. -1.
          2   -1    0    0  501    0  0.00000000000E+00 -0.00000000000E+00 -0.20844303538E+04  0.20844303538E+04  0.00000000000E+00 0.  1.
         23    2    1    2    0    0  0.51528340826E+03 -0.32731254775E+03 -0.34114176805E+03  0.70540934845E+03  0.92596696714E+02 0.  0.
        254    2    1    2    0    0 -0.51528340826E+03  0.32731254775E+03 -0.13720435002E+04  0.17502660910E+04  0.89904256191E+03 0.  0.
         23    2    4    4    0    0 -0.37821179127E+03  0.59813866894E+03 -0.11807760990E+04  0.13798910946E+04  0.95148361692E+02 0.  0.
         23    2    4    4    0    0 -0.13707161699E+03 -0.27082612119E+03 -0.19126740114E+03  0.37037499632E+03  0.91972838712E+02 0.  0.
         11    1    3    3    0    0  0.31651073967E+03 -0.18789810642E+03 -0.15460004144E+03  0.39923166149E+03  0.00000000000E+00 0. -1.
        -11    1    3    3    0    0  0.19877266858E+03 -0.13941444133E+03 -0.18654172662E+03  0.30617768696E+03  0.00000000000E+00 0.  1.
          4    1    5    5  502    0 -0.19050761104E+03  0.31150719263E+03 -0.70012701677E+03  0.78962505060E+03  0.00000000000E+00 0. -1.
          3    1    6    6  503    0 -0.14876625654E+03 -0.26516481033E+03 -0.18127056611E+03  0.35398134677E+03  0.00000000000E+00 0. -1.
         -4    1    5    5    0  502 -0.18770418022E+03  0.28663147631E+03 -0.48064908225E+03  0.59026604404E+03  0.00000000000E+00 0.  1.
         -3    1    6    6    0  503  0.11694639555E+02 -0.56613108537E+01 -0.99968350355E+01  0.16393649552E+02  0.00000000000E+00 0.  1.
<mgrwt>
<rscale>  0 0.17593573E+04</rscale>
<asrwt>0</asrwt>
<pdfrwt beam="1">  1        2 0.32068159E+00 0.17593573E+04</pdfrwt>
<pdfrwt beam="2">  1       -2 0.57114629E-01 0.17593573E+04</pdfrwt>
<totfact> 0.16316557E+01</totfact>
</mgrwt>
</event>
<event>
12    1  0.4247462E-008  0.1186159E+04  0.7818608E-02  0.9125058E-01
          2   -1    0    0  501    0  0.00000000000E+00  0.00000000000E+00  0.53637662934E+03  0.53637662934E+03  0.00000000000E+00 0.  1.
         -2   -1    0    0    0  501 -0.00000000000E+00 -0.00000000000E+00 -0.65577698609E+03  0.65577698609E+03  0.00000000000E+00 0. -1.
         23    2    1    2    0    0  0.38428798014E+02 -0.25019800168E+03 -0.67182528294E+02  0.27738279603E+03  0.91388789589E+02 0.  0.
        254    2    1    2    0    0 -0.38428798014E+02  0.25019800168E+03 -0.52217828457E+02  0.91477081939E+03  0.87749822669E+03 0.  0.
         23    2    4    4    0    0  0.36981806873E+03  0.15192674774E+03  0.15510086359E+03  0.43891167161E+03  0.93488164760E+02 0.  0.
         23    2    4    4    0    0 -0.40824686675E+03  0.98271253942E+02 -0.20731869205E+03  0.47585914778E+03  0.84487542860E+02 0.  0.
         11    1    3    3    0    0  0.48677823301E+02 -0.23566020507E+03 -0.82009758932E+02  0.25422600830E+03  0.00000000000E+00 0. -1.
        -11    1    3    3    0    0 -0.10249025286E+02 -0.14537796614E+02  0.14827230638E+02  0.23156787733E+02  0.00000000000E+00 0.  1.
          2    1    5    5  502    0  0.26820395924E+03  0.63167916949E+02  0.98896849316E+02  0.29275268792E+03  0.00000000000E+00 0. -1.
          4    1    6    6  503    0 -0.19821674428E+03  0.85722637027E+02 -0.12772991829E+03  0.25090472342E+03  0.00000000000E+00 0. -1.
         -2    1    5    5    0  502  0.10161410949E+03  0.88758830791E+02  0.56204014273E+02  0.14615898369E+03  0.00000000000E+00 0.  1.
         -4    1    6    6    0  503 -0.21003012247E+03  0.12548616915E+02 -0.79588773759E+02  0.22495442436E+03  0.00000000000E+00 0.  1.
<mgrwt>
<rscale>  0 0.11861593E+04</rscale>
<asrwt>0</asrwt>
<pdfrwt beam="1">  1        2 0.82519482E-01 0.11861593E+04</pdfrwt>
<pdfrwt beam="2">  1       -2 0.10088877E+00 0.11861593E+04</pdfrwt>
<totfact> 0.45310123E+01</totfact>
</mgrwt>
</event>
<event>
12    1  0.4247462E-008  0.1426998E+04  0.7818608E-02  0.8934504E-01
          2   -1    0    0  501    0  0.00000000000E+00  0.00000000000E+00  0.13698427023E+04  0.13698427023E+04  0.00000000000E+00 0. -1.
         -2   -1    0    0    0  501 -0.00000000000E+00 -0.00000000000E+00 -0.37163469405E+03  0.37163469405E+03  0.00000000000E+00 0.  1.
         23    2    1    2    0    0  0.15720692285E+02 -0.12437050190E+03  0.78635006503E+03  0.80149262307E+03  0.91262468517E+02 0.  0.
        254    2    1    2    0    0 -0.15720692285E+02  0.12437050190E+03  0.21185794326E+03  0.93998477331E+03  0.90717827577E+03 0.  0.
         23    2    4    4    0    0 -0.92336292517E+02 -0.32294489390E+03  0.31031332514E+03  0.46636454715E+03  0.91554004126E+02 0.  0.
         23    2    4    4    0    0  0.76615600232E+02  0.44731539580E+03 -0.98455381878E+02  0.47362022616E+03  0.93067947687E+02 0.  0.
         13    1    3    3    0    0 -0.19157872616E+02 -0.78365212151E+02  0.62379669117E+03  0.62899160763E+03  0.00000000000E+00 0. -1.
        -13    1    3    3    0    0  0.34878564901E+02 -0.46005289754E+02  0.16255337386E+03  0.17250101544E+03  0.00000000000E+00 0.  1.
          1    1    5    5  502    0 -0.64529473800E+02 -0.86167994722E+02  0.12084316763E+03  0.16183957324E+03  0.00000000000E+00 0. -1.
          1    1    6    6  503    0  0.46936914196E+02  0.95114571020E+02 -0.48609529041E+02  0.11667365533E+03  0.00000000000E+00 0. -1.
         -1    1    5    5    0  502 -0.27806818717E+02 -0.23677689917E+03  0.18947015751E+03  0.30452497391E+03  0.00000000000E+00 0.  1.
         -1    1    6    6    0  503  0.29678686036E+02  0.35220082478E+03 -0.49845852837E+02  0.35694657083E+03  0.00000000000E+00 0.  1.
<mgrwt>
<rscale>  0 0.14269984E+04</rscale>
<asrwt>0</asrwt>
<pdfrwt beam="1">  1        2 0.21074503E+00 0.14269984E+04</pdfrwt>
<pdfrwt beam="2">  1       -2 0.57174569E-01 0.14269984E+04</pdfrwt>
<totfact> 0.41935825E+01</totfact>
</mgrwt>
</event>
<event>
12    1  0.5240170E-008  0.1467240E+04  0.7818608E-02  0.8906535E-01
          3   -1    0    0  501    0  0.00000000000E+00  0.00000000000E+00  0.12971962012E+04  0.12971962012E+04  0.00000000000E+00 0. -1.
         -3   -1    0    0    0  501 -0.00000000000E+00 -0.00000000000E+00 -0.41489332167E+03  0.41489332167E+03  0.00000000000E+00 0.  1.
         23    2    1    2    0    0  0.22057695532E+03 -0.32514117355E+03  0.16218319446E+02  0.40417615612E+03  0.93404257559E+02 0.  0.
        254    2    1    2    0    0 -0.22057695532E+03  0.32514117355E+03  0.86608456010E+03  0.13079133668E+04  0.89786632288E+03 0.  0.
         23    2    4    4    0    0 -0.49813171091E+03  0.14329531715E+03  0.20952815973E+03  0.56655568483E+03  0.91730828825E+02 0.  0.
         23    2    4    4    0    0  0.27755475559E+03  0.18184585641E+03  0.65655640038E+03  0.74135768194E+03  0.91871365830E+02 0.  0.
         11    1    3    3    0    0  0.56290877474E+01  0.63170979429E+01 -0.20307253582E+01  0.87015056610E+01  0.00000000000E+00 0. -1.
        -11    1    3    3    0    0  0.21494786757E+03 -0.33145827150E+03  0.18249044804E+02  0.39547465046E+03  0.00000000000E+00 0.  1.
          1    1    5    5  502    0 -0.11207698679E+03  0.73599977119E+02  0.51949377451E+02  0.14379480317E+03  0.00000000000E+00 0. -1.
          3    1    6    6  503    0  0.49986658145E+02  0.20911603500E+02  0.19297089915E+03  0.20043385211E+03  0.00000000000E+00 0. -1.
         -1    1    5    5    0  502 -0.38605472412E+03  0.69695340028E+02  0.15757878228E+03  0.42276088166E+03  0.00000000000E+00 0.  1.
         -3    1    6    6    0  503  0.22756809744E+03  0.16093425291E+03  0.46358550122E+03  0.54092382983E+03  0.00000000000E+00 0.  1.
<mgrwt>
<rscale>  0 0.14672396E+04</rscale>
<asrwt>0</asrwt>
<pdfrwt beam="1">  1        3 0.19956865E+00 0.14672396E+04</pdfrwt>
<pdfrwt beam="2">  1       -3 0.63829742E-01 0.14672396E+04</pdfrwt>
<totfact> 0.89576638E-01</totfact>
</mgrwt>
</event>
<event>
12    1  0.4247462E-008  0.1998019E+04  0.7818608E-02  0.8607547E-01
          2   -1    0    0  501    0  0.00000000000E+00  0.00000000000E+00  0.30502349354E+04  0.30502349354E+04  0.00000000000E+00 0. -1.
         -2   -1    0    0    0  501 -0.00000000000E+00 -0.00000000000E+00 -0.32719452199E+03  0.32719452199E+03  0.00000000000E+00 0.  1.
         23    2    1    2    0    0 -0.44982082365E+03  0.17570909176E+03  0.21298590738E+04  0.21858291763E+04  0.91307476936E+02 0.  0.
        254    2    1    2    0    0  0.44982082365E+03 -0.17570909176E+03  0.59318133963E+03  0.11916002811E+04  0.91369287510E+03 0.  0.
         23    2    4    4    0    0 -0.13975632712E+01  0.13411339563E+03  0.61550712796E+03  0.63651020184E+03  0.91147443241E+02 0.  0.
         23    2    4    4    0    0  0.45121838692E+03 -0.30982248740E+03 -0.22325788322E+02  0.55509007930E+03  0.89657955149E+02 0.  0.
         11    1    3    3    0    0 -0.35763234978E+03  0.12243941075E+03  0.14917959377E+04  0.15389436074E+04  0.00000000000E+00 0.  1.
        -11    1    3    3    0    0 -0.92188473863E+02  0.53269681010E+02  0.63806313605E+03  0.64688556888E+03  0.00000000000E+00 0. -1.
          2    1    5    5  502    0  0.17809074653E+02  0.90169691538E+02  0.53471212202E+03  0.54255395110E+03  0.00000000000E+00 0. -1.
          3    1    6    6  503    0  0.35676071381E+02 -0.58364605917E+02 -0.10794119033E+02  0.69251153772E+02  0.00000000000E+00 0.  1.
         -2    1    5    5    0  502 -0.19206637924E+02  0.43943704095E+02  0.80795005934E+02  0.93956250743E+02  0.00000000000E+00 0.  1.
         -3    1    6    6    0  503  0.41554231554E+03 -0.25145788148E+03 -0.11531669289E+02  0.48583892553E+03  0.00000000000E+00 0. -1.
<mgrwt>
<rscale>  0 0.19980192E+04</rscale>
<asrwt>0</asrwt>
<pdfrwt beam="1">  1        2 0.46926689E+00 0.19980192E+04</pdfrwt>
<pdfrwt beam="2">  1       -2 0.50337621E-01 0.19980192E+04</pdfrwt>
<totfact> 0.56292211E+00</totfact>
</mgrwt>
</event>
<event>
12    1  0.4247462E-008  0.2185082E+04  0.7818608E-02  0.8524663E-01
          2   -1    0    0  501    0  0.00000000000E+00  0.00000000000E+00  0.29535066603E+04  0.29535066603E+04  0.00000000000E+00 0. -1.
         -2   -1    0    0    0  501 -0.00000000000E+00 -0.00000000000E+00 -0.40414531750E+03  0.40414531750E+03  0.00000000000E+00 0.  1.
         23    2    1    2    0    0 -0.37810874356E+03  0.47706587312E+03  0.35972942476E+02  0.61655944917E+03  0.91068284946E+02 0.  0.
        254    2    1    2    0    0  0.37810874356E+03 -0.47706587312E+03  0.25133884004E+04  0.27410925287E+04  0.90879531819E+03 0.  0.
         23    2    4    4    0    0  0.44234795192E+03  0.45082454632E+02  0.58629077898E+03  0.74142924189E+03  0.90974199256E+02 0.  0.
         23    2    4    4    0    0 -0.64239208358E+02 -0.52214832775E+03  0.19270976214E+04  0.19996632868E+04  0.90456984619E+02 0.  0.
         11    1    3    3    0    0 -0.70315366615E+02  0.89791403720E+02  0.42823329172E+02  0.12182193762E+03  0.00000000000E+00 0.  1.
        -11    1    3    3    0    0 -0.30779337695E+03  0.38727446940E+03 -0.68503866962E+01  0.49473751155E+03  0.00000000000E+00 0. -1.
          2    1    5    5  502    0  0.32097048519E+03  0.70349818661E+02  0.40008219385E+03  0.51772281309E+03  0.00000000000E+00 0. -1.
          1    1    6    6  503    0 -0.12829030104E+02 -0.39260333092E+03  0.13511505513E+04  0.14070926663E+04  0.00000000000E+00 0. -1.
         -2    1    5    5    0  502  0.12137746673E+03 -0.25267364029E+02  0.18620858513E+03  0.22370642881E+03  0.00000000000E+00 0.  1.
         -1    1    6    6    0  503 -0.51410178254E+02 -0.12954499683E+03  0.57594707013E+03  0.59257062045E+03  0.00000000000E+00 0.  1.
<mgrwt>
<rscale>  0 0.21850820E+04</rscale>
<asrwt>0</asrwt>
<pdfrwt beam="1">  1        2 0.45438563E+00 0.21850820E+04</pdfrwt>
<pdfrwt beam="2">  1       -2 0.62176204E-01 0.21850820E+04</pdfrwt>
<totfact> 0.40953217E+00</totfact>
</mgrwt>
</event>
<event>
12    1  0.4247462E-008  0.1670694E+04  0.7818608E-02  0.8778258E-01
         -1   -1    0    0    0  501 -0.00000000000E+00  0.00000000000E+00  0.29227311630E+03  0.29227311630E+03  0.00000000000E+00 0.  1.
          1   -1    0    0  501    0  0.00000000000E+00 -0.00000000000E+00 -0.23875076775E+04  0.23875076775E+04  0.00000000000E+00 0. -1.
         23    2    1    2    0    0  0.37381502467E+03 -0.20635483876E+02 -0.14839883261E+04  0.15333082842E+04  0.93002401633E+02 0.  0.
        254    2    1    2    0    0 -0.37381502467E+03  0.20635483876E+02 -0.61124623518E+03  0.11464725096E+04  0.89477022716E+03 0.  0.
         23    2    4    4    0    0 -0.18352667019E+03  0.34448542874E+03  0.24817471566E+02  0.40162432088E+03  0.91290409888E+02 0.  0.
         23    2    4    4    0    0 -0.19028835448E+03 -0.32384994487E+03 -0.63606370675E+03  0.74484818874E+03  0.95568512509E+02 0.  0.
         11    1    3    3    0    0  0.36846423749E+03 -0.34177182973E+02 -0.14006660124E+04  0.14487233181E+04  0.00000000000E+00 0. -1.
        -11    1    3    3    0    0  0.53507871841E+01  0.13541699098E+02 -0.83322313721E+02  0.84584966168E+02  0.00000000000E+00 0.  1.
          2    1    5    5  502    0 -0.24473680182E+02  0.12100528837E+03  0.30869189813E+02  0.12725622859E+03  0.00000000000E+00 0. -1.
          1    1    6    6  503    0  0.11323032023E+02 -0.17259997823E+02 -0.34478823056E+02  0.40185915672E+02  0.00000000000E+00 0. -1.
         -2    1    5    5    0  502 -0.15905299000E+03  0.22348014037E+03 -0.60517182462E+01  0.27436809228E+03  0.00000000000E+00 0.  1.
         -1    1    6    6    0  503 -0.20161138651E+03 -0.30658994704E+03 -0.60158488369E+03  0.70466227307E+03  0.00000000000E+00 0.  1.
<mgrwt>
<rscale>  0 0.16706936E+04</rscale>
<asrwt>0</asrwt>
<pdfrwt beam="1">  1        1 0.36730887E+00 0.16706936E+04</pdfrwt>
<pdfrwt beam="2">  1       -1 0.44965095E-01 0.16706936E+04</pdfrwt>
<totfact> 0.75914042E+00</totfact>
</mgrwt>
</event>
<event>
12    1  0.4247462E-008  0.1625004E+04  0.7818608E-02  0.8805333E-01
         -1   -1    0    0    0  501 -0.00000000000E+00  0.00000000000E+00  0.30541101409E+03  0.30541101409E+03  0.00000000000E+00 0.  1.
          1   -1    0    0  501    0  0.00000000000E+00 -0.00000000000E+00 -0.21615435625E+04  0.21615435625E+04  0.00000000000E+00 0. -1.
         23    2    1    2    0    0 -0.28677383836E+03  0.47257167317E+03 -0.73817545592E+03  0.92701148100E+03  0.94255299733E+02 0.  0.
        254    2    1    2    0    0  0.28677383836E+03 -0.47257167317E+03 -0.11179570925E+04  0.15399430956E+04  0.90334570146E+03 0.  0.
         23    2    4    4    0    0  0.18110384446E+03 -0.60514340283E+03 -0.30999322410E+03  0.70936833838E+03  0.90058314694E+02 0.  0.
         23    2    4    4    0    0  0.10566999390E+03  0.13257172966E+03 -0.80796386839E+03  0.83057475721E+03  0.91144959108E+02 0.  0.
         13    1    3    3    0    0 -0.28407202086E+03  0.46629175169E+03 -0.69764382702E+03  0.88590734285E+03  0.00000000000E+00 0. -1.
        -13    1    3    3    0    0 -0.27018174991E+01  0.62799214741E+01 -0.40531628904E+02  0.41104138151E+02  0.00000000000E+00 0.  1.
          4    1    5    5  502    0  0.14070552435E+03 -0.55081610310E+03 -0.25960076764E+03  0.62497118539E+03  0.00000000000E+00 0. -1.
          1    1    6    6  503    0  0.11570210232E+03  0.10330670857E+03 -0.73724146975E+03  0.75338186681E+03  0.00000000000E+00 0. -1.
         -4    1    5    5    0  502  0.40398320118E+02 -0.54327299732E+02 -0.50392456467E+02  0.84397152993E+02  0.00000000000E+00 0.  1.
         -1    1    6    6    0  503 -0.10032108419E+02  0.29265021092E+02 -0.70722398639E+02  0.77192890398E+02  0.00000000000E+00 0.  1.
<mgrwt>
<rscale>  0 0.16250036E+04</rscale>
<asrwt>0</asrwt>
<pdfrwt beam="1">  1        1 0.33254518E+00 0.16250036E+04</pdfrwt>
<pdfrwt beam="2">  1       -1 0.46986308E-01 0.16250036E+04</pdfrwt>
<totfact> 0.10014385E+01</totfact>
</mgrwt>
</event>
<event>
12    1  0.4705147E-008  0.2264530E+04  0.7818608E-02  0.8492039E-01
          2   -1    0    0  501    0  0.00000000000E+00  0.00000000000E+00  0.12106937158E+04  0.12106937158E+04  0.00000000000E+00 0. -1.
         -2   -1    0    0    0  501 -0.00000000000E+00 -0.00000000000E+00 -0.10589166524E+04  0.10589166524E+04  0.00000000000E+00 0.  1.
         23    2    1    2    0    0  0.24757357916E+03  0.54232775903E+03 -0.67904275207E+03  0.90789174102E+03  0.88069739141E+02 0.  0.
        254    2    1    2    0    0 -0.24757357916E+03 -0.54232775903E+03  0.83081981554E+03  0.13617186272E+04  0.89922409803E+03 0.  0.
         23    2    4    4    0    0 -0.43478799052E+03 -0.29719221288E+03  0.73982211588E+02  0.53981419436E+03  0.92532095555E+02 0.  0.
         23    2    4    4    0    0  0.18721441135E+03 -0.24513554615E+03  0.75683760395E+03  0.82190443285E+03  0.87080802524E+02 0.  0.
         11    1    3    3    0    0  0.21392703867E+03  0.50439936284E+03 -0.58809175593E+03  0.80376327890E+03  0.00000000000E+00 0.  1.
        -11    1    3    3    0    0  0.33646540490E+02  0.37928396189E+02 -0.90950996142E+02  0.10412846212E+03  0.00000000000E+00 0. -1.
          1    1    6    6  502    0  0.39101872013E+02 -0.82236905165E+02  0.14054362300E+03  0.16746454828E+03  0.00000000000E+00 0. -1.
          1    1    5    5  503    0 -0.18533389532E+03 -0.72727062320E+02  0.23952810444E+02  0.20052834083E+03  0.00000000000E+00 0. -1.
         -1    1    5    5    0  503 -0.24945409520E+03 -0.22446515056E+03  0.50029401144E+02  0.33928585353E+03  0.00000000000E+00 0.  1.
         -1    1    6    6    0  502  0.14811253934E+03 -0.16289864098E+03  0.61629398096E+03  0.65443988456E+03  0.00000000000E+00 0.  1.
<mgrwt>
<rscale>  0 0.22645297E+04</rscale>
<asrwt>0</asrwt>
<pdfrwt beam="1">  1        2 0.18626057E+00 0.22645297E+04</pdfrwt>
<pdfrwt beam="2">  1       -2 0.16291025E+00 0.22645297E+04</pdfrwt>
<totfact> 0.40692578E+00</totfact>
</mgrwt>
</event>
<event>
12    1  0.4247462E-008  0.1294441E+04  0.7818608E-02  0.9033986E-01
         -1   -1    0    0    0  501 -0.00000000000E+00  0.00000000000E+00  0.22223085943E+03  0.22223085943E+03  0.00000000000E+00 0.  1.
          1   -1    0    0  501    0  0.00000000000E+00 -0.00000000000E+00 -0.18849500666E+04  0.18849500666E+04  0.00000000000E+00 0. -1.
         23    2    1    2    0    0 -0.15487723381E+03  0.20295158256E+03 -0.11869767019E+03  0.29971560544E+03  0.10278134468E+03 0.  0.
        254    2    1    2    0    0  0.15487723381E+03 -0.20295158256E+03 -0.15440215369E+04  0.18074653206E+04  0.90429645363E+03 0.  0.
         23    2    4    4    0    0 -0.16972990838E+03 -0.47082961786E+03 -0.85039919856E+03  0.99111009587E+03  0.92906697155E+02 0.  0.
         23    2    4    4    0    0  0.32460714219E+03  0.26787803530E+03 -0.69362233838E+03  0.81635522468E+03  0.90528813138E+02 0.  0.
         13    1    3    3    0    0  0.38862368633E+01  0.42688582116E+02 -0.45589871882E+02  0.62576787216E+02  0.00000000000E+00 0. -1.
        -13    1    3    3    0    0 -0.15876347068E+03  0.16026300045E+03 -0.73107798307E+02  0.23713881822E+03  0.00000000000E+00 0.  1.
          4    1    5    5  502    0 -0.47139636933E+02 -0.24716605581E+03 -0.47001750308E+03  0.53313193274E+03  0.00000000000E+00 0. -1.
          3    1    6    6  503    0  0.20405838262E+03  0.21767755880E+03 -0.44971758600E+03  0.53969366337E+03  0.00000000000E+00 0. -1.
         -4    1    5    5    0  502 -0.12259027144E+03 -0.22366356206E+03 -0.38038169548E+03  0.45797816313E+03  0.00000000000E+00 0.  1.
         -3    1    6    6    0  503  0.12054875956E+03  0.50200476498E+02 -0.24390475238E+03  0.27666156131E+03  0.00000000000E+00 0.  1.
<mgrwt>
<rscale>  0 0.12944405E+04</rscale>
<asrwt>0</asrwt>
<pdfrwt beam="1">  1        1 0.28999234E+00 0.12944405E+04</pdfrwt>
<pdfrwt beam="2">  1       -1 0.34189361E-01 0.12944405E+04</pdfrwt>
<totfact> 0.28396971E+01</totfact>
</mgrwt>
</event>
<event>
12    1  0.4247462E-008  0.1405715E+04  0.7818608E-02  0.8949692E-01
          1   -1    0    0  501    0  0.00000000000E+00  0.00000000000E+00  0.77259172991E+03  0.77259172991E+03  0.00000000000E+00 0. -1.
         -1   -1    0    0    0  501 -0.00000000000E+00 -0.00000000000E+00 -0.63941785309E+03  0.63941785309E+03  0.00000000000E+00 0.  1.
         23    2    1    2    0    0 -0.12426148776E+03  0.29450588427E+03 -0.21040166098E+03  0.39440539389E+03  0.95457438564E+02 0.  0.
        254    2    1    2    0    0  0.12426148776E+03 -0.29450588427E+03  0.34357553781E+03  0.10176041891E+04  0.90293936801E+03 0.  0.
         23    2    4    4    0    0  0.37352704322E+03 -0.42835015956E+03  0.17503475806E+02  0.57615217330E+03  0.92944305446E+02 0.  0.
         23    2    4    4    0    0 -0.24926555546E+03  0.13384427529E+03  0.32607206200E+03  0.44145201581E+03  0.92245788419E+02 0.  0.
         11    1    3    3    0    0 -0.89375425064E+02  0.28203979550E+03 -0.17866361920E+03  0.34562277367E+03  0.00000000000E+00 0.  1.
        -11    1    3    3    0    0 -0.34886062700E+02  0.12466088766E+02 -0.31738041776E+02  0.48782620221E+02  0.00000000000E+00 0. -1.
          4    1    5    5  502    0  0.18910416391E+02 -0.55800937174E+02  0.18686873649E+02  0.61810579065E+02  0.00000000000E+00 0. -1.
          3    1    6    6  503    0 -0.10235301564E+03  0.10064542329E+03  0.19257256853E+03  0.24018708373E+03  0.00000000000E+00 0. -1.
         -4    1    5    5    0  502  0.35461662683E+03 -0.37254922239E+03 -0.11833978428E+01  0.51434159423E+03  0.00000000000E+00 0.  1.
         -3    1    6    6    0  503 -0.14691253982E+03  0.33198852006E+02  0.13349949347E+03  0.20126493208E+03  0.00000000000E+00 0.  1.
<mgrwt>
<rscale>  0 0.14057154E+04</rscale>
<asrwt>0</asrwt>
<pdfrwt beam="1">  1        1 0.11886027E+00 0.14057154E+04</pdfrwt>
<pdfrwt beam="2">  1       -1 0.98371977E-01 0.14057154E+04</pdfrwt>
<totfact> 0.22552485E+01</totfact>
</mgrwt>
</event>
<event>
12    1  0.4247462E-008  0.1921082E+04  0.7818608E-02  0.8644433E-01
          2   -1    0    0  501    0  0.00000000000E+00  0.00000000000E+00  0.29485447162E+04  0.29485447162E+04  0.00000000000E+00 0. -1.
         -2   -1    0    0    0  501 -0.00000000000E+00 -0.00000000000E+00 -0.31291319827E+03  0.31291319827E+03  0.00000000000E+00 0.  1.
         23    2    1    2    0    0  0.47477196356E+03 -0.19804065870E+03  0.11470431552E+03  0.53508222616E+03  0.92343862126E+02 0.  0.
        254    2    1    2    0    0 -0.47477196356E+03  0.19804065870E+03  0.25209272024E+04  0.27263756883E+04  0.90189905979E+03 0.  0.
         23    2    4    4    0    0  0.79030293001E+02  0.39732957696E+03  0.74737420205E+03  0.85544607622E+03  0.95410751438E+02 0.  0.
         23    2    4    4    0    0 -0.55380225656E+03 -0.19928891826E+03  0.17735530004E+04  0.18709296121E+04  0.92056265261E+02 0.  0.
         13    1    3    3    0    0  0.32315019334E+03 -0.16331804287E+03  0.45814364894E+02  0.36496271948E+03  0.00000000000E+00 0.  1.
        -13    1    3    3    0    0  0.15162177022E+03 -0.34722615837E+02  0.68889950628E+02  0.17011950668E+03  0.00000000000E+00 0. -1.
          1    1    5    5  502    0  0.64783879101E+02  0.11487468614E+03  0.27246974739E+03  0.30270927926E+03  0.00000000000E+00 0. -1.
          3    1    6    6  503    0 -0.17518170753E+03 -0.45616994894E+02  0.42822129881E+03  0.46491184286E+03  0.00000000000E+00 0. -1.
         -1    1    5    5    0  502  0.14246413900E+02  0.28245489082E+03  0.47490445466E+03  0.55273679696E+03  0.00000000000E+00 0.  1.
         -3    1    6    6    0  503 -0.37862054903E+03 -0.15367192337E+03  0.13453317016E+04  0.14060177692E+04  0.00000000000E+00 0.  1.
<mgrwt>
<rscale>  0 0.19210815E+04</rscale>
<asrwt>0</asrwt>
<pdfrwt beam="1">  1        2 0.45362225E+00 0.19210815E+04</pdfrwt>
<pdfrwt beam="2">  1       -2 0.48140494E-01 0.19210815E+04</pdfrwt>
<totfact> 0.71845021E+00</totfact>
</mgrwt>
</event>
<event>
12    1  0.4247462E-008  0.2934230E+04  0.7818608E-02  0.8262765E-01
         -2   -1    0    0    0  501 -0.00000000000E+00  0.00000000000E+00  0.75732315773E+03  0.75732315773E+03  0.00000000000E+00 0.  1.
          2   -1    0    0  501    0  0.00000000000E+00 -0.00000000000E+00 -0.28421501027E+04  0.28421501027E+04  0.00000000000E+00 0. -1.
         23    2    1    2    0    0  0.44123003115E+03 -0.93348166192E+03  0.76639447529E+02  0.10411260763E+04  0.10953514685E+03 0.  0.
        254    2    1    2    0    0 -0.44123003115E+03  0.93348166192E+03 -0.21614663925E+04  0.25583471841E+04  0.89840491699E+03 0.  0.
         23    2    4    4    0    0 -0.18288604575E+03  0.85762247134E+03 -0.88163622262E+03  0.12467779071E+04  0.90604147173E+02 0.  0.
         23    2    4    4    0    0 -0.25834398539E+03  0.75859190582E+02 -0.12798301698E+04  0.13115692770E+04  0.98754610303E+02 0.  0.
         13    1    3    3    0    0  0.16179967727E+03 -0.34530098194E+03 -0.24597864666E+02  0.38212165424E+03  0.00000000000E+00 0. -1.
        -13    1    3    3    0    0  0.27943035388E+03 -0.58818067999E+03  0.10123731219E+03  0.65900442211E+03  0.00000000000E+00 0.  1.
          4    1    5    5  502    0  0.56554505484E+00  0.15473810061E+03 -0.16945909373E+03  0.22947894036E+03  0.00000000000E+00 0. -1.
          1    1    6    6  503    0 -0.49879199959E+02 -0.24313465006E+02 -0.24200690328E+03  0.24828697188E+03  0.00000000000E+00 0. -1.
         -4    1    5    5    0  502 -0.18345159081E+03  0.70288437073E+03 -0.71217712890E+03  0.10172989667E+04  0.00000000000E+00 0.  1.
         -1    1    6    6    0  503 -0.20846478543E+03  0.10017265559E+03 -0.10378232666E+04  0.10632823051E+04  0.00000000000E+00 0.  1.
<mgrwt>
<rscale>  0 0.29342298E+04</rscale>
<asrwt>0</asrwt>
<pdfrwt beam="1">  1        2 0.43725386E+00 0.29342298E+04</pdfrwt>
<pdfrwt beam="2">  1       -2 0.11651125E+00 0.29342298E+04</pdfrwt>
<totfact> 0.10710158E+00</totfact>
</mgrwt>
</event>
<event>
12    1  0.4247462E-008  0.3941551E+04  0.7818608E-02  0.8016443E-01
          1   -1    0    0  501    0  0.00000000000E+00  0.00000000000E+00  0.28850926927E+04  0.28850926927E+04  0.00000000000E+00 0. -1.
         -1   -1    0    0    0  501 -0.00000000000E+00 -0.00000000000E+00 -0.13462151171E+04  0.13462151171E+04  0.00000000000E+00 0.  1.
         23    2    1    2    0    0  0.13310253835E+04  0.13090504497E+04  0.69147977709E+03  0.19931067908E+04  0.95334914982E+02 0.  0.
        254    2    1    2    0    0 -0.13310253835E+04 -0.13090504497E+04  0.84739779850E+03  0.22382010189E+04  0.89789705467E+03 0.  0.
         23    2    4    4    0    0 -0.87900863908E+03 -0.38388847648E+03  0.70447176602E+03  0.11935911790E+04  0.91394111082E+02 0.  0.
         23    2    4    4    0    0 -0.45201674446E+03 -0.92516197322E+03  0.14292603248E+03  0.10446098399E+04  0.10265501909E+03 0.  0.
         11    1    3    3    0    0  0.62584593223E+03  0.66460146988E+03  0.37238821196E+03  0.98592658198E+03  0.00000000000E+00 0. -1.
        -11    1    3    3    0    0  0.70517945131E+03  0.64444897981E+03  0.31909156513E+03  0.10071802088E+04  0.00000000000E+00 0.  1.
          2    1    5    5  502    0 -0.94717895883E+02 -0.28713021601E+02  0.10618838976E+03  0.14516160487E+03  0.00000000000E+00 0. -1.
          1    1    6    6  503    0 -0.76498566328E+02 -0.16612837011E+03 -0.13681060400E+02  0.18340620878E+03  0.00000000000E+00 0. -1.
         -2    1    5    5    0  502 -0.78429074319E+03 -0.35517545488E+03  0.59828337626E+03  0.10484295741E+04  0.00000000000E+00 0.  1.
         -1    1    6    6    0  503 -0.37551817813E+03 -0.75903360311E+03  0.15660709288E+03  0.86120363115E+03  0.00000000000E+00 0.  1.
<mgrwt>
<rscale>  0 0.39415507E+04</rscale>
<asrwt>0</asrwt>
<pdfrwt beam="1">  1        1 0.44386041E+00 0.39415507E+04</pdfrwt>
<pdfrwt beam="2">  1       -1 0.20711002E+00 0.39415507E+04</pdfrwt>
<totfact> 0.76575705E-02</totfact>
</mgrwt>
</event>
<event>
12    1  0.4247462E-008  0.2115301E+04  0.7818608E-02  0.8554533E-01
         -2   -1    0    0    0  501 -0.00000000000E+00  0.00000000000E+00  0.22279283816E+04  0.22279283816E+04  0.00000000000E+00 0.  1.
          2   -1    0    0  501    0  0.00000000000E+00 -0.00000000000E+00 -0.50209184519E+03  0.50209184519E+03  0.00000000000E+00 0. -1.
         23    2    1    2    0    0 -0.12645383631E+02 -0.30148088900E+03 -0.33594542058E+03  0.46072313973E+03  0.91410358939E+02 0.  0.
        254    2    1    2    0    0  0.12645383631E+02  0.30148088900E+03  0.20617819570E+04  0.22692970871E+04  0.89872899089E+03 0.  0.
         23    2    4    4    0    0 -0.34605936221E+03  0.39752142927E+03  0.90676078679E+03  0.10526972978E+04  0.90421831129E+02 0.  0.
         23    2    4    4    0    0  0.35870474584E+03 -0.96040540276E+02  0.11550211702E+04  0.12165997892E+04  0.90267732054E+02 0.  0.
         13    1    3    3    0    0 -0.21623188395E+02 -0.30321309465E+03 -0.33351412405E+03  0.45126202365E+03  0.00000000000E+00 0. -1.
        -13    1    3    3    0    0  0.89778047633E+01  0.17322056517E+01 -0.24312965210E+01  0.94611160844E+01  0.00000000000E+00 0.  1.
          2    1    5    5  502    0 -0.32468817107E+03  0.38953078211E+03  0.83035309183E+03  0.97295575220E+03  0.00000000000E+00 0. -1.
          1    1    6    6  503    0  0.32371870480E+03 -0.55475072021E+02  0.98100487027E+03  0.10345249339E+04  0.00000000000E+00 0. -1.
         -2    1    5    5    0  502 -0.21371191136E+02  0.79906471638E+01  0.76407694960E+02  0.79741545644E+02  0.00000000000E+00 0.  1.
         -1    1    6    6    0  503  0.34986041036E+02 -0.40565468255E+02  0.17401629994E+03  0.18207485528E+03  0.00000000000E+00 0.  1.
<mgrwt>
<rscale>  0 0.21153011E+04</rscale>
<asrwt>0</asrwt>
<pdfrwt beam="1">  1        2 0.77244900E-01 0.21153011E+04</pdfrwt>
<pdfrwt beam="2">  1       -2 0.34275821E+00 0.21153011E+04</pdfrwt>
<totfact> 0.97621397E-01</totfact>
</mgrwt>
</event>
<event>
12    1  0.4247462E-008  0.1293322E+04  0.7818608E-02  0.9034878E-01
          1   -1    0    0  501    0  0.00000000000E+00  0.00000000000E+00  0.74049803962E+03  0.74049803962E+03  0.00000000000E+00 0. -1.
         -1   -1    0    0    0  501 -0.00000000000E+00 -0.00000000000E+00 -0.56471489702E+03  0.56471489702E+03  0.00000000000E+00 0.  1.
         23    2    1    2    0    0 -0.95089535842E+01  0.32274103389E+03 -0.11374674428E+02  0.33593900474E+03  0.92051271211E+02 0.  0.
        254    2    1    2    0    0  0.95089535842E+01 -0.32274103389E+03  0.18715781703E+03  0.96927393190E+03  0.89454553346E+03 0.  0.
         23    2    4    4    0    0  0.23559915853E+02 -0.97414059258E+02  0.53158952414E+03  0.54744895080E+03  0.84073556962E+02 0.  0.
         23    2    4    4    0    0 -0.14050962269E+02 -0.22532697463E+03 -0.34443170711E+03  0.42182498110E+03  0.91287670473E+02 0.  0.
         11    1    3    3    0    0  0.12790571124E+01  0.12955500153E+02  0.20549403397E+02  0.24326096096E+02  0.00000000000E+00 0.  1.
        -11    1    3    3    0    0 -0.10788010697E+02  0.30978553374E+03 -0.31924077825E+02  0.31161290864E+03  0.00000000000E+00 0. -1.
          2    1    5    5  502    0 -0.26174642306E+02 -0.67449225241E+02  0.27340224051E+03  0.28281318039E+03  0.00000000000E+00 0. -1.
          3    1    6    6  503    0  0.88656855660E+01 -0.30138177187E+02 -0.11747548527E+03  0.12160345284E+03  0.00000000000E+00 0.  1.
         -2    1    5    5    0  502  0.49734558160E+02 -0.29964834017E+02  0.25818728363E+03  0.26463577041E+03  0.00000000000E+00 0.  1.
         -3    1    6    6    0  503 -0.22916647835E+02 -0.19518879744E+03 -0.22695622185E+03  0.30022152826E+03  0.00000000000E+00 0. -1.
<mgrwt>
<rscale>  0 0.12933217E+04</rscale>
<asrwt>0</asrwt>
<pdfrwt beam="1">  1        1 0.11392278E+00 0.12933217E+04</pdfrwt>
<pdfrwt beam="2">  1       -1 0.86879215E-01 0.12933217E+04</pdfrwt>
<totfact> 0.32075730E+01</totfact>
</mgrwt>
</event>
<event>
12    1  0.4247462E-008  0.2099322E+04  0.7818608E-02  0.8561542E-01
         -1   -1    0    0    0  501 -0.00000000000E+00  0.00000000000E+00  0.38713124578E+03  0.38713124578E+03  0.00000000000E+00 0.  1.
          1   -1    0    0  501    0  0.00000000000E+00 -0.00000000000E+00 -0.28460318641E+04  0.28460318641E+04  0.00000000000E+00 0. -1.
         23    2    1    2    0    0  0.15125721313E+03  0.10590207471E+03  0.27650159304E+03  0.34503356324E+03  0.92201056741E+02 0.  0.
        254    2    1    2    0    0 -0.15125721313E+03 -0.10590207471E+03 -0.27354022114E+04  0.28881295466E+04  0.90817015275E+03 0.  0.
         23    2    4    4    0    0 -0.19272101230E+03 -0.27547650605E+03 -0.34750094325E+03  0.49217819372E+03  0.91944411728E+02 0.  0.
         23    2    4    4    0    0  0.41463799172E+02  0.16957443134E+03 -0.23879012681E+04  0.23959513529E+04  0.89641982009E+02 0.  0.
         13    1    3    3    0    0  0.77839403773E+02  0.10626442734E+03  0.15893407958E+03  0.20642466652E+03  0.00000000000E+00 0.  1.
        -13    1    3    3    0    0  0.73417809354E+02 -0.36235263514E+00  0.11756751346E+03  0.13860889672E+03  0.00000000000E+00 0. -1.
          2    1    5    5  502    0 -0.15140519727E+02 -0.91698983746E+02 -0.96254484721E+02  0.13380158738E+03  0.00000000000E+00 0. -1.
          1    1    6    6  503    0 -0.45867392238E+01  0.13600095934E+03 -0.14710040372E+04  0.14772847311E+04  0.00000000000E+00 0. -1.
         -2    1    5    5    0  502 -0.17758049257E+03 -0.18377752230E+03 -0.25124645852E+03  0.35837660633E+03  0.00000000000E+00 0.  1.
         -1    1    6    6    0  503  0.46050538396E+02  0.33573472005E+02 -0.91689723090E+03  0.91866662187E+03  0.00000000000E+00 0.  1.
<mgrwt>
<rscale>  0 0.20993217E+04</rscale>
<asrwt>0</asrwt>
<pdfrwt beam="1">  1        1 0.43785105E+00 0.20993217E+04</pdfrwt>
<pdfrwt beam="2">  1       -1 0.59558653E-01 0.20993217E+04</pdfrwt>
<totfact> 0.20326261E+00</totfact>
</mgrwt>
</event>
<event>
12    1  0.4247462E-008  0.1634589E+04  0.7818608E-02  0.8799576E-01
          2   -1    0    0  501    0  0.00000000000E+00  0.00000000000E+00  0.15348231874E+04  0.15348231874E+04  0.00000000000E+00 0. -1.
         -2   -1    0    0    0  501 -0.00000000000E+00 -0.00000000000E+00 -0.43520969410E+03  0.43520969410E+03  0.00000000000E+00 0.  1.
         23    2    1    2    0    0 -0.19039058646E+03 -0.45330278255E+03  0.69818119871E+03  0.85885518133E+03  0.91887149168E+02 0.  0.
        254    2    1    2    0    0  0.19039058646E+03  0.45330278255E+03  0.40143229456E+03  0.11111777001E+04  0.91205044054E+03 0.  0.
         23    2    4    4    0    0 -0.22180385691E+03 -0.16167732357E+03  0.99082275953E+02  0.30645110763E+03  0.93586730166E+02 0.  0.
         23    2    4    4    0    0  0.41219444338E+03  0.61498010612E+03  0.30235001860E+03  0.80472659250E+03  0.89802922350E+02 0.  0.
         11    1    3    3    0    0 -0.17585200745E+03 -0.42637986963E+03  0.68438329579E+03  0.82529038362E+03  0.00000000000E+00 0. -1.
        -11    1    3    3    0    0 -0.14538579017E+02 -0.26922912925E+02  0.13797902926E+02  0.33564797711E+02  0.00000000000E+00 0.  1.
          2    1    5    5  502    0 -0.10814423369E+03 -0.13260983462E+03  0.74269529597E+02  0.18653821739E+03  0.00000000000E+00 0. -1.
          3    1    6    6  503    0  0.77783507738E+02  0.94360036484E+02  0.17474564025E+02  0.12352915020E+03  0.00000000000E+00 0. -1.
         -2    1    5    5    0  502 -0.11365962323E+03 -0.29067488943E+02  0.24812746356E+02  0.11991289025E+03  0.00000000000E+00 0.  1.
         -3    1    6    6    0  503  0.33441093564E+03  0.52062006963E+03  0.28487545458E+03  0.68119744230E+03  0.00000000000E+00 0.  1.
<mgrwt>
<rscale>  0 0.16345885E+04</rscale>
<asrwt>0</asrwt>
<pdfrwt beam="1">  1        2 0.23612664E+00 0.16345885E+04</pdfrwt>
<pdfrwt beam="2">  1       -2 0.66955338E-01 0.16345885E+04</pdfrwt>
<totfact> 0.23759201E+01</totfact>
</mgrwt>
</event>
<event>
12    1  0.4247462E-008  0.2006891E+04  0.7818608E-02  0.8603406E-01
          2   -1    0    0  501    0  0.00000000000E+00  0.00000000000E+00  0.19068565705E+04  0.19068565705E+04  0.00000000000E+00 0. -1.
         -2   -1    0    0    0  501 -0.00000000000E+00 -0.00000000000E+00 -0.52804339128E+03  0.52804339128E+03  0.00000000000E+00 0.  1.
         23    2    1    2    0    0  0.33908481351E+03 -0.29512823268E+03  0.13484230738E+04  0.14243571915E+04  0.92029553076E+02 0.  0.
        254    2    1    2    0    0 -0.33908481351E+03  0.29512823268E+03  0.30390105474E+02  0.10105427703E+04  0.90454073850E+03 0.  0.
         23    2    4    4    0    0 -0.46590854005E+02 -0.17426580561E+03  0.32090755863E+03  0.37920752547E+03  0.90980258850E+02 0.  0.
         23    2    4    4    0    0 -0.29249395950E+03  0.46939403829E+03 -0.29051745316E+03  0.63133524483E+03  0.91106098825E+02 0.  0.
         13    1    3    3    0    0  0.43819844810E+02 -0.26939367270E+02  0.83889827024E+02  0.98404326054E+02  0.00000000000E+00 0.  1.
        -13    1    3    3    0    0  0.29526496870E+03 -0.26818886541E+03  0.12645332468E+04  0.13259528655E+04  0.00000000000E+00 0. -1.
          1    1    5    5  502    0  0.60241534801E+01 -0.91556961637E+02  0.22076350779E+03  0.23907215233E+03  0.00000000000E+00 0. -1.
          3    1    6    6  503    0 -0.91057874530E+02  0.81807420577E+02 -0.46147031474E+02  0.13081872606E+03  0.00000000000E+00 0. -1.
         -1    1    5    5    0  502 -0.52615007485E+02 -0.82708843974E+02  0.10014405085E+03  0.14013537314E+03  0.00000000000E+00 0.  1.
         -3    1    6    6    0  503 -0.20143608497E+03  0.38758661771E+03 -0.24437042169E+03  0.50051651876E+03  0.00000000000E+00 0.  1.
<mgrwt>
<rscale>  0 0.20068911E+04</rscale>
<asrwt>0</asrwt>
<pdfrwt beam="1">  1        2 0.29336255E+00 0.20068911E+04</pdfrwt>
<pdfrwt beam="2">  1       -2 0.81237445E-01 0.20068911E+04</pdfrwt>
<totfact> 0.93318436E+00</totfact>
</mgrwt>
</event>
<event>
12    1  0.4606691E-008  0.1536864E+04  0.7818608E-02  0.8860302E-01
          2   -1    0    0  501    0  0.00000000000E+00  0.00000000000E+00  0.19924600379E+04  0.19924600379E+04  0.00000000000E+00 0. -1.
         -2   -1    0    0    0  501 -0.00000000000E+00 -0.00000000000E+00 -0.29636109267E+03  0.29636109267E+03  0.00000000000E+00 0.  1.
         23    2    1    2    0    0  0.37344313129E+03 -0.54375739054E+02  0.10782176588E+04  0.11457654566E+04  0.88366670511E+02 0.  0.
        254    2    1    2    0    0 -0.37344313129E+03  0.54375739054E+02  0.61788128642E+03  0.11430556740E+04  0.88452388118E+03 0.  0.
         23    2    4    4    0    0 -0.22519344232E+03 -0.11016168121E+03  0.79915429868E+03  0.84246372812E+03  0.90828726867E+02 0.  0.
         23    2    4    4    0    0 -0.14824968896E+03  0.16453742026E+03 -0.18127301225E+03  0.30059194585E+03  0.91897116363E+02 0.  0.
         13    1    3    3    0    0  0.31234812049E+03 -0.48569899934E+02  0.78616633244E+03  0.84733575743E+03  0.00000000000E+00 0. -1.
        -13    1    3    3    0    0  0.61095010796E+02 -0.58058391200E+01  0.29205132634E+03  0.29842969914E+03  0.00000000000E+00 0.  1.
          4    1    5    5  502    0 -0.22185481358E+03 -0.11422586738E+03  0.69958958799E+03  0.74276018924E+03  0.00000000000E+00 0. -1.
          3    1    6    6  503    0 -0.11721226614E+03  0.17172943049E+03 -0.15652050483E+03  0.26024676955E+03  0.00000000000E+00 0. -1.
         -4    1    5    5    0  502 -0.33386287420E+01  0.40641861742E+01  0.99564710685E+02  0.99703538878E+02  0.00000000000E+00 0.  1.
         -3    1    6    6    0  503 -0.31037422825E+02 -0.71920102327E+01 -0.24752507429E+02  0.40345176301E+02  0.00000000000E+00 0.  1.
<mgrwt>
<rscale>  0 0.15368639E+04</rscale>
<asrwt>0</asrwt>
<pdfrwt beam="1">  1        2 0.30653231E+00 0.15368639E+04</pdfrwt>
<pdfrwt beam="2">  1       -2 0.45594015E-01 0.15368639E+04</pdfrwt>
<totfact> 0.29659303E+01</totfact>
</mgrwt>
</event>
<event>
12    1  0.4247462E-008  0.1141549E+04  0.7818608E-02  0.9165615E-01
          2   -1    0    0  501    0  0.00000000000E+00  0.00000000000E+00  0.12551418671E+04  0.12551418671E+04  0.00000000000E+00 0. -1.
         -2   -1    0    0    0  501 -0.00000000000E+00 -0.00000000000E+00 -0.25955916756E+03  0.25955916756E+03  0.00000000000E+00 0.  1.
         23    2    1    2    0    0  0.78924753967E+02  0.11834838928E+03  0.38764519023E+03  0.42269798435E+03  0.90384370542E+02 0.  0.
        254    2    1    2    0    0 -0.78924753967E+02 -0.11834838928E+03  0.60793750929E+03  0.10920030503E+04  0.89590579226E+03 0.  0.
         23    2    4    4    0    0 -0.37418292657E+03  0.14284041146E+03  0.54649913732E+03  0.68336999135E+03  0.88977482014E+02 0.  0.
         23    2    4    4    0    0  0.29525817260E+03 -0.26118880073E+03  0.61438371975E+02  0.40863305894E+03  0.88370386392E+02 0.  0.
         13    1    3    3    0    0  0.44193562835E+02  0.34006421169E+01  0.15039066362E+03  0.15678643776E+03  0.00000000000E+00 0.  1.
        -13    1    3    3    0    0  0.34731191132E+02  0.11494774716E+03  0.23725452661E+03  0.26591154659E+03  0.00000000000E+00 0. -1.
          4    1    5    5  502    0  0.21947851670E+01  0.96927244472E+01  0.22615215754E+02  0.24702509442E+02  0.00000000000E+00 0. -1.
          1    1    6    6  503    0  0.10878716419E+03 -0.65433259964E+02  0.54596836748E+02  0.13819179855E+03  0.00000000000E+00 0. -1.
         -4    1    5    5    0  502 -0.37637771174E+03  0.13314768701E+03  0.52388392156E+03  0.65866748191E+03  0.00000000000E+00 0.  1.
         -1    1    6    6    0  503  0.18647100841E+03 -0.19575554077E+03  0.68415352270E+01  0.27044126039E+03  0.00000000000E+00 0.  1.
<mgrwt>
<rscale>  0 0.11415491E+04</rscale>
<asrwt>0</asrwt>
<pdfrwt beam="1">  1        2 0.19309875E+00 0.11415491E+04</pdfrwt>
<pdfrwt beam="2">  1       -2 0.39932180E-01 0.11415491E+04</pdfrwt>
<totfact> 0.10314971E+02</totfact>
</mgrwt>
</event>
<event>
12    1  0.4247462E-008  0.1918455E+04  0.7818608E-02  0.8645724E-01
          1   -1    0    0  501    0  0.00000000000E+00  0.00000000000E+00  0.16716490705E+04  0.16716490705E+04  0.00000000000E+00 0. -1.
         -1   -1    0    0    0  501 -0.00000000000E+00 -0.00000000000E+00 -0.55042524292E+03  0.55042524292E+03  0.00000000000E+00 0.  1.
         23    2    1    2    0    0  0.29447456379E+03  0.63253691163E+03  0.75525288948E+03  0.10321768110E+04  0.90353908567E+02 0.  0.
        254    2    1    2    0    0 -0.29447456379E+03 -0.63253691163E+03  0.36597093808E+03  0.11898975024E+04  0.89168555298E+03 0.  0.
         23    2    4    4    0    0  0.16562672587E+03  0.76441140847E+02 -0.91070632734E+02  0.22390664045E+03  0.92546545894E+02 0.  0.
         23    2    4    4    0    0 -0.46010128966E+03 -0.70897805248E+03  0.45704157081E+03  0.96599086194E+03  0.99540304686E+02 0.  0.
         11    1    3    3    0    0  0.28182386363E+03  0.57156799856E+03  0.71620596440E+03  0.95867911761E+03  0.00000000000E+00 0. -1.
        -11    1    3    3    0    0  0.12650700156E+02  0.60968913069E+02  0.39046925083E+02  0.73497693391E+02  0.00000000000E+00 0.  1.
          2    1    5    5  502    0  0.13051135178E+02 -0.17079508654E+02  0.30466432147E+01  0.21709992634E+02  0.00000000000E+00 0.  1.
          3    1    6    6  503    0 -0.30587227399E+03 -0.44883064279E+03  0.34511548946E+03  0.64351495318E+03  0.00000000000E+00 0. -1.
         -2    1    5    5    0  502  0.15257559069E+03  0.93520649501E+02 -0.94117275949E+02  0.20219664782E+03  0.00000000000E+00 0. -1.
         -3    1    6    6    0  503 -0.15422901567E+03 -0.26014740969E+03  0.11192608135E+03  0.32247590876E+03  0.00000000000E+00 0.  1.
<mgrwt>
<rscale>  0 0.19184555E+04</rscale>
<asrwt>0</asrwt>
<pdfrwt beam="1">  1        1 0.25717678E+00 0.19184555E+04</pdfrwt>
<pdfrwt beam="2">  1       -1 0.84680807E-01 0.19184555E+04</pdfrwt>
<totfact> 0.64251247E+00</totfact>
</mgrwt>
</event>
<event>
12    1  0.4247462E-008  0.2029892E+04  0.7818608E-02  0.8592771E-01
         -2   -1    0    0    0  501 -0.00000000000E+00  0.00000000000E+00  0.35538317137E+03  0.35538317137E+03  0.00000000000E+00 0. -1.
          2   -1    0    0  501    0  0.00000000000E+00 -0.00000000000E+00 -0.28986039006E+04  0.28986039006E+04  0.00000000000E+00 0.  1.
         23    2    1    2    0    0 -0.38513868241E+01 -0.53200197942E+03 -0.20446602272E+04  0.21149155320E+04  0.95871388681E+02 0.  0.
        254    2    1    2    0    0  0.38513868241E+01  0.53200197942E+03 -0.49856050197E+03  0.11390715400E+04  0.87514596487E+03 0.  0.
         23    2    4    4    0    0 -0.20668700575E+03  0.50840686181E+03 -0.65461517434E+03  0.85927654412E+03  0.92941364968E+02 0.  0.
         23    2    4    4    0    0  0.21053839257E+03  0.23595117607E+02  0.15605467237E+03  0.27979499588E+03  0.95126413927E+02 0.  0.
         13    1    3    3    0    0 -0.40903448021E+02 -0.43167599285E+03 -0.16483632937E+04  0.17044409063E+04  0.00000000000E+00 0.  1.
        -13    1    3    3    0    0  0.37052061197E+02 -0.10032598656E+03 -0.39629693354E+03  0.41047462571E+03  0.00000000000E+00 0. -1.
          4    1    5    5  502    0 -0.19216206487E+03  0.47286782156E+03 -0.63899150295E+03  0.81782661773E+03  0.00000000000E+00 0. -1.
          3    1    6    6  503    0  0.13068547941E+03  0.40243630620E+02  0.14179594923E+03  0.19698816095E+03  0.00000000000E+00 0. -1.
         -4    1    5    5    0  502 -0.14524940878E+02  0.35539040253E+02 -0.15623671392E+02  0.41449926385E+02  0.00000000000E+00 0.  1.
         -3    1    6    6    0  503  0.79852913160E+02 -0.16648513013E+02  0.14258723143E+02  0.82806834931E+02  0.00000000000E+00 0.  1.
<mgrwt>
<rscale>  0 0.20298917E+04</rscale>
<asrwt>0</asrwt>
<pdfrwt beam="1">  1        2 0.44593907E+00 0.20298917E+04</pdfrwt>
<pdfrwt beam="2">  1       -2 0.54674332E-01 0.20298917E+04</pdfrwt>
<totfact> 0.58829167E+00</totfact>
</mgrwt>
</event>
<event>
12    1  0.4247462E-008  0.1602201E+04  0.7818608E-02  0.8819197E-01
         -1   -1    0    0    0  501 -0.00000000000E+00  0.00000000000E+00  0.70289767838E+03  0.70289767838E+03  0.00000000000E+00 0.  1.
          1   -1    0    0  501    0  0.00000000000E+00 -0.00000000000E+00 -0.91302353028E+03  0.91302353028E+03  0.00000000000E+00 0. -1.
         23    2    1    2    0    0  0.37207776633E+03  0.39066125254E+03  0.66383386329E+01  0.54687232678E+03  0.89259149813E+02 0.  0.
        254    2    1    2    0    0 -0.37207776633E+03 -0.39066125254E+03 -0.21676419053E+03  0.10690488819E+04  0.89711800736E+03 0.  0.
         23    2    4    4    0    0 -0.27564016600E+03 -0.48899851609E+03  0.21555477242E+03  0.60817316168E+03  0.91179410066E+02 0.  0.
         23    2    4    4    0    0 -0.96437600333E+02  0.98337263553E+02 -0.43231896295E+03  0.46087572020E+03  0.80847483472E+02 0.  0.
         11    1    3    3    0    0  0.20508760274E+03  0.21952187029E+03  0.47943460193E+02  0.30421924940E+03  0.00000000000E+00 0. -1.
        -11    1    3    3    0    0  0.16699016360E+03  0.17113938225E+03 -0.41305121560E+02  0.24265307738E+03  0.00000000000E+00 0.  1.
          3    1    6    6  502    0 -0.34392024355E+02  0.73912389996E+02 -0.32031110394E+03  0.33052239870E+03  0.00000000000E+00 0. -1.
          3    1    5    5  503    0 -0.96037460480E+02 -0.13990529305E+03  0.24123692229E+02  0.17140197597E+03  0.00000000000E+00 0. -1.
         -3    1    5    5    0  503 -0.17960270552E+03 -0.34909322304E+03  0.19143108019E+03  0.43677118571E+03  0.00000000000E+00 0.  1.
         -3    1    6    6    0  502 -0.62045575978E+02  0.24424873558E+02 -0.11200785901E+03  0.13035332150E+03  0.00000000000E+00 0.  1.
<mgrwt>
<rscale>  0 0.16022011E+04</rscale>
<asrwt>0</asrwt>
<pdfrwt beam="1">  1        1 0.14046516E+00 0.16022011E+04</pdfrwt>
<pdfrwt beam="2">  1       -1 0.10813810E+00 0.16022011E+04</pdfrwt>
<totfact> 0.13538284E+01</totfact>
</mgrwt>
</event>
<event>
12    1  0.4247462E-008  0.1470246E+04  0.7818608E-02  0.8904483E-01
          1   -1    0    0  501    0  0.00000000000E+00  0.00000000000E+00  0.29725892061E+03  0.29725892061E+03  0.00000000000E+00 0. -1.
         -1   -1    0    0    0  501 -0.00000000000E+00 -0.00000000000E+00 -0.18179643173E+04  0.18179643173E+04  0.00000000000E+00 0.  1.
         23    2    1    2    0    0  0.11831316561E+03  0.42023476746E+02  0.15435621049E+03  0.21894243769E+03  0.91356300008E+02 0.  0.
        254    2    1    2    0    0 -0.11831316561E+03 -0.42023476746E+02 -0.16750616072E+04  0.18962808002E+04  0.87993494514E+03 0.  0.
         23    2    4    4    0    0 -0.43700231812E+03 -0.18824361981E+03 -0.12352042535E+04  0.13268974298E+04  0.92306851954E+02 0.  0.
         23    2    4    4    0    0  0.31868915251E+03  0.14622014307E+03 -0.43985735371E+03  0.56938337045E+03  0.88203314876E+02 0.  0.
         11    1    3    3    0    0  0.76781959389E+02  0.40932010873E+02  0.37184619922E+02  0.94623436634E+02  0.00000000000E+00 0. -1.
        -11    1    3    3    0    0  0.41531206221E+02  0.10914658731E+01  0.11717159057E+03  0.12431900106E+03  0.00000000000E+00 0.  1.
          2    1    6    6  502    0  0.10694595220E+03  0.48486001780E+02 -0.21741390905E+03  0.24709742392E+03  0.00000000000E+00 0. -1.
          2    1    5    5  503    0 -0.42757701874E+03 -0.19373247188E+03 -0.12253887630E+04  0.13122240655E+04  0.00000000000E+00 0.  1.
         -2    1    5    5    0  503 -0.94252993834E+01  0.54888520619E+01 -0.98154904168E+01  0.14673364220E+02  0.00000000000E+00 0. -1.
         -2    1    6    6    0  502  0.21174320032E+03  0.97734141289E+02 -0.22244344467E+03  0.32228594653E+03  0.00000000000E+00 0.  1.
<mgrwt>
<rscale>  0 0.14702464E+04</rscale>
<asrwt>0</asrwt>
<pdfrwt beam="1">  1        1 0.45732142E-01 0.14702464E+04</pdfrwt>
<pdfrwt beam="2">  1       -1 0.27968681E+00 0.14702464E+04</pdfrwt>
<totfact> 0.38545062E+00</totfact>
</mgrwt>
</event>
<event>
12    1  0.4247462E-008  0.1530911E+04  0.7818608E-02  0.8864154E-01
         -2   -1    0    0    0  501 -0.00000000000E+00  0.00000000000E+00  0.71671581616E+03  0.71671581616E+03  0.00000000000E+00 0.  1.
          2   -1    0    0  501    0  0.00000000000E+00 -0.00000000000E+00 -0.81751000135E+03  0.81751000135E+03  0.00000000000E+00 0. -1.
         23    2    1    2    0    0  0.14967199066E+03  0.46815646202E+03 -0.81784692192E+02  0.50623832685E+03  0.89533959905E+02 0.  0.
        254    2    1    2    0    0 -0.14967199066E+03 -0.46815646202E+03 -0.19009492994E+02  0.10279874907E+04  0.90267643284E+03 0.  0.
         23    2    4    4    0    0 -0.31405996933E+03 -0.46623945957E+02 -0.33364415115E+03  0.46946877579E+03  0.90967330240E+02 0.  0.
         23    2    4    4    0    0  0.16438797867E+03 -0.42153251606E+03  0.31463465816E+03  0.55851871487E+03  0.90747546068E+02 0.  0.
         11    1    3    3    0    0  0.15231568641E+03  0.46944595124E+03 -0.75473426088E+02  0.49927528229E+03  0.00000000000E+00 0. -1.
        -11    1    3    3    0    0 -0.26436957496E+01 -0.12894892220E+01 -0.63112661036E+01  0.69630445568E+01  0.00000000000E+00 0.  1.
          1    1    5    5  502    0 -0.10495337993E+03  0.94403538814E+01 -0.62568363935E+02  0.12255256997E+03  0.00000000000E+00 0. -1.
          3    1    6    6  503    0  0.63344431562E+01 -0.26289488621E+02 -0.32659986509E+01  0.27238376039E+02  0.00000000000E+00 0.  1.
         -1    1    5    5    0  502 -0.20910658940E+03 -0.56064299838E+02 -0.27107578721E+03  0.34691620582E+03  0.00000000000E+00 0.  1.
         -3    1    6    6    0  503  0.15805353551E+03 -0.39524302744E+03  0.31790065681E+03  0.53128033883E+03  0.00000000000E+00 0. -1.
<mgrwt>
<rscale>  0 0.15309113E+04</rscale>
<asrwt>0</asrwt>
<pdfrwt beam="1">  1        2 0.12577077E+00 0.15309113E+04</pdfrwt>
<pdfrwt beam="2">  1       -2 0.11026397E+00 0.15309113E+04</pdfrwt>
<totfact> 0.21071732E+01</totfact>
</mgrwt>
</event>
<event>
12    1  0.4247462E-008  0.1555538E+04  0.7818608E-02  0.8848338E-01
         -1   -1    0    0    0  501 -0.00000000000E+00  0.00000000000E+00  0.59572342439E+03  0.59572342439E+03  0.00000000000E+00 0.  1.
          1   -1    0    0  501    0  0.00000000000E+00 -0.00000000000E+00 -0.10154454636E+04  0.10154454636E+04  0.00000000000E+00 0. -1.
         23    2    1    2    0    0  0.45986469970E+02 -0.25394995253E+03  0.31024189257E+03  0.41380012869E+03  0.91516013813E+02 0.  0.
        254    2    1    2    0    0 -0.45986469970E+02  0.25394995253E+03 -0.72996393179E+03  0.11973687593E+04  0.91336699647E+03 0.  0.
         23    2    4    4    0    0  0.83874617570E+02 -0.16938282088E+03 -0.71587725482E+03  0.74545832882E+03  0.86616306526E+02 0.  0.
         23    2    4    4    0    0 -0.12986108754E+03  0.42333277341E+03 -0.14086676962E+02  0.45191043048E+03  0.89163129211E+02 0.  0.
         13    1    3    3    0    0  0.48716518155E+02 -0.89171481459E+02  0.16682011195E+03  0.19532998233E+03  0.00000000000E+00 0.  1.
        -13    1    3    3    0    0 -0.27300481844E+01 -0.16477847107E+03  0.14342178063E+03  0.21847014636E+03  0.00000000000E+00 0. -1.
          1    1    6    6  502    0 -0.25570078357E+02  0.28482064109E+02  0.17926509407E+02  0.42266022082E+02  0.00000000000E+00 0. -1.
          1    1    5    5  503    0  0.79274754116E+02 -0.14994255725E+03 -0.69907097761E+03  0.71935213134E+03  0.00000000000E+00 0.  1.
         -1    1    5    5    0  503  0.45998634543E+01 -0.19440263624E+02 -0.16806277210E+02  0.26106197487E+02  0.00000000000E+00 0. -1.
         -1    1    6    6    0  502 -0.10429100918E+03  0.39485070930E+03 -0.32013186370E+02  0.40964440840E+03  0.00000000000E+00 0.  1.
<mgrwt>
<rscale>  0 0.15555380E+04</rscale>
<asrwt>0</asrwt>
<pdfrwt beam="1">  1        1 0.15622238E+00 0.15555380E+04</pdfrwt>
<pdfrwt beam="2">  1       -1 0.91649759E-01 0.15555380E+04</pdfrwt>
<totfact> 0.16447747E+01</totfact>
</mgrwt>
</event>
<event>
12    1  0.4247462E-008  0.1876980E+04  0.7818608E-02  0.8666401E-01
          1   -1    0    0  501    0  0.00000000000E+00  0.00000000000E+00  0.19875908332E+04  0.19875908332E+04  0.00000000000E+00 0. -1.
         -1   -1    0    0    0  501 -0.00000000000E+00 -0.00000000000E+00 -0.44313105945E+03  0.44313105945E+03  0.00000000000E+00 0.  1.
         23    2    1    2    0    0  0.18548800088E+03  0.56448298797E+03  0.68823681994E+02  0.60488130705E+03  0.89988078287E+02 0.  0.
        254    2    1    2    0    0 -0.18548800088E+03 -0.56448298797E+03  0.14756360918E+04  0.18258405856E+04  0.89618364556E+03 0.  0.
         23    2    4    4    0    0 -0.43394510083E+03 -0.43433422818E+03  0.47029824036E+03  0.77851772777E+03  0.89189939186E+02 0.  0.
         23    2    4    4    0    0  0.24845709995E+03 -0.13014875979E+03  0.10053378514E+04  0.10473228579E+04  0.86668003926E+02 0.  0.
         13    1    3    3    0    0  0.19227728280E+03  0.49836903439E+03  0.67348910650E+02  0.53840330950E+03  0.00000000000E+00 0.  1.
        -13    1    3    3    0    0 -0.67892819156E+01  0.66113953582E+02  0.14747713441E+01  0.66477997546E+02  0.00000000000E+00 0. -1.
          2    1    5    5  502    0 -0.26672299785E+03 -0.21536712606E+03  0.29219679119E+03  0.45044768992E+03  0.00000000000E+00 0.  1.
          4    1    6    6  503    0  0.11224702017E+03 -0.93331593389E+02  0.62031124932E+03  0.63725679745E+03  0.00000000000E+00 0. -1.
         -2    1    5    5    0  502 -0.16722210298E+03 -0.21896710212E+03  0.17810144917E+03  0.32807003785E+03  0.00000000000E+00 0. -1.
         -4    1    6    6    0  503  0.13621007978E+03 -0.36817166398E+02  0.38502660211E+03  0.41006606041E+03  0.00000000000E+00 0.  1.
<mgrwt>
<rscale>  0 0.18769797E+04</rscale>
<asrwt>0</asrwt>
<pdfrwt beam="1">  1        1 0.30578320E+00 0.18769797E+04</pdfrwt>
<pdfrwt beam="2">  1       -1 0.68174010E-01 0.18769797E+04</pdfrwt>
<totfact> 0.62041160E+00</totfact>
</mgrwt>
</event>
<event>
12    1  0.4247462E-008  0.2407437E+04  0.7818608E-02  0.8436725E-01
          1   -1    0    0  501    0  0.00000000000E+00  0.00000000000E+00  0.17199212695E+04  0.17199212695E+04  0.00000000000E+00 0. -1.
         -1   -1    0    0    0  501 -0.00000000000E+00 -0.00000000000E+00 -0.84244449110E+03  0.84244449110E+03  0.00000000000E+00 0.  1.
         23    2    1    2    0    0  0.94065496529E+03  0.24972054258E+03  0.11513192600E+02  0.97752858162E+03  0.90760460407E+02 0.  0.
        254    2    1    2    0    0 -0.94065496529E+03 -0.24972054258E+03  0.86596358581E+03  0.15848371790E+04  0.90256514382E+03 0.  0.
         23    2    4    4    0    0 -0.61541296273E+03  0.23027990439E+03  0.19209642077E+03  0.69067624241E+03  0.91491463474E+02 0.  0.
         23    2    4    4    0    0 -0.32524200256E+03 -0.48000044697E+03  0.67386716504E+03  0.89416093658E+03  0.96145905069E+02 0.  0.
         11    1    3    3    0    0  0.11452077849E+03  0.61787308934E+02  0.61536144731E+01  0.13027105290E+03  0.00000000000E+00 0. -1.
        -11    1    3    3    0    0  0.82613418680E+03  0.18793323365E+03  0.53595781267E+01  0.84725752873E+03  0.00000000000E+00 0.  1.
          2    1    5    5  502    0 -0.15497796015E+03  0.16752581028E+02  0.43825499238E+02  0.16192433878E+03  0.00000000000E+00 0. -1.
          3    1    6    6  503    0 -0.16199932488E+03 -0.28783546385E+03  0.44068309106E+03  0.55072191009E+03  0.00000000000E+00 0. -1.
         -2    1    5    5    0  502 -0.46043500257E+03  0.21352732337E+03  0.14827092153E+03  0.52875190363E+03  0.00000000000E+00 0.  1.
         -3    1    6    6    0  503 -0.16324267769E+03 -0.19216498312E+03  0.23318407398E+03  0.34343902649E+03  0.00000000000E+00 0.  1.
<mgrwt>
<rscale>  0 0.24074370E+04</rscale>
<asrwt>0</asrwt>
<pdfrwt beam="1">  1        1 0.26460327E+00 0.24074370E+04</pdfrwt>
<pdfrwt beam="2">  1       -1 0.12960684E+00 0.24074370E+04</pdfrwt>
<totfact> 0.21138652E+00</totfact>
</mgrwt>
</event>
<event>
12    1  0.4247462E-008  0.3185374E+04  0.7818608E-02  0.8192691E-01
          2   -1    0    0  501    0  0.00000000000E+00  0.00000000000E+00  0.20242437572E+04  0.20242437572E+04  0.00000000000E+00 0. -1.
         -2   -1    0    0    0  501 -0.00000000000E+00 -0.00000000000E+00 -0.12531353882E+04  0.12531353882E+04  0.00000000000E+00 0.  1.
         23    2    1    2    0    0  0.84263157726E+03  0.10870696231E+04 -0.15692452807E+03  0.13873560332E+04  0.91559350779E+02 0.  0.
        254    2    1    2    0    0 -0.84263157726E+03 -0.10870696231E+04  0.92803289706E+03  0.18900231122E+04  0.90509334668E+03 0.  0.
         23    2    4    4    0    0 -0.69041075446E+03 -0.26543020540E+03  0.18558152915E+03  0.76845096404E+03  0.94637077130E+02 0.  0.
         23    2    4    4    0    0 -0.15222082280E+03 -0.82163941774E+03  0.74245136791E+03  0.11215721482E+04  0.91801624218E+02 0.  0.
         11    1    3    3    0    0  0.79536697436E+03  0.10026983209E+04 -0.16437637069E+03  0.12903612432E+04  0.00000000000E+00 0.  1.
        -11    1    3    3    0    0  0.47264602902E+02  0.84371302212E+02  0.74518426214E+01  0.96994789978E+02  0.00000000000E+00 0. -1.
          4    1    5    5  502    0 -0.55220835646E+03 -0.19440990232E+03  0.11005713029E+03  0.59568603390E+03  0.00000000000E+00 0. -1.
          1    1    6    6  503    0 -0.13464920004E+03 -0.80575673051E+03  0.72314607789E+03  0.10910153829E+04  0.00000000000E+00 0. -1.
         -4    1    5    5    0  502 -0.13820239800E+03 -0.71020303082E+02  0.75524398860E+02  0.17276493014E+03  0.00000000000E+00 0.  1.
         -1    1    6    6    0  503 -0.17571622762E+02 -0.15882687226E+02  0.19305290022E+02  0.30556765255E+02  0.00000000000E+00 0.  1.
<mgrwt>
<rscale>  0 0.31853738E+04</rscale>
<asrwt>0</asrwt>
<pdfrwt beam="1">  1        2 0.31142212E+00 0.31853738E+04</pdfrwt>
<pdfrwt beam="2">  1       -2 0.19279006E+00 0.31853738E+04</pdfrwt>
<totfact> 0.81077039E-01</totfact>
</mgrwt>
</event>
<event>
12    1  0.4247462E-008  0.2920079E+04  0.7818608E-02  0.8266928E-01
          2   -1    0    0  501    0  0.00000000000E+00  0.00000000000E+00  0.21518544512E+04  0.21518544512E+04  0.00000000000E+00 0. -1.
         -2   -1    0    0    0  501 -0.00000000000E+00 -0.00000000000E+00 -0.99064120378E+03  0.99064120378E+03  0.00000000000E+00 0.  1.
         23    2    1    2    0    0  0.61581788775E+03 -0.11577081410E+04  0.68117258539E+03  0.14804336032E+04  0.90375614400E+02 0.  0.
        254    2    1    2    0    0 -0.61581788775E+03  0.11577081410E+04  0.48004066206E+03  0.16620620518E+04  0.90138305739E+03 0.  0.
         23    2    4    4    0    0 -0.63151641710E+03  0.35750838832E+03  0.14351238586E+02  0.73141640346E+03  0.90215100800E+02 0.  0.
         23    2    4    4    0    0  0.15698529357E+02  0.80019975272E+03  0.46568942348E+03  0.93064564836E+03  0.93105293021E+02 0.  0.
         13    1    3    3    0    0  0.11327575132E+03 -0.14893398578E+03  0.86442581632E+02  0.20611901387E+03  0.00000000000E+00 0.  1.
        -13    1    3    3    0    0  0.50254213642E+03 -0.10087741553E+04  0.59473000375E+03  0.12743145893E+04  0.00000000000E+00 0. -1.
          2    1    5    5  502    0 -0.25733075209E+03  0.19332011833E+03 -0.10611922386E+02  0.32203167083E+03  0.00000000000E+00 0. -1.
          3    1    6    6  503    0  0.35189302352E+02  0.63281515079E+03  0.40180616235E+03  0.75042754092E+03  0.00000000000E+00 0. -1.
         -2    1    5    5    0  502 -0.37418566501E+03  0.16418826999E+03  0.24963160971E+02  0.40938473263E+03  0.00000000000E+00 0.  1.
         -3    1    6    6    0  503 -0.19490772996E+02  0.16738460193E+03  0.63883261126E+02  0.18021810744E+03  0.00000000000E+00 0.  1.
<mgrwt>
<rscale>  0 0.29200792E+04</rscale>
<asrwt>0</asrwt>
<pdfrwt beam="1">  1        2 0.33105453E+00 0.29200792E+04</pdfrwt>
<pdfrwt beam="2">  1       -2 0.15240634E+00 0.29200792E+04</pdfrwt>
<totfact> 0.13599940E+00</totfact>
</mgrwt>
</event>
<event>
12    1  0.4247462E-008  0.1525455E+04  0.7818608E-02  0.8867700E-01
         -1   -1    0    0    0  501 -0.00000000000E+00  0.00000000000E+00  0.67973540270E+03  0.67973540270E+03  0.00000000000E+00 0.  1.
          1   -1    0    0  501    0  0.00000000000E+00 -0.00000000000E+00 -0.85585241689E+03  0.85585241689E+03  0.00000000000E+00 0. -1.
         23    2    1    2    0    0  0.15158385080E+03  0.46093994748E+03  0.57782935459E+02  0.49742380817E+03  0.92996119815E+02 0.  0.
        254    2    1    2    0    0 -0.15158385080E+03 -0.46093994748E+03 -0.23389994964E+03  0.10381640114E+04  0.88748635434E+03 0.  0.
         23    2    4    4    0    0  0.39034816204E+02 -0.44781625961E+03 -0.51286588002E+03  0.68797380795E+03  0.90627977436E+02 0.  0.
         23    2    4    4    0    0 -0.19061866700E+03 -0.13123687868E+02  0.27896593037E+03  0.35019020346E+03  0.91123437683E+02 0.  0.
         11    1    3    3    0    0  0.16050959978E+03  0.43279752977E+03  0.67123555684E+02  0.46645750623E+03  0.00000000000E+00 0.  1.
        -11    1    3    3    0    0 -0.89257489805E+01  0.28142417715E+02 -0.93406202250E+01  0.30966301941E+02  0.00000000000E+00 0. -1.
          4    1    5    5  502    0  0.44676164868E+02 -0.23914040491E+03 -0.21778776818E+03  0.32652045102E+03  0.00000000000E+00 0.  1.
          1    1    6    6  503    0 -0.19128850555E+03  0.39944997558E+01  0.26981548938E+03  0.33076826737E+03  0.00000000000E+00 0. -1.
         -4    1    5    5    0  502 -0.56413486645E+01 -0.20867585470E+03 -0.29507811183E+03  0.36145335693E+03  0.00000000000E+00 0. -1.
         -1    1    6    6    0  503  0.66983854967E+00 -0.17118187624E+02  0.91504409880E+01  0.19421936090E+02  0.00000000000E+00 0.  1.
<mgrwt>
<rscale>  0 0.15254549E+04</rscale>
<asrwt>0</asrwt>
<pdfrwt beam="1">  1        1 0.13166960E+00 0.15254549E+04</pdfrwt>
<pdfrwt beam="2">  1       -1 0.10457468E+00 0.15254549E+04</pdfrwt>
<totfact> 0.16434269E+01</totfact>
</mgrwt>
</event>
<event>
12    1  0.4247462E-008  0.2115821E+04  0.7818608E-02  0.8554306E-01
         -2   -1    0    0    0  501 -0.00000000000E+00  0.00000000000E+00  0.91034239929E+03  0.91034239929E+03  0.00000000000E+00 0.  1.
          2   -1    0    0  501    0  0.00000000000E+00 -0.00000000000E+00 -0.12293992273E+04  0.12293992273E+04  0.00000000000E+00 0. -1.
         23    2    1    2    0    0 -0.77878214691E+03  0.75889761666E+02  0.23088303052E+03  0.82140112619E+03  0.95561226744E+02 0.  0.
        254    2    1    2    0    0  0.77878214691E+03 -0.75889761666E+02 -0.54993985850E+03  0.13183405004E+04  0.90737364887E+03 0.  0.
         23    2    4    4    0    0  0.21206137038E+03 -0.38477946480E+03  0.24532734859E+02  0.44925647222E+03  0.90577378041E+02 0.  0.
         23    2    4    4    0    0  0.56672077653E+03  0.30888970314E+03 -0.57447259336E+03  0.86908402814E+03  0.93289871835E+02 0.  0.
         13    1    3    3    0    0 -0.10013102952E+03  0.37259594765E+02  0.13224239438E+02  0.10765398731E+03  0.00000000000E+00 0. -1.
        -13    1    3    3    0    0 -0.67865111739E+03  0.38630166901E+02  0.21765879108E+03  0.71374713889E+03  0.00000000000E+00 0.  1.
          2    1    5    5  502    0 -0.67317385053E+01 -0.16516222978E+02  0.10446666865E+02  0.20669658278E+02  0.00000000000E+00 0.  1.
          3    1    6    6  503    0  0.50803928506E+03  0.26857784631E+03 -0.46860346422E+03  0.74150332527E+03  0.00000000000E+00 0. -1.
         -2    1    5    5    0  502  0.21879310889E+03 -0.36826324183E+03  0.14086067994E+02  0.42858681395E+03  0.00000000000E+00 0. -1.
         -3    1    6    6    0  503  0.58681491469E+02  0.40311856826E+02 -0.10586912914E+03  0.12758070287E+03  0.00000000000E+00 0.  1.
<mgrwt>
<rscale>  0 0.21158206E+04</rscale>
<asrwt>0</asrwt>
<pdfrwt beam="1">  1        2 0.18913834E+00 0.21158206E+04</pdfrwt>
<pdfrwt beam="2">  1       -2 0.14005268E+00 0.21158206E+04</pdfrwt>
<totfact> 0.60082628E+00</totfact>
</mgrwt>
</event>
<event>
12    1  0.4247462E-008  0.1040779E+04  0.7818608E-02  0.9264916E-01
          2   -1    0    0  501    0  0.00000000000E+00  0.00000000000E+00  0.22798297951E+03  0.22798297951E+03  0.00000000000E+00 0. -1.
         -2   -1    0    0    0  501 -0.00000000000E+00 -0.00000000000E+00 -0.11878309167E+04  0.11878309167E+04  0.00000000000E+00 0.  1.
         23    2    1    2    0    0  0.72288024998E+01  0.29445818118E+02  0.36248416187E+02  0.10093456418E+03  0.89188153811E+02 0.  0.
        254    2    1    2    0    0 -0.72288024998E+01 -0.29445818118E+02 -0.99609635336E+03  0.13148793320E+04  0.85777642820E+03 0.  0.
         23    2    4    4    0    0 -0.18619803863E+03  0.35364892430E+03 -0.36109071876E+03  0.54656712461E+03  0.92800017668E+02 0.  0.
         23    2    4    4    0    0  0.17896923613E+03 -0.38309474241E+03 -0.63500563460E+03  0.76831220740E+03  0.90994081783E+02 0.  0.
         13    1    3    3    0    0 -0.20310009301E+02  0.27734959083E+02  0.56894501177E+02  0.66473368331E+02  0.00000000000E+00 0. -1.
        -13    1    3    3    0    0  0.27538811800E+02  0.17108590349E+01 -0.20646084990E+02  0.34461195850E+02  0.00000000000E+00 0.  1.
          4    1    5    5  502    0 -0.32233838412E+02  0.13572433973E+03 -0.88972250484E+02  0.16545748122E+03  0.00000000000E+00 0. -1.
          4    1    6    6  503    0 -0.88163742668E+01 -0.30624054816E+02 -0.32969703926E+02  0.45853708308E+02  0.00000000000E+00 0. -1.
         -4    1    5    5    0  502 -0.15396420022E+03  0.21792458456E+03 -0.27211846828E+03  0.38110964339E+03  0.00000000000E+00 0.  1.
         -4    1    6    6    0  503  0.18778561040E+03 -0.35247068760E+03 -0.60203593067E+03  0.72245849909E+03  0.00000000000E+00 0.  1.
<mgrwt>
<rscale>  0 0.10407790E+04</rscale>
<asrwt>0</asrwt>
<pdfrwt beam="1">  1        2 0.35074305E-01 0.10407790E+04</pdfrwt>
<pdfrwt beam="2">  1       -2 0.18274321E+00 0.10407790E+04</pdfrwt>
<totfact> 0.25804405E+01</totfact>
</mgrwt>
</event>
<event>
12    1  0.4247462E-008  0.2435485E+04  0.7818608E-02  0.8426337E-01
         -2   -1    0    0    0  501 -0.00000000000E+00  0.00000000000E+00  0.84081355151E+03  0.84081355151E+03  0.00000000000E+00 0.  1.
          2   -1    0    0  501    0  0.00000000000E+00 -0.00000000000E+00 -0.17636449723E+04  0.17636449723E+04  0.00000000000E+00 0. -1.
         23    2    1    2    0    0  0.53938661365E+03  0.84439831761E+03 -0.73494424592E+03  0.12455346855E+04  0.85247700310E+02 0.  0.
        254    2    1    2    0    0 -0.53938661365E+03 -0.84439831761E+03 -0.18788717484E+03  0.13589238383E+04  0.89856884545E+03 0.  0.
         23    2    4    4    0    0 -0.53058117979E+03 -0.92136178173E+03 -0.38064688908E+03  0.11329631649E+04  0.91047007553E+02 0.  0.
         23    2    4    4    0    0 -0.88054338593E+01  0.76963464115E+02  0.19275971424E+03  0.22596067342E+03  0.88887614590E+02 0.  0.
         11    1    3    3    0    0  0.41766742428E+03  0.65006545167E+03 -0.52097254041E+03  0.93190319058E+03  0.00000000000E+00 0. -1.
        -11    1    3    3    0    0  0.12171918937E+03  0.19433286594E+03 -0.21397170551E+03  0.31363149492E+03  0.00000000000E+00 0.  1.
          2    1    5    5  502    0 -0.39099917881E+00 -0.28451174440E+02 -0.67201564816E+01  0.29236667227E+02  0.00000000000E+00 0. -1.
          4    1    6    6  503    0 -0.15326959057E+02  0.21423466503E+02  0.11602582862E+01  0.26367153624E+02  0.00000000000E+00 0. -1.
         -2    1    5    5    0  502 -0.53019018061E+03 -0.89291060729E+03 -0.37392673259E+03  0.11037264976E+04  0.00000000000E+00 0.  1.
         -4    1    6    6    0  503  0.65215251974E+01  0.55539997612E+02  0.19159945595E+03  0.19959351980E+03  0.00000000000E+00 0.  1.
<mgrwt>
<rscale>  0 0.24354848E+04</rscale>
<asrwt>0</asrwt>
<pdfrwt beam="1">  1        2 0.27132999E+00 0.24354848E+04</pdfrwt>
<pdfrwt beam="2">  1       -2 0.12935593E+00 0.24354848E+04</pdfrwt>
<totfact> 0.35649549E+00</totfact>
</mgrwt>
</event>
<event>
12    1  0.4247462E-008  0.1735235E+04  0.7818608E-02  0.8741520E-01
         -1   -1    0    0    0  501 -0.00000000000E+00  0.00000000000E+00  0.19354382432E+03  0.19354382432E+03  0.00000000000E+00 0.  1.
          1   -1    0    0  501    0  0.00000000000E+00 -0.00000000000E+00 -0.38893535756E+04  0.38893535756E+04  0.00000000000E+00 0. -1.
         23    2    1    2    0    0  0.50772235363E+03 -0.14289566984E+03 -0.54464496018E+03  0.76440523740E+03  0.97345125617E+02 0.  0.
        254    2    1    2    0    0 -0.50772235363E+03  0.14289566984E+03 -0.31511647911E+04  0.33184921625E+04  0.89685535689E+03 0.  0.
         23    2    4    4    0    0 -0.35543359944E+03 -0.29200271306E+03 -0.85525067790E+03  0.97499493603E+03  0.86964217893E+02 0.  0.
         23    2    4    4    0    0 -0.15228875419E+03  0.43489838290E+03 -0.22959141132E+04  0.23434972265E+04  0.91810496443E+02 0.  0.
         13    1    3    3    0    0  0.19002206221E+03 -0.33465639996E+02 -0.26162043054E+03  0.32507473427E+03  0.00000000000E+00 0. -1.
        -13    1    3    3    0    0  0.31770029142E+03 -0.10943002984E+03 -0.28302452964E+03  0.43933050313E+03  0.00000000000E+00 0.  1.
          4    1    5    5  502    0 -0.46779373184E+02 -0.60680270235E+02 -0.20629666487E+03  0.22006526052E+03  0.00000000000E+00 0. -1.
          3    1    6    6  503    0 -0.79024777518E+01  0.22846424627E+02 -0.50012027328E+02  0.55548277654E+02  0.00000000000E+00 0. -1.
         -4    1    5    5    0  502 -0.30865422626E+03 -0.23132244282E+03 -0.64895401303E+03  0.75492967551E+03  0.00000000000E+00 0.  1.
         -3    1    6    6    0  503 -0.14438627644E+03  0.41205195827E+03 -0.22459020858E+04  0.22879489488E+04  0.00000000000E+00 0.  1.
<mgrwt>
<rscale>  0 0.17352353E+04</rscale>
<asrwt>0</asrwt>
<pdfrwt beam="1">  1        1 0.59836205E+00 0.17352353E+04</pdfrwt>
<pdfrwt beam="2">  1       -1 0.29775975E-01 0.17352353E+04</pdfrwt>
<totfact> 0.11881192E+00</totfact>
</mgrwt>
</event>
<event>
12    1  0.4247462E-008  0.1193468E+04  0.7818608E-02  0.9118593E-01
         -2   -1    0    0    0  501 -0.00000000000E+00  0.00000000000E+00  0.48722613170E+03  0.48722613170E+03  0.00000000000E+00 0. -1.
          2   -1    0    0  501    0  0.00000000000E+00 -0.00000000000E+00 -0.73085502665E+03  0.73085502665E+03  0.00000000000E+00 0.  1.
         23    2    1    2    0    0  0.96444586165E+02  0.22241585925E+03 -0.76336496558E+02  0.27171802785E+03  0.96088778232E+02 0.  0.
        254    2    1    2    0    0 -0.96444586165E+02 -0.22241585925E+03 -0.16729239840E+03  0.94636313050E+03  0.89935869127E+03 0.  0.
         23    2    4    4    0    0  0.67306338789E+01 -0.46220499634E+03  0.17763383322E+03  0.50429871871E+03  0.95313477083E+02 0.  0.
         23    2    4    4    0    0 -0.10317522004E+03  0.23978913709E+03 -0.34492623162E+03  0.44206441179E+03  0.91120154840E+02 0.  0.
         11    1    3    3    0    0  0.89256692808E+01  0.19370771896E+02  0.21185985930E+02  0.30062274960E+02  0.00000000000E+00 0. -1.
        -11    1    3    3    0    0  0.87518916884E+02  0.20304508736E+03 -0.97522482488E+02  0.24165575289E+03  0.00000000000E+00 0.  1.
          3    1    5    5  502    0  0.74015626608E+01 -0.24635075852E+03  0.43809235076E+02  0.25032524529E+03  0.00000000000E+00 0. -1.
          3    1    6    6  503    0 -0.31082656332E+02  0.11166781604E+03 -0.86066504377E+02  0.14437200504E+03  0.00000000000E+00 0. -1.
         -3    1    5    5    0  502 -0.67092878186E+00 -0.21585423782E+03  0.13382459815E+03  0.25397347342E+03  0.00000000000E+00 0.  1.
         -3    1    6    6    0  503 -0.72092563712E+02  0.12812132105E+03 -0.25885972724E+03  0.29769240675E+03  0.00000000000E+00 0.  1.
<mgrwt>
<rscale>  0 0.11934683E+04</rscale>
<asrwt>0</asrwt>
<pdfrwt beam="1">  1        2 0.11243923E+00 0.11934683E+04</pdfrwt>
<pdfrwt beam="2">  1       -2 0.74957867E-01 0.11934683E+04</pdfrwt>
<totfact> 0.61229683E+01</totfact>
</mgrwt>
</event>
<event>
12    1  0.4247462E-008  0.3012831E+04  0.7818608E-02  0.8240076E-01
          1   -1    0    0  501    0  0.00000000000E+00  0.00000000000E+00  0.10364847768E+04  0.10364847768E+04  0.00000000000E+00 0. -1.
         -1   -1    0    0    0  501 -0.00000000000E+00 -0.00000000000E+00 -0.21894078731E+04  0.21894078731E+04  0.00000000000E+00 0.  1.
         23    2    1    2    0    0  0.10933988551E+04 -0.81226562660E+03 -0.75542928207E+03  0.15605260094E+04  0.96288738557E+02 0.  0.
        254    2    1    2    0    0 -0.10933988551E+04  0.81226562660E+03 -0.39749381422E+03  0.16653666406E+04  0.87186478918E+03 0.  0.
         23    2    4    4    0    0 -0.10313859064E+04  0.77482740381E+03 -0.46497198173E+02  0.12940787816E+04  0.91452226857E+02 0.  0.
         23    2    4    4    0    0 -0.62012948659E+02  0.37438222787E+02 -0.35099661605E+03  0.37128785897E+03  0.96999089750E+02 0.  0.
         13    1    3    3    0    0  0.62419122962E+03 -0.49878318348E+03 -0.48614297168E+03  0.93527233690E+03  0.00000000000E+00 0.  1.
        -13    1    3    3    0    0  0.46920762549E+03 -0.31348244312E+03 -0.26928631039E+03  0.62525367246E+03  0.00000000000E+00 0. -1.
          4    1    5    5  502    0 -0.10224504699E+04  0.75479441150E+03 -0.50043956408E+02  0.12718584688E+04  0.00000000000E+00 0.  1.
          1    1    6    6  503    0 -0.27581655442E+02  0.45226778203E+02 -0.31986020708E+03  0.32421715140E+03  0.00000000000E+00 0.  1.
         -4    1    5    5    0  502 -0.89354365480E+01  0.20032992315E+02  0.35467582347E+01  0.22220312810E+02  0.00000000000E+00 0. -1.
         -1    1    6    6    0  503 -0.34431293217E+02 -0.77885554155E+01 -0.31136408963E+02  0.47070707570E+02  0.00000000000E+00 0. -1.
<mgrwt>
<rscale>  0 0.30128312E+04</rscale>
<asrwt>0</asrwt>
<pdfrwt beam="1">  1        1 0.15945920E+00 0.30128312E+04</pdfrwt>
<pdfrwt beam="2">  1       -1 0.33683198E+00 0.30128312E+04</pdfrwt>
<totfact> 0.22871521E-01</totfact>
</mgrwt>
</event>
<event>
12    1  0.4247462E-008  0.1307379E+04  0.7818608E-02  0.9023734E-01
          2   -1    0    0  501    0  0.00000000000E+00  0.00000000000E+00  0.14161844206E+04  0.14161844206E+04  0.00000000000E+00 0. -1.
         -2   -1    0    0    0  501 -0.00000000000E+00 -0.00000000000E+00 -0.30173324285E+03  0.30173324285E+03  0.00000000000E+00 0.  1.
         23    2    1    2    0    0 -0.13915946250E+03  0.15043083502E+03  0.57298179477E+03  0.61555287261E+03  0.92749176352E+02 0.  0.
        254    2    1    2    0    0  0.13915946250E+03 -0.15043083502E+03  0.54146938303E+03  0.11023647909E+04  0.93809607572E+03 0.  0.
         23    2    4    4    0    0  0.21726521685E+03  0.20321438537E+03  0.64377115674E+03  0.71617986747E+03  0.99860099294E+02 0.  0.
         23    2    4    4    0    0 -0.78105754358E+02 -0.35364522039E+03 -0.10230177372E+03  0.38618492341E+03  0.86646935298E+02 0.  0.
         13    1    3    3    0    0 -0.16315705735E+02  0.14431974871E+02  0.18709384664E+03  0.18835761626E+03  0.00000000000E+00 0. -1.
        -13    1    3    3    0    0 -0.12284375676E+03  0.13599886015E+03  0.38588794813E+03  0.42719525635E+03  0.00000000000E+00 0.  1.
          1    1    5    5  502    0  0.19008633515E+03  0.17044389130E+03  0.61180685001E+03  0.66294159366E+03  0.00000000000E+00 0. -1.
          3    1    6    6  503    0 -0.90551401011E+02 -0.29007320980E+03 -0.62760850246E+02  0.31029171371E+03  0.00000000000E+00 0. -1.
         -1    1    5    5    0  502  0.27178881708E+02  0.32770494069E+02  0.31964306737E+02  0.53238273803E+02  0.00000000000E+00 0.  1.
         -3    1    6    6    0  503  0.12445646653E+02 -0.63572010587E+02 -0.39540923470E+02  0.75893209707E+02  0.00000000000E+00 0.  1.
<mgrwt>
<rscale>  0 0.13073789E+04</rscale>
<asrwt>0</asrwt>
<pdfrwt beam="1">  1        2 0.21787452E+00 0.13073789E+04</pdfrwt>
<pdfrwt beam="2">  1       -2 0.46420500E-01 0.13073789E+04</pdfrwt>
<totfact> 0.61035952E+01</totfact>
</mgrwt>
</event>
<event>
12    1  0.4247462E-008  0.1653952E+04  0.7818608E-02  0.8788072E-01
          2   -1    0    0  501    0  0.00000000000E+00  0.00000000000E+00  0.40272214156E+04  0.40272214156E+04  0.00000000000E+00 0. -1.
         -2   -1    0    0    0  501 -0.00000000000E+00 -0.00000000000E+00 -0.16981665522E+03  0.16981665522E+03  0.00000000000E+00 0.  1.
         23    2    1    2    0    0 -0.53018441416E+03  0.90060110530E+02  0.80782061073E+03  0.97461165838E+03  0.89930022802E+02 0.  0.
        254    2    1    2    0    0  0.53018441416E+03 -0.90060110530E+02  0.30495841497E+04  0.32224264125E+04  0.89155042558E+03 0.  0.
         23    2    4    4    0    0  0.30680076521E+03  0.24235458909E+03  0.25231351421E+04  0.25547989840E+04  0.89019363135E+02 0.  0.
         23    2    4    4    0    0  0.22338364895E+03 -0.33241469962E+03  0.52644900762E+03  0.66762742851E+03  0.90432508173E+02 0.  0.
         13    1    3    3    0    0 -0.52910276674E+03  0.86049145598E+02  0.80882654567E+03  0.97033735072E+03  0.00000000000E+00 0.  1.
        -13    1    3    3    0    0 -0.10816474151E+01  0.40109649317E+01 -0.10059349386E+01  0.42743076532E+01  0.00000000000E+00 0. -1.
          4    1    6    6  502    0  0.45136937235E+02 -0.77238571795E+02  0.18561734750E+03  0.20605081841E+03  0.00000000000E+00 0. -1.
          4    1    5    5  503    0  0.11619486568E+03  0.51179879942E+02  0.64693237197E+03  0.65927393458E+03  0.00000000000E+00 0. -1.
         -4    1    5    5    0  503  0.19060589953E+03  0.19117470915E+03  0.18762027701E+04  0.18955250494E+04  0.00000000000E+00 0.  1.
         -4    1    6    6    0  502  0.17824671171E+03 -0.25517612782E+03  0.34083166012E+03  0.46157661010E+03  0.00000000000E+00 0.  1.
<mgrwt>
<rscale>  0 0.16539520E+04</rscale>
<asrwt>0</asrwt>
<pdfrwt beam="1">  1        2 0.61957246E+00 0.16539520E+04</pdfrwt>
<pdfrwt beam="2">  1       -2 0.26125642E-01 0.16539520E+04</pdfrwt>
<totfact> 0.41896837E+00</totfact>
</mgrwt>
</event>
<event>
12    1  0.4247462E-008  0.1994601E+04  0.7818608E-02  0.8609149E-01
          2   -1    0    0  501    0  0.00000000000E+00  0.00000000000E+00  0.23962372977E+04  0.23962372977E+04  0.00000000000E+00 0. -1.
         -2   -1    0    0    0  501 -0.00000000000E+00 -0.00000000000E+00 -0.41507078300E+03  0.41507078300E+03  0.00000000000E+00 0.  1.
         23    2    1    2    0    0 -0.40821033476E+03 -0.54699074222E+01  0.15686588347E+04  0.16234770755E+04  0.91223228624E+02 0.  0.
        254    2    1    2    0    0  0.40821033476E+03  0.54699074222E+01  0.41250767993E+03  0.11878310052E+04  0.10363948638E+04 0.  0.
         23    2    4    4    0    0 -0.30199426328E+03  0.91563586439E+02 -0.47622802222E+02  0.33236024513E+03  0.92795343840E+02 0.  0.
         23    2    4    4    0    0  0.71020459804E+03 -0.86093679016E+02  0.46013048215E+03  0.85547076009E+03  0.91145313150E+02 0.  0.
         13    1    3    3    0    0 -0.20597888043E+03  0.14806997975E+02  0.62696666017E+03  0.66010130991E+03  0.00000000000E+00 0. -1.
        -13    1    3    3    0    0 -0.20223145434E+03 -0.20276905397E+02  0.94169217458E+03  0.96337576556E+03  0.00000000000E+00 0.  1.
          1    1    5    5  502    0 -0.11135616611E+02  0.28215394225E+02 -0.11748826176E+02  0.32529146087E+02  0.00000000000E+00 0. -1.
          3    1    6    6  503    0  0.31689894519E+01  0.60272754765E+01  0.10541731110E+02  0.12549846159E+02  0.00000000000E+00 0. -1.
         -1    1    5    5    0  502 -0.29085864667E+03  0.63348192213E+02 -0.35873976047E+02  0.29983109904E+03  0.00000000000E+00 0.  1.
         -3    1    6    6    0  503  0.70703560859E+03 -0.92120954493E+02  0.44958875104E+03  0.84292091393E+03  0.00000000000E+00 0.  1.
<mgrwt>
<rscale>  0 0.19946008E+04</rscale>
<asrwt>0</asrwt>
<pdfrwt beam="1">  1        2 0.36865188E+00 0.19946008E+04</pdfrwt>
<pdfrwt beam="2">  1       -2 0.63857045E-01 0.19946008E+04</pdfrwt>
<totfact> 0.84248655E+00</totfact>
</mgrwt>
</event>
<event>
12    1  0.4247462E-008  0.2251440E+04  0.7818608E-02  0.8497317E-01
         -2   -1    0    0    0  501 -0.00000000000E+00  0.00000000000E+00  0.55671510952E+03  0.55671510952E+03  0.00000000000E+00 0.  1.
          2   -1    0    0  501    0  0.00000000000E+00 -0.00000000000E+00 -0.22762911386E+04  0.22762911386E+04  0.00000000000E+00 0. -1.
         23    2    1    2    0    0  0.72049634296E+03 -0.48458723200E+03 -0.26854248123E+03  0.91337260863E+03  0.90524540011E+02 0.  0.
        254    2    1    2    0    0 -0.72049634296E+03  0.48458723200E+03 -0.14510335478E+04  0.19196336395E+04  0.90860067536E+03 0.  0.
         23    2    4    4    0    0 -0.29372419528E+03  0.67683402642E+03 -0.65272313900E+03  0.98944599134E+03  0.92615718802E+02 0.  0.
         23    2    4    4    0    0 -0.42677214767E+03 -0.19224679442E+03 -0.79831040884E+03  0.93018764815E+03  0.94107682541E+02 0.  0.
         11    1    3    3    0    0  0.41409046401E+02 -0.57199563169E+02 -0.20953228794E+02  0.73658244260E+02  0.00000000000E+00 0. -1.
        -11    1    3    3    0    0  0.67908729656E+03 -0.42738766883E+03 -0.24758925244E+03  0.83971436437E+03  0.00000000000E+00 0.  1.
          4    1    5    5  502    0 -0.27112959366E+03  0.64598729412E+03 -0.58968531560E+03  0.91571808552E+03  0.00000000000E+00 0. -1.
          1    1    6    6  503    0 -0.67043591610E+02 -0.15947603741E+01 -0.78757044586E+02  0.10344108714E+03  0.00000000000E+00 0.  1.
         -4    1    5    5    0  502 -0.22594601625E+02  0.30846732302E+02 -0.63037823407E+02  0.73727905817E+02  0.00000000000E+00 0.  1.
         -1    1    6    6    0  503 -0.35972855606E+03 -0.19065203405E+03 -0.71955336426E+03  0.82674656101E+03  0.00000000000E+00 0. -1.
<mgrwt>
<rscale>  0 0.22514401E+04</rscale>
<asrwt>0</asrwt>
<pdfrwt beam="1">  1        2 0.35019864E+00 0.22514401E+04</pdfrwt>
<pdfrwt beam="2">  1       -2 0.85648477E-01 0.22514401E+04</pdfrwt>
<totfact> 0.50396774E+00</totfact>
</mgrwt>
</event>
<event>
12    1  0.4247462E-008  0.1626564E+04  0.7818608E-02  0.8804393E-01
          1   -1    0    0  501    0  0.00000000000E+00  0.00000000000E+00  0.41800545541E+03  0.41800545541E+03  0.00000000000E+00 0. -1.
         -1   -1    0    0    0  501 -0.00000000000E+00 -0.00000000000E+00 -0.15823427226E+04  0.15823427226E+04  0.00000000000E+00 0.  1.
         23    2    1    2    0    0 -0.25474928413E+03 -0.43012946981E+03 -0.70969902147E+03  0.87279924172E+03  0.90538702806E+02 0.  0.
        254    2    1    2    0    0  0.25474928413E+03  0.43012946981E+03 -0.45463824571E+03  0.11275489363E+04  0.90264173994E+03 0.  0.
         23    2    4    4    0    0  0.92125090964E+02 -0.19893732368E+03  0.10963519267E+03  0.26204473784E+03  0.92652458260E+02 0.  0.
         23    2    4    4    0    0  0.16262419316E+03  0.62906679349E+03 -0.56427343838E+03  0.86550419844E+03  0.92311133569E+02 0.  0.
         13    1    3    3    0    0 -0.19965172597E+03 -0.33541488257E+03 -0.61261507145E+03  0.72640290535E+03  0.00000000000E+00 0.  1.
        -13    1    3    3    0    0 -0.55097558159E+02 -0.94714587235E+02 -0.97083950021E+02  0.14639633637E+03  0.00000000000E+00 0. -1.
          4    1    5    5  502    0  0.82578129769E+02 -0.20653608281E+03  0.92246956039E+02  0.24080241261E+03  0.00000000000E+00 0. -1.
          1    1    6    6  503    0  0.98935922857E+02  0.44884519173E+03 -0.34553295187E+03  0.57501595090E+03  0.00000000000E+00 0. -1.
         -4    1    5    5    0  502  0.95469611956E+01  0.75987591298E+01  0.17388236629E+02  0.21242325236E+02  0.00000000000E+00 0.  1.
         -1    1    6    6    0  503  0.63688270304E+02  0.18022160176E+03 -0.21874048651E+03  0.29048824753E+03  0.00000000000E+00 0.  1.
<mgrwt>
<rscale>  0 0.16265643E+04</rscale>
<asrwt>0</asrwt>
<pdfrwt beam="1">  1        1 0.64308531E-01 0.16265643E+04</pdfrwt>
<pdfrwt beam="2">  1       -1 0.24343734E+00 0.16265643E+04</pdfrwt>
<totfact> 0.41691426E+00</totfact>
</mgrwt>
</event>
<event>
12    1  0.4247462E-008  0.2184511E+04  0.7818608E-02  0.8524903E-01
         -1   -1    0    0    0  501 -0.00000000000E+00  0.00000000000E+00  0.65796395073E+03  0.65796395073E+03  0.00000000000E+00 0.  1.
          1   -1    0    0  501    0  0.00000000000E+00 -0.00000000000E+00 -0.18132029034E+04  0.18132029034E+04  0.00000000000E+00 0. -1.
         23    2    1    2    0    0 -0.76341713076E+03 -0.40213137811E+03 -0.20518199456E+03  0.89152806368E+03  0.90594020982E+02 0.  0.
        254    2    1    2    0    0  0.76341713076E+03  0.40213137811E+03 -0.95005695806E+03  0.15796387904E+04  0.92094251929E+03 0.  0.
         23    2    4    4    0    0 -0.43729265783E+02  0.40113630636E+03 -0.50715546158E+03  0.65432490298E+03  0.90065706494E+02 0.  0.
         23    2    4    4    0    0  0.80714639654E+03  0.99507175194E+00 -0.44290149649E+03  0.92531388744E+03  0.92508156832E+02 0.  0.
         13    1    3    3    0    0 -0.65882774201E+03 -0.35859670403E+03 -0.14773589674E+03  0.76450734789E+03  0.00000000000E+00 0. -1.
        -13    1    3    3    0    0 -0.10458938875E+03 -0.43534674077E+02 -0.57446097820E+02  0.12702071579E+03  0.00000000000E+00 0.  1.
          2    1    5    5  502    0 -0.54782492432E+02  0.25192402837E+03 -0.37261140482E+03  0.45310715791E+03  0.00000000000E+00 0.  1.
          3    1    6    6  503    0  0.18657110196E+02 -0.36385024908E+01 -0.29281693651E+02  0.34910514811E+02  0.00000000000E+00 0. -1.
         -2    1    5    5    0  502  0.11053226650E+02  0.14921227799E+03 -0.13454405676E+03  0.20121774507E+03  0.00000000000E+00 0. -1.
         -3    1    6    6    0  503  0.78848928634E+03  0.46335742427E+01 -0.41361980284E+03  0.89040337263E+03  0.00000000000E+00 0.  1.
<mgrwt>
<rscale>  0 0.21845111E+04</rscale>
<asrwt>0</asrwt>
<pdfrwt beam="1">  1        1 0.27895429E+00 0.21845111E+04</pdfrwt>
<pdfrwt beam="2">  1       -1 0.10122522E+00 0.21845111E+04</pdfrwt>
<totfact> 0.33761572E+00</totfact>
</mgrwt>
</event>
<event>
12    1  0.4247462E-008  0.1760195E+04  0.7818608E-02  0.8727759E-01
          1   -1    0    0  501    0  0.00000000000E+00  0.00000000000E+00  0.38537745284E+04  0.38537745284E+04  0.00000000000E+00 0. -1.
         -1   -1    0    0    0  501 -0.00000000000E+00 -0.00000000000E+00 -0.20099035368E+03  0.20099035368E+03  0.00000000000E+00 0.  1.
         23    2    1    2    0    0 -0.21771992953E+03  0.20864773171E+03  0.38229052163E+02  0.31669570083E+03  0.88875546860E+02 0.  0.
        254    2    1    2    0    0  0.21771992953E+03 -0.20864773171E+03  0.36145551225E+04  0.37380691812E+04  0.90400034628E+03 0.  0.
         23    2    4    4    0    0 -0.43250439053E+02 -0.50551519283E+03  0.15335818667E+04  0.16179062395E+04  0.91274571323E+02 0.  0.
         23    2    4    4    0    0  0.26097036858E+03  0.29686746112E+03  0.20809732558E+04  0.21201629417E+04  0.91680887186E+02 0.  0.
         11    1    3    3    0    0 -0.10644194812E+03  0.16070704544E+03  0.31741976300E+02  0.19535658636E+03  0.00000000000E+00 0. -1.
        -11    1    3    3    0    0 -0.11127798141E+03  0.47940686272E+02  0.64870758625E+01  0.12133911447E+03  0.00000000000E+00 0.  1.
          4    1    5    5  502    0 -0.70526150204E+01 -0.43681927311E+03  0.13358887048E+04  0.14055103871E+04  0.00000000000E+00 0.  1.
          3    1    6    6  503    0  0.10508262497E+03  0.12910679036E+03  0.64983210389E+03  0.67081494068E+03  0.00000000000E+00 0. -1.
         -4    1    5    5    0  502 -0.36197824032E+02 -0.68695919721E+02  0.19769316195E+03  0.21239585244E+03  0.00000000000E+00 0. -1.
         -3    1    6    6    0  503  0.15588774362E+03  0.16776067076E+03  0.14311411519E+04  0.14493480010E+04  0.00000000000E+00 0.  1.
<mgrwt>
<rscale>  0 0.17601949E+04</rscale>
<asrwt>0</asrwt>
<pdfrwt beam="1">  1        1 0.59288833E+00 0.17601949E+04</pdfrwt>
<pdfrwt beam="2">  1       -1 0.30921596E-01 0.17601949E+04</pdfrwt>
<totfact> 0.11885818E+00</totfact>
</mgrwt>
</event>
<event>
12    1  0.4247462E-008  0.1747807E+04  0.7818608E-02  0.8734559E-01
          2   -1    0    0  501    0  0.00000000000E+00  0.00000000000E+00  0.36904419723E+04  0.36904419723E+04  0.00000000000E+00 0.  1.
         -2   -1    0    0    0  501 -0.00000000000E+00 -0.00000000000E+00 -0.20694189488E+03  0.20694189488E+03  0.00000000000E+00 0. -1.
         23    2    1    2    0    0 -0.18709231451E+03 -0.56914451516E+03  0.77862238691E+03  0.98674338365E+03  0.92090555854E+02 0.  0.
        254    2    1    2    0    0  0.18709231451E+03  0.56914451516E+03  0.27048776905E+04  0.29106404835E+04  0.89248848199E+03 0.  0.
         23    2    4    4    0    0 -0.13034775335E+03 -0.18892169909E+03  0.54801419885E+03  0.60099716128E+03  0.90532207153E+02 0.  0.
         23    2    4    4    0    0  0.31744006787E+03  0.75806621426E+03  0.21568634917E+04  0.23096433223E+04  0.83424052276E+02 0.  0.
         13    1    3    3    0    0 -0.10288227473E+03 -0.39882697727E+03  0.58516913989E+03  0.71559111407E+03  0.00000000000E+00 0. -1.
        -13    1    3    3    0    0 -0.84210039778E+02 -0.17031753790E+03  0.19345324702E+03  0.27115226958E+03  0.00000000000E+00 0.  1.
          4    1    5    5  502    0 -0.71537913256E+02 -0.16622205455E+03  0.44269668480E+03  0.47825495207E+03  0.00000000000E+00 0.  1.
          1    1    6    6  503    0  0.12539533702E+03  0.20749574514E+03  0.67147343583E+03  0.71390128857E+03  0.00000000000E+00 0. -1.
         -4    1    5    5    0  502 -0.58809840097E+02 -0.22699644546E+02  0.10531751405E+03  0.12274220921E+03  0.00000000000E+00 0. -1.
         -1    1    6    6    0  503  0.19204473085E+03  0.55057046912E+03  0.14853900558E+04  0.15957420337E+04  0.00000000000E+00 0.  1.
<mgrwt>
<rscale>  0 0.17478067E+04</rscale>
<asrwt>0</asrwt>
<pdfrwt beam="1">  1        2 0.56776026E+00 0.17478067E+04</pdfrwt>
<pdfrwt beam="2">  1       -2 0.31837217E-01 0.17478067E+04</pdfrwt>
<totfact> 0.52177749E+00</totfact>
</mgrwt>
</event>
<event>
12    1  0.4247462E-008  0.1027321E+04  0.7818608E-02  0.9279077E-01
          2   -1    0    0  501    0  0.00000000000E+00  0.00000000000E+00  0.85042227256E+03  0.85042227256E+03  0.00000000000E+00 0. -1.
         -2   -1    0    0    0  501 -0.00000000000E+00 -0.00000000000E+00 -0.31025395141E+03  0.31025395141E+03  0.00000000000E+00 0.  1.
         23    2    1    2    0    0 -0.55784026131E+02  0.42979301186E+02  0.10895273750E+03  0.15905290016E+03  0.92021998127E+02 0.  0.
        254    2    1    2    0    0  0.55784026131E+02 -0.42979301186E+02  0.43121558365E+03  0.10016233238E+04  0.90130090720E+03 0.  0.
         23    2    4    4    0    0  0.16436602151E+03 -0.33135520357E+01 -0.24538044915E+03  0.30916688091E+03  0.91353307393E+02 0.  0.
         23    2    4    4    0    0 -0.10858199538E+03 -0.39665749151E+02  0.67659603280E+03  0.69245644291E+03  0.91380043512E+02 0.  0.
         13    1    3    3    0    0 -0.15978567122E+02  0.63440533102E+02  0.87948877330E+02  0.10961305064E+03  0.00000000000E+00 0. -1.
        -13    1    3    3    0    0 -0.39805459009E+02 -0.20461231915E+02  0.21003860167E+02  0.49439849518E+02  0.00000000000E+00 0.  1.
          4    1    6    6  502    0  0.24018963080E+01 -0.23535737023E+02  0.43626892000E+02  0.49628678490E+02  0.00000000000E+00 0. -1.
          4    1    5    5  503    0  0.63971206681E+02  0.80048455410E+01 -0.29671452392E+02  0.70970331289E+02  0.00000000000E+00 0. -1.
         -4    1    5    5    0  503  0.10039481483E+03 -0.11318397577E+02 -0.21570899675E+03  0.23819654962E+03  0.00000000000E+00 0.  1.
         -4    1    6    6    0  502 -0.11098389169E+03 -0.16130012127E+02  0.63296914080E+03  0.64282776442E+03  0.00000000000E+00 0.  1.
<mgrwt>
<rscale>  0 0.10273205E+04</rscale>
<asrwt>0</asrwt>
<pdfrwt beam="1">  1        2 0.13083419E+00 0.10273205E+04</pdfrwt>
<pdfrwt beam="2">  1       -2 0.47731378E-01 0.10273205E+04</pdfrwt>
<totfact> 0.13148679E+02</totfact>
</mgrwt>
</event>
<event>
12    1  0.4247462E-008  0.3486796E+04  0.7818608E-02  0.8116926E-01
         -2   -1    0    0    0  501 -0.00000000000E+00  0.00000000000E+00  0.12176309572E+04  0.12176309572E+04  0.00000000000E+00 0. -1.
          2   -1    0    0  501    0  0.00000000000E+00 -0.00000000000E+00 -0.24961887646E+04  0.24961887646E+04  0.00000000000E+00 0.  1.
         23    2    1    2    0    0 -0.43301935639E+03  0.59645073235E+03 -0.21426248882E+04  0.22676834169E+04  0.91035315003E+02 0.  0.
        254    2    1    2    0    0  0.43301935639E+03 -0.59645073235E+03  0.86406708070E+03  0.14461363050E+04  0.89523128492E+03 0.  0.
         23    2    4    4    0    0 -0.12048403299E+03 -0.15594055966E+03 -0.10646210914E+03  0.24172254129E+03  0.90894146870E+02 0.  0.
         23    2    4    4    0    0  0.55350338938E+03 -0.44051017269E+03  0.97052918984E+03  0.12044137637E+04  0.90941692943E+02 0.  0.
         11    1    3    3    0    0 -0.43622206026E+03  0.59332638613E+03 -0.21114761372E+04  0.22362149638E+04  0.00000000000E+00 0.  1.
        -11    1    3    3    0    0  0.32027038732E+01  0.31243462178E+01 -0.31148750969E+02  0.31468453065E+02  0.00000000000E+00 0. -1.
          4    1    5    5  502    0  0.66197440336E+01  0.65156028263E+01  0.62846165644E+00  0.93096216526E+01  0.00000000000E+00 0. -1.
          1    1    6    6  503    0  0.69886957333E+02 -0.38360579060E+02  0.70730228437E+02  0.10657619831E+03  0.00000000000E+00 0. -1.
         -4    1    5    5    0  502 -0.12710377703E+03 -0.16245616248E+03 -0.10709057079E+03  0.23241291964E+03  0.00000000000E+00 0.  1.
         -1    1    6    6    0  503  0.48361643205E+03 -0.40214959363E+03  0.89979896141E+03  0.10978375654E+04  0.00000000000E+00 0.  1.
<mgrwt>
<rscale>  0 0.34867961E+04</rscale>
<asrwt>0</asrwt>
<pdfrwt beam="1">  1        2 0.38402904E+00 0.34867961E+04</pdfrwt>
<pdfrwt beam="2">  1       -2 0.18732784E+00 0.34867961E+04</pdfrwt>
<totfact> 0.46495682E-01</totfact>
</mgrwt>
</event>
<event>
12    1  0.4767292E-008  0.1226758E+04  0.7818608E-02  0.9089752E-01
          2   -1    0    0  501    0  0.00000000000E+00  0.00000000000E+00  0.16400840117E+04  0.16400840117E+04  0.00000000000E+00 0. -1.
         -2   -1    0    0    0  501 -0.00000000000E+00 -0.00000000000E+00 -0.22939915069E+03  0.22939915069E+03  0.00000000000E+00 0.  1.
         23    2    1    2    0    0 -0.22808601912E+03  0.14662012047E+03  0.26616715685E+03  0.39083631565E+03  0.91582631532E+02 0.  0.
        254    2    1    2    0    0  0.22808601912E+03 -0.14662012047E+03  0.11445177042E+04  0.14786468468E+04  0.89607758059E+03 0.  0.
         23    2    4    4    0    0 -0.25817791495E+03 -0.41409999235E+02  0.84715896645E+03  0.89173008278E+03  0.95569881780E+02 0.  0.
         23    2    4    4    0    0  0.48626393407E+03 -0.10521012124E+03  0.29735873776E+03  0.58691676401E+03  0.92343303862E+02 0.  0.
         13    1    3    3    0    0 -0.19166559358E+03  0.14968074701E+03  0.25556758654E+03  0.35278154299E+03  0.00000000000E+00 0.  1.
        -13    1    3    3    0    0 -0.36420425533E+02 -0.30606265359E+01  0.10599570313E+02  0.38054772652E+02  0.00000000000E+00 0. -1.
          1    1    5    5  502    0 -0.23081215942E+03 -0.27442955817E+01  0.71513707150E+03  0.75146710848E+03  0.00000000000E+00 0. -1.
          3    1    6    6  503    0  0.46216071709E+03 -0.11887080036E+03  0.27156501302E+03  0.54906315839E+03  0.00000000000E+00 0. -1.
         -1    1    5    5    0  502 -0.27365755530E+02 -0.38665703653E+02  0.13202189494E+03  0.14026297430E+03  0.00000000000E+00 0.  1.
         -3    1    6    6    0  503  0.24103216972E+02  0.13660679121E+02  0.25793724745E+02  0.37853605624E+02  0.00000000000E+00 0.  1.
<mgrwt>
<rscale>  0 0.12267581E+04</rscale>
<asrwt>0</asrwt>
<pdfrwt beam="1">  1        2 0.25232061E+00 0.12267581E+04</pdfrwt>
<pdfrwt beam="2">  1       -2 0.35292178E-01 0.12267581E+04</pdfrwt>
<totfact> 0.78631873E+01</totfact>
</mgrwt>
</event>
<event>
12    1  0.4247462E-008  0.1408715E+04  0.7818608E-02  0.8947535E-01
          2   -1    0    0  501    0  0.00000000000E+00  0.00000000000E+00  0.17135309638E+04  0.17135309638E+04  0.00000000000E+00 0. -1.
         -2   -1    0    0    0  501 -0.00000000000E+00 -0.00000000000E+00 -0.28953034427E+03  0.28953034427E+03  0.00000000000E+00 0.  1.
         23    2    1    2    0    0 -0.16280190928E+03  0.13875564942E+03 -0.71066669300E+02  0.24454251681E+03  0.94831319368E+02 0.  0.
        254    2    1    2    0    0  0.16280190928E+03 -0.13875564942E+03  0.14950672889E+04  0.17585187913E+04  0.90077996715E+03 0.  0.
         23    2    4    4    0    0  0.15990838942E+02  0.11934801924E+03 -0.67048314155E+02  0.16586334088E+03  0.92279546986E+02 0.  0.
         23    2    4    4    0    0  0.14681107033E+03 -0.25810366866E+03  0.15621156030E+04  0.15926554504E+04  0.90416991706E+02 0.  0.
         13    1    3    3    0    0 -0.11464448723E+03  0.53168722049E+02 -0.55629313050E+01  0.12649591955E+03  0.00000000000E+00 0. -1.
        -13    1    3    3    0    0 -0.48157422045E+02  0.85586927372E+02 -0.65503737995E+02  0.11804659727E+03  0.00000000000E+00 0.  1.
          1    1    5    5  502    0  0.37906415116E+02  0.50587021658E+02 -0.69116786911E+02  0.93664685448E+02  0.00000000000E+00 0. -1.
          1    1    6    6  503    0  0.14599162841E+03 -0.24149835412E+03  0.15359223843E+04  0.15616313846E+04  0.00000000000E+00 0. -1.
         -1    1    5    5    0  502 -0.21915576174E+02  0.68760997581E+02  0.20684727561E+01  0.72198655437E+02  0.00000000000E+00 0.  1.
         -1    1    6    6    0  503  0.81944192962E+00 -0.16605314538E+02  0.26193218711E+02  0.31024065859E+02  0.00000000000E+00 0.  1.
<mgrwt>
<rscale>  0 0.14087146E+04</rscale>
<asrwt>0</asrwt>
<pdfrwt beam="1">  1        2 0.26362014E+00 0.14087146E+04</pdfrwt>
<pdfrwt beam="2">  1       -2 0.44543131E-01 0.14087146E+04</pdfrwt>
<totfact> 0.44806426E+01</totfact>
</mgrwt>
</event>
<event>
12    1  0.4247462E-008  0.3971042E+04  0.7818608E-02  0.8010414E-01
         -2   -1    0    0    0  501 -0.00000000000E+00  0.00000000000E+00  0.19281864850E+04  0.19281864850E+04  0.00000000000E+00 0.  1.
          2   -1    0    0  501    0  0.00000000000E+00 -0.00000000000E+00 -0.20445606055E+04  0.20445606055E+04  0.00000000000E+00 0. -1.
         23    2    1    2    0    0  0.68233793939E+03 -0.37883442395E+03 -0.17700462133E+04  0.19366695135E+04  0.92328885098E+02 0.  0.
        254    2    1    2    0    0 -0.68233793939E+03  0.37883442395E+03  0.16536720928E+04  0.20360775770E+04  0.89547748407E+03 0.  0.
         23    2    4    4    0    0  0.95872653140E+02 -0.13033817111E+03  0.59890170445E+03  0.62703079683E+03  0.91130478497E+02 0.  0.
         23    2    4    4    0    0 -0.77821059253E+03  0.50917259506E+03  0.10547703884E+04  0.14090467801E+04  0.89463950807E+02 0.  0.
         11    1    3    3    0    0  0.30851560410E+03 -0.22301142295E+03 -0.88024584416E+03  0.95903530638E+03  0.00000000000E+00 0. -1.
        -11    1    3    3    0    0  0.37382233529E+03 -0.15582300100E+03 -0.88980036914E+03  0.97763420711E+03  0.00000000000E+00 0.  1.
          4    1    5    5  502    0  0.95813038810E+02 -0.56984644098E+02  0.33101028871E+03  0.34927811168E+03  0.00000000000E+00 0. -1.
          3    1    6    6  503    0 -0.18065523957E+03  0.12314284635E+03  0.30746308272E+03  0.37727181637E+03  0.00000000000E+00 0. -1.
         -4    1    5    5    0  502  0.59614329884E-01 -0.73353527008E+02  0.26789141574E+03  0.27775268514E+03  0.00000000000E+00 0.  1.
         -3    1    6    6    0  503 -0.59755535297E+03  0.38602974871E+03  0.74730730566E+03  0.10317749638E+04  0.00000000000E+00 0.  1.
<mgrwt>
<rscale>  0 0.39710422E+04</rscale>
<asrwt>0</asrwt>
<pdfrwt beam="1">  1        2 0.31454779E+00 0.39710422E+04</pdfrwt>
<pdfrwt beam="2">  1       -2 0.29664407E+00 0.39710422E+04</pdfrwt>
<totfact> 0.16626922E-01</totfact>
</mgrwt>
</event>
<event>
12    1  0.4247462E-008  0.1758439E+04  0.7818608E-02  0.8728719E-01
         -2   -1    0    0    0  501 -0.00000000000E+00  0.00000000000E+00  0.28364818919E+03  0.28364818919E+03  0.00000000000E+00 0.  1.
          2   -1    0    0  501    0  0.00000000000E+00 -0.00000000000E+00 -0.27253024603E+04  0.27253024603E+04  0.00000000000E+00 0. -1.
         23    2    1    2    0    0  0.78976926919E+02 -0.24502517592E+03  0.10813380023E+03  0.29448832653E+03  0.93572238908E+02 0.  0.
        254    2    1    2    0    0 -0.78976926919E+02  0.24502517592E+03 -0.25497880713E+04  0.27144623230E+04  0.89476913345E+03 0.  0.
         23    2    4    4    0    0 -0.17144568403E+03 -0.14036855888E+03 -0.15545602995E+03  0.28577203326E+03  0.91663094284E+02 0.  0.
         23    2    4    4    0    0  0.92468757114E+02  0.38539373479E+03 -0.23943320414E+04  0.24286902897E+04  0.92907464473E+02 0.  0.
         11    1    3    3    0    0  0.13682126685E+02 -0.17944581372E+03  0.85364819283E+02  0.19918622699E+03  0.00000000000E+00 0.  1.
        -11    1    3    3    0    0  0.65294800234E+02 -0.65579362196E+02  0.22768980949E+02  0.95302099542E+02  0.00000000000E+00 0. -1.
          2    1    5    5  502    0 -0.15403140564E+03 -0.98370649346E+02 -0.15602317430E+03  0.24030332810E+03  0.00000000000E+00 0. -1.
          3    1    6    6  503    0  0.50110898473E+02  0.10825299135E+03 -0.52004444054E+03  0.53355040289E+03  0.00000000000E+00 0. -1.
         -2    1    5    5    0  502 -0.17414278389E+02 -0.41997909530E+02  0.56714434807E+00  0.45468705165E+02  0.00000000000E+00 0.  1.
         -3    1    6    6    0  503  0.42357858640E+02  0.27714074344E+03 -0.18742876009E+04  0.18951398868E+04  0.00000000000E+00 0.  1.
<mgrwt>
<rscale>  0 0.17584392E+04</rscale>
<asrwt>0</asrwt>
<pdfrwt beam="1">  1        2 0.41927730E+00 0.17584392E+04</pdfrwt>
<pdfrwt beam="2">  1       -2 0.43638184E-01 0.17584392E+04</pdfrwt>
<totfact> 0.12126523E+01</totfact>
</mgrwt>
</event>
<event>
12    1  0.4247462E-008  0.2297552E+04  0.7818608E-02  0.8478887E-01
         -2   -1    0    0    0  501 -0.00000000000E+00  0.00000000000E+00  0.86398474476E+03  0.86398474476E+03  0.00000000000E+00 0.  1.
          2   -1    0    0  501    0  0.00000000000E+00 -0.00000000000E+00 -0.15274422364E+04  0.15274422364E+04  0.00000000000E+00 0. -1.
         23    2    1    2    0    0  0.90565144346E+03 -0.29992654865E+03 -0.45501570165E+03  0.10610649445E+04  0.93054048856E+02 0.  0.
        254    2    1    2    0    0 -0.90565144346E+03  0.29992654865E+03 -0.20844178997E+03  0.13303620367E+04  0.90346814952E+03 0.  0.
         23    2    4    4    0    0 -0.10630406124E+04  0.25871940818E+03 -0.27409362361E+03  0.11319487729E+04  0.95862579531E+02 0.  0.
         23    2    4    4    0    0  0.15738916892E+03  0.41207140469E+02  0.65651833646E+02  0.19841326381E+03  0.92672979225E+02 0.  0.
         13    1    3    3    0    0  0.49472914161E+03 -0.18600426381E+03 -0.20604786931E+03  0.56728320455E+03  0.00000000000E+00 0. -1.
        -13    1    3    3    0    0  0.41092230184E+03 -0.11392228484E+03 -0.24896783234E+03  0.49378173992E+03  0.00000000000E+00 0.  1.
          1    1    5    5  502    0 -0.78538242700E+03  0.22754474537E+03 -0.18129257959E+03  0.83753756166E+03  0.00000000000E+00 0. -1.
          3    1    6    6  503    0  0.14991067846E+03  0.39119828061E+02  0.24888665921E+02  0.15691723346E+03  0.00000000000E+00 0. -1.
         -1    1    5    5    0  502 -0.27765818537E+03  0.31174662806E+02 -0.92801044024E+02  0.29441121120E+03  0.00000000000E+00 0.  1.
         -3    1    6    6    0  503  0.74784904565E+01  0.20873124078E+01  0.40763167725E+02  0.41496030359E+02  0.00000000000E+00 0.  1.
<mgrwt>
<rscale>  0 0.22975524E+04</rscale>
<asrwt>0</asrwt>
<pdfrwt beam="1">  1        2 0.23499111E+00 0.22975524E+04</pdfrwt>
<pdfrwt beam="2">  1       -2 0.13292073E+00 0.22975524E+04</pdfrwt>
<totfact> 0.45599371E+00</totfact>
</mgrwt>
</event>
<event>
12    1  0.4766166E-008  0.1831400E+04  0.7818608E-02  0.8689777E-01
         -2   -1    0    0    0  501 -0.00000000000E+00  0.00000000000E+00  0.47028047051E+03  0.47028047051E+03  0.00000000000E+00 0.  1.
          2   -1    0    0  501    0  0.00000000000E+00 -0.00000000000E+00 -0.17829925747E+04  0.17829925747E+04  0.00000000000E+00 0. -1.
         23    2    1    2    0    0  0.43827984744E+03 -0.47263037940E+03 -0.78723950525E+03  0.10215858152E+04  0.91776025820E+02 0.  0.
        254    2    1    2    0    0 -0.43827984744E+03  0.47263037940E+03 -0.52547259894E+03  0.12316872300E+04  0.90855009780E+03 0.  0.
         23    2    4    4    0    0  0.18739156328E+03 -0.11802363427E+03 -0.38899510636E+02  0.23974558680E+03  0.83184122453E+02 0.  0.
         23    2    4    4    0    0 -0.62567141072E+03  0.59065401367E+03 -0.48657308831E+03  0.99194164325E+03  0.82812893254E+02 0.  0.
         11    1    3    3    0    0  0.29973650331E+02 -0.19152375691E+02 -0.79576458671E+02  0.87164476614E+02  0.00000000000E+00 0.  1.
        -11    1    3    3    0    0  0.40830619711E+03 -0.45347800371E+03 -0.70766304658E+03  0.93442133855E+03  0.00000000000E+00 0. -1.
          4    1    5    5  502    0  0.82310063785E+02 -0.48786670836E+02 -0.58852310671E+02  0.11233289956E+03  0.00000000000E+00 0. -1.
          3    1    6    6  503    0 -0.21407382294E+03  0.23629076320E+03 -0.14441144717E+03  0.35002227431E+03  0.00000000000E+00 0. -1.
         -4    1    5    5    0  502  0.10508149949E+03 -0.69236963435E+02  0.19952800035E+02  0.12741268724E+03  0.00000000000E+00 0.  1.
         -3    1    6    6    0  503 -0.41159758778E+03  0.35436325047E+03 -0.34216164113E+03  0.64191936893E+03  0.00000000000E+00 0.  1.
<mgrwt>
<rscale>  0 0.18314001E+04</rscale>
<asrwt>0</asrwt>
<pdfrwt beam="1">  1        2 0.27430655E+00 0.18314001E+04</pdfrwt>
<pdfrwt beam="2">  1       -2 0.72350843E-01 0.18314001E+04</pdfrwt>
<totfact> 0.14356311E+01</totfact>
</mgrwt>
</event>
<event>
12    1  0.4247462E-008  0.1980903E+04  0.7818608E-02  0.8615601E-01
          2   -1    0    0  501    0  0.00000000000E+00  0.00000000000E+00  0.34799083774E+04  0.34799083774E+04  0.00000000000E+00 0.  1.
         -2   -1    0    0    0  501 -0.00000000000E+00 -0.00000000000E+00 -0.28190240170E+03  0.28190240170E+03  0.00000000000E+00 0. -1.
         23    2    1    2    0    0 -0.72035995996E+03 -0.18518756242E+03  0.82204891589E+03  0.11122624045E+04  0.90279184232E+02 0.  0.
        254    2    1    2    0    0  0.72035995996E+03  0.18518756242E+03  0.23759570599E+04  0.26495483747E+04  0.90648868403E+03 0.  0.
         23    2    4    4    0    0  0.82068305703E+03 -0.10668259882E+02  0.22106702935E+04  0.23599914538E+04  0.94138321367E+02 0.  0.
         23    2    4    4    0    0 -0.10032309707E+03  0.19585582230E+03  0.16528676640E+03  0.28955692092E+03  0.89995935315E+02 0.  0.
         11    1    3    3    0    0 -0.63974363046E+03 -0.13548404042E+03  0.70272714866E+03  0.95992358206E+03  0.00000000000E+00 0. -1.
        -11    1    3    3    0    0 -0.80616329495E+02 -0.49703522000E+02  0.11932176723E+03  0.15233882242E+03  0.00000000000E+00 0.  1.
          4    1    5    5  502    0  0.68176584936E+03 -0.31230556715E+02  0.17491803478E+04  0.18776080288E+04  0.00000000000E+00 0.  1.
          3    1    6    6  503    0 -0.21534865699E+02  0.10478019017E+03  0.35983505067E+02  0.11286031778E+03  0.00000000000E+00 0. -1.
         -4    1    5    5    0  502  0.13891720767E+03  0.20562296833E+02  0.46148994571E+03  0.48238342491E+03  0.00000000000E+00 0. -1.
         -3    1    6    6    0  503 -0.78788231369E+02  0.91075632129E+02  0.12930326134E+03  0.17669660314E+03  0.00000000000E+00 0.  1.
<mgrwt>
<rscale>  0 0.19809034E+04</rscale>
<asrwt>0</asrwt>
<pdfrwt beam="1">  1        2 0.53537049E+00 0.19809034E+04</pdfrwt>
<pdfrwt beam="2">  1       -2 0.43369603E-01 0.19809034E+04</pdfrwt>
<totfact> 0.39613398E+00</totfact>
</mgrwt>
</event>
<event>
12    1  0.4247462E-008  0.2005378E+04  0.7818608E-02  0.8604110E-01
          2   -1    0    0  501    0  0.00000000000E+00  0.00000000000E+00  0.85742061189E+03  0.85742061189E+03  0.00000000000E+00 0. -1.
         -2   -1    0    0    0  501 -0.00000000000E+00 -0.00000000000E+00 -0.11725700436E+04  0.11725700436E+04  0.00000000000E+00 0.  1.
         23    2    1    2    0    0 -0.24921822789E+03 -0.59262676159E+03  0.33733727042E+03  0.73228792974E+03  0.95566596480E+02 0.  0.
        254    2    1    2    0    0  0.24921822789E+03  0.59262676159E+03 -0.65248670210E+03  0.12977027257E+04  0.91922644884E+03 0.  0.
         23    2    4    4    0    0  0.32293368209E+03  0.71782637561E+03 -0.20466815018E+03  0.81840781780E+03  0.91331462175E+02 0.  0.
         23    2    4    4    0    0 -0.73715454206E+02 -0.12519961402E+03 -0.44781855191E+03  0.47929490791E+03  0.89851220208E+02 0.  0.
         11    1    3    3    0    0 -0.12668950537E+03 -0.22756784455E+03  0.17844277003E+03  0.31572009252E+03  0.00000000000E+00 0. -1.
        -11    1    3    3    0    0 -0.12252872252E+03 -0.36505891704E+03  0.15889450039E+03  0.41656783722E+03  0.00000000000E+00 0.  1.
          2    1    5    5  502    0  0.21741386019E+03  0.41473857943E+03 -0.15739323871E+03  0.49401367133E+03  0.00000000000E+00 0. -1.
          4    1    6    6  503    0  0.20087578910E+02 -0.11613343530E+02 -0.51573789625E+02  0.56552951742E+02  0.00000000000E+00 0.  1.
         -2    1    5    5    0  502  0.10551982191E+03  0.30308779617E+03 -0.47274911468E+02  0.32439414646E+03  0.00000000000E+00 0.  1.
         -4    1    6    6    0  503 -0.93803033116E+02 -0.11358627049E+03 -0.39624476229E+03  0.42274195617E+03  0.00000000000E+00 0. -1.
<mgrwt>
<rscale>  0 0.20053785E+04</rscale>
<asrwt>0</asrwt>
<pdfrwt beam="1">  1        2 0.13191086E+00 0.20053785E+04</pdfrwt>
<pdfrwt beam="2">  1       -2 0.18039539E+00 0.20053785E+04</pdfrwt>
<totfact> 0.52458859E+00</totfact>
</mgrwt>
</event>
<event>
12    1  0.4247462E-008  0.1543078E+04  0.7818608E-02  0.8856301E-01
          1   -1    0    0  501    0  0.00000000000E+00  0.00000000000E+00  0.50970421166E+03  0.50970421166E+03  0.00000000000E+00 0. -1.
         -1   -1    0    0    0  501 -0.00000000000E+00 -0.00000000000E+00 -0.11678777191E+04  0.11678777191E+04  0.00000000000E+00 0.  1.
         23    2    1    2    0    0 -0.40411569149E+03  0.28926341456E+03 -0.20647530328E+03  0.54591437045E+03  0.91693150712E+02 0.  0.
        254    2    1    2    0    0  0.40411569149E+03 -0.28926341456E+03 -0.45169820418E+03  0.11316675603E+04  0.91085530373E+03 0.  0.
         23    2    4    4    0    0  0.23855576986E+03  0.30149031746E+03 -0.64278565041E+02  0.40044830143E+03  0.91770590805E+02 0.  0.
         23    2    4    4    0    0  0.16555992163E+03 -0.59075373202E+03 -0.38741963914E+03  0.73121925890E+03  0.90485182501E+02 0.  0.
         11    1    3    3    0    0 -0.15380141638E+02  0.38762022521E+02 -0.27914797030E+02  0.50182457492E+02  0.00000000000E+00 0. -1.
        -11    1    3    3    0    0 -0.38873554985E+03  0.25050139204E+03 -0.17856050625E+03  0.49573191296E+03  0.00000000000E+00 0.  1.
          1    1    6    6  502    0  0.42669463683E+01 -0.66756732244E+02 -0.15353648395E+02  0.68632373194E+02  0.00000000000E+00 0. -1.
          1    1    5    5  503    0 -0.60505740669E+01  0.10625754054E+01  0.36193417055E+01  0.71300874758E+01  0.00000000000E+00 0. -1.
         -1    1    5    5    0  503  0.24460634393E+03  0.30042774206E+03 -0.67897906746E+02  0.39331821395E+03  0.00000000000E+00 0.  1.
         -1    1    6    6    0  502  0.16129297526E+03 -0.52399699978E+03 -0.37206599074E+03  0.66258688571E+03  0.00000000000E+00 0.  1.
<mgrwt>
<rscale>  0 0.15430777E+04</rscale>
<asrwt>0</asrwt>
<pdfrwt beam="1">  1        1 0.78416033E-01 0.15430777E+04</pdfrwt>
<pdfrwt beam="2">  1       -1 0.17967349E+00 0.15430777E+04</pdfrwt>
<totfact> 0.87035887E+00</totfact>
</mgrwt>
</event>
<event>
12    1  0.4247462E-008  0.2052102E+04  0.7818608E-02  0.8582642E-01
          2   -1    0    0  501    0  0.00000000000E+00  0.00000000000E+00  0.11479623603E+04  0.11479623603E+04  0.00000000000E+00 0. -1.
         -2   -1    0    0    0  501 -0.00000000000E+00 -0.00000000000E+00 -0.91708604685E+03  0.91708604685E+03  0.00000000000E+00 0.  1.
         23    2    1    2    0    0 -0.25109141332E+02 -0.63983547751E+03 -0.42757919925E+03  0.77480996984E+03  0.86525201332E+02 0.  0.
        254    2    1    2    0    0  0.25109141332E+02  0.63983547751E+03  0.65845551267E+03  0.12902384373E+04  0.90616315067E+03 0.  0.
         23    2    4    4    0    0  0.18256498765E+03  0.36593481962E+03 -0.12760585342E+03  0.43808059687E+03  0.91613801352E+02 0.  0.
         23    2    4    4    0    0 -0.15745584631E+03  0.27390065789E+03  0.78606136608E+03  0.85215784042E+03  0.92014128313E+02 0.  0.
         11    1    3    3    0    0  0.11756628559E+01 -0.56536085191E+03 -0.35520124058E+03  0.66768420408E+03  0.00000000000E+00 0.  1.
        -11    1    3    3    0    0 -0.26284804188E+02 -0.74474625598E+02 -0.72377958667E+02  0.10712576576E+03  0.00000000000E+00 0. -1.
          3    1    6    6  502    0 -0.13324143913E+03  0.23271349064E+03  0.55728799255E+03  0.61844866922E+03  0.00000000000E+00 0. -1.
          3    1    5    5  503    0  0.18730354066E+03  0.34280369833E+03 -0.10301946624E+03  0.40399257711E+03  0.00000000000E+00 0. -1.
         -3    1    5    5    0  503 -0.47385530125E+01  0.23131121289E+02 -0.24586387173E+02  0.34088019757E+02  0.00000000000E+00 0.  1.
         -3    1    6    6    0  502 -0.24214407179E+02  0.41187167245E+02  0.22877337354E+03  0.23370917119E+03  0.00000000000E+00 0.  1.
<mgrwt>
<rscale>  0 0.20521016E+04</rscale>
<asrwt>0</asrwt>
<pdfrwt beam="1">  1        2 0.17660959E+00 0.20521016E+04</pdfrwt>
<pdfrwt beam="2">  1       -2 0.14109016E+00 0.20521016E+04</pdfrwt>
<totfact> 0.66304818E+00</totfact>
</mgrwt>
</event>
<event>
12    1  0.4247462E-008  0.1782175E+04  0.7818608E-02  0.8715837E-01
         -2   -1    0    0    0  501 -0.00000000000E+00  0.00000000000E+00  0.43559111685E+03  0.43559111685E+03  0.00000000000E+00 0.  1.
          2   -1    0    0  501    0  0.00000000000E+00 -0.00000000000E+00 -0.18228947749E+04  0.18228947749E+04  0.00000000000E+00 0. -1.
         23    2    1    2    0    0  0.21081182916E+02  0.63218715687E+03 -0.56410049419E+03  0.85222499105E+03  0.89291938295E+02 0.  0.
        254    2    1    2    0    0 -0.21081182916E+02 -0.63218715687E+03 -0.82320316382E+03  0.14062609007E+04  0.94857854403E+03 0.  0.
         23    2    4    4    0    0  0.30822214371E+03 -0.57620666088E+03 -0.19238891654E+03  0.68656389436E+03  0.85682436483E+02 0.  0.
         23    2    4    4    0    0 -0.32930332662E+03 -0.55980495995E+02 -0.63081424729E+03  0.71969700630E+03  0.91992768370E+02 0.  0.
         11    1    3    3    0    0  0.36612107625E+02  0.41673928270E+03 -0.41843222442E+03  0.59169046181E+03  0.00000000000E+00 0.  1.
        -11    1    3    3    0    0 -0.15530924709E+02  0.21544787418E+03 -0.14566826977E+03  0.26053452924E+03  0.00000000000E+00 0. -1.
          2    1    5    5  502    0  0.14862966405E+02 -0.55099835433E+02 -0.39239966132E+02  0.69258028973E+02  0.00000000000E+00 0.  1.
          3    1    6    6  503    0 -0.29706689218E+03 -0.20245342067E+02 -0.52783285890E+03  0.60602486685E+03  0.00000000000E+00 0. -1.
         -2    1    5    5    0  502  0.29335917730E+03 -0.52110682544E+03 -0.15314895040E+03  0.61730586538E+03  0.00000000000E+00 0. -1.
         -3    1    6    6    0  503 -0.32236434440E+02 -0.35735153928E+02 -0.10298138839E+03  0.11367213945E+03  0.00000000000E+00 0.  1.
<mgrwt>
<rscale>  0 0.17821748E+04</rscale>
<asrwt>0</asrwt>
<pdfrwt beam="1">  1        2 0.28044535E+00 0.17821748E+04</pdfrwt>
<pdfrwt beam="2">  1       -2 0.67014019E-01 0.17821748E+04</pdfrwt>
<totfact> 0.16191327E+01</totfact>
</mgrwt>
</event>
<event>
12    1  0.4247462E-008  0.1899514E+04  0.7818608E-02  0.8655098E-01
         -2   -1    0    0    0  501 -0.00000000000E+00  0.00000000000E+00  0.74350975742E+03  0.74350975742E+03  0.00000000000E+00 0. -1.
          2   -1    0    0  501    0  0.00000000000E+00 -0.00000000000E+00 -0.12132162498E+04  0.12132162498E+04  0.00000000000E+00 0.  1.
         23    2    1    2    0    0 -0.17657743125E+03 -0.29341119978E+03  0.48687442486E+03  0.60229499575E+03  0.91884900509E+02 0.  0.
        254    2    1    2    0    0  0.17657743125E+03  0.29341119978E+03 -0.95658091722E+03  0.13544310115E+04  0.89563753395E+03 0.  0.
         23    2    4    4    0    0  0.45593093694E+03  0.26661640327E+03 -0.90952670176E+03  0.10556567575E+04  0.90636872353E+02 0.  0.
         23    2    4    4    0    0 -0.27935350569E+03  0.26794796509E+02 -0.47054215466E+02  0.29877425399E+03  0.91080257959E+02 0.  0.
         13    1    3    3    0    0 -0.47999878302E+02 -0.20012708676E+02  0.61396885717E+02  0.80461633101E+02  0.00000000000E+00 0.  1.
        -13    1    3    3    0    0 -0.12857755295E+03 -0.27339849110E+03  0.42547753914E+03  0.52183336264E+03  0.00000000000E+00 0. -1.
          1    1    6    6  502    0 -0.21158751274E+03 -0.13417601751E+02 -0.11496012741E+02  0.21232396448E+03  0.00000000000E+00 0. -1.
          1    1    5    5  503    0  0.45198114166E+03  0.24543203770E+03 -0.87454881162E+03  0.10145735367E+04  0.00000000000E+00 0. -1.
         -1    1    5    5    0  503  0.39497952843E+01  0.21184365564E+02 -0.34977890136E+02  0.41083220730E+02  0.00000000000E+00 0.  1.
         -1    1    6    6    0  502 -0.67765992956E+02  0.40212398261E+02 -0.35558202725E+02  0.86450289509E+02  0.00000000000E+00 0.  1.
<mgrwt>
<rscale>  0 0.18995137E+04</rscale>
<asrwt>0</asrwt>
<pdfrwt beam="1">  1        2 0.18664865E+00 0.18995137E+04</pdfrwt>
<pdfrwt beam="2">  1       -2 0.11438612E+00 0.18995137E+04</pdfrwt>
<totfact> 0.10408865E+01</totfact>
</mgrwt>
</event>
<event>
12    1  0.4247462E-008  0.1431040E+04  0.7818608E-02  0.8931652E-01
         -2   -1    0    0    0  501 -0.00000000000E+00  0.00000000000E+00  0.81389367562E+03  0.81389367562E+03  0.00000000000E+00 0. -1.
          2   -1    0    0  501    0  0.00000000000E+00 -0.00000000000E+00 -0.62903620643E+03  0.62903620643E+03  0.00000000000E+00 0.  1.
         23    2    1    2    0    0 -0.15188586057E+03 -0.40062043642E+03  0.20363685390E+03  0.48242436456E+03  0.87745373330E+02 0.  0.
        254    2    1    2    0    0  0.15188586057E+03  0.40062043642E+03 -0.18779384702E+02  0.96050551749E+03  0.85944873909E+03 0.  0.
         23    2    4    4    0    0  0.32960540203E+03  0.57993736140E+03 -0.99122352002E+02  0.68054283444E+03  0.91357783727E+02 0.  0.
         23    2    4    4    0    0 -0.17771954146E+03 -0.17931692499E+03  0.80342967300E+02  0.27996268304E+03  0.90472738987E+02 0.  0.
         11    1    3    3    0    0 -0.15423130927E+03 -0.40242329558E+03  0.20686749852E+03  0.47804389707E+03  0.00000000000E+00 0. -1.
        -11    1    3    3    0    0  0.23454486976E+01  0.18028591644E+01 -0.32306446201E+01  0.43804674888E+01  0.00000000000E+00 0.  1.
          4    1    5    5  502    0  0.31813273705E+03  0.50397455821E+03 -0.79607806663E+02  0.60127880104E+03  0.00000000000E+00 0. -1.
          1    1    6    6  503    0 -0.14435492396E+03 -0.18422050550E+03  0.75348660668E+02  0.24587183528E+03  0.00000000000E+00 0. -1.
         -4    1    5    5    0  502  0.11472664982E+02  0.75962803196E+02 -0.19514545339E+02  0.79264033401E+02  0.00000000000E+00 0.  1.
         -1    1    6    6    0  503 -0.33364617501E+02  0.49035805132E+01  0.49943066316E+01  0.34090847769E+02  0.00000000000E+00 0.  1.
<mgrwt>
<rscale>  0 0.14310396E+04</rscale>
<asrwt>0</asrwt>
<pdfrwt beam="1">  1        2 0.96774800E-01 0.14310396E+04</pdfrwt>
<pdfrwt beam="2">  1       -2 0.12521441E+00 0.14310396E+04</pdfrwt>
<totfact> 0.21700229E+01</totfact>
</mgrwt>
</event>
<event>
12    1  0.4247462E-008  0.2049203E+04  0.7818608E-02  0.8583956E-01
         -1   -1    0    0    0  501 -0.00000000000E+00  0.00000000000E+00  0.70668076883E+03  0.70668076883E+03  0.00000000000E+00 0.  1.
          1   -1    0    0  501    0  0.00000000000E+00 -0.00000000000E+00 -0.14855479901E+04  0.14855479901E+04  0.00000000000E+00 0. -1.
         23    2    1    2    0    0 -0.18419178621E+03 -0.60401201724E+03 -0.87871879329E+03  0.10859333326E+04  0.91363855324E+02 0.  0.
        254    2    1    2    0    0  0.18419178621E+03  0.60401201724E+03  0.99851572012E+02  0.11062954263E+04  0.90286328026E+03 0.  0.
         23    2    4    4    0    0  0.21687654093E+03  0.79244986746E+03  0.22609611976E+03  0.85710280913E+03  0.92160423195E+02 0.  0.
         23    2    4    4    0    0 -0.32684754717E+02 -0.18843785022E+03 -0.12624454774E+03  0.24919261721E+03  0.97888498058E+02 0.  0.
         11    1    3    3    0    0 -0.18017397613E+03 -0.52495621705E+03 -0.72524380271E+03  0.91324709957E+03  0.00000000000E+00 0. -1.
        -11    1    3    3    0    0 -0.40178100799E+01 -0.79055800197E+02 -0.15347499057E+03  0.17268623302E+03  0.00000000000E+00 0.  1.
          1    1    5    5  502    0  0.11367603106E+03  0.56412460397E+03  0.14104824651E+03  0.59249760901E+03  0.00000000000E+00 0. -1.
          3    1    6    6  503    0  0.19060199065E+02 -0.76194918935E+02 -0.91945976456E+02  0.12092567737E+03  0.00000000000E+00 0. -1.
         -1    1    5    5    0  502  0.10320050987E+03  0.22832526350E+03  0.85047873245E+02  0.26460520012E+03  0.00000000000E+00 0.  1.
         -3    1    6    6    0  503 -0.51744953782E+02 -0.11224293129E+03 -0.34298571288E+02  0.12826693985E+03  0.00000000000E+00 0.  1.
<mgrwt>
<rscale>  0 0.20492030E+04</rscale>
<asrwt>0</asrwt>
<pdfrwt beam="1">  1        1 0.22854584E+00 0.20492030E+04</pdfrwt>
<pdfrwt beam="2">  1       -1 0.10872012E+00 0.20492030E+04</pdfrwt>
<totfact> 0.48517749E+00</totfact>
</mgrwt>
</event>
<event>
12    1  0.4247462E-008  0.1557226E+04  0.7818608E-02  0.8847265E-01
         -1   -1    0    0    0  501 -0.00000000000E+00  0.00000000000E+00  0.47949381371E+03  0.47949381371E+03  0.00000000000E+00 0.  1.
          1   -1    0    0  501    0  0.00000000000E+00 -0.00000000000E+00 -0.12643300322E+04  0.12643300322E+04  0.00000000000E+00 0. -1.
         23    2    1    2    0    0 -0.39546735063E+03 -0.29800602710E+03 -0.41720986025E+03  0.65411451757E+03  0.92734659154E+02 0.  0.
        254    2    1    2    0    0  0.39546735063E+03  0.29800602710E+03 -0.36762635821E+03  0.10897093283E+04  0.89839593909E+03 0.  0.
         23    2    4    4    0    0  0.50120045437E+03  0.33405991317E+03 -0.57542315917E+03  0.83795678587E+03  0.90894674414E+02 0.  0.
         23    2    4    4    0    0 -0.10573310374E+03 -0.36053886073E+02  0.20779680096E+03  0.25175254245E+03  0.87866149420E+02 0.  0.
         11    1    3    3    0    0 -0.53930814189E+02 -0.13920476056E+02 -0.23272033904E+02  0.60364724258E+02  0.00000000000E+00 0.  1.
        -11    1    3    3    0    0 -0.34153653644E+03 -0.28408555104E+03 -0.39393782635E+03  0.59374979331E+03  0.00000000000E+00 0. -1.
          2    1    5    5  502    0  0.34401098801E+03  0.18720012424E+03 -0.40617852547E+03  0.56424147396E+03  0.00000000000E+00 0. -1.
          3    1    6    6  503    0  0.10427464665E+01  0.18248608306E+02  0.52707397763E+02  0.55786815685E+02  0.00000000000E+00 0. -1.
         -2    1    5    5    0  502  0.15718946636E+03  0.14685978893E+03 -0.16924463370E+03  0.27371531191E+03  0.00000000000E+00 0.  1.
         -3    1    6    6    0  503 -0.10677585020E+03 -0.54302494379E+02  0.15508940319E+03  0.19596572676E+03  0.00000000000E+00 0.  1.
<mgrwt>
<rscale>  0 0.15572263E+04</rscale>
<asrwt>0</asrwt>
<pdfrwt beam="1">  1        1 0.19451231E+00 0.15572263E+04</pdfrwt>
<pdfrwt beam="2">  1       -1 0.73768280E-01 0.15572263E+04</pdfrwt>
<totfact> 0.17101327E+01</totfact>
</mgrwt>
</event>
<event>
12    1  0.4247462E-008  0.1160687E+04  0.7818608E-02  0.9147980E-01
         -2   -1    0    0    0  501 -0.00000000000E+00  0.00000000000E+00  0.32974579235E+03  0.32974579235E+03  0.00000000000E+00 0.  1.
          2   -1    0    0  501    0  0.00000000000E+00 -0.00000000000E+00 -0.10213893501E+04  0.10213893501E+04  0.00000000000E+00 0. -1.
         23    2    1    2    0    0 -0.34526963964E+01  0.89158404570E+02  0.86464131091E+02  0.15419155344E+03  0.91311811774E+02 0.  0.
        254    2    1    2    0    0  0.34526963964E+01 -0.89158404570E+02 -0.77810768881E+03  0.11969435890E+04  0.90513050858E+03 0.  0.
         23    2    4    4    0    0  0.34303819365E+03  0.13486492739E+03 -0.66127186084E+03  0.76259695861E+03  0.91705487345E+02 0.  0.
         23    2    4    4    0    0 -0.33958549726E+03 -0.22402333196E+03 -0.11683582797E+03  0.43434663035E+03  0.97476260649E+02 0.  0.
         11    1    3    3    0    0 -0.46930611872E+02  0.50590406636E+02  0.53974902966E+02  0.87608000345E+02  0.00000000000E+00 0.  1.
        -11    1    3    3    0    0  0.43477915476E+02  0.38567997933E+02  0.32489228125E+02  0.66583553096E+02  0.00000000000E+00 0. -1.
          1    1    5    5  502    0  0.11834218993E+03  0.16019297296E+01 -0.19380738175E+03  0.22708751907E+03  0.00000000000E+00 0. -1.
          3    1    6    6  503    0 -0.16326126372E+03 -0.63553096589E+02 -0.17500143603E+02  0.17606672412E+03  0.00000000000E+00 0. -1.
         -1    1    5    5    0  502  0.22469600373E+03  0.13326299766E+03 -0.46746447909E+03  0.53550943955E+03  0.00000000000E+00 0.  1.
         -3    1    6    6    0  503 -0.17632423354E+03 -0.16047023537E+03 -0.99335684366E+02  0.25827990623E+03  0.00000000000E+00 0.  1.
<mgrwt>
<rscale>  0 0.11606875E+04</rscale>
<asrwt>0</asrwt>
<pdfrwt beam="1">  1        2 0.15713682E+00 0.11606875E+04</pdfrwt>
<pdfrwt beam="2">  1       -2 0.50730122E-01 0.11606875E+04</pdfrwt>
<totfact> 0.88677392E+01</totfact>
</mgrwt>
</event>
<event>
12    1  0.4247462E-008  0.1478917E+04  0.7818608E-02  0.8898595E-01
         -2   -1    0    0    0  501 -0.00000000000E+00  0.00000000000E+00  0.35413517773E+03  0.35413517773E+03  0.00000000000E+00 0.  1.
          2   -1    0    0  501    0  0.00000000000E+00 -0.00000000000E+00 -0.15440396302E+04  0.15440396302E+04  0.00000000000E+00 0. -1.
         23    2    1    2    0    0  0.20400272853E+03 -0.13198004684E+02  0.14886189871E+03  0.26890198446E+03  0.91417240080E+02 0.  0.
        254    2    1    2    0    0 -0.20400272853E+03  0.13198004684E+02 -0.13387663512E+04  0.16292728235E+04  0.90578324653E+03 0.  0.
         23    2    4    4    0    0 -0.27481447077E+03  0.25127172429E+03 -0.13070333342E+04  0.13620783596E+04  0.90889208397E+02 0.  0.
         23    2    4    4    0    0  0.70811742242E+02 -0.23807371961E+03 -0.31733016970E+02  0.26719446387E+03  0.93233568796E+02 0.  0.
         13    1    3    3    0    0  0.71856548631E+02  0.27752045823E+02  0.19412731753E+02  0.79437987026E+02  0.00000000000E+00 0. -1.
        -13    1    3    3    0    0  0.13214617990E+03 -0.40950050507E+02  0.12944916695E+03  0.18946399743E+03  0.00000000000E+00 0.  1.
          2    1    5    5  502    0 -0.18295517240E+03  0.20530514804E+03 -0.83944951518E+03  0.88334494251E+03  0.00000000000E+00 0. -1.
          2    1    6    6  503    0  0.13630506403E+02 -0.41358903720E+02 -0.44083633402E+02  0.61965444851E+02  0.00000000000E+00 0. -1.
         -2    1    5    5    0  502 -0.91859298371E+02  0.45966576255E+02 -0.46758381904E+03  0.47873341711E+03  0.00000000000E+00 0.  1.
         -2    1    6    6    0  503  0.57181235839E+02 -0.19671481589E+03  0.12350616432E+02  0.20522901902E+03  0.00000000000E+00 0.  1.
<mgrwt>
<rscale>  0 0.14789168E+04</rscale>
<asrwt>0</asrwt>
<pdfrwt beam="1">  1        2 0.23754456E+00 0.14789168E+04</pdfrwt>
<pdfrwt beam="2">  1       -2 0.54482334E-01 0.14789168E+04</pdfrwt>
<totfact> 0.36777940E+01</totfact>
</mgrwt>
</event>
<event>
12    1  0.4247462E-008  0.1082675E+04  0.7818608E-02  0.9222244E-01
         -1   -1    0    0    0  501 -0.00000000000E+00  0.00000000000E+00  0.22597460747E+03  0.22597460747E+03  0.00000000000E+00 0.  1.
          1   -1    0    0  501    0  0.00000000000E+00 -0.00000000000E+00 -0.12968112081E+04  0.12968112081E+04  0.00000000000E+00 0. -1.
         23    2    1    2    0    0 -0.20838979170E+02 -0.23058694914E+02  0.34779197265E+02  0.10320850080E+03  0.92067560034E+02 0.  0.
        254    2    1    2    0    0  0.20838979170E+02  0.23058694914E+02 -0.11056157979E+04  0.14195773147E+04  0.88985813115E+03 0.  0.
         23    2    4    4    0    0  0.16446225425E+03  0.18299064276E+03 -0.11519619535E+04  0.11814153196E+04  0.90511914389E+02 0.  0.
         23    2    4    4    0    0 -0.14362327508E+03 -0.15993194785E+03  0.46346155611E+02  0.23816199517E+03  0.91472928874E+02 0.  0.
         11    1    3    3    0    0  0.89944477730E+01  0.15247122812E+02 -0.22170650964E+02  0.28370981811E+02  0.00000000000E+00 0. -1.
        -11    1    3    3    0    0 -0.29833426943E+02 -0.38305817727E+02  0.56949848228E+02  0.74837518987E+02  0.00000000000E+00 0.  1.
          1    1    6    6  502    0 -0.13933968195E+03 -0.14117742881E+03  0.11910395629E+02  0.19871706242E+03  0.00000000000E+00 0. -1.
          1    1    5    5  503    0  0.12148406625E+03  0.76201224006E+02 -0.53978771978E+03  0.55851211922E+03  0.00000000000E+00 0. -1.
         -1    1    5    5    0  503  0.42978188001E+02  0.10678941875E+03 -0.61217423370E+03  0.62290320035E+03  0.00000000000E+00 0.  1.
         -1    1    6    6    0  502 -0.42835931302E+01 -0.18754519035E+02  0.34435759982E+02  0.39444932753E+02  0.00000000000E+00 0.  1.
<mgrwt>
<rscale>  0 0.10826752E+04</rscale>
<asrwt>0</asrwt>
<pdfrwt beam="1">  1        1 0.19950942E+00 0.10826752E+04</pdfrwt>
<pdfrwt beam="2">  1       -1 0.34765324E-01 0.10826752E+04</pdfrwt>
<totfact> 0.71195415E+01</totfact>
</mgrwt>
</event>
<event>
12    1  0.4247462E-008  0.2050940E+04  0.7818608E-02  0.8583168E-01
         -1   -1    0    0    0  501 -0.00000000000E+00  0.00000000000E+00  0.45888791142E+03  0.45888791142E+03  0.00000000000E+00 0.  1.
          1   -1    0    0  501    0  0.00000000000E+00 -0.00000000000E+00 -0.22916030266E+04  0.22916030266E+04  0.00000000000E+00 0. -1.
         23    2    1    2    0    0 -0.27447124837E+03 -0.44379283736E+02  0.30069220926E+03  0.41684486241E+03  0.77716456428E+02 0.  0.
        254    2    1    2    0    0  0.27447124837E+03  0.44379283736E+02 -0.21334073245E+04  0.23336460756E+04  0.90397633111E+03 0.  0.
         23    2    4    4    0    0  0.14986168949E+03 -0.35302615271E+03 -0.16145003969E+04  0.16619590031E+04  0.91707174967E+02 0.  0.
         23    2    4    4    0    0  0.12460955888E+03  0.39740543645E+03 -0.51890692754E+03  0.67168707249E+03  0.91872198310E+02 0.  0.
         11    1    3    3    0    0  0.28205735365E+01 -0.32415450084E+01 -0.15937814522E+01  0.45829453885E+01  0.00000000000E+00 0. -1.
        -11    1    3    3    0    0 -0.27729182190E+03 -0.41137738727E+02  0.30228599072E+03  0.41226191702E+03  0.00000000000E+00 0.  1.
          2    1    5    5  502    0  0.82171718436E+02 -0.21121312303E+03 -0.11337029652E+04  0.11561338971E+04  0.00000000000E+00 0. -1.
          3    1    6    6  503    0  0.10995361499E+03  0.20039966187E+03 -0.26448038519E+03  0.34957073115E+03  0.00000000000E+00 0. -1.
         -2    1    5    5    0  502  0.67689971051E+02 -0.14181302968E+03 -0.48079743175E+03  0.50582510609E+03  0.00000000000E+00 0.  1.
         -3    1    6    6    0  503  0.14655943896E+02  0.19700577458E+03 -0.25442654235E+03  0.32211634134E+03  0.00000000000E+00 0.  1.
<mgrwt>
<rscale>  0 0.20509402E+04</rscale>
<asrwt>0</asrwt>
<pdfrwt beam="1">  1        1 0.35255431E+00 0.20509402E+04</pdfrwt>
<pdfrwt beam="2">  1       -1 0.70598141E-01 0.20509402E+04</pdfrwt>
<totfact> 0.35317391E+00</totfact>
</mgrwt>
</event>
<event>
12    1  0.4247462E-008  0.2333772E+04  0.7818608E-02  0.8464723E-01
          1   -1    0    0  501    0  0.00000000000E+00  0.00000000000E+00  0.13164713520E+04  0.13164713520E+04  0.00000000000E+00 0. -1.
         -1   -1    0    0    0  501 -0.00000000000E+00 -0.00000000000E+00 -0.10342973444E+04  0.10342973444E+04  0.00000000000E+00 0.  1.
         23    2    1    2    0    0 -0.69100814684E+03 -0.17575693150E+03  0.81644858961E+03  0.10879193423E+04  0.92722369836E+02 0.  0.
        254    2    1    2    0    0  0.69100814684E+03  0.17575693150E+03 -0.53427458208E+03  0.12628493541E+04  0.89496167745E+03 0.  0.
         23    2    4    4    0    0  0.85330534084E+03  0.12716019200E+02 -0.53943433507E+03  0.10134073797E+04  0.87826041486E+02 0.  0.
         23    2    4    4    0    0 -0.16229719400E+03  0.16304091230E+03  0.51597529958E+01  0.24944197437E+03  0.96291003018E+02 0.  0.
         13    1    3    3    0    0 -0.94484195410E+02 -0.46579317835E+02  0.85654456448E+02  0.13577032791E+03  0.00000000000E+00 0.  1.
        -13    1    3    3    0    0 -0.59652395143E+03 -0.12917761367E+03  0.73079413316E+03  0.95214901437E+03  0.00000000000E+00 0. -1.
          2    1    6    6  502    0 -0.16402700880E+03  0.15157413278E+03 -0.17464157432E+02  0.22401913789E+03  0.00000000000E+00 0. -1.
          2    1    5    5  503    0  0.85699804910E+02 -0.24901111722E+02 -0.50670654364E+02  0.10262571384E+03  0.00000000000E+00 0.  1.
         -2    1    5    5    0  503  0.76760553593E+03  0.37617130922E+02 -0.48876368071E+03  0.91078166588E+03  0.00000000000E+00 0. -1.
         -2    1    6    6    0  502  0.17298148011E+01  0.11466779520E+02  0.22623910428E+02  0.25422836483E+02  0.00000000000E+00 0.  1.
<mgrwt>
<rscale>  0 0.23337719E+04</rscale>
<asrwt>0</asrwt>
<pdfrwt beam="1">  1        1 0.20253405E+00 0.23337719E+04</pdfrwt>
<pdfrwt beam="2">  1       -1 0.15912267E+00 0.23337719E+04</pdfrwt>
<totfact> 0.23547897E+00</totfact>
</mgrwt>
</event>
<event>
12    1  0.4247462E-008  0.1824055E+04  0.7818608E-02  0.8693611E-01
          1   -1    0    0  501    0  0.00000000000E+00  0.00000000000E+00  0.10130710300E+04  0.10130710300E+04  0.00000000000E+00 0. -1.
         -1   -1    0    0    0  501 -0.00000000000E+00 -0.00000000000E+00 -0.82106205883E+03  0.82106205883E+03  0.00000000000E+00 0.  1.
         23    2    1    2    0    0  0.58067288818E+03  0.13633693812E+03 -0.27421931776E+03  0.66291660678E+03  0.92159804405E+02 0.  0.
        254    2    1    2    0    0 -0.58067288818E+03 -0.13633693812E+03  0.46622828897E+03  0.11712164821E+04  0.89365008069E+03 0.  0.
         23    2    4    4    0    0 -0.60378040282E+03  0.25657828173E+03  0.34468758011E+03  0.74780941548E+03  0.10013093687E+03 0.  0.
         23    2    4    4    0    0  0.23107514643E+02 -0.39291521985E+03  0.12154070885E+03  0.42340706660E+03  0.97903385626E+02 0.  0.
         13    1    3    3    0    0  0.38871163619E+03  0.58191073147E+02 -0.21172300539E+03  0.44644100183E+03  0.00000000000E+00 0.  1.
        -13    1    3    3    0    0  0.19196125198E+03  0.78145864978E+02 -0.62496312367E+02  0.21647560494E+03  0.00000000000E+00 0. -1.
          4    1    5    5  502    0 -0.54643900298E+03  0.26204232690E+03  0.31598101011E+03  0.68345136170E+03  0.00000000000E+00 0. -1.
          1    1    6    6  503    0  0.36535176629E+02 -0.11570112943E+03  0.23458973499E+01  0.12135515530E+03  0.00000000000E+00 0. -1.
         -4    1    5    5    0  502 -0.57341399838E+02 -0.54640451678E+01  0.28706570000E+02  0.64358053778E+02  0.00000000000E+00 0.  1.
         -1    1    6    6    0  503 -0.13427661986E+02 -0.27721409042E+03  0.11919481150E+03  0.30205191130E+03  0.00000000000E+00 0.  1.
<mgrwt>
<rscale>  0 0.18240550E+04</rscale>
<asrwt>0</asrwt>
<pdfrwt beam="1">  1        1 0.15585708E+00 0.18240550E+04</pdfrwt>
<pdfrwt beam="2">  1       -1 0.12631724E+00 0.18240550E+04</pdfrwt>
<totfact> 0.75885947E+00</totfact>
</mgrwt>
</event>
<event>
12    1  0.4247462E-008  0.1826459E+04  0.7818608E-02  0.8692354E-01
          2   -1    0    0  501    0  0.00000000000E+00  0.00000000000E+00  0.29764324400E+03  0.29764324400E+03  0.00000000000E+00 0. -1.
         -2   -1    0    0    0  501 -0.00000000000E+00 -0.00000000000E+00 -0.28019729906E+04  0.28019729906E+04  0.00000000000E+00 0.  1.
         23    2    1    2    0    0 -0.25516855829E+03 -0.63325329042E+03 -0.83635691927E+03  0.10833366848E+04  0.89469286116E+02 0.  0.
        254    2    1    2    0    0  0.25516855829E+03  0.63325329042E+03 -0.16679728274E+04  0.20162795499E+04  0.90395196081E+03 0.  0.
         23    2    4    4    0    0  0.43607695804E+03  0.71937459104E+03 -0.15489572830E+04  0.17650125321E+04  0.91310779115E+02 0.  0.
         23    2    4    4    0    0 -0.18090839975E+03 -0.86121300616E+02 -0.11901554432E+03  0.25126701773E+03  0.93945127009E+02 0.  0.
         13    1    3    3    0    0 -0.18062409045E+03 -0.44128725336E+03 -0.51672959633E+03  0.70311377298E+03  0.00000000000E+00 0. -1.
        -13    1    3    3    0    0 -0.74544467837E+02 -0.19196603706E+03 -0.31962732294E+03  0.38022291178E+03  0.00000000000E+00 0.  1.
          4    1    5    5  502    0  0.10956677120E+02  0.38026116789E+02 -0.11309224816E+03  0.11981607123E+03  0.00000000000E+00 0. -1.
          3    1    6    6  503    0  0.91140916177E+01 -0.16575739203E+02 -0.11292523415E+02  0.22030498887E+02  0.00000000000E+00 0. -1.
         -4    1    5    5    0  502  0.42512028092E+03  0.68134847425E+03 -0.14358650349E+04  0.16451964609E+04  0.00000000000E+00 0.  1.
         -3    1    6    6    0  503 -0.19002249137E+03 -0.69545561413E+02 -0.10772302090E+03  0.22923651884E+03  0.00000000000E+00 0.  1.
<mgrwt>
<rscale>  0 0.18264592E+04</rscale>
<asrwt>0</asrwt>
<pdfrwt beam="1">  1        2 0.45791267E-01 0.18264592E+04</pdfrwt>
<pdfrwt beam="2">  1       -2 0.43107278E+00 0.18264592E+04</pdfrwt>
<totfact> 0.48529835E-01</totfact>
</mgrwt>
</event>
<event>
12    1  0.4247462E-008  0.3236942E+04  0.7818608E-02  0.8179128E-01
         -1   -1    0    0    0  501 -0.00000000000E+00  0.00000000000E+00  0.12119886430E+04  0.12119886430E+04  0.00000000000E+00 0.  1.
          1   -1    0    0  501    0  0.00000000000E+00 -0.00000000000E+00 -0.21612813938E+04  0.21612813938E+04  0.00000000000E+00 0. -1.
         23    2    1    2    0    0 -0.27939365396E+03  0.87030818593E+03  0.79369849823E+03  0.12140540461E+04  0.92047641504E+02 0.  0.
        254    2    1    2    0    0  0.27939365396E+03 -0.87030818593E+03 -0.17429912491E+04  0.21592159908E+04  0.88808673453E+03 0.  0.
         23    2    4    4    0    0 -0.28494164293E+03 -0.28892782493E+03 -0.87195116415E+03  0.96604518192E+03  0.90958413304E+02 0.  0.
         23    2    4    4    0    0  0.56433529689E+03 -0.58138036100E+03 -0.87104008491E+03  0.11931708088E+04  0.92023356089E+02 0.  0.
         11    1    3    3    0    0 -0.27543811564E+03  0.87191038296E+03  0.79064309323E+03  0.12088053492E+04  0.00000000000E+00 0.  1.
        -11    1    3    3    0    0 -0.39555383240E+01 -0.16021970285E+01  0.30554049934E+01  0.52486968311E+01  0.00000000000E+00 0. -1.
          4    1    5    5  502    0 -0.83599320051E+02 -0.73670816898E+02 -0.34133775111E+03  0.35906503020E+03  0.00000000000E+00 0. -1.
          3    1    6    6  503    0  0.10241847471E+03 -0.62572534388E+02 -0.11041550675E+03  0.16308418119E+03  0.00000000000E+00 0. -1.
         -4    1    5    5    0  502 -0.20134232288E+03 -0.21525700804E+03 -0.53061341304E+03  0.60698015172E+03  0.00000000000E+00 0.  1.
         -3    1    6    6    0  503  0.46191682218E+03 -0.51880782661E+03 -0.76062457815E+03  0.10300866276E+04  0.00000000000E+00 0.  1.
<mgrwt>
<rscale>  0 0.32369421E+04</rscale>
<asrwt>0</asrwt>
<pdfrwt beam="1">  1        1 0.33250483E+00 0.32369421E+04</pdfrwt>
<pdfrwt beam="2">  1       -1 0.18645979E+00 0.32369421E+04</pdfrwt>
<totfact> 0.36135346E-01</totfact>
</mgrwt>
</event>
<event>
12    1  0.4247462E-008  0.1502660E+04  0.7818608E-02  0.8882686E-01
          2   -1    0    0  501    0  0.00000000000E+00  0.00000000000E+00  0.26279147354E+04  0.26279147354E+04  0.00000000000E+00 0.  1.
         -2   -1    0    0    0  501 -0.00000000000E+00 -0.00000000000E+00 -0.21480792287E+03  0.21480792287E+03  0.00000000000E+00 0. -1.
         23    2    1    2    0    0 -0.31028446490E+03  0.30471677271E+03  0.11075140234E+04  0.11937696917E+04  0.96798780356E+02 0.  0.
        254    2    1    2    0    0  0.31028446490E+03 -0.30471677271E+03  0.13055927891E+04  0.16489529666E+04  0.90848477942E+03 0.  0.
         23    2    4    4    0    0  0.45244294956E+03  0.12797065190E+03  0.95029429002E+03  0.10643355858E+04  0.93112250532E+02 0.  0.
         23    2    4    4    0    0 -0.14215848466E+03 -0.43268742461E+03  0.35529849910E+03  0.58461738083E+03  0.90072283925E+02 0.  0.
         13    1    3    3    0    0 -0.11271609894E+02  0.14611768125E+02  0.12798761750E+02  0.22457988772E+02  0.00000000000E+00 0. -1.
        -13    1    3    3    0    0 -0.29901285501E+03  0.29010500458E+03  0.10947152617E+04  0.11713117029E+04  0.00000000000E+00 0.  1.
          2    1    5    5  502    0  0.45014094235E+02  0.79640644797E+01  0.43985782423E+02  0.63438506116E+02  0.00000000000E+00 0. -1.
          4    1    6    6  503    0 -0.74900359274E+02 -0.10311838290E+03  0.10929674110E+03  0.16789652268E+03  0.00000000000E+00 0. -1.
         -2    1    5    5    0  502  0.40742885533E+03  0.12000658742E+03  0.90630850759E+03  0.10008970797E+04  0.00000000000E+00 0.  1.
         -4    1    6    6    0  503 -0.67258125387E+02 -0.32956904171E+03  0.24600175800E+03  0.41672085816E+03  0.00000000000E+00 0.  1.
<mgrwt>
<rscale>  0 0.15026602E+04</rscale>
<asrwt>0</asrwt>
<pdfrwt beam="1">  1        2 0.40429455E+00 0.15026602E+04</pdfrwt>
<pdfrwt beam="2">  1       -2 0.33047375E-01 0.15026602E+04</pdfrwt>
<totfact> 0.24283003E+01</totfact>
</mgrwt>
</event>
<event>
12    1  0.4247462E-008  0.2393075E+04  0.7818608E-02  0.8442101E-01
          1   -1    0    0  501    0  0.00000000000E+00  0.00000000000E+00  0.22419824972E+04  0.22419824972E+04  0.00000000000E+00 0. -1.
         -1   -1    0    0    0  501 -0.00000000000E+00 -0.00000000000E+00 -0.63858766093E+03  0.63858766093E+03  0.00000000000E+00 0.  1.
         23    2    1    2    0    0 -0.30363561211E+03 -0.15508916420E+03  0.18561290322E+04  0.18894294868E+04  0.92095428370E+02 0.  0.
        254    2    1    2    0    0  0.30363561211E+03  0.15508916420E+03 -0.25273419584E+03  0.99114067133E+03  0.89567741002E+03 0.  0.
         23    2    4    4    0    0  0.29459844312E+03  0.34620118796E+03  0.19010005618E+03  0.50060165079E+03  0.88433456220E+02 0.  0.
         23    2    4    4    0    0  0.90371689927E+01 -0.19111202376E+03 -0.44283425202E+03  0.49053902054E+03  0.88999325049E+02 0.  0.
         11    1    3    3    0    0 -0.86943365307E+01 -0.30374797329E+02  0.12493971083E+03  0.12887261595E+03  0.00000000000E+00 0.  1.
        -11    1    3    3    0    0 -0.29494127558E+03 -0.12471436687E+03  0.17311893213E+04  0.17605568709E+04  0.00000000000E+00 0. -1.
          3    1    5    5  502    0  0.89372168638E+01  0.45700643943E+01  0.22757713612E+02  0.24873135361E+02  0.00000000000E+00 0. -1.
          3    1    6    6  503    0 -0.35018907830E+02 -0.57979694954E+02 -0.10744874864E+03  0.12701654426E+03  0.00000000000E+00 0. -1.
         -3    1    5    5    0  502  0.28566122626E+03  0.34163112357E+03  0.16734234256E+03  0.47572851543E+03  0.00000000000E+00 0.  1.
         -3    1    6    6    0  503  0.44056076823E+02 -0.13313232881E+03 -0.33538550338E+03  0.36352247628E+03  0.00000000000E+00 0.  1.
<mgrwt>
<rscale>  0 0.23930753E+04</rscale>
<asrwt>0</asrwt>
<pdfrwt beam="1">  1        1 0.34492038E+00 0.23930753E+04</pdfrwt>
<pdfrwt beam="2">  1       -1 0.98244257E-01 0.23930753E+04</pdfrwt>
<totfact> 0.18143381E+00</totfact>
</mgrwt>
</event>
<event>
12    1  0.4247462E-008  0.3115517E+04  0.7818608E-02  0.8211492E-01
          2   -1    0    0  501    0  0.00000000000E+00  0.00000000000E+00  0.17257557229E+04  0.17257557229E+04  0.00000000000E+00 0. -1.
         -2   -1    0    0    0  501 -0.00000000000E+00 -0.00000000000E+00 -0.14061148880E+04  0.14061148880E+04  0.00000000000E+00 0.  1.
         23    2    1    2    0    0  0.57531588321E+03 -0.77400149042E+03 -0.89899340014E+03  0.13213611912E+04  0.87974947619E+02 0.  0.
        254    2    1    2    0    0 -0.57531588321E+03  0.77400149042E+03  0.12186342350E+04  0.18105094197E+04  0.92887474253E+03 0.  0.
         23    2    4    4    0    0  0.19312040271E+02  0.55035759797E+03  0.17440286348E+03  0.58484540414E+03  0.91440403580E+02 0.  0.
         23    2    4    4    0    0 -0.59462792348E+03  0.22364389245E+03  0.10442313715E+04  0.12256640155E+04  0.90742292495E+02 0.  0.
         11    1    3    3    0    0  0.29498015189E+03 -0.46648098643E+03 -0.53035936289E+03  0.76544030108E+03  0.00000000000E+00 0. -1.
        -11    1    3    3    0    0  0.28033573132E+03 -0.30752050399E+03 -0.36863403725E+03  0.55592089010E+03  0.00000000000E+00 0.  1.
          4    1    5    5  502    0  0.47326100678E+02  0.15958107807E+03  0.53255568142E+02  0.17476279873E+03  0.00000000000E+00 0. -1.
          3    1    6    6  503    0 -0.30528700842E+03  0.11549332550E+03  0.44960494194E+03  0.55559289913E+03  0.00000000000E+00 0. -1.
         -4    1    5    5    0  502 -0.28014060407E+02  0.39077651990E+03  0.12114729534E+03  0.41008260541E+03  0.00000000000E+00 0.  1.
         -3    1    6    6    0  503 -0.28934091507E+03  0.10815056695E+03  0.59462642960E+03  0.67007111640E+03  0.00000000000E+00 0.  1.
<mgrwt>
<rscale>  0 0.31155165E+04</rscale>
<asrwt>0</asrwt>
<pdfrwt beam="1">  1        2 0.26550088E+00 0.31155165E+04</pdfrwt>
<pdfrwt beam="2">  1       -2 0.21632537E+00 0.31155165E+04</pdfrwt>
<totfact> 0.83922846E-01</totfact>
</mgrwt>
</event>
<event>
12    1  0.4247462E-008  0.1670112E+04  0.7818608E-02  0.8778596E-01
          1   -1    0    0  501    0  0.00000000000E+00  0.00000000000E+00  0.12613590593E+04  0.12613590593E+04  0.00000000000E+00 0. -1.
         -1   -1    0    0    0  501 -0.00000000000E+00 -0.00000000000E+00 -0.55283129196E+03  0.55283129196E+03  0.00000000000E+00 0.  1.
         23    2    1    2    0    0 -0.80338831587E+02 -0.13156896079E+03  0.87948560897E+03  0.89756983659E+03  0.91498392707E+02 0.  0.
        254    2    1    2    0    0  0.80338831587E+02  0.13156896079E+03 -0.17095784163E+03  0.91662051468E+03  0.88724397152E+03 0.  0.
         23    2    4    4    0    0  0.41500775672E+03  0.22942637308E+03  0.60273308252E+02  0.48640550966E+03  0.89941922036E+02 0.  0.
         23    2    4    4    0    0 -0.33466892513E+03 -0.97857412291E+02 -0.23123114988E+03  0.43021500501E+03  0.10018853865E+03 0.  0.
         13    1    3    3    0    0  0.16777691913E+02 -0.33061802047E+02  0.27316643056E+03  0.27567094965E+03  0.00000000000E+00 0. -1.
        -13    1    3    3    0    0 -0.97116523500E+02 -0.98507158744E+02  0.60631917841E+03  0.62189888694E+03  0.00000000000E+00 0.  1.
          1    1    5    5  502    0  0.26557982210E+03  0.14852082406E+03 -0.51234058866E+01  0.30433094876E+03  0.00000000000E+00 0. -1.
          3    1    6    6  503    0 -0.24785432351E+03 -0.10021329429E+03 -0.13139463878E+03  0.29789095511E+03  0.00000000000E+00 0. -1.
         -1    1    5    5    0  502  0.14942793462E+03  0.80905549023E+02  0.65396714139E+02  0.18207456090E+03  0.00000000000E+00 0.  1.
         -3    1    6    6    0  503 -0.86814601623E+02  0.23558820028E+01 -0.99836511103E+02  0.13232404991E+03  0.00000000000E+00 0.  1.
<mgrwt>
<rscale>  0 0.16701123E+04</rscale>
<asrwt>0</asrwt>
<pdfrwt beam="1">  1        1 0.19405524E+00 0.16701123E+04</pdfrwt>
<pdfrwt beam="2">  1       -1 0.85050968E-01 0.16701123E+04</pdfrwt>
<totfact> 0.12578975E+01</totfact>
</mgrwt>
</event>
<event>
12    1  0.4247462E-008  0.1017582E+04  0.7818608E-02  0.9289468E-01
         -2   -1    0    0    0  501 -0.00000000000E+00  0.00000000000E+00  0.36675307426E+03  0.36675307426E+03  0.00000000000E+00 0. -1.
          2   -1    0    0  501    0  0.00000000000E+00 -0.00000000000E+00 -0.70583849140E+03  0.70583849140E+03  0.00000000000E+00 0.  1.
         23    2    1    2    0    0 -0.32328374335E+02 -0.77234849312E+00 -0.97183046920E+02  0.13783738557E+03  0.92243590261E+02 0.  0.
        254    2    1    2    0    0  0.32328374335E+02  0.77234849312E+00 -0.24190237022E+03  0.93475418008E+03  0.90233192349E+03 0.  0.
         23    2    4    4    0    0 -0.10631402914E+03 -0.12825296614E+03  0.29937122965E+03  0.35419381687E+03  0.89881202994E+02 0.  0.
         23    2    4    4    0    0  0.13864240348E+03  0.12902531463E+03 -0.54127359987E+03  0.58056036321E+03  0.90575811092E+02 0.  0.
         13    1    3    3    0    0 -0.29558922645E+02 -0.11006635203E+02  0.76609378444E+01  0.32458679812E+02  0.00000000000E+00 0. -1.
        -13    1    3    3    0    0 -0.27694516896E+01  0.10234286710E+02 -0.10484398476E+03  0.10537870576E+03  0.00000000000E+00 0.  1.
          2    1    5    5  502    0  0.40262901885E+01  0.19849389842E+01 -0.40552145721E+01  0.60494430057E+01  0.00000000000E+00 0. -1.
          1    1    6    6  503    0 -0.31382074012E+01 -0.90935125969E+01 -0.11356810180E+02  0.14883462450E+02  0.00000000000E+00 0. -1.
         -2    1    5    5    0  502 -0.11034031933E+03 -0.13023790513E+03  0.30342644422E+03  0.34814437386E+03  0.00000000000E+00 0.  1.
         -1    1    6    6    0  503  0.14178061088E+03  0.13811882723E+03 -0.52991678969E+03  0.56567690076E+03  0.00000000000E+00 0.  1.
<mgrwt>
<rscale>  0 0.10175823E+04</rscale>
<asrwt>0</asrwt>
<pdfrwt beam="1">  1        2 0.10859054E+00 0.10175823E+04</pdfrwt>
<pdfrwt beam="2">  1       -2 0.56423550E-01 0.10175823E+04</pdfrwt>
<totfact> 0.11924497E+02</totfact>
</mgrwt>
</event>
<event>
12    1  0.4247462E-008  0.2110460E+04  0.7818608E-02  0.8556650E-01
          4   -1    0    0  501    0  0.00000000000E+00  0.00000000000E+00  0.77568922502E+03  0.77568922502E+03  0.00000000000E+00 0. -1.
         -4   -1    0    0    0  501 -0.00000000000E+00 -0.00000000000E+00 -0.14355107513E+04  0.14355107513E+04  0.00000000000E+00 0.  1.
         23    2    1    2    0    0  0.51160097148E+03  0.50314069919E+03 -0.77885726382E+03  0.10623465237E+04  0.84115288519E+02 0.  0.
        254    2    1    2    0    0 -0.51160097148E+03 -0.50314069919E+03  0.11903573758E+03  0.11488534526E+04  0.88927421619E+03 0.  0.
         23    2    4    4    0    0 -0.34844487315E+03  0.85797213763E+02 -0.23340102587E+03  0.43747762050E+03  0.90197771836E+02 0.  0.
         23    2    4    4    0    0 -0.16315609832E+03 -0.58893791295E+03  0.35243676344E+03  0.71137583212E+03  0.91521170049E+02 0.  0.
         11    1    3    3    0    0  0.17726675840E+03  0.16929744306E+03 -0.20924500370E+03  0.32228651761E+03  0.00000000000E+00 0. -1.
        -11    1    3    3    0    0  0.33433421307E+03  0.33384325613E+03 -0.56961226012E+03  0.74006000606E+03  0.00000000000E+00 0.  1.
          4    1    5    5  502    0 -0.75902514765E+02  0.14073449299E+02 -0.98180095437E+02  0.12489429476E+03  0.00000000000E+00 0. -1.
          3    1    6    6  503    0 -0.21175863717E+02 -0.61610210672E+02  0.73293218154E+02  0.98061873787E+02  0.00000000000E+00 0. -1.
         -4    1    5    5    0  502 -0.27254235839E+03  0.71723764464E+02 -0.13522093043E+03  0.31258332574E+03  0.00000000000E+00 0.  1.
         -3    1    6    6    0  503 -0.14198023461E+03 -0.52732770228E+03  0.27914354529E+03  0.61331395833E+03  0.00000000000E+00 0.  1.
<mgrwt>
<rscale>  0 0.21104599E+04</rscale>
<asrwt>0</asrwt>
<pdfrwt beam="1">  1        4 0.11933681E+00 0.21104599E+04</pdfrwt>
<pdfrwt beam="2">  1       -4 0.22084780E+00 0.21104599E+04</pdfrwt>
<totfact> 0.95213461E-02</totfact>
</mgrwt>
</event>
<event>
12    1  0.4247462E-008  0.2495788E+04  0.7818608E-02  0.8404488E-01
         -2   -1    0    0    0  501 -0.00000000000E+00  0.00000000000E+00  0.10812730112E+04  0.10812730112E+04  0.00000000000E+00 0.  1.
          2   -1    0    0  501    0  0.00000000000E+00 -0.00000000000E+00 -0.14401903384E+04  0.14401903384E+04  0.00000000000E+00 0. -1.
         23    2    1    2    0    0  0.36128404443E+03 -0.19164285970E+03 -0.11647110497E+04  0.12381158290E+04  0.95529211118E+02 0.  0.
        254    2    1    2    0    0 -0.36128404443E+03  0.19164285970E+03  0.80579372257E+03  0.12833475206E+04  0.91127613200E+03 0.  0.
         23    2    4    4    0    0 -0.45470744317E+03  0.48849840355E+03  0.51195434349E+03  0.84580312773E+03  0.88860181810E+02 0.  0.
         23    2    4    4    0    0  0.93423398737E+02 -0.29685554385E+03  0.29383937907E+03  0.43754439283E+03  0.90842554186E+02 0.  0.
         11    1    3    3    0    0  0.35856110153E+03 -0.16764729752E+03 -0.10994596800E+04  0.11685389458E+04  0.00000000000E+00 0. -1.
        -11    1    3    3    0    0  0.27229429040E+01 -0.23995562176E+02 -0.65251369730E+02  0.69576883186E+02  0.00000000000E+00 0.  1.
          1    1    5    5  502    0 -0.90533027531E+01  0.35817046932E+02  0.17874479010E+02  0.41040469558E+02  0.00000000000E+00 0. -1.
          3    1    6    6  503    0  0.12151862673E+02  0.15047245103E+01  0.24803307298E+02  0.27661092082E+02  0.00000000000E+00 0. -1.
         -1    1    5    5    0  502 -0.44565414042E+03  0.45268135662E+03  0.49407986448E+03  0.80476265817E+03  0.00000000000E+00 0.  1.
         -3    1    6    6    0  503  0.81271536065E+02 -0.29836026836E+03  0.26903607178E+03  0.40988330074E+03  0.00000000000E+00 0.  1.
<mgrwt>
<rscale>  0 0.24957876E+04</rscale>
<asrwt>0</asrwt>
<pdfrwt beam="1">  1        2 0.22156774E+00 0.24957876E+04</pdfrwt>
<pdfrwt beam="2">  1       -2 0.16634969E+00 0.24957876E+04</pdfrwt>
<totfact> 0.27724498E+00</totfact>
</mgrwt>
</event>
<event>
12    1  0.4247462E-008  0.1559061E+04  0.7818608E-02  0.8846101E-01
         -1   -1    0    0    0  501 -0.00000000000E+00  0.00000000000E+00  0.31705992708E+03  0.31705992708E+03  0.00000000000E+00 0.  1.
          1   -1    0    0  501    0  0.00000000000E+00 -0.00000000000E+00 -0.19165708072E+04  0.19165708072E+04  0.00000000000E+00 0. -1.
         23    2    1    2    0    0 -0.29218577960E+03 -0.16324047021E+03 -0.11032368066E+04  0.11565515031E+04  0.91977969535E+02 0.  0.
        254    2    1    2    0    0  0.29218577960E+03  0.16324047021E+03 -0.49627407347E+03  0.10770792312E+04  0.89542824019E+03 0.  0.
         23    2    4    4    0    0 -0.11844754285E+03 -0.12688555683E+03  0.15319159551E+03  0.25057767060E+03  0.95873558033E+02 0.  0.
         23    2    4    4    0    0  0.41063332245E+03  0.29012602704E+03 -0.64946566898E+03  0.82650156058E+03  0.92229807485E+02 0.  0.
         11    1    3    3    0    0 -0.56564620865E+02 -0.40004867455E+02 -0.12607215041E+03  0.14385455454E+03  0.00000000000E+00 0.  1.
        -11    1    3    3    0    0 -0.23562115873E+03 -0.12323560276E+03 -0.97716465622E+03  0.10126969485E+04  0.00000000000E+00 0. -1.
          2    1    5    5  502    0 -0.45123758006E+02 -0.10979447944E+03  0.67676872776E+02  0.13664238127E+03  0.00000000000E+00 0. -1.
          4    1    6    6  503    0  0.13255175719E+03  0.52302886369E+02 -0.14494684628E+03  0.20326128137E+03  0.00000000000E+00 0.  1.
         -2    1    5    5    0  502 -0.73323784843E+02 -0.17091077395E+02  0.85514722730E+02  0.11393528933E+03  0.00000000000E+00 0.  1.
         -4    1    6    6    0  503  0.27808156525E+03  0.23782314067E+03 -0.50451882269E+03  0.62324027921E+03  0.00000000000E+00 0. -1.
<mgrwt>
<rscale>  0 0.15590610E+04</rscale>
<asrwt>0</asrwt>
<pdfrwt beam="1">  1        1 0.29485705E+00 0.15590610E+04</pdfrwt>
<pdfrwt beam="2">  1       -1 0.48778449E-01 0.15590610E+04</pdfrwt>
<totfact> 0.13756092E+01</totfact>
</mgrwt>
</event>
<event>
12    1  0.4247462E-008  0.1370396E+04  0.7818608E-02  0.8975531E-01
          2   -1    0    0  501    0  0.00000000000E+00  0.00000000000E+00  0.14473424170E+04  0.14473424170E+04  0.00000000000E+00 0. -1.
         -2   -1    0    0    0  501 -0.00000000000E+00 -0.00000000000E+00 -0.32438507380E+03  0.32438507380E+03  0.00000000000E+00 0.  1.
         23    2    1    2    0    0 -0.34951614120E+03  0.13743827017E+03  0.24066225432E+03  0.45576343953E+03  0.93547747675E+02 0.  0.
        254    2    1    2    0    0  0.34951614120E+03 -0.13743827017E+03  0.88229508891E+03  0.13159640513E+04  0.90125798156E+03 0.  0.
         23    2    4    4    0    0 -0.74469020254E+02 -0.30842802764E+03  0.14867126035E+02  0.33096873089E+03  0.92982719785E+02 0.  0.
         23    2    4    4    0    0  0.42398516145E+03  0.17098975747E+03  0.86742796288E+03  0.98499532041E+03  0.93720841635E+02 0.  0.
         11    1    3    3    0    0 -0.34818808822E+03  0.14100439330E+03  0.22122262667E+03  0.43595485346E+03  0.00000000000E+00 0. -1.
        -11    1    3    3    0    0 -0.13280529835E+01 -0.35661231361E+01  0.19439627651E+02  0.19808586071E+02  0.00000000000E+00 0.  1.
          3    1    6    6  502    0  0.85940997213E+02  0.46241182262E+02  0.11564429869E+03  0.15131987892E+03  0.00000000000E+00 0. -1.
          3    1    5    5  503    0 -0.79935910290E+02 -0.28539392867E+03  0.36853795174E+02  0.29865975038E+03  0.00000000000E+00 0. -1.
         -3    1    5    5    0  503  0.54668900364E+01 -0.23034098968E+02 -0.21986669138E+02  0.32308980512E+02  0.00000000000E+00 0.  1.
         -3    1    6    6    0  502  0.33804416424E+03  0.12474857521E+03  0.75178366419E+03  0.83367544149E+03  0.00000000000E+00 0.  1.
<mgrwt>
<rscale>  0 0.13703960E+04</rscale>
<asrwt>0</asrwt>
<pdfrwt beam="1">  1        2 0.22266806E+00 0.13703960E+04</pdfrwt>
<pdfrwt beam="2">  1       -2 0.49905397E-01 0.13703960E+04</pdfrwt>
<totfact> 0.50370424E+01</totfact>
</mgrwt>
</event>
<event>
12    1  0.4247462E-008  0.1479154E+04  0.7818608E-02  0.8898435E-01
         -1   -1    0    0    0  501 -0.00000000000E+00  0.00000000000E+00  0.30603187201E+03  0.30603187201E+03  0.00000000000E+00 0.  1.
          1   -1    0    0  501    0  0.00000000000E+00 -0.00000000000E+00 -0.17873116532E+04  0.17873116532E+04  0.00000000000E+00 0. -1.
         23    2    1    2    0    0  0.31722466069E+03 -0.94248679682E+02 -0.89866433967E+03  0.96199323624E+03  0.91209057653E+02 0.  0.
        254    2    1    2    0    0 -0.31722466069E+03  0.94248679682E+02 -0.58261544151E+03  0.11313502890E+04  0.91159114996E+03 0.  0.
         23    2    4    4    0    0 -0.22061560182E+03 -0.52064153632E+02 -0.80052247807E+03  0.83702354038E+03  0.91598304605E+02 0.  0.
         23    2    4    4    0    0 -0.96609058868E+02  0.14631283331E+03  0.21790703656E+03  0.29432674858E+03  0.91673348907E+02 0.  0.
         11    1    3    3    0    0  0.19422410302E+03 -0.10043018473E+03 -0.61636634928E+03  0.65400053572E+03  0.00000000000E+00 0. -1.
        -11    1    3    3    0    0  0.12300055767E+03  0.61815050521E+01 -0.28229799039E+03  0.30799270051E+03  0.00000000000E+00 0.  1.
          2    1    5    5  502    0 -0.18751068544E+03 -0.66168853343E+02 -0.74321541902E+03  0.76935540121E+03  0.00000000000E+00 0. -1.
          1    1    6    6  503    0 -0.48016613657E+02  0.97509064526E+02  0.19222211519E+03  0.22082335570E+03  0.00000000000E+00 0. -1.
         -2    1    5    5    0  502 -0.33104916373E+02  0.14104699711E+02 -0.57307059050E+02  0.67668139172E+02  0.00000000000E+00 0.  1.
         -1    1    6    6    0  503 -0.48592445211E+02  0.48803768788E+02  0.25684921362E+02  0.73503392880E+02  0.00000000000E+00 0.  1.
<mgrwt>
<rscale>  0 0.14791543E+04</rscale>
<asrwt>0</asrwt>
<pdfrwt beam="1">  1        1 0.27497103E+00 0.14791543E+04</pdfrwt>
<pdfrwt beam="2">  1       -1 0.47081826E-01 0.14791543E+04</pdfrwt>
<totfact> 0.18119322E+01</totfact>
</mgrwt>
</event>
<event>
12    1  0.4247462E-008  0.2007060E+04  0.7818608E-02  0.8603327E-01
          3   -1    0    0  501    0  0.00000000000E+00  0.00000000000E+00  0.47483504302E+03  0.47483504302E+03  0.00000000000E+00 0. -1.
         -3   -1    0    0    0  501 -0.00000000000E+00 -0.00000000000E+00 -0.21208881010E+04  0.21208881010E+04  0.00000000000E+00 0.  1.
         23    2    1    2    0    0 -0.48501483959E+03  0.31272293774E+03 -0.13712502716E+04  0.14907189314E+04  0.94236906319E+02 0.  0.
        254    2    1    2    0    0  0.48501483959E+03 -0.31272293774E+03 -0.27480278632E+03  0.11050042126E+04  0.90137822701E+03 0.  0.
         23    2    4    4    0    0  0.44321833268E+02  0.29035440478E+03 -0.97579286311E+01  0.30702664512E+03  0.88882159983E+02 0.  0.
         23    2    4    4    0    0  0.44069300632E+03 -0.60307734252E+03 -0.26504485769E+03  0.79797756750E+03  0.92772920355E+02 0.  0.
         11    1    3    3    0    0 -0.40051169355E+03  0.27816391136E+03 -0.10686869438E+04  0.11746814726E+04  0.00000000000E+00 0.  1.
        -11    1    3    3    0    0 -0.84503146043E+02  0.34559026378E+02 -0.30256332782E+03  0.31603745876E+03  0.00000000000E+00 0. -1.
          4    1    5    5  502    0 -0.21184258711E+02  0.91491081972E+02 -0.24743466643E+02  0.97116579630E+02  0.00000000000E+00 0. -1.
          1    1    6    6  503    0  0.12271767950E+02 -0.77953453796E+01 -0.19955212544E+02  0.24689556616E+02  0.00000000000E+00 0. -1.
         -4    1    5    5    0  502  0.65506091979E+02  0.19886332281E+03  0.14985538012E+02  0.20991006549E+03  0.00000000000E+00 0.  1.
         -1    1    6    6    0  503  0.42842123837E+03 -0.59528199714E+03 -0.24508964515E+03  0.77328801088E+03  0.00000000000E+00 0.  1.
<mgrwt>
<rscale>  0 0.20070595E+04</rscale>
<asrwt>0</asrwt>
<pdfrwt beam="1">  1        3 0.73051546E-01 0.20070595E+04</pdfrwt>
<pdfrwt beam="2">  1       -3 0.32629047E+00 0.20070595E+04</pdfrwt>
<totfact> 0.11715589E-01</totfact>
</mgrwt>
</event>
<event>
12    1  0.4247462E-008  0.1314432E+04  0.7818608E-02  0.9018198E-01
          2   -1    0    0  501    0  0.00000000000E+00  0.00000000000E+00  0.91170815389E+03  0.91170815389E+03  0.00000000000E+00 0. -1.
         -2   -1    0    0    0  501 -0.00000000000E+00 -0.00000000000E+00 -0.47376202080E+03  0.47376202080E+03  0.00000000000E+00 0.  1.
         23    2    1    2    0    0 -0.72192793292E+02 -0.49102715242E+02  0.46851495895E+03  0.48528453820E+03  0.91498307124E+02 0.  0.
        254    2    1    2    0    0  0.72192793292E+02  0.49102715242E+02 -0.30568825860E+02  0.90018563650E+03  0.89541992997E+03 0.  0.
         23    2    4    4    0    0  0.11097682869E+03 -0.32005846155E+03 -0.27511955723E+03  0.44630020804E+03  0.93487055858E+02 0.  0.
         23    2    4    4    0    0 -0.38784035396E+02  0.36916117679E+03  0.24455073137E+03  0.45388542845E+03  0.91775520146E+02 0.  0.
         11    1    3    3    0    0 -0.15095272889E+02  0.22253398310E+02  0.19642524473E+03  0.19825730192E+03  0.00000000000E+00 0. -1.
        -11    1    3    3    0    0 -0.57097520403E+02 -0.71356113552E+02  0.27208971422E+03  0.28702723627E+03  0.00000000000E+00 0.  1.
          1    1    6    6  502    0  0.21819250970E+02  0.33324985071E+02  0.37608503949E+02  0.54781693221E+02  0.00000000000E+00 0. -1.
          1    1    5    5  503    0 -0.15613152282E+02 -0.37265773341E+02 -0.44168301991E+02  0.59861066543E+02  0.00000000000E+00 0. -1.
         -1    1    5    5    0  503  0.12658998097E+03 -0.28279268821E+03 -0.23095125524E+03  0.38643914150E+03  0.00000000000E+00 0.  1.
         -1    1    6    6    0  502 -0.60603286366E+02  0.33583619172E+03  0.20694222742E+03  0.39910373523E+03  0.00000000000E+00 0.  1.
<mgrwt>
<rscale>  0 0.13144317E+04</rscale>
<asrwt>0</asrwt>
<pdfrwt beam="1">  1        2 0.14026279E+00 0.13144317E+04</pdfrwt>
<pdfrwt beam="2">  1       -2 0.72886465E-01 0.13144317E+04</pdfrwt>
<totfact> 0.47975027E+01</totfact>
</mgrwt>
</event>
<event>
12    1  0.4247462E-008  0.1112408E+04  0.7818608E-02  0.9193182E-01
         -2   -1    0    0    0  501 -0.00000000000E+00  0.00000000000E+00  0.35487928894E+03  0.35487928894E+03  0.00000000000E+00 0.  1.
          2   -1    0    0  501    0  0.00000000000E+00 -0.00000000000E+00 -0.87174142180E+03  0.87174142180E+03  0.00000000000E+00 0. -1.
         23    2    1    2    0    0  0.66471481637E+02 -0.55993015647E+02  0.79813531771E+02  0.14998830943E+03  0.92588430376E+02 0.  0.
        254    2    1    2    0    0 -0.66471481637E+02  0.55993015647E+02 -0.59667566463E+03  0.10766324013E+04  0.89194271291E+03 0.  0.
         23    2    4    4    0    0 -0.36114589472E+03 -0.93118299714E+02 -0.62452131763E+03  0.73304724429E+03  0.90741452379E+02 0.  0.
         23    2    4    4    0    0  0.29467441308E+03  0.14911131536E+03  0.27845652997E+02  0.34358515702E+03  0.90599037736E+02 0.  0.
         13    1    3    3    0    0  0.55195847401E+00  0.14964866936E+01 -0.18402188323E+02  0.18471184739E+02  0.00000000000E+00 0. -1.
        -13    1    3    3    0    0  0.65919523163E+02 -0.57489502341E+02  0.98215720094E+02  0.13151712469E+03  0.00000000000E+00 0.  1.
          2    1    5    5  502    0 -0.25076430104E+03 -0.30382190543E+02 -0.46487606310E+03  0.52907047378E+03  0.00000000000E+00 0. -1.
          3    1    6    6  503    0  0.24312927372E+03  0.14787777089E+03  0.47306991498E+02  0.28847466147E+03  0.00000000000E+00 0. -1.
         -2    1    5    5    0  502 -0.11038159368E+03 -0.62736109171E+02 -0.15964525452E+03  0.20397677051E+03  0.00000000000E+00 0.  1.
         -3    1    6    6    0  503  0.51545139358E+02  0.12335444699E+01 -0.19461338501E+02  0.55110495549E+02  0.00000000000E+00 0.  1.
<mgrwt>
<rscale>  0 0.11124082E+04</rscale>
<asrwt>0</asrwt>
<pdfrwt beam="1">  1        2 0.13411406E+00 0.11124082E+04</pdfrwt>
<pdfrwt beam="2">  1       -2 0.54596814E-01 0.11124082E+04</pdfrwt>
<totfact> 0.96024025E+01</totfact>
</mgrwt>
</event>
<event>
12    1  0.4247462E-008  0.1186174E+04  0.7818608E-02  0.9125045E-01
          1   -1    0    0  501    0  0.00000000000E+00  0.00000000000E+00  0.11514899860E+04  0.11514899860E+04  0.00000000000E+00 0. -1.
         -1   -1    0    0    0  501 -0.00000000000E+00 -0.00000000000E+00 -0.30547572989E+03  0.30547572989E+03  0.00000000000E+00 0.  1.
         23    2    1    2    0    0 -0.15168737516E+03  0.13397051014E+03  0.36814592196E+02  0.22532356072E+03  0.91968665571E+02 0.  0.
        254    2    1    2    0    0  0.15168737516E+03 -0.13397051014E+03  0.80919966388E+03  0.12316421551E+04  0.90619045730E+03 0.  0.
         23    2    4    4    0    0 -0.20997847724E+03 -0.33772881023E+03  0.66983821960E+03  0.78410250834E+03  0.89340880836E+02 0.  0.
         23    2    4    4    0    0  0.36166585240E+03  0.20375830009E+03  0.13936144428E+03  0.44753964679E+03  0.92468857737E+02 0.  0.
         13    1    3    3    0    0 -0.51918174089E+02  0.70744866184E+02 -0.26028389845E+02  0.91530377307E+02  0.00000000000E+00 0.  1.
        -13    1    3    3    0    0 -0.99769201070E+02  0.63225643961E+02  0.62842982042E+02  0.13379318342E+03  0.00000000000E+00 0. -1.
          2    1    5    5  502    0 -0.86146967903E+02 -0.84189133959E+02  0.14759861098E+03  0.19051105039E+03  0.00000000000E+00 0. -1.
          3    1    6    6  503    0  0.11708646628E+03  0.48865987945E+02  0.85702671964E+02  0.15310804468E+03  0.00000000000E+00 0. -1.
         -2    1    5    5    0  502 -0.12383150934E+03 -0.25353967627E+03  0.52223960862E+03  0.59359145796E+03  0.00000000000E+00 0.  1.
         -3    1    6    6    0  503  0.24457938612E+03  0.15489231214E+03  0.53658772317E+02  0.29443160211E+03  0.00000000000E+00 0.  1.
<mgrwt>
<rscale>  0 0.11861741E+04</rscale>
<asrwt>0</asrwt>
<pdfrwt beam="1">  1        1 0.17715230E+00 0.11861741E+04</pdfrwt>
<pdfrwt beam="2">  1       -1 0.46996267E-01 0.11861741E+04</pdfrwt>
<totfact> 0.51868435E+01</totfact>
</mgrwt>
</event>
<event>
12    1  0.4247462E-008  0.2451677E+04  0.7818608E-02  0.8420406E-01
          1   -1    0    0  501    0  0.00000000000E+00  0.00000000000E+00  0.16257004453E+04  0.16257004453E+04  0.00000000000E+00 0. -1.
         -1   -1    0    0    0  501 -0.00000000000E+00 -0.00000000000E+00 -0.92432797493E+03  0.92432797493E+03  0.00000000000E+00 0.  1.
         23    2    1    2    0    0  0.43846809512E+03 -0.81556675908E+03 -0.23332613743E+03  0.95929365677E+03  0.91650556768E+02 0.  0.
        254    2    1    2    0    0 -0.43846809512E+03  0.81556675908E+03  0.93469860782E+03  0.15907347635E+04  0.89407616640E+03 0.  0.
         23    2    4    4    0    0 -0.64704177326E+03  0.57057842433E+03  0.39187085073E+03  0.95190197637E+03  0.91278772537E+02 0.  0.
         23    2    4    4    0    0  0.20857367813E+03  0.24498833475E+03  0.54282775709E+03  0.63883278711E+03  0.99614721010E+02 0.  0.
         11    1    3    3    0    0  0.88878753394E+02 -0.10708633601E+03 -0.17167782311E+02  0.14022000184E+03  0.00000000000E+00 0. -1.
        -11    1    3    3    0    0  0.34958934173E+03 -0.70848042307E+03 -0.21615835512E+03  0.81907365493E+03  0.00000000000E+00 0.  1.
          3    1    6    6  502    0  0.13421582274E+03  0.13642788272E+03  0.22839739106E+03  0.29797956726E+03  0.00000000000E+00 0. -1.
          3    1    5    5  503    0 -0.46941372869E+03  0.42780550358E+03  0.33015117320E+03  0.71579787282E+03  0.00000000000E+00 0. -1.
         -3    1    5    5    0  503 -0.17762804457E+03  0.14277292075E+03  0.61719677526E+02  0.23610410354E+03  0.00000000000E+00 0.  1.
         -3    1    6    6    0  502  0.74357855396E+02  0.10856045203E+03  0.31443036602E+03  0.34085321985E+03  0.00000000000E+00 0.  1.
<mgrwt>
<rscale>  0 0.24516773E+04</rscale>
<asrwt>0</asrwt>
<pdfrwt beam="1">  1        1 0.25010776E+00 0.24516773E+04</pdfrwt>
<pdfrwt beam="2">  1       -1 0.14220430E+00 0.24516773E+04</pdfrwt>
<totfact> 0.19229611E+00</totfact>
</mgrwt>
</event>
<event>
12    1  0.4247462E-008  0.1452961E+04  0.7818608E-02  0.8916350E-01
          2   -1    0    0  501    0  0.00000000000E+00  0.00000000000E+00  0.71930183654E+03  0.71930183654E+03  0.00000000000E+00 0. -1.
         -2   -1    0    0    0  501 -0.00000000000E+00 -0.00000000000E+00 -0.73373104230E+03  0.73373104230E+03  0.00000000000E+00 0.  1.
         23    2    1    2    0    0  0.20556676473E+03  0.10001655491E+03  0.36166977654E+03  0.43572376288E+03  0.82396385009E+02 0.  0.
        254    2    1    2    0    0 -0.20556676473E+03 -0.10001655491E+03 -0.37609898230E+03  0.10173091160E+04  0.91717304087E+03 0.  0.
         23    2    4    4    0    0 -0.47829059218E+03  0.10322041278E+03 -0.43422527476E+03  0.66003013016E+03  0.87589036442E+02 0.  0.
         23    2    4    4    0    0  0.27272382744E+03 -0.20323696769E+03  0.58126292456E+02  0.35727898579E+03  0.92660977355E+02 0.  0.
         11    1    3    3    0    0  0.37622668913E+01  0.25783102163E+02  0.58513020132E+02  0.64052295309E+02  0.00000000000E+00 0. -1.
        -11    1    3    3    0    0  0.20180449784E+03  0.74233452745E+02  0.30315675641E+03  0.37167146758E+03  0.00000000000E+00 0.  1.
          2    1    5    5  502    0 -0.45793061489E+03  0.92167992475E+02 -0.43283592388E+03  0.63682205041E+03  0.00000000000E+00 0. -1.
          4    1    6    6  503    0  0.21943520020E+03 -0.11528863478E+03  0.24488218156E+02  0.24908422115E+03  0.00000000000E+00 0. -1.
         -2    1    5    5    0  502 -0.20359977290E+02  0.11052420306E+02 -0.13893508748E+01  0.23208079751E+02  0.00000000000E+00 0.  1.
         -4    1    6    6    0  503  0.53288627248E+02 -0.87948332904E+02  0.33638074301E+02  0.10819476465E+03  0.00000000000E+00 0.  1.
<mgrwt>
<rscale>  0 0.14529612E+04</rscale>
<asrwt>0</asrwt>
<pdfrwt beam="1">  1        2 0.11066182E+00 0.14529612E+04</pdfrwt>
<pdfrwt beam="2">  1       -2 0.11288170E+00 0.14529612E+04</pdfrwt>
<totfact> 0.23676543E+01</totfact>
</mgrwt>
</event>
<event>
12    1  0.4247462E-008  0.2116308E+04  0.7818608E-02  0.8554094E-01
         -2   -1    0    0    0  501 -0.00000000000E+00  0.00000000000E+00  0.82374689541E+03  0.82374689541E+03  0.00000000000E+00 0.  1.
          2   -1    0    0  501    0  0.00000000000E+00 -0.00000000000E+00 -0.13592640933E+04  0.13592640933E+04  0.00000000000E+00 0. -1.
         23    2    1    2    0    0  0.41721176743E+03  0.38447998470E+03  0.45021576260E+03  0.73011844775E+03  0.92131413410E+02 0.  0.
        254    2    1    2    0    0 -0.41721176743E+03 -0.38447998470E+03 -0.98573296053E+03  0.14528925410E+04  0.90406678330E+03 0.  0.
         23    2    4    4    0    0 -0.62154630987E+03 -0.47506960807E+03 -0.56856600318E+03  0.97128623075E+03  0.90103797110E+02 0.  0.
         23    2    4    4    0    0  0.20433454244E+03  0.90589623369E+02 -0.41716695736E+03  0.48160631024E+03  0.89203602236E+02 0.  0.
         11    1    3    3    0    0  0.10178592673E+03  0.14655037108E+03  0.16277391669E+03  0.24152170523E+03  0.00000000000E+00 0. -1.
        -11    1    3    3    0    0  0.31542584070E+03  0.23792961362E+03  0.28744184591E+03  0.48859674252E+03  0.00000000000E+00 0.  1.
          3    1    5    5  502    0 -0.55850382775E+03 -0.38974739257E+03 -0.48190760301E+03  0.83430479649E+03  0.00000000000E+00 0. -1.
          3    1    6    6  503    0  0.20438072381E+03  0.72725654100E+02 -0.34724264559E+03  0.40943614392E+03  0.00000000000E+00 0. -1.
         -3    1    5    5    0  502 -0.63042482126E+02 -0.85322215506E+02 -0.86658400170E+02  0.13698143426E+03  0.00000000000E+00 0.  1.
         -3    1    6    6    0  503 -0.46181364380E-01  0.17863969269E+02 -0.69924311765E+02  0.72170166319E+02  0.00000000000E+00 0.  1.
<mgrwt>
<rscale>  0 0.21163077E+04</rscale>
<asrwt>0</asrwt>
<pdfrwt beam="1">  1        2 0.20911755E+00 0.21163077E+04</pdfrwt>
<pdfrwt beam="2">  1       -2 0.12673029E+00 0.21163077E+04</pdfrwt>
<totfact> 0.65115026E+00</totfact>
</mgrwt>
</event>
<event>
12    1  0.4247462E-008  0.2295219E+04  0.7818608E-02  0.8479808E-01
          1   -1    0    0  501    0  0.00000000000E+00  0.00000000000E+00  0.10942197772E+04  0.10942197772E+04  0.00000000000E+00 0. -1.
         -1   -1    0    0    0  501 -0.00000000000E+00 -0.00000000000E+00 -0.12036047078E+04  0.12036047078E+04  0.00000000000E+00 0.  1.
         23    2    1    2    0    0  0.59109610176E+03 -0.73484992271E+03  0.21561953492E+03  0.97350155195E+03  0.10869442209E+03 0.  0.
        254    2    1    2    0    0 -0.59109610176E+03  0.73484992271E+03 -0.32500446553E+03  0.13243229330E+04  0.87109374807E+03 0.  0.
         23    2    4    4    0    0 -0.28568491243E+03 -0.33554523898E+02  0.17982187705E+03  0.35104163473E+03  0.90291453555E+02 0.  0.
         23    2    4    4    0    0 -0.30541118932E+03  0.76840444661E+03 -0.50482634258E+03  0.97328129831E+03  0.93303061781E+02 0.  0.
         11    1    3    3    0    0  0.17530392115E+03 -0.21834369287E+03  0.13601410810E+02  0.28033984976E+03  0.00000000000E+00 0. -1.
        -11    1    3    3    0    0  0.41579218061E+03 -0.51650622984E+03  0.20201812411E+03  0.69316170219E+03  0.00000000000E+00 0.  1.
          3    1    6    6  502    0 -0.17904245271E+03  0.32530258734E+03 -0.22094607586E+03  0.43208233201E+03  0.00000000000E+00 0. -1.
          3    1    5    5  503    0 -0.13281238650E+02  0.19860373602E+02  0.13787469235E+02  0.27584779275E+02  0.00000000000E+00 0. -1.
         -3    1    5    5    0  503 -0.27240367378E+03 -0.53414897501E+02  0.16603440781E+03  0.32345685546E+03  0.00000000000E+00 0.  1.
         -3    1    6    6    0  502 -0.12636873662E+03  0.44310185928E+03 -0.28388026672E+03  0.54119896630E+03  0.00000000000E+00 0.  1.
<mgrwt>
<rscale>  0 0.22952194E+04</rscale>
<asrwt>0</asrwt>
<pdfrwt beam="1">  1        1 0.16834150E+00 0.22952194E+04</pdfrwt>
<pdfrwt beam="2">  1       -1 0.18516996E+00 0.22952194E+04</pdfrwt>
<totfact> 0.22135739E+00</totfact>
</mgrwt>
</event>
<event>
12    1  0.4247462E-008  0.1399180E+04  0.7818608E-02  0.8954412E-01
         -1   -1    0    0    0  501 -0.00000000000E+00  0.00000000000E+00  0.89004376958E+03  0.89004376958E+03  0.00000000000E+00 0.  1.
          1   -1    0    0  501    0  0.00000000000E+00 -0.00000000000E+00 -0.54988994779E+03  0.54988994779E+03  0.00000000000E+00 0. -1.
         23    2    1    2    0    0  0.57238954282E+02  0.16976667408E+02 -0.31258520457E+03  0.33144462699E+03  0.92636523688E+02 0.  0.
        254    2    1    2    0    0 -0.57238954282E+02 -0.16976667408E+02  0.65273902637E+03  0.11084890904E+04  0.89393250406E+03 0.  0.
         23    2    4    4    0    0  0.24876588013E+03  0.31530662311E+03  0.17763543309E+03  0.44665786149E+03  0.81524035990E+02 0.  0.
         23    2    4    4    0    0 -0.30600483441E+03 -0.33228329052E+03  0.47510359327E+03  0.66183122888E+03  0.90807529090E+02 0.  0.
         11    1    3    3    0    0  0.55474958788E+02 -0.26181997648E+02 -0.23246571808E+03  0.24042312313E+03  0.00000000000E+00 0. -1.
        -11    1    3    3    0    0  0.17639954947E+01  0.43158665056E+02 -0.80119486492E+02  0.91021503861E+02  0.00000000000E+00 0.  1.
          1    1    5    5  502    0  0.22192996889E+03  0.23287715351E+03  0.12425920631E+03  0.34485508560E+03  0.00000000000E+00 0. -1.
          1    1    6    6  503    0 -0.23661548615E+03 -0.25745119631E+03  0.41770832374E+03  0.54474604220E+03  0.00000000000E+00 0. -1.
         -1    1    5    5    0  502  0.26835911244E+02  0.82429469609E+02  0.53376226785E+02  0.10180277589E+03  0.00000000000E+00 0.  1.
         -1    1    6    6    0  503 -0.69389348261E+02 -0.74832094215E+02  0.57395269533E+02  0.11708518669E+03  0.00000000000E+00 0.  1.
<mgrwt>
<rscale>  0 0.13991799E+04</rscale>
<asrwt>0</asrwt>
<pdfrwt beam="1">  1        1 0.84598454E-01 0.13991799E+04</pdfrwt>
<pdfrwt beam="2">  1       -1 0.13692981E+00 0.13991799E+04</pdfrwt>
<totfact> 0.16806629E+01</totfact>
</mgrwt>
</event>
<event>
12    1  0.4247462E-008  0.1821998E+04  0.7818608E-02  0.8694688E-01
         -2   -1    0    0    0  501 -0.00000000000E+00  0.00000000000E+00  0.37362174833E+03  0.37362174833E+03  0.00000000000E+00 0.  1.
          2   -1    0    0  501    0  0.00000000000E+00 -0.00000000000E+00 -0.22212816132E+04  0.22212816132E+04  0.00000000000E+00 0. -1.
         23    2    1    2    0    0 -0.12145549166E+03 -0.40395023442E+03  0.67139225755E+02  0.43686438066E+03  0.91736487357E+02 0.  0.
        254    2    1    2    0    0  0.12145549166E+03  0.40395023442E+03 -0.19147990906E+04  0.21580389809E+04  0.90152618220E+03 0.  0.
         23    2    4    4    0    0 -0.35338998202E+03  0.28829277383E+03 -0.11992077447E+04  0.12864307184E+04  0.93848683955E+02 0.  0.
         23    2    4    4    0    0  0.47484547369E+03  0.11565746059E+03 -0.71559134590E+03  0.87160826245E+03  0.93675593228E+02 0.  0.
         11    1    3    3    0    0 -0.11255532481E+03 -0.28201301088E+03  0.15191486663E+02  0.30402437519E+03  0.00000000000E+00 0.  1.
        -11    1    3    3    0    0 -0.89001668577E+01 -0.12193722354E+03  0.51947739091E+02  0.13284000546E+03  0.00000000000E+00 0. -1.
          2    1    5    5  502    0 -0.35833707831E+03  0.28895926438E+03 -0.11904242051E+04  0.12763278209E+04  0.00000000000E+00 0. -1.
          2    1    6    6  503    0  0.28061184147E+03  0.30842206939E+02 -0.45822702125E+03  0.53820651269E+03  0.00000000000E+00 0. -1.
         -2    1    5    5    0  502  0.49470962867E+01 -0.66649055424E+00 -0.87835395793E+01  0.10102897548E+02  0.00000000000E+00 0.  1.
         -2    1    6    6    0  503  0.19423363222E+03  0.84815253650E+02 -0.25736432466E+03  0.33340174976E+03  0.00000000000E+00 0.  1.
<mgrwt>
<rscale>  0 0.18219979E+04</rscale>
<asrwt>0</asrwt>
<pdfrwt beam="1">  1        2 0.34173563E+00 0.18219979E+04</pdfrwt>
<pdfrwt beam="2">  1       -2 0.57480269E-01 0.18219979E+04</pdfrwt>
<totfact> 0.13425023E+01</totfact>
</mgrwt>
</event>
<event>
12    1  0.4247462E-008  0.1189470E+04  0.7818608E-02  0.9122123E-01
         -1   -1    0    0    0  501 -0.00000000000E+00  0.00000000000E+00  0.58603696281E+03  0.58603696281E+03  0.00000000000E+00 0.  1.
          1   -1    0    0  501    0  0.00000000000E+00 -0.00000000000E+00 -0.60356241821E+03  0.60356241821E+03  0.00000000000E+00 0. -1.
         23    2    1    2    0    0 -0.16398552718E+03 -0.27703237206E+02  0.16540913478E+03  0.25126575318E+03  0.90086482770E+02 0.  0.
        254    2    1    2    0    0  0.16398552718E+03  0.27703237206E+02 -0.18293459018E+03  0.93833362784E+03  0.90517744690E+03 0.  0.
         23    2    4    4    0    0  0.61701281244E+02  0.78298831623E+01  0.36110198983E+03  0.37684296042E+03  0.88020535018E+02 0.  0.
         23    2    4    4    0    0  0.10228424594E+03  0.19873354044E+02 -0.54403658001E+03  0.56149066742E+03  0.91863768913E+02 0.  0.
         13    1    3    3    0    0 -0.50902598460E+02 -0.37227919958E+02  0.10557194988E+03  0.12297328635E+03  0.00000000000E+00 0.  1.
        -13    1    3    3    0    0 -0.11308292872E+03  0.95246827518E+01  0.59837184900E+02  0.12829246683E+03  0.00000000000E+00 0. -1.
          4    1    5    5  502    0  0.28790698687E+02  0.14288976125E+02  0.29745650595E+02  0.43793639937E+02  0.00000000000E+00 0. -1.
          1    1    6    6  503    0  0.42856044783E+02  0.42177524770E+01 -0.61624543877E+02  0.75179880410E+02  0.00000000000E+00 0. -1.
         -4    1    5    5    0  502  0.32910582557E+02 -0.64590929626E+01  0.33135633923E+03  0.33304932049E+03  0.00000000000E+00 0.  1.
         -1    1    6    6    0  503  0.59428201155E+02  0.15655601567E+02 -0.48241203613E+03  0.48631078701E+03  0.00000000000E+00 0.  1.
<mgrwt>
<rscale>  0 0.11894703E+04</rscale>
<asrwt>0</asrwt>
<pdfrwt beam="1">  1        1 0.92855757E-01 0.11894703E+04</pdfrwt>
<pdfrwt beam="2">  1       -1 0.90159533E-01 0.11894703E+04</pdfrwt>
<totfact> 0.40489455E+01</totfact>
</mgrwt>
</event>
<event>
12    1  0.4247462E-008  0.2062671E+04  0.7818608E-02  0.8577868E-01
         -2   -1    0    0    0  501 -0.00000000000E+00  0.00000000000E+00  0.10604478634E+04  0.10604478634E+04  0.00000000000E+00 0.  1.
          2   -1    0    0  501    0  0.00000000000E+00 -0.00000000000E+00 -0.10030219792E+04  0.10030219792E+04  0.00000000000E+00 0. -1.
         23    2    1    2    0    0  0.57071240045E+03 -0.60093187897E+03  0.97238423788E+02  0.83956048720E+03  0.92599856427E+02 0.  0.
        254    2    1    2    0    0 -0.57071240045E+03  0.60093187897E+03 -0.39812539603E+02  0.12239093555E+04  0.89974291045E+03 0.  0.
         23    2    4    4    0    0 -0.67871891184E+03  0.12808664199E+03 -0.16188653767E+03  0.71527677347E+03  0.91367731955E+02 0.  0.
         23    2    4    4    0    0  0.10800651139E+03  0.47284523698E+03  0.12207399807E+03  0.50863258200E+03  0.92504150308E+02 0.  0.
         11    1    3    3    0    0  0.47484194674E+03 -0.50299910437E+03  0.11550246891E+03  0.70130149986E+03  0.00000000000E+00 0. -1.
        -11    1    3    3    0    0  0.95870453713E+02 -0.97932774595E+02 -0.18264045118E+02  0.13825898734E+03  0.00000000000E+00 0.  1.
          2    1    5    5  502    0 -0.35497464509E+03  0.33318779377E+02 -0.50852439487E+02  0.36014318030E+03  0.00000000000E+00 0. -1.
          1    1    6    6  503    0  0.11278748555E+01  0.14281348320E+03  0.64451640363E+01  0.14296329328E+03  0.00000000000E+00 0. -1.
         -2    1    5    5    0  502 -0.32374426675E+03  0.94767862612E+02 -0.11103409819E+03  0.35513359317E+03  0.00000000000E+00 0.  1.
         -1    1    6    6    0  503  0.10687863653E+03  0.33003175378E+03  0.11562883403E+03  0.36566928872E+03  0.00000000000E+00 0.  1.
<mgrwt>
<rscale>  0 0.20626706E+04</rscale>
<asrwt>0</asrwt>
<pdfrwt beam="1">  1        2 0.15431107E+00 0.20626706E+04</pdfrwt>
<pdfrwt beam="2">  1       -2 0.16314583E+00 0.20626706E+04</pdfrwt>
<totfact> 0.55349172E+00</totfact>
</mgrwt>
</event>
<event>
12    1  0.4247462E-008  0.2604895E+04  0.7818608E-02  0.8366540E-01
          1   -1    0    0  501    0  0.00000000000E+00  0.00000000000E+00  0.29216565569E+04  0.29216565569E+04  0.00000000000E+00 0.  1.
         -1   -1    0    0    0  501 -0.00000000000E+00 -0.00000000000E+00 -0.58061896342E+03  0.58061896342E+03  0.00000000000E+00 0. -1.
         23    2    1    2    0    0 -0.88380153235E+03  0.70590954084E+03  0.13099726911E+04  0.17322282253E+04  0.71921794767E+02 0.  0.
        254    2    1    2    0    0  0.88380153235E+03 -0.70590954084E+03  0.10310649024E+04  0.17700472950E+04  0.88913394117E+03 0.  0.
         23    2    4    4    0    0 -0.14030398638E+03 -0.18719601706E+03  0.46994232100E+02  0.25521560144E+03  0.90548263204E+02 0.  0.
         23    2    4    4    0    0  0.10241055187E+04 -0.51871352378E+03  0.98407067027E+03  0.15148316936E+04  0.92000774973E+02 0.  0.
         11    1    3    3    0    0 -0.60913537404E+03  0.46516661016E+03  0.84186486812E+03  0.11384912539E+04  0.00000000000E+00 0. -1.
        -11    1    3    3    0    0 -0.27466615831E+03  0.24074293068E+03  0.46810782300E+03  0.59373697135E+03  0.00000000000E+00 0.  1.
          2    1    5    5  502    0 -0.14871861362E+03 -0.16595706188E+03  0.26297187292E+02  0.22438920314E+03  0.00000000000E+00 0. -1.
          4    1    6    6  503    0  0.79080587568E+03 -0.42384393067E+03  0.72517468583E+03  0.11536446314E+04  0.00000000000E+00 0. -1.
         -2    1    5    5    0  502  0.84146272344E+01 -0.21238955175E+02  0.20697044808E+02  0.30826398301E+02  0.00000000000E+00 0.  1.
         -4    1    6    6    0  503  0.23329964305E+03 -0.94869593114E+02  0.25889598444E+03  0.36118706220E+03  0.00000000000E+00 0.  1.
<mgrwt>
<rscale>  0 0.26048948E+04</rscale>
<asrwt>0</asrwt>
<pdfrwt beam="1">  1        1 0.44948561E+00 0.26048948E+04</pdfrwt>
<pdfrwt beam="2">  1       -1 0.89325996E-01 0.26048948E+04</pdfrwt>
<totfact> 0.73660505E-01</totfact>
</mgrwt>
</event>
<event>
12    1  0.4247462E-008  0.1881446E+04  0.7818608E-02  0.8664148E-01
         -1   -1    0    0    0  501 -0.00000000000E+00  0.00000000000E+00  0.33149867112E+03  0.33149867112E+03  0.00000000000E+00 0.  1.
          1   -1    0    0  501    0  0.00000000000E+00 -0.00000000000E+00 -0.26695717944E+04  0.26695717944E+04  0.00000000000E+00 0. -1.
         23    2    1    2    0    0 -0.36921683964E+02 -0.32322034809E+03 -0.19318004118E+04  0.19611136244E+04  0.90990178587E+02 0.  0.
        254    2    1    2    0    0  0.36921683964E+02  0.32322034809E+03 -0.40627271156E+03  0.10399568412E+04  0.90034332965E+03 0.  0.
         23    2    4    4    0    0  0.16698008183E+02  0.62975550873E+03 -0.25998267228E+03  0.68764063074E+03  0.91585058258E+02 0.  0.
         23    2    4    4    0    0  0.20223675781E+02 -0.30653516064E+03 -0.14629003928E+03  0.35231621047E+03  0.91395485641E+02 0.  0.
         13    1    3    3    0    0 -0.20094873169E+02 -0.76560002383E+02 -0.72084607477E+03  0.72517880651E+03  0.00000000000E+00 0.  1.
        -13    1    3    3    0    0 -0.16826810795E+02 -0.24666034571E+03 -0.12109543370E+04  0.12359348178E+04  0.00000000000E+00 0. -1.
          4    1    5    5  502    0  0.19214323017E+02  0.38933543079E+02 -0.33708849498E+02  0.54966330787E+02  0.00000000000E+00 0. -1.
          1    1    6    6  503    0  0.40660872917E+02 -0.91907345793E+02 -0.74418813259E+02  0.12505369472E+03  0.00000000000E+00 0. -1.
         -4    1    5    5    0  502 -0.25163148338E+01  0.59082196565E+03 -0.22627382278E+03  0.63267429995E+03  0.00000000000E+00 0.  1.
         -1    1    6    6    0  503 -0.20437197136E+02 -0.21462781485E+03 -0.71871226016E+02  0.22726251574E+03  0.00000000000E+00 0.  1.
<mgrwt>
<rscale>  0 0.18814457E+04</rscale>
<asrwt>0</asrwt>
<pdfrwt beam="1">  1        1 0.41070334E+00 0.18814457E+04</pdfrwt>
<pdfrwt beam="2">  1       -1 0.50999797E-01 0.18814457E+04</pdfrwt>
<totfact> 0.37392076E+00</totfact>
</mgrwt>
</event>
<event>
12    1  0.4247462E-008  0.1970420E+04  0.7818608E-02  0.8620576E-01
          2   -1    0    0  501    0  0.00000000000E+00  0.00000000000E+00  0.81420572452E+03  0.81420572452E+03  0.00000000000E+00 0.  1.
         -2   -1    0    0    0  501 -0.00000000000E+00 -0.00000000000E+00 -0.11921297881E+04  0.11921297881E+04  0.00000000000E+00 0. -1.
         23    2    1    2    0    0 -0.27641583162E+03 -0.66509573798E+03  0.10584423120E+03  0.73367789192E+03  0.91226066249E+02 0.  0.
        254    2    1    2    0    0  0.27641583162E+03  0.66509573798E+03 -0.48376829483E+03  0.12726576207E+04  0.93105725061E+03 0.  0.
         23    2    4    4    0    0  0.23249376437E+03  0.87987030521E+03 -0.48586418255E+03  0.10357799425E+04  0.92471514223E+02 0.  0.
         23    2    4    4    0    0  0.43922067248E+02 -0.21477456723E+03  0.20958877273E+01  0.23687767824E+03  0.89718331348E+02 0.  0.
         11    1    3    3    0    0 -0.14635504219E+03 -0.41079044369E+03  0.10275936212E+03  0.44802686695E+03  0.00000000000E+00 0.  1.
        -11    1    3    3    0    0 -0.13006078943E+03 -0.25430529429E+03  0.30848690795E+01  0.28565102497E+03  0.00000000000E+00 0. -1.
          4    1    5    5  502    0  0.12661829437E+02  0.11860506990E+03 -0.35913010741E+02  0.12456816958E+03  0.00000000000E+00 0. -1.
          1    1    6    6  503    0  0.35151261372E+02 -0.51374316595E+02 -0.31597688092E+02  0.69809350910E+02  0.00000000000E+00 0. -1.
         -4    1    5    5    0  502  0.21983193493E+03  0.76126523531E+03 -0.44995117181E+03  0.91121177293E+03  0.00000000000E+00 0.  1.
         -1    1    6    6    0  503  0.87708058762E+01 -0.16340025064E+03  0.33693575820E+02  0.16706832733E+03  0.00000000000E+00 0.  1.
<mgrwt>
<rscale>  0 0.19704202E+04</rscale>
<asrwt>0</asrwt>
<pdfrwt beam="1">  1        2 0.12526242E+00 0.19704202E+04</pdfrwt>
<pdfrwt beam="2">  1       -2 0.18340458E+00 0.19704202E+04</pdfrwt>
<totfact> 0.53804577E+00</totfact>
</mgrwt>
</event>
<event>
12    1  0.4247462E-008  0.1522665E+04  0.7818608E-02  0.8869519E-01
          1   -1    0    0  501    0  0.00000000000E+00  0.00000000000E+00  0.14494879493E+04  0.14494879493E+04  0.00000000000E+00 0. -1.
         -1   -1    0    0    0  501 -0.00000000000E+00 -0.00000000000E+00 -0.39988418500E+03  0.39988418500E+03  0.00000000000E+00 0.  1.
         23    2    1    2    0    0 -0.37491708226E+03  0.25054741894E+03  0.57695320654E+03  0.73891995254E+03  0.98948805082E+02 0.  0.
        254    2    1    2    0    0  0.37491708226E+03 -0.25054741894E+03  0.47265055772E+03  0.11104521817E+04  0.89798032853E+03 0.  0.
         23    2    4    4    0    0  0.19430695060E+03  0.20051730550E+02  0.68074483540E+03  0.71425964886E+03  0.92714896927E+02 0.  0.
         23    2    4    4    0    0  0.18061013166E+03 -0.27059914949E+03 -0.20809427769E+03  0.39619253284E+03  0.88438539732E+02 0.  0.
         11    1    3    3    0    0 -0.26770614874E+03  0.15390086010E+03  0.45537160341E+03  0.55019574153E+03  0.00000000000E+00 0. -1.
        -11    1    3    3    0    0 -0.10721093352E+03  0.96646558840E+02  0.12158160313E+03  0.18872421101E+03  0.00000000000E+00 0.  1.
          4    1    5    5  502    0  0.16424485255E+03  0.98074571062E+01  0.41192924818E+03  0.44357441688E+03  0.00000000000E+00 0. -1.
          1    1    6    6  503    0  0.84582565652E+02 -0.20232808621E+03 -0.13759928305E+03  0.25889076379E+03  0.00000000000E+00 0. -1.
         -4    1    5    5    0  502  0.30062098046E+02  0.10244273443E+02  0.26881558723E+03  0.27068523198E+03  0.00000000000E+00 0.  1.
         -1    1    6    6    0  503  0.96027566008E+02 -0.68271063282E+02 -0.70494994638E+02  0.13730176905E+03  0.00000000000E+00 0.  1.
<mgrwt>
<rscale>  0 0.15226652E+04</rscale>
<asrwt>0</asrwt>
<pdfrwt beam="1">  1        1 0.22299814E+00 0.15226652E+04</pdfrwt>
<pdfrwt beam="2">  1       -1 0.61520645E-01 0.15226652E+04</pdfrwt>
<totfact> 0.18353160E+01</totfact>
</mgrwt>
</event>
<event>
12    1  0.4247462E-008  0.2269445E+04  0.7818608E-02  0.8490067E-01
         -4   -1    0    0    0  501 -0.00000000000E+00  0.00000000000E+00  0.20984601265E+04  0.20984601265E+04  0.00000000000E+00 0.  1.
          4   -1    0    0  501    0  0.00000000000E+00 -0.00000000000E+00 -0.61359072091E+03  0.61359072091E+03  0.00000000000E+00 0. -1.
         23    2    1    2    0    0 -0.33236402116E+03  0.72181191345E+03  0.19675308421E+02  0.80010238049E+03  0.91095667034E+02 0.  0.
        254    2    1    2    0    0  0.33236402116E+03 -0.72181191345E+03  0.14651940971E+04  0.19119484669E+04  0.93662955151E+03 0.  0.
         23    2    4    4    0    0  0.52344429594E+03 -0.40869883727E+03  0.39724994769E+03  0.77912681849E+03  0.90567145327E+02 0.  0.
         23    2    4    4    0    0 -0.19108027478E+03 -0.31311307617E+03  0.10679441495E+04  0.11328216484E+04  0.90712241964E+02 0.  0.
         13    1    3    3    0    0 -0.20996429256E+03  0.34737554010E+03  0.67533336446E+01  0.40595612759E+03  0.00000000000E+00 0. -1.
        -13    1    3    3    0    0 -0.12239972859E+03  0.37443637335E+03  0.12921974776E+02  0.39414625290E+03  0.00000000000E+00 0.  1.
          1    1    6    6  502    0 -0.43128343082E+01 -0.41390711063E+02  0.20170301687E+03  0.20595120421E+03  0.00000000000E+00 0. -1.
          1    1    5    5  503    0  0.86042314621E+02 -0.59114406408E+02  0.26931223600E+02  0.10781040652E+03  0.00000000000E+00 0. -1.
         -1    1    5    5    0  503  0.43740198132E+03 -0.34958443087E+03  0.37031872409E+03  0.67131641197E+03  0.00000000000E+00 0.  1.
         -1    1    6    6    0  502 -0.18676744047E+03 -0.27172236511E+03  0.86624113258E+03  0.92687044418E+03  0.00000000000E+00 0.  1.
<mgrwt>
<rscale>  0 0.22694454E+04</rscale>
<asrwt>0</asrwt>
<pdfrwt beam="1">  1        4 0.94398574E-01 0.22694454E+04</pdfrwt>
<pdfrwt beam="2">  1       -4 0.32284002E+00 0.22694454E+04</pdfrwt>
<totfact> 0.38160913E-02</totfact>
</mgrwt>
</event>
<event>
12    1  0.4247462E-008  0.2409496E+04  0.7818608E-02  0.8435957E-01
          2   -1    0    0  501    0  0.00000000000E+00  0.00000000000E+00  0.20351358121E+04  0.20351358121E+04  0.00000000000E+00 0. -1.
         -2   -1    0    0    0  501 -0.00000000000E+00 -0.00000000000E+00 -0.71317953442E+03  0.71317953442E+03  0.00000000000E+00 0.  1.
         23    2    1    2    0    0 -0.21064295358E+03  0.81997796536E+03  0.12390988055E+04  0.15037462713E+04  0.95669644823E+02 0.  0.
        254    2    1    2    0    0  0.21064295358E+03 -0.81997796536E+03  0.82857472120E+02  0.12445690752E+04  0.90848913296E+03 0.  0.
         23    2    4    4    0    0 -0.85709644600E+02 -0.26037790881E+03  0.42902586382E+03  0.51700471653E+03  0.89932677647E+02 0.  0.
         23    2    4    4    0    0  0.29635259818E+03 -0.55960005655E+03 -0.34616839170E+03  0.72756435868E+03  0.92413499359E+02 0.  0.
         11    1    3    3    0    0 -0.81733473222E+02  0.38117507096E+03  0.49125336745E+03  0.62714006920E+03  0.00000000000E+00 0.  1.
        -11    1    3    3    0    0 -0.12890948036E+03  0.43880289440E+03  0.74784543808E+03  0.87660620208E+03  0.00000000000E+00 0. -1.
          2    1    5    5  502    0 -0.72234508366E+02 -0.14016092868E+03  0.17445790244E+03  0.23515626688E+03  0.00000000000E+00 0.  1.
          3    1    6    6  503    0  0.61949905676E+02 -0.15969045289E+03 -0.13546978746E+03  0.21838245092E+03  0.00000000000E+00 0. -1.
         -2    1    5    5    0  502 -0.13475136234E+02 -0.12021698013E+03  0.25456796139E+03  0.28184844965E+03  0.00000000000E+00 0. -1.
         -3    1    6    6    0  503  0.23440269250E+03 -0.39990960366E+03 -0.21069860425E+03  0.50918190776E+03  0.00000000000E+00 0.  1.
<mgrwt>
<rscale>  0 0.24094956E+04</rscale>
<asrwt>0</asrwt>
<pdfrwt beam="1">  1        2 0.31309781E+00 0.24094956E+04</pdfrwt>
<pdfrwt beam="2">  1       -2 0.10971993E+00 0.24094956E+04</pdfrwt>
<totfact> 0.37936458E+00</totfact>
</mgrwt>
</event>
<event>
12    1  0.4247462E-008  0.1018315E+04  0.7818608E-02  0.9288682E-01
         -2   -1    0    0    0  501 -0.00000000000E+00  0.00000000000E+00  0.23162422197E+03  0.23162422197E+03  0.00000000000E+00 0.  1.
          2   -1    0    0  501    0  0.00000000000E+00 -0.00000000000E+00 -0.11192323389E+04  0.11192323389E+04  0.00000000000E+00 0. -1.
         23    2    1    2    0    0 -0.37409391462E+02 -0.33438447402E+02 -0.65582682986E+02  0.12286173709E+03  0.90974313945E+02 0.  0.
        254    2    1    2    0    0  0.37409391462E+02  0.33438447402E+02 -0.82202543395E+03  0.12279948238E+04  0.91089400089E+03 0.  0.
         23    2    4    4    0    0  0.12612297454E+03 -0.51042631333E+02 -0.98849543019E+03  0.10022724581E+04  0.94416681614E+02 0.  0.
         23    2    4    4    0    0 -0.88713583074E+02  0.84481078735E+02  0.16646999624E+03  0.22572236572E+03  0.90725819106E+02 0.  0.
         11    1    3    3    0    0 -0.16274434827E+02 -0.15283298221E+02 -0.85658603909E+02  0.88520239816E+02  0.00000000000E+00 0. -1.
        -11    1    3    3    0    0 -0.21134956635E+02 -0.18155149182E+02  0.20075920923E+02  0.34341497269E+02  0.00000000000E+00 0.  1.
          2    1    5    5  502    0  0.10145247819E+03 -0.21877326802E+02 -0.89892492053E+03  0.90489625677E+03  0.00000000000E+00 0. -1.
          1    1    6    6  503    0 -0.91698131328E+02  0.34438282453E+02  0.83158788054E+02  0.12849095929E+03  0.00000000000E+00 0. -1.
         -2    1    5    5    0  502  0.24670496350E+02 -0.29165304531E+02 -0.89570509662E+02  0.97376201300E+02  0.00000000000E+00 0.  1.
         -1    1    6    6    0  503  0.29845482544E+01  0.50042796282E+02  0.83311208187E+02  0.97231406437E+02  0.00000000000E+00 0.  1.
<mgrwt>
<rscale>  0 0.10183149E+04</rscale>
<asrwt>0</asrwt>
<pdfrwt beam="1">  1        2 0.17218959E+00 0.10183149E+04</pdfrwt>
<pdfrwt beam="2">  1       -2 0.35634496E-01 0.10183149E+04</pdfrwt>
<totfact> 0.15631623E+02</totfact>
</mgrwt>
</event>
<event>
12    1  0.4247462E-008  0.1548800E+04  0.7818608E-02  0.8852635E-01
          2   -1    0    0  501    0  0.00000000000E+00  0.00000000000E+00  0.10800322650E+04  0.10800322650E+04  0.00000000000E+00 0. -1.
         -2   -1    0    0    0  501 -0.00000000000E+00 -0.00000000000E+00 -0.55525681865E+03  0.55525681865E+03  0.00000000000E+00 0.  1.
         23    2    1    2    0    0 -0.18309947694E+03 -0.17980862183E+03  0.59410922416E+03  0.65333044693E+03  0.89545204861E+02 0.  0.
        254    2    1    2    0    0  0.18309947694E+03  0.17980862183E+03 -0.69333777811E+02  0.98195863672E+03  0.94529309346E+03 0.  0.
         23    2    4    4    0    0  0.12418193101E+03 -0.79632921435E+01  0.41862037067E+03  0.44776205638E+03  0.98809303157E+02 0.  0.
         23    2    4    4    0    0  0.58917545939E+02  0.18777191397E+03 -0.48795414848E+03  0.53419658033E+03  0.92396788518E+02 0.  0.
         13    1    3    3    0    0 -0.77018675922E+02 -0.41405970757E+02  0.12244406301E+03  0.15046221925E+03  0.00000000000E+00 0.  1.
        -13    1    3    3    0    0 -0.10608080102E+03 -0.13840265107E+03  0.47166516114E+03  0.50286822768E+03  0.00000000000E+00 0. -1.
          4    1    6    6  502    0  0.49368420003E+02  0.54916842124E+02 -0.10215016199E+03  0.12604664231E+03  0.00000000000E+00 0. -1.
          4    1    5    5  503    0  0.11443476279E+03  0.19797992628E+02  0.38918490475E+03  0.40614303580E+03  0.00000000000E+00 0.  1.
         -4    1    5    5    0  503  0.97471682121E+01 -0.27761284772E+02  0.29435465920E+02  0.41619020583E+02  0.00000000000E+00 0. -1.
         -4    1    6    6    0  502  0.95491259356E+01  0.13285507185E+03 -0.38580398648E+03  0.40814993802E+03  0.00000000000E+00 0.  1.
<mgrwt>
<rscale>  0 0.15487999E+04</rscale>
<asrwt>0</asrwt>
<pdfrwt beam="1">  1        2 0.16615881E+00 0.15487999E+04</pdfrwt>
<pdfrwt beam="2">  1       -2 0.85424126E-01 0.15487999E+04</pdfrwt>
<totfact> 0.25712991E+01</totfact>
</mgrwt>
</event>
<event>
12    1  0.4247462E-008  0.1500681E+04  0.7818608E-02  0.8884000E-01
         -4   -1    0    0    0  501 -0.00000000000E+00  0.00000000000E+00  0.11459169245E+04  0.11459169245E+04  0.00000000000E+00 0.  1.
          4   -1    0    0  501    0  0.00000000000E+00 -0.00000000000E+00 -0.49131897554E+03  0.49131897554E+03  0.00000000000E+00 0. -1.
         23    2    1    2    0    0 -0.16634631474E+03 -0.20370884083E+03  0.64969021597E+03  0.70675434614E+03  0.90752084287E+02 0.  0.
        254    2    1    2    0    0  0.16634631474E+03  0.20370884083E+03  0.49077329661E+01  0.93048155388E+03  0.89252644107E+03 0.  0.
         23    2    4    4    0    0  0.51650804891E+03  0.61563123028E+02 -0.72564973612E+02  0.53262922649E+03  0.88643300991E+02 0.  0.
         23    2    4    4    0    0 -0.35016173417E+03  0.14214571780E+03  0.77472706578E+02  0.39785232740E+03  0.97292389123E+02 0.  0.
         13    1    3    3    0    0 -0.15908710741E+03 -0.21333129293E+03  0.62401916368E+03  0.67839432849E+03  0.00000000000E+00 0.  1.
        -13    1    3    3    0    0 -0.72592073214E+01  0.96224521011E+01  0.25671052294E+02  0.28360017653E+02  0.00000000000E+00 0. -1.
          3    1    6    6  502    0 -0.11865283824E+03  0.66024357975E+02 -0.16239319206E+02  0.13675316214E+03  0.00000000000E+00 0. -1.
          3    1    5    5  503    0  0.15079123588E+03 -0.37850184651E+01  0.12986451341E+02  0.15139673411E+03  0.00000000000E+00 0. -1.
         -3    1    5    5    0  503  0.36571681303E+03  0.65348141493E+02 -0.85551424953E+02  0.38123249237E+03  0.00000000000E+00 0.  1.
         -3    1    6    6    0  502 -0.23150889594E+03  0.76121359830E+02  0.93712025785E+02  0.26109916525E+03  0.00000000000E+00 0.  1.
<mgrwt>
<rscale>  0 0.15006808E+04</rscale>
<asrwt>0</asrwt>
<pdfrwt beam="1">  1        4 0.75587535E-01 0.15006808E+04</pdfrwt>
<pdfrwt beam="2">  1       -4 0.17629491E+00 0.15006808E+04</pdfrwt>
<totfact> 0.58150634E-01</totfact>
</mgrwt>
</event>
<event>
12    1  0.4247462E-008  0.1340903E+04  0.7818608E-02  0.8997743E-01
          2   -1    0    0  501    0  0.00000000000E+00  0.00000000000E+00  0.96311634649E+03  0.96311634649E+03  0.00000000000E+00 0. -1.
         -2   -1    0    0    0  501 -0.00000000000E+00 -0.00000000000E+00 -0.46671957001E+03  0.46671957001E+03  0.00000000000E+00 0.  1.
         23    2    1    2    0    0 -0.32529300114E+03 -0.12969173729E+03  0.19366554254E+03  0.41023817441E+03  0.90296921645E+02 0.  0.
        254    2    1    2    0    0  0.32529300114E+03  0.12969173729E+03  0.30273123394E+03  0.10195977421E+04  0.90845906478E+03 0.  0.
         23    2    4    4    0    0 -0.69334333038E+02  0.44216549276E+03  0.18218792128E+03  0.49405352249E+03  0.10285364215E+03 0.  0.
         23    2    4    4    0    0  0.39462733418E+03 -0.31247375547E+03  0.12054331267E+03  0.52554421961E+03  0.91079392818E+02 0.  0.
         13    1    3    3    0    0 -0.40371122778E+02  0.13419748434E+02  0.17880986250E+02  0.46148097162E+02  0.00000000000E+00 0. -1.
        -13    1    3    3    0    0 -0.28492187836E+03 -0.14311148573E+03  0.17578455629E+03  0.36409007724E+03  0.00000000000E+00 0.  1.
          1    1    5    5  502    0 -0.19832176505E+02  0.12216595250E+03  0.10221765651E+03  0.16051879790E+03  0.00000000000E+00 0. -1.
          3    1    6    6  503    0  0.24154842885E+02 -0.30994307640E+02  0.34686500962E+02  0.52414281354E+02  0.00000000000E+00 0. -1.
         -1    1    5    5    0  502 -0.49502156533E+02  0.31999954026E+03  0.79970264769E+02  0.33353472460E+03  0.00000000000E+00 0.  1.
         -3    1    6    6    0  503  0.37047249129E+03 -0.28147944783E+03  0.85856811704E+02  0.47312993825E+03  0.00000000000E+00 0.  1.
<mgrwt>
<rscale>  0 0.13409030E+04</rscale>
<asrwt>0</asrwt>
<pdfrwt beam="1">  1        2 0.14817175E+00 0.13409030E+04</pdfrwt>
<pdfrwt beam="2">  1       -2 0.71803011E-01 0.13409030E+04</pdfrwt>
<totfact> 0.45749426E+01</totfact>
</mgrwt>
</event>
<event>
12    1  0.4247462E-008  0.1279784E+04  0.7818608E-02  0.9045752E-01
          1   -1    0    0  501    0  0.00000000000E+00  0.00000000000E+00  0.26308627385E+04  0.26308627385E+04  0.00000000000E+00 0. -1.
         -1   -1    0    0    0  501 -0.00000000000E+00 -0.00000000000E+00 -0.15563785536E+03  0.15563785536E+03  0.00000000000E+00 0.  1.
         23    2    1    2    0    0 -0.25314084191E+03 -0.13832269613E+03  0.82141458165E+03  0.87510768531E+03  0.88758615574E+02 0.  0.
        254    2    1    2    0    0  0.25314084191E+03  0.13832269613E+03  0.16538103015E+04  0.19113929085E+04  0.91384948620E+03 0.  0.
         23    2    4    4    0    0 -0.11041850648E+03 -0.32811374438E+03  0.58740617267E+03  0.68856889462E+03  0.96074112640E+02 0.  0.
         23    2    4    4    0    0  0.36355934839E+03  0.46643644051E+03  0.10664041288E+04  0.12228240139E+04  0.91337014645E+02 0.  0.
         11    1    3    3    0    0 -0.10002909233E+03 -0.76038123130E+02  0.47405983612E+03  0.49042873459E+03  0.00000000000E+00 0.  1.
        -11    1    3    3    0    0 -0.15311174958E+03 -0.62284572999E+02  0.34735474552E+03  0.38467895072E+03  0.00000000000E+00 0. -1.
          4    1    5    5  502    0 -0.12542941969E+03 -0.27624589224E+03  0.47108610161E+03  0.56032708969E+03  0.00000000000E+00 0. -1.
          3    1    6    6  503    0  0.34505336767E+03  0.40816718995E+03  0.98906587540E+03  0.11242391149E+04  0.00000000000E+00 0. -1.
         -4    1    5    5    0  502  0.15010913215E+02 -0.51867852142E+02  0.11632007106E+03  0.12824180493E+03  0.00000000000E+00 0.  1.
         -3    1    6    6    0  503  0.18505980714E+02  0.58269250556E+02  0.77338253403E+02  0.98584899056E+02  0.00000000000E+00 0.  1.
<mgrwt>
<rscale>  0 0.12797841E+04</rscale>
<asrwt>0</asrwt>
<pdfrwt beam="1">  1        1 0.40474808E+00 0.12797841E+04</pdfrwt>
<pdfrwt beam="2">  1       -1 0.23944287E-01 0.12797841E+04</pdfrwt>
<totfact> 0.16393475E+01</totfact>
</mgrwt>
</event>
<event>
12    1  0.4247462E-008  0.2143510E+04  0.7818608E-02  0.8542315E-01
          2   -1    0    0  501    0  0.00000000000E+00  0.00000000000E+00  0.16284297387E+04  0.16284297387E+04  0.00000000000E+00 0. -1.
         -2   -1    0    0    0  501 -0.00000000000E+00 -0.00000000000E+00 -0.70537821429E+03  0.70537821429E+03  0.00000000000E+00 0.  1.
         23    2    1    2    0    0 -0.16774845389E+03 -0.69489154994E+02 -0.55730926516E+03  0.59284942207E+03  0.88929937440E+02 0.  0.
        254    2    1    2    0    0  0.16774845389E+03  0.69489154994E+02  0.14803607896E+04  0.17409585309E+04  0.89805359121E+03 0.  0.
         23    2    4    4    0    0 -0.29335536027E+02 -0.19958072844E+03  0.69913310458E+00  0.22158622784E+03  0.91689294589E+02 0.  0.
         23    2    4    4    0    0  0.19708398992E+03  0.26906988343E+03  0.14796616565E+04  0.15193723031E+04  0.88616457496E+02 0.  0.
         11    1    3    3    0    0 -0.95427420993E+02 -0.12185552416E+02 -0.17644170998E+03  0.20096406989E+03  0.00000000000E+00 0. -1.
        -11    1    3    3    0    0 -0.72321032896E+02 -0.57303602577E+02 -0.38086755517E+03  0.39188535218E+03  0.00000000000E+00 0.  1.
          1    1    5    5  502    0  0.20257689986E+02 -0.11692479004E+03  0.26939273021E+02  0.12168609189E+03  0.00000000000E+00 0. -1.
          3    1    6    6  503    0  0.82977480013E+02  0.48387462367E+02  0.37331743523E+03  0.38547699822E+03  0.00000000000E+00 0. -1.
         -1    1    5    5    0  502 -0.49593226012E+02 -0.82655938402E+02 -0.26240139917E+02  0.99900135947E+02  0.00000000000E+00 0.  1.
         -3    1    6    6    0  503  0.11410650990E+03  0.22068242107E+03  0.11063442212E+04  0.11338953049E+04  0.00000000000E+00 0.  1.
<mgrwt>
<rscale>  0 0.21435101E+04</rscale>
<asrwt>0</asrwt>
<pdfrwt beam="1">  1        2 0.25052765E+00 0.21435101E+04</pdfrwt>
<pdfrwt beam="2">  1       -2 0.10851973E+00 0.21435101E+04</pdfrwt>
<totfact> 0.67032820E+00</totfact>
</mgrwt>
</event>
<event>
12    1  0.4247462E-008  0.1527873E+04  0.7818608E-02  0.8866127E-01
          2   -1    0    0  501    0  0.00000000000E+00  0.00000000000E+00  0.22063224127E+04  0.22063224127E+04  0.00000000000E+00 0.  1.
         -2   -1    0    0    0  501 -0.00000000000E+00 -0.00000000000E+00 -0.26451195507E+03  0.26451195507E+03  0.00000000000E+00 0. -1.
         23    2    1    2    0    0  0.28163319413E+02 -0.15422280867E+03  0.13927870726E+04  0.14050623598E+04  0.98825898721E+02 0.  0.
        254    2    1    2    0    0 -0.28163319413E+02  0.15422280867E+03  0.54902338504E+03  0.10657720079E+04  0.89992524593E+03 0.  0.
         23    2    4    4    0    0  0.26498399013E+03 -0.25258634183E+03  0.10947059721E+03  0.39275434500E+03  0.90861371098E+02 0.  0.
         23    2    4    4    0    0 -0.29314730954E+03  0.40680915050E+03  0.43955278783E+03  0.67301766291E+03  0.91198088146E+02 0.  0.
         13    1    3    3    0    0  0.22995749244E+01 -0.61940688879E+02  0.95011477306E+03  0.95213445425E+03  0.00000000000E+00 0.  1.
        -13    1    3    3    0    0  0.25863744489E+02 -0.92282119788E+02  0.44267229950E+03  0.45292790558E+03  0.00000000000E+00 0. -1.
          2    1    5    5  502    0  0.43934814914E+02 -0.87706576441E+02  0.52134407430E+02  0.11108873908E+03  0.00000000000E+00 0. -1.
          1    1    6    6  503    0 -0.13501726160E+03  0.16560632358E+03  0.13087833537E+03  0.25056786308E+03  0.00000000000E+00 0. -1.
         -2    1    5    5    0  502  0.22104917522E+03 -0.16487976539E+03  0.57336189776E+02  0.28166560592E+03  0.00000000000E+00 0.  1.
         -1    1    6    6    0  503 -0.15813004794E+03  0.24120282692E+03  0.30867445246E+03  0.42244979983E+03  0.00000000000E+00 0.  1.
<mgrwt>
<rscale>  0 0.15278726E+04</rscale>
<asrwt>0</asrwt>
<pdfrwt beam="1">  1        2 0.33943421E+00 0.15278726E+04</pdfrwt>
<pdfrwt beam="2">  1       -2 0.40694148E-01 0.15278726E+04</pdfrwt>
<totfact> 0.28263775E+01</totfact>
</mgrwt>
</event>
<event>
12    1  0.4247462E-008  0.1370416E+04  0.7818608E-02  0.8975515E-01
          1   -1    0    0  501    0  0.00000000000E+00  0.00000000000E+00  0.11411922658E+04  0.11411922658E+04  0.00000000000E+00 0. -1.
         -1   -1    0    0    0  501 -0.00000000000E+00 -0.00000000000E+00 -0.41142088392E+03  0.41142088392E+03  0.00000000000E+00 0.  1.
         23    2    1    2    0    0 -0.27916325416E+03  0.25831641793E+03  0.15609472059E+03  0.42143031416E+03  0.92619941941E+02 0.  0.
        254    2    1    2    0    0  0.27916325416E+03 -0.25831641793E+03  0.57367666133E+03  0.11311828356E+04  0.89766931637E+03 0.  0.
         23    2    4    4    0    0  0.38564651868E+03 -0.15301714805E+03  0.76421466432E+03  0.87413885761E+03  0.89203162758E+02 0.  0.
         23    2    4    4    0    0 -0.10648326452E+03 -0.10529926988E+03 -0.19053800299E+03  0.25704397799E+03  0.85675283354E+02 0.  0.
         11    1    3    3    0    0 -0.90461398658E+01  0.31940742872E+02 -0.56148732735E+01  0.33668538780E+02  0.00000000000E+00 0.  1.
        -11    1    3    3    0    0 -0.27011711430E+03  0.22637567506E+03  0.16170959386E+03  0.38776177538E+03  0.00000000000E+00 0. -1.
          2    1    5    5  502    0  0.11318728811E+03 -0.72637663613E+02  0.18178273203E+03  0.22612508491E+03  0.00000000000E+00 0.  1.
          1    1    6    6  503    0 -0.92079560577E+02 -0.89478787562E+02 -0.19659514184E+03  0.23480789743E+03  0.00000000000E+00 0. -1.
         -2    1    5    5    0  502  0.27245923057E+03 -0.80379484441E+02  0.58243193229E+03  0.64801377269E+03  0.00000000000E+00 0. -1.
         -1    1    6    6    0  503 -0.14403703942E+02 -0.15820482318E+02  0.60571388434E+01  0.22236080567E+02  0.00000000000E+00 0.  1.
<mgrwt>
<rscale>  0 0.13704165E+04</rscale>
<asrwt>0</asrwt>
<pdfrwt beam="1">  1        1 0.17556804E+00 0.13704165E+04</pdfrwt>
<pdfrwt beam="2">  1       -1 0.63295521E-01 0.13704165E+04</pdfrwt>
<totfact> 0.29217322E+01</totfact>
</mgrwt>
</event>
<event>
12    1  0.4247462E-008  0.1587094E+04  0.7818608E-02  0.8828516E-01
         -2   -1    0    0    0  501 -0.00000000000E+00  0.00000000000E+00  0.61861575243E+03  0.61861575243E+03  0.00000000000E+00 0.  1.
          2   -1    0    0  501    0  0.00000000000E+00 -0.00000000000E+00 -0.10179444245E+04  0.10179444245E+04  0.00000000000E+00 0. -1.
         23    2    1    2    0    0  0.24523850035E+03 -0.26686389626E+02 -0.61972607360E+03  0.67314320795E+03  0.90594076331E+02 0.  0.
        254    2    1    2    0    0 -0.24523850035E+03  0.26686389626E+02  0.22039740148E+03  0.96341696902E+03  0.90484427178E+03 0.  0.
         23    2    4    4    0    0  0.15500308572E+03 -0.29692289003E+03  0.27016837046E+03  0.43991535130E+03  0.91353208549E+02 0.  0.
         23    2    4    4    0    0 -0.40024158607E+03  0.32360927965E+03 -0.49770968974E+02  0.52350161771E+03  0.81611894328E+02 0.  0.
         11    1    3    3    0    0  0.55393130163E+01 -0.20014440695E+02 -0.29594252757E+02  0.36153583796E+02  0.00000000000E+00 0.  1.
        -11    1    3    3    0    0  0.23969918733E+03 -0.66719489315E+01 -0.59013182085E+03  0.63698962416E+03  0.00000000000E+00 0. -1.
          1    1    5    5  502    0  0.13181157544E+03 -0.29537205504E+03  0.24586380511E+03  0.40628555596E+03  0.00000000000E+00 0. -1.
          3    1    6    6  503    0 -0.23909198859E+03  0.23746427330E+03 -0.50691592454E+02  0.34076956678E+03  0.00000000000E+00 0. -1.
         -1    1    5    5    0  502  0.23191510282E+02 -0.15508349904E+01  0.24304565350E+02  0.33629795348E+02  0.00000000000E+00 0.  1.
         -3    1    6    6    0  503 -0.16114959748E+03  0.86145006354E+02  0.92062348000E+00  0.18273205093E+03  0.00000000000E+00 0.  1.
<mgrwt>
<rscale>  0 0.15870935E+04</rscale>
<asrwt>0</asrwt>
<pdfrwt beam="1">  1        2 0.15660683E+00 0.15870935E+04</pdfrwt>
<pdfrwt beam="2">  1       -2 0.95171655E-01 0.15870935E+04</pdfrwt>
<totfact> 0.21856976E+01</totfact>
</mgrwt>
</event>
<event>
12    1  0.4247462E-008  0.1625277E+04  0.7818608E-02  0.8805168E-01
         -2   -1    0    0    0  501 -0.00000000000E+00  0.00000000000E+00  0.88078038669E+03  0.88078038669E+03  0.00000000000E+00 0.  1.
          2   -1    0    0  501    0  0.00000000000E+00 -0.00000000000E+00 -0.74976873988E+03  0.74976873988E+03  0.00000000000E+00 0. -1.
         23    2    1    2    0    0 -0.30949652068E+03 -0.12149361948E+03  0.49390897875E+03  0.60229112000E+03  0.90882990962E+02 0.  0.
        254    2    1    2    0    0  0.30949652068E+03  0.12149361948E+03 -0.36289733194E+03  0.10282580066E+04  0.90281296992E+03 0.  0.
         23    2    4    4    0    0  0.20733035605E+03  0.33742915949E+03  0.16768177951E+03  0.43939045211E+03  0.90013754588E+02 0.  0.
         23    2    4    4    0    0  0.10216616463E+03 -0.21593554001E+03 -0.53057911145E+03  0.58886755446E+03  0.90469445392E+02 0.  0.
         13    1    3    3    0    0 -0.11881182766E+03 -0.54505434219E+02  0.12094854390E+03  0.17808886271E+03  0.00000000000E+00 0. -1.
        -13    1    3    3    0    0 -0.19068469302E+03 -0.66988185262E+02  0.37296043486E+03  0.42420225729E+03  0.00000000000E+00 0.  1.
          4    1    5    5  502    0  0.74305987326E+02  0.17745619367E+03  0.11729056145E+03  0.22532011945E+03  0.00000000000E+00 0. -1.
          1    1    6    6  503    0  0.85934836480E+02 -0.22058952860E+03 -0.47412769346E+03  0.52994490842E+03  0.00000000000E+00 0. -1.
         -4    1    5    5    0  502  0.13302436873E+03  0.15997296582E+03  0.50391218055E+02  0.21407033266E+03  0.00000000000E+00 0.  1.
         -1    1    6    6    0  503  0.16231328146E+02  0.46539885937E+01 -0.56451417989E+02  0.58922646039E+02  0.00000000000E+00 0.  1.
<mgrwt>
<rscale>  0 0.16252773E+04</rscale>
<asrwt>0</asrwt>
<pdfrwt beam="1">  1        2 0.11534904E+00 0.16252773E+04</pdfrwt>
<pdfrwt beam="2">  1       -2 0.13550467E+00 0.16252773E+04</pdfrwt>
<totfact> 0.14025851E+01</totfact>
</mgrwt>
</event>
<event>
12    1  0.4247462E-008  0.1955470E+04  0.7818608E-02  0.8627728E-01
         -1   -1    0    0    0  501 -0.00000000000E+00  0.00000000000E+00  0.88722927799E+03  0.88722927799E+03  0.00000000000E+00 0.  1.
          1   -1    0    0  501    0  0.00000000000E+00 -0.00000000000E+00 -0.10774731700E+04  0.10774731700E+04  0.00000000000E+00 0. -1.
         23    2    1    2    0    0  0.32068214033E+03  0.91819515518E+02  0.62143658288E+03  0.71102017346E+03  0.89991121573E+02 0.  0.
        254    2    1    2    0    0 -0.32068214033E+03 -0.91819515518E+02 -0.81168047490E+03  0.12536822745E+04  0.89533579934E+03 0.  0.
         23    2    4    4    0    0  0.23601189751E+03  0.18910822717E+03 -0.35358111723E+03  0.47457899841E+03  0.93499101185E+02 0.  0.
         23    2    4    4    0    0 -0.55669403784E+03 -0.28092774269E+03 -0.45809935767E+03  0.77910327612E+03  0.91204413166E+02 0.  0.
         11    1    3    3    0    0  0.26750150421E+02  0.15594504255E+02  0.18854819015E+02  0.36252769696E+02  0.00000000000E+00 0. -1.
        -11    1    3    3    0    0  0.29393198991E+03  0.76225011264E+02  0.60258176387E+03  0.67476740376E+03  0.00000000000E+00 0.  1.
          2    1    5    5  502    0  0.12727700546E+03  0.10713974651E+03 -0.26241557000E+03  0.31070933810E+03  0.00000000000E+00 0. -1.
          4    1    6    6  503    0 -0.33197611122E+03 -0.12340911248E+03 -0.23047151946E+03  0.42255776972E+03  0.00000000000E+00 0. -1.
         -2    1    5    5    0  502  0.10873489205E+03  0.81968480663E+02 -0.91165547231E+02  0.16386966032E+03  0.00000000000E+00 0.  1.
         -4    1    6    6    0  503 -0.22471792662E+03 -0.15751863022E+03 -0.22762783821E+03  0.35654550640E+03  0.00000000000E+00 0.  1.
<mgrwt>
<rscale>  0 0.19554700E+04</rscale>
<asrwt>0</asrwt>
<pdfrwt beam="1">  1        1 0.16576510E+00 0.19554700E+04</pdfrwt>
<pdfrwt beam="2">  1       -1 0.13649681E+00 0.19554700E+04</pdfrwt>
<totfact> 0.54986868E+00</totfact>
</mgrwt>
</event>
<event>
12    1  0.4247462E-008  0.2860559E+04  0.7818608E-02  0.8284710E-01
          2   -1    0    0  501    0  0.00000000000E+00  0.00000000000E+00  0.45591032303E+04  0.45591032303E+04  0.00000000000E+00 0. -1.
         -2   -1    0    0    0  501 -0.00000000000E+00 -0.00000000000E+00 -0.44870641943E+03  0.44870641943E+03  0.00000000000E+00 0.  1.
         23    2    1    2    0    0  0.24081540546E+01  0.11973498027E+03  0.40966055672E+04  0.40993628826E+04  0.90865865411E+02 0.  0.
        254    2    1    2    0    0 -0.24081540546E+01 -0.11973498027E+03  0.13791243640E+02  0.90844676708E+03  0.90041271954E+03 0.  0.
         23    2    4    4    0    0 -0.28268451512E+03  0.28071484947E+03 -0.27183806602E+02  0.40942310662E+03  0.90426539754E+02 0.  0.
         23    2    4    4    0    0  0.28027636106E+03 -0.40044982974E+03  0.40975050242E+02  0.49902366046E+03  0.91819138760E+02 0.  0.
         11    1    3    3    0    0  0.20141911312E+02  0.85302000534E+01  0.16725925495E+04  0.16727355732E+04  0.00000000000E+00 0. -1.
        -11    1    3    3    0    0 -0.17733757258E+02  0.11120478022E+03  0.24240130176E+04  0.24266273095E+04  0.00000000000E+00 0.  1.
          2    1    5    5  502    0 -0.20459538438E+03  0.25224573545E+03 -0.30673225480E+02  0.32623309017E+03  0.00000000000E+00 0.  1.
          4    1    6    6  503    0  0.23258467395E+03 -0.27630611490E+03  0.47822887333E+01  0.36119741136E+03  0.00000000000E+00 0. -1.
         -2    1    5    5    0  502 -0.78089130736E+02  0.28469114022E+02  0.34894188773E+01  0.83190016446E+02  0.00000000000E+00 0. -1.
         -4    1    6    6    0  503  0.47691687113E+02 -0.12414371484E+03  0.36192761509E+02  0.13782624910E+03  0.00000000000E+00 0.  1.
<mgrwt>
<rscale>  0 0.28605586E+04</rscale>
<asrwt>0</asrwt>
<pdfrwt beam="1">  1        2 0.70140047E+00 0.28605586E+04</pdfrwt>
<pdfrwt beam="2">  1       -2 0.69031760E-01 0.28605586E+04</pdfrwt>
<totfact> 0.17856751E-01</totfact>
</mgrwt>
</event>
<event>
12    1  0.4247462E-008  0.2547125E+04  0.7818608E-02  0.8386387E-01
          1   -1    0    0  501    0  0.00000000000E+00  0.00000000000E+00  0.34643329858E+04  0.34643329858E+04  0.00000000000E+00 0. -1.
         -1   -1    0    0    0  501 -0.00000000000E+00 -0.00000000000E+00 -0.46818876946E+03  0.46818876946E+03  0.00000000000E+00 0.  1.
         23    2    1    2    0    0 -0.93019333574E+03 -0.53527806464E+03  0.17503011407E+04  0.20552192632E+04  0.92681650490E+02 0.  0.
        254    2    1    2    0    0  0.93019333574E+03  0.53527806464E+03  0.12458430756E+04  0.18773024921E+04  0.90573584961E+03 0.  0.
         23    2    4    4    0    0  0.82132725180E+03  0.65159722819E+03  0.61104621580E+03  0.12169077211E+04  0.91266212631E+02 0.  0.
         23    2    4    4    0    0  0.10886608393E+03 -0.11631916355E+03  0.63479685984E+03  0.66039477094E+03  0.88160241472E+02 0.  0.
         11    1    3    3    0    0 -0.89806844152E+03 -0.53431440371E+03  0.16940011228E+04  0.19903915725E+04  0.00000000000E+00 0. -1.
        -11    1    3    3    0    0 -0.32124894217E+02 -0.96366093409E+00  0.56300017885E+02  0.64827690725E+02  0.00000000000E+00 0.  1.
          2    1    5    5  502    0  0.26323938967E+02  0.43430743204E+02  0.20730272837E+02  0.54853654663E+02  0.00000000000E+00 0.  1.
          3    1    6    6  503    0  0.91471867461E+02 -0.10612757395E+03  0.61934346527E+03  0.63499330112E+03  0.00000000000E+00 0. -1.
         -2    1    5    5    0  502  0.79500331283E+03  0.60816648499E+03  0.59031594296E+03  0.11620540665E+04  0.00000000000E+00 0. -1.
         -3    1    6    6    0  503  0.17394216474E+02 -0.10191589597E+02  0.15453394571E+02  0.25401469820E+02  0.00000000000E+00 0.  1.
<mgrwt>
<rscale>  0 0.25471253E+04</rscale>
<asrwt>0</asrwt>
<pdfrwt beam="1">  1        1 0.53297429E+00 0.25471253E+04</pdfrwt>
<pdfrwt beam="2">  1       -1 0.72029044E-01 0.25471253E+04</pdfrwt>
<totfact> 0.45901943E-01</totfact>
</mgrwt>
</event>
<event>
12    1  0.4247462E-008  0.2269245E+04  0.7818608E-02  0.8490147E-01
          2   -1    0    0  501    0  0.00000000000E+00  0.00000000000E+00  0.23001959063E+04  0.23001959063E+04  0.00000000000E+00 0. -1.
         -2   -1    0    0    0  501 -0.00000000000E+00 -0.00000000000E+00 -0.55967785076E+03  0.55967785076E+03  0.00000000000E+00 0.  1.
         23    2    1    2    0    0 -0.24571092055E+03  0.86104797453E+03  0.11388818770E+04  0.14526740567E+04  0.10692293660E+03 0.  0.
        254    2    1    2    0    0  0.24571092055E+03 -0.86104797453E+03  0.60163617854E+03  0.14071997003E+04  0.90358587547E+03 0.  0.
         23    2    4    4    0    0  0.13904439542E+03  0.15609716707E+03  0.20533990059E+03  0.30666305257E+03  0.90432757179E+02 0.  0.
         23    2    4    4    0    0  0.10666652513E+03 -0.10171451416E+04  0.39629627795E+03  0.11005366478E+04  0.90378019907E+02 0.  0.
         13    1    3    3    0    0 -0.13873130522E+03  0.65040748522E+03  0.81893027840E+03  0.10549516921E+04  0.00000000000E+00 0.  1.
        -13    1    3    3    0    0 -0.10697961533E+03  0.21064048931E+03  0.31995159856E+03  0.39772236454E+03  0.00000000000E+00 0. -1.
          2    1    5    5  502    0  0.63021474337E+02  0.13281681148E+03  0.14824651940E+03  0.20877988924E+03  0.00000000000E+00 0.  1.
          1    1    6    6  503    0 -0.29286498640E+01 -0.22851093787E+03  0.60439371976E+02  0.23638685115E+03  0.00000000000E+00 0. -1.
         -2    1    5    5    0  502  0.76022921084E+02  0.23280355592E+02  0.57093381195E+02  0.97883163327E+02  0.00000000000E+00 0. -1.
         -1    1    6    6    0  503  0.10959517500E+03 -0.78863420373E+03  0.33585690598E+03  0.86414979661E+03  0.00000000000E+00 0.  1.
<mgrwt>
<rscale>  0 0.22692454E+04</rscale>
<asrwt>0</asrwt>
<pdfrwt beam="1">  1        2 0.35387629E+00 0.22692454E+04</pdfrwt>
<pdfrwt beam="2">  1       -2 0.86104286E-01 0.22692454E+04</pdfrwt>
<totfact> 0.48189158E+00</totfact>
</mgrwt>
</event>
<event>
12    1  0.4247462E-008  0.1801562E+04  0.7818608E-02  0.8705469E-01
          1   -1    0    0  501    0  0.00000000000E+00  0.00000000000E+00  0.23222059390E+04  0.23222059390E+04  0.00000000000E+00 0. -1.
         -1   -1    0    0    0  501 -0.00000000000E+00 -0.00000000000E+00 -0.34941198028E+03  0.34941198028E+03  0.00000000000E+00 0.  1.
         23    2    1    2    0    0  0.31097593456E+03  0.42220719611E+03  0.12170270337E+03  0.54607616692E+03  0.91775180482E+02 0.  0.
        254    2    1    2    0    0 -0.31097593456E+03 -0.42220719611E+03  0.18510912554E+04  0.21255417524E+04  0.90356181698E+03 0.  0.
         23    2    4    4    0    0  0.36825361532E+01 -0.30355405992E+03  0.17270887771E+04  0.17559203682E+04  0.90895913534E+02 0.  0.
         23    2    4    4    0    0 -0.31465847071E+03 -0.11865313618E+03  0.12400247832E+03  0.36962138424E+03  0.90304114736E+02 0.  0.
         11    1    3    3    0    0  0.13559594637E+03  0.12180903482E+03  0.18322164043E+02  0.18319225784E+03  0.00000000000E+00 0. -1.
        -11    1    3    3    0    0  0.17537998819E+03  0.30039816129E+03  0.10338053933E+03  0.36288390909E+03  0.00000000000E+00 0.  1.
          2    1    5    5  502    0 -0.26955527205E+00 -0.60276381730E+02  0.18021671804E+03  0.19002994584E+03  0.00000000000E+00 0. -1.
          1    1    6    6  503    0 -0.13375825340E+02  0.10445621544E+02  0.18910294173E+02  0.25409111332E+02  0.00000000000E+00 0. -1.
         -2    1    5    5    0  502  0.39520914253E+01 -0.24327767819E+03  0.15468720590E+04  0.15658904223E+04  0.00000000000E+00 0.  1.
         -1    1    6    6    0  503 -0.30128264537E+03 -0.12909875773E+03  0.10509218415E+03  0.34421227290E+03  0.00000000000E+00 0.  1.
<mgrwt>
<rscale>  0 0.18015622E+04</rscale>
<asrwt>0</asrwt>
<pdfrwt beam="1">  1        1 0.35726244E+00 0.18015622E+04</pdfrwt>
<pdfrwt beam="2">  1       -1 0.53755691E-01 0.18015622E+04</pdfrwt>
<totfact> 0.59254204E+00</totfact>
</mgrwt>
</event>
<event>
12    1  0.4247462E-008  0.1950499E+04  0.7818608E-02  0.8630120E-01
         -2   -1    0    0    0  501 -0.00000000000E+00  0.00000000000E+00  0.68863800504E+03  0.68863800504E+03  0.00000000000E+00 0.  1.
          2   -1    0    0  501    0  0.00000000000E+00 -0.00000000000E+00 -0.13811485518E+04  0.13811485518E+04  0.00000000000E+00 0. -1.
         23    2    1    2    0    0 -0.37140593869E+03 -0.42113343465E+03 -0.82525514393E+03  0.10023859650E+04  0.91846770513E+02 0.  0.
        254    2    1    2    0    0  0.37140593869E+03  0.42113343465E+03  0.13274459713E+03  0.10674005918E+04  0.89801289204E+03 0.  0.
         23    2    4    4    0    0  0.39792344289E+03  0.62212335263E+03  0.28650370867E+03  0.79725635989E+03  0.90292834806E+02 0.  0.
         23    2    4    4    0    0 -0.26517504194E+02 -0.20098991797E+03 -0.15375911154E+03  0.27014423194E+03  0.90751950451E+02 0.  0.
         13    1    3    3    0    0 -0.86713096381E+01 -0.36677463822E+02 -0.33592198859E+02  0.50486273258E+02  0.00000000000E+00 0.  1.
        -13    1    3    3    0    0 -0.36273462905E+03 -0.38445597083E+03 -0.79166294507E+03  0.95189969179E+03  0.00000000000E+00 0. -1.
          2    1    5    5  502    0  0.29029788298E+03  0.50422869929E+03  0.19715551335E+03  0.61432055028E+03  0.00000000000E+00 0. -1.
          1    1    6    6  503    0 -0.54428701951E+02 -0.15654217928E+03 -0.93716642457E+02  0.19039628821E+03  0.00000000000E+00 0. -1.
         -2    1    5    5    0  502  0.10762555990E+03  0.11789465334E+03  0.89348195323E+02  0.18293580961E+03  0.00000000000E+00 0.  1.
         -1    1    6    6    0  503  0.27911197757E+02 -0.44447738694E+02 -0.60042469084E+02  0.79747943729E+02  0.00000000000E+00 0.  1.
<mgrwt>
<rscale>  0 0.19504988E+04</rscale>
<asrwt>0</asrwt>
<pdfrwt beam="1">  1        2 0.21248439E+00 0.19504988E+04</pdfrwt>
<pdfrwt beam="2">  1       -2 0.10594431E+00 0.19504988E+04</pdfrwt>
<totfact> 0.99572677E+00</totfact>
</mgrwt>
</event>
<event>
12    1  0.4247462E-008  0.2034851E+04  0.7818608E-02  0.8590498E-01
          2   -1    0    0  501    0  0.00000000000E+00  0.00000000000E+00  0.13114414452E+04  0.13114414452E+04  0.00000000000E+00 0. -1.
         -2   -1    0    0    0  501 -0.00000000000E+00 -0.00000000000E+00 -0.78932558895E+03  0.78932558895E+03  0.00000000000E+00 0.  1.
         23    2    1    2    0    0  0.56702886988E+03  0.17028801810E+03  0.78435817343E+03  0.98695031150E+03  0.91287593694E+02 0.  0.
        254    2    1    2    0    0 -0.56702886988E+03 -0.17028801810E+03 -0.26224231718E+03  0.11138167226E+04  0.90625432983E+03 0.  0.
         23    2    4    4    0    0  0.25051669918E+02  0.17657708827E+02  0.27205061701E+03  0.28931825865E+03  0.93563538429E+02 0.  0.
         23    2    4    4    0    0 -0.59208053980E+03 -0.18794572692E+03 -0.53429293420E+03  0.82449846400E+03  0.91901119254E+02 0.  0.
         13    1    3    3    0    0  0.13947789607E+03  0.65597792273E+02  0.26075764108E+03  0.30290543280E+03  0.00000000000E+00 0.  1.
        -13    1    3    3    0    0  0.42755097382E+03  0.10469022582E+03  0.52360053235E+03  0.68404487870E+03  0.00000000000E+00 0. -1.
          2    1    5    5  502    0  0.12951642173E+02  0.43835006981E+02  0.60574801700E+02  0.75885172946E+02  0.00000000000E+00 0. -1.
          1    1    6    6  503    0 -0.31663425588E+03 -0.13200087621E+03 -0.24806226113E+03  0.42333954306E+03  0.00000000000E+00 0. -1.
         -2    1    5    5    0  502  0.12100027745E+02 -0.26177298154E+02  0.21147581531E+03  0.21343308570E+03  0.00000000000E+00 0.  1.
         -1    1    6    6    0  503 -0.27544628392E+03 -0.55944850715E+02 -0.28623067306E+03  0.40115892094E+03  0.00000000000E+00 0.  1.
<mgrwt>
<rscale>  0 0.20348506E+04</rscale>
<asrwt>0</asrwt>
<pdfrwt beam="1">  1        2 0.20176022E+00 0.20348506E+04</pdfrwt>
<pdfrwt beam="2">  1       -2 0.12143471E+00 0.20348506E+04</pdfrwt>
<totfact> 0.77762320E+00</totfact>
</mgrwt>
</event>
<event>
12    1  0.4247462E-008  0.2231032E+04  0.7818608E-02  0.8505622E-01
          1   -1    0    0  501    0  0.00000000000E+00  0.00000000000E+00  0.18666468582E+04  0.18666468582E+04  0.00000000000E+00 0. -1.
         -1   -1    0    0    0  501 -0.00000000000E+00 -0.00000000000E+00 -0.66663683041E+03  0.66663683041E+03  0.00000000000E+00 0.  1.
         23    2    1    2    0    0 -0.42469165216E+03  0.71010648934E+03  0.99393839109E+03  0.12964857436E+04  0.91364831546E+02 0.  0.
        254    2    1    2    0    0  0.42469165216E+03 -0.71010648934E+03  0.20607163666E+03  0.12367979450E+04  0.89587354667E+03 0.  0.
         23    2    4    4    0    0  0.26446630916E+03 -0.63081030959E+03  0.51969908434E+03  0.86440408693E+03  0.96141624050E+02 0.  0.
         23    2    4    4    0    0  0.16022534300E+03 -0.79296179754E+02 -0.31362744768E+03  0.37239385804E+03  0.91405497106E+02 0.  0.
         11    1    3    3    0    0 -0.18853326621E+03  0.25064723592E+03  0.42187310862E+03  0.52568597957E+03  0.00000000000E+00 0.  1.
        -11    1    3    3    0    0 -0.23615838595E+03  0.45945925343E+03  0.57206528247E+03  0.77079976402E+03  0.00000000000E+00 0. -1.
          1    1    5    5  502    0  0.26375711434E+03 -0.60987597530E+03  0.48063019418E+03  0.82007432844E+03  0.00000000000E+00 0. -1.
          1    1    6    6  503    0  0.43853556522E+02  0.61450953423E+01 -0.13863241974E+03  0.14553296678E+03  0.00000000000E+00 0. -1.
         -1    1    5    5    0  502  0.70919481961E+00 -0.20934334291E+02  0.39068890158E+02  0.44329758488E+02  0.00000000000E+00 0.  1.
         -1    1    6    6    0  503  0.11637178648E+03 -0.85441275096E+02 -0.17499502794E+03  0.22686089126E+03  0.00000000000E+00 0.  1.
<mgrwt>
<rscale>  0 0.22310316E+04</rscale>
<asrwt>0</asrwt>
<pdfrwt beam="1">  1        1 0.28717644E+00 0.22310316E+04</pdfrwt>
<pdfrwt beam="2">  1       -1 0.10255951E+00 0.22310316E+04</pdfrwt>
<totfact> 0.30006105E+00</totfact>
</mgrwt>
</event>
<event>
12    1  0.4247462E-008  0.1945948E+04  0.7818608E-02  0.8632317E-01
         -2   -1    0    0    0  501 -0.00000000000E+00  0.00000000000E+00  0.28476006740E+03  0.28476006740E+03  0.00000000000E+00 0. -1.
          2   -1    0    0  501    0  0.00000000000E+00 -0.00000000000E+00 -0.33244764785E+04  0.33244764785E+04  0.00000000000E+00 0.  1.
         23    2    1    2    0    0 -0.17778818667E+03 -0.21025742826E+03  0.11992528884E+03  0.31475846523E+03  0.94201863431E+02 0.  0.
        254    2    1    2    0    0  0.17778818667E+03  0.21025742826E+03 -0.31596416999E+04  0.32944780807E+04  0.89130989366E+03 0.  0.
         23    2    4    4    0    0  0.44647001640E+03  0.38605907341E+03 -0.19302024822E+04  0.20207289652E+04  0.96368278300E+02 0.  0.
         23    2    4    4    0    0 -0.26868182973E+03 -0.17580164515E+03 -0.12294392178E+04  0.12737491154E+04  0.88430055994E+02 0.  0.
         13    1    3    3    0    0  0.23136783725E+01 -0.37307549991E+02 -0.84555406983E+00  0.37388786496E+02  0.00000000000E+00 0.  1.
        -13    1    3    3    0    0 -0.18010186504E+03 -0.17294987827E+03  0.12077084291E+03  0.27736967873E+03  0.00000000000E+00 0. -1.
          3    1    6    6  502    0 -0.94291228449E+02 -0.83790510896E+02 -0.63669071072E+03  0.64906605719E+03  0.00000000000E+00 0. -1.
          3    1    5    5  503    0  0.74797492063E-01 -0.47201929978E+01 -0.17785996654E+02  0.18401833973E+02  0.00000000000E+00 0. -1.
         -3    1    5    5    0  503  0.44639521891E+03  0.39077926641E+03 -0.19124164855E+04  0.20023271313E+04  0.00000000000E+00 0.  1.
         -3    1    6    6    0  502 -0.17439060129E+03 -0.92011134257E+02 -0.59274850704E+03  0.62468305823E+03  0.00000000000E+00 0.  1.
<mgrwt>
<rscale>  0 0.19459477E+04</rscale>
<asrwt>0</asrwt>
<pdfrwt beam="1">  1        2 0.51145787E+00 0.19459477E+04</pdfrwt>
<pdfrwt beam="2">  1       -2 0.43809245E-01 0.19459477E+04</pdfrwt>
<totfact> 0.49693065E+00</totfact>
</mgrwt>
</event>
<event>
12    1  0.4247462E-008  0.1564682E+04  0.7818608E-02  0.8842544E-01
         -1   -1    0    0    0  501 -0.00000000000E+00  0.00000000000E+00  0.74724438106E+03  0.74724438106E+03  0.00000000000E+00 0.  1.
          1   -1    0    0  501    0  0.00000000000E+00 -0.00000000000E+00 -0.81908562630E+03  0.81908562630E+03  0.00000000000E+00 0. -1.
         23    2    1    2    0    0  0.33043016330E+01  0.84807083704E+02  0.48873332546E+03  0.50459166839E+03  0.92462579111E+02 0.  0.
        254    2    1    2    0    0 -0.33043016330E+01 -0.84807083704E+02 -0.56057457070E+03  0.10617383390E+04  0.89768663312E+03 0.  0.
         23    2    4    4    0    0  0.48884341449E+02  0.21479465860E+03  0.14975329326E+03  0.28350139718E+03  0.97059616493E+02 0.  0.
         23    2    4    4    0    0 -0.52188643082E+02 -0.29960174231E+03 -0.71032786396E+03  0.77823694180E+03  0.92748071690E+02 0.  0.
         13    1    3    3    0    0  0.14919426873E+02  0.46352444677E+02  0.78363229647E+02  0.92260144084E+02  0.00000000000E+00 0. -1.
        -13    1    3    3    0    0 -0.11615125240E+02  0.38454639027E+02  0.41037009581E+03  0.41233152430E+03  0.00000000000E+00 0.  1.
          2    1    5    5  502    0 -0.75737205322E+00  0.27651382200E+02 -0.13003083406E+02  0.30565548058E+02  0.00000000000E+00 0. -1.
          3    1    6    6  503    0 -0.44907414263E+01 -0.98925762544E+02 -0.13784422071E+03  0.16972773031E+03  0.00000000000E+00 0. -1.
         -2    1    5    5    0  502  0.49641713502E+02  0.18714327640E+03  0.16275637667E+03  0.25293584912E+03  0.00000000000E+00 0.  1.
         -3    1    6    6    0  503 -0.47697901655E+02 -0.20067597976E+03 -0.57248364325E+03  0.60850921149E+03  0.00000000000E+00 0.  1.
<mgrwt>
<rscale>  0 0.15646816E+04</rscale>
<asrwt>0</asrwt>
<pdfrwt beam="1">  1        1 0.12601317E+00 0.15646816E+04</pdfrwt>
<pdfrwt beam="2">  1       -1 0.11496067E+00 0.15646816E+04</pdfrwt>
<totfact> 0.14073227E+01</totfact>
</mgrwt>
</event>
<event>
12    1  0.4247462E-008  0.2265279E+04  0.7818608E-02  0.8491738E-01
         -1   -1    0    0    0  501 -0.00000000000E+00  0.00000000000E+00  0.87584101725E+03  0.87584101725E+03  0.00000000000E+00 0.  1.
          1   -1    0    0  501    0  0.00000000000E+00 -0.00000000000E+00 -0.14647314278E+04  0.14647314278E+04  0.00000000000E+00 0. -1.
         23    2    1    2    0    0  0.39453444946E+03 -0.40314686616E+03  0.54676278935E+03  0.79101856656E+03  0.92606680736E+02 0.  0.
        254    2    1    2    0    0 -0.39453444946E+03  0.40314686616E+03 -0.11356531999E+04  0.15495538785E+04  0.89063135159E+03 0.  0.
         23    2    4    4    0    0 -0.63687975023E+03  0.10549543269E+03 -0.79430821376E+03  0.10277458059E+04  0.92686571382E+02 0.  0.
         23    2    4    4    0    0  0.24234530077E+03  0.29765143348E+03 -0.34134498619E+03  0.52180807265E+03  0.91867537411E+02 0.  0.
         11    1    3    3    0    0  0.34505693865E+03 -0.35125579237E+03  0.42855862647E+03  0.65276903948E+03  0.00000000000E+00 0.  1.
        -11    1    3    3    0    0  0.49477510817E+02 -0.51891073793E+02  0.11820416288E+03  0.13824952708E+03  0.00000000000E+00 0. -1.
          2    1    5    5  502    0 -0.21926026707E+03  0.11493702811E+02 -0.32847000359E+03  0.39509456233E+03  0.00000000000E+00 0.  1.
          3    1    6    6  503    0  0.10073534118E+03  0.18220354625E+03 -0.21749487692E+03  0.30108099030E+03  0.00000000000E+00 0. -1.
         -2    1    5    5    0  502 -0.41761948316E+03  0.94001729879E+02 -0.46583821016E+03  0.63265124357E+03  0.00000000000E+00 0. -1.
         -3    1    6    6    0  503  0.14160995959E+03  0.11544788722E+03 -0.12385010927E+03  0.22072708235E+03  0.00000000000E+00 0.  1.
<mgrwt>
<rscale>  0 0.22652787E+04</rscale>
<asrwt>0</asrwt>
<pdfrwt beam="1">  1        1 0.22534329E+00 0.22652787E+04</pdfrwt>
<pdfrwt beam="2">  1       -1 0.13474477E+00 0.22652787E+04</pdfrwt>
<totfact> 0.29047719E+00</totfact>
</mgrwt>
</event>
<event>
12    1  0.4247462E-008  0.1969796E+04  0.7818608E-02  0.8620873E-01
         -1   -1    0    0    0  501 -0.00000000000E+00  0.00000000000E+00  0.47460113629E+03  0.47460113629E+03  0.00000000000E+00 0.  1.
          1   -1    0    0  501    0  0.00000000000E+00 -0.00000000000E+00 -0.20438728400E+04  0.20438728400E+04  0.00000000000E+00 0. -1.
         23    2    1    2    0    0 -0.21852257301E+03 -0.72542476500E+03 -0.85875415482E+03  0.11486723712E+04  0.89422107456E+02 0.  0.
        254    2    1    2    0    0  0.21852257301E+03  0.72542476500E+03 -0.71051754892E+03  0.13698016052E+04  0.89304425734E+03 0.  0.
         23    2    4    4    0    0  0.27456597759E+01  0.61617605423E+03 -0.86686636510E+03  0.10673774882E+04  0.90315773504E+02 0.  0.
         23    2    4    4    0    0  0.21577691323E+03  0.10924871076E+03  0.15634881618E+03  0.30242411694E+03  0.92306213776E+02 0.  0.
         11    1    3    3    0    0 -0.40175190635E+02 -0.20071178073E+03 -0.28587212315E+03  0.35159939656E+03  0.00000000000E+00 0.  1.
        -11    1    3    3    0    0 -0.17834738237E+03 -0.52471298427E+03 -0.57288203168E+03  0.79707297462E+03  0.00000000000E+00 0. -1.
          1    1    5    5  502    0 -0.72915279231E+01  0.17705034288E+03 -0.32173730725E+03  0.36730761654E+03  0.00000000000E+00 0. -1.
          1    1    6    6  503    0  0.13481968374E+03  0.11482032747E+03  0.11692027122E+03  0.21220368646E+03  0.00000000000E+00 0. -1.
         -1    1    5    5    0  502  0.10037187699E+02  0.43912571135E+03 -0.54512905784E+03  0.70006987167E+03  0.00000000000E+00 0.  1.
         -1    1    6    6    0  503  0.80957229492E+02 -0.55716167060E+01  0.39428544956E+02  0.90220430486E+02  0.00000000000E+00 0.  1.
<mgrwt>
<rscale>  0 0.19697963E+04</rscale>
<asrwt>0</asrwt>
<pdfrwt beam="1">  1        1 0.31444198E+00 0.19697963E+04</pdfrwt>
<pdfrwt beam="2">  1       -1 0.73015558E-01 0.19697963E+04</pdfrwt>
<totfact> 0.48930334E+00</totfact>
</mgrwt>
</event>
<event>
12    1  0.4247462E-008  0.2005548E+04  0.7818608E-02  0.8604031E-01
         -2   -1    0    0    0  501 -0.00000000000E+00  0.00000000000E+00  0.47871585856E+03  0.47871585856E+03  0.00000000000E+00 0.  1.
          2   -1    0    0  501    0  0.00000000000E+00 -0.00000000000E+00 -0.21005275763E+04  0.21005275763E+04  0.00000000000E+00 0. -1.
         23    2    1    2    0    0 -0.50200202212E+02  0.70502764498E+03 -0.19033905226E+03  0.73758434470E+03  0.90651366526E+02 0.  0.
        254    2    1    2    0    0  0.50200202212E+02 -0.70502764498E+03 -0.14314726655E+04  0.18416590901E+04  0.91815585380E+03 0.  0.
         23    2    4    4    0    0  0.40738713243E+03 -0.60777851792E+03 -0.69945230148E+03  0.10163961535E+04  0.92025084699E+02 0.  0.
         23    2    4    4    0    0 -0.35718693022E+03 -0.97249127059E+02 -0.73202036398E+03  0.82526293668E+03  0.90361526916E+02 0.  0.
         13    1    3    3    0    0 -0.30887015372E+02  0.11778811954E+03 -0.59974600387E+02  0.13573872519E+03  0.00000000000E+00 0. -1.
        -13    1    3    3    0    0 -0.19313186841E+02  0.58723952544E+03 -0.13036445187E+03  0.60184561952E+03  0.00000000000E+00 0.  1.
          1    1    5    5  502    0  0.37625619327E+03 -0.52408500887E+03 -0.64230866738E+03  0.91038137266E+03  0.00000000000E+00 0. -1.
          3    1    6    6  503    0 -0.31072869310E+03 -0.50178969263E+02 -0.59543139918E+03  0.67350486323E+03  0.00000000000E+00 0. -1.
         -1    1    5    5    0  502  0.31130939154E+02 -0.83693509053E+02 -0.57143634101E+02  0.10601478080E+03  0.00000000000E+00 0.  1.
         -3    1    6    6    0  503 -0.46458237117E+02 -0.47070157796E+02 -0.13658896480E+03  0.15175807345E+03  0.00000000000E+00 0.  1.
<mgrwt>
<rscale>  0 0.20055482E+04</rscale>
<asrwt>0</asrwt>
<pdfrwt beam="1">  1        2 0.32315809E+00 0.20055482E+04</pdfrwt>
<pdfrwt beam="2">  1       -2 0.73648593E-01 0.20055482E+04</pdfrwt>
<totfact> 0.90646030E+00</totfact>
</mgrwt>
</event>
<event>
12    1  0.4247462E-008  0.2562571E+04  0.7818608E-02  0.8381027E-01
          2   -1    0    0  501    0  0.00000000000E+00  0.00000000000E+00  0.10741091948E+04  0.10741091948E+04  0.00000000000E+00 0. -1.
         -2   -1    0    0    0  501 -0.00000000000E+00 -0.00000000000E+00 -0.15284224313E+04  0.15284224313E+04  0.00000000000E+00 0.  1.
         23    2    1    2    0    0  0.18198941067E+03  0.10406532282E+03  0.92225971326E+03  0.94920297471E+03  0.80458507804E+02 0.  0.
        254    2    1    2    0    0 -0.18198941067E+03 -0.10406532282E+03 -0.13765729498E+04  0.16533286514E+04  0.89139935285E+03 0.  0.
         23    2    4    4    0    0  0.89156417371E+02  0.33922729017E+03 -0.37604735108E+03  0.52227761586E+03  0.91314164390E+02 0.  0.
         23    2    4    4    0    0 -0.27114582804E+03 -0.44329261299E+03 -0.10005255987E+04  0.11310510355E+04  0.90534912597E+02 0.  0.
         13    1    3    3    0    0  0.86931232114E+02  0.10338043644E+02  0.28639315805E+03  0.29947446509E+03  0.00000000000E+00 0.  1.
        -13    1    3    3    0    0  0.95058178552E+02  0.93727279174E+02  0.63586655522E+03  0.64972850962E+03  0.00000000000E+00 0. -1.
          2    1    5    5  502    0  0.23530954250E+02  0.23958452955E+03 -0.22239102001E+03  0.32773803318E+03  0.00000000000E+00 0. -1.
          1    1    6    6  503    0 -0.20151648658E+03 -0.34799896884E+03 -0.84505750420E+03  0.93586022572E+03  0.00000000000E+00 0. -1.
         -2    1    5    5    0  502  0.65625463121E+02  0.99642760624E+02 -0.15365633106E+03  0.19453958268E+03  0.00000000000E+00 0.  1.
         -1    1    6    6    0  503 -0.69629341455E+02 -0.95293644150E+02 -0.15546809454E+03  0.19519080979E+03  0.00000000000E+00 0.  1.
<mgrwt>
<rscale>  0 0.25625710E+04</rscale>
<asrwt>0</asrwt>
<pdfrwt beam="1">  1        2 0.16524757E+00 0.25625710E+04</pdfrwt>
<pdfrwt beam="2">  1       -2 0.23514191E+00 0.25625710E+04</pdfrwt>
<totfact> 0.15926849E+00</totfact>
</mgrwt>
</event>
<event>
12    1  0.4247462E-008  0.1085924E+04  0.7818608E-02  0.9219021E-01
         -2   -1    0    0    0  501 -0.00000000000E+00  0.00000000000E+00  0.27696862589E+03  0.27696862589E+03  0.00000000000E+00 0.  1.
          2   -1    0    0  501    0  0.00000000000E+00 -0.00000000000E+00 -0.10644087586E+04  0.10644087586E+04  0.00000000000E+00 0. -1.
         23    2    1    2    0    0  0.70639852137E+02  0.10645492523E+03 -0.83107202601E+02  0.17797590999E+03  0.91901999966E+02 0.  0.
        254    2    1    2    0    0 -0.70639852137E+02 -0.10645492523E+03 -0.70433293013E+03  0.11634014745E+04  0.91711257467E+03 0.  0.
         23    2    4    4    0    0 -0.29014445883E+03 -0.21362102200E+03 -0.80231620202E+03  0.88446490016E+03  0.93536749834E+02 0.  0.
         23    2    4    4    0    0  0.21950460669E+03  0.10716609676E+03  0.97983271891E+02  0.27893657435E+03  0.92401549151E+02 0.  0.
         11    1    3    3    0    0  0.36144675858E+02  0.10730038470E+03 -0.87631496446E+02  0.14317503036E+03  0.00000000000E+00 0. -1.
        -11    1    3    3    0    0  0.34495176279E+02 -0.84545947096E+00  0.45242938448E+01  0.34800879630E+02  0.00000000000E+00 0.  1.
          2    1    5    5  502    0 -0.77083716001E+02 -0.56604411199E+02 -0.12583540156E+03  0.15805222847E+03  0.00000000000E+00 0. -1.
          3    1    6    6  503    0  0.21285076043E+03  0.83906761623E+02  0.10769017628E+03  0.25286946223E+03  0.00000000000E+00 0.  1.
         -2    1    5    5    0  502 -0.21306074282E+03 -0.15701661080E+03 -0.67648080046E+03  0.72641267168E+03  0.00000000000E+00 0.  1.
         -3    1    6    6    0  503  0.66538462544E+01  0.23259335141E+02 -0.97069043876E+01  0.26067112114E+02  0.00000000000E+00 0. -1.
<mgrwt>
<rscale>  0 0.10859242E+04</rscale>
<asrwt>0</asrwt>
<pdfrwt beam="1">  1        2 0.16375519E+00 0.10859242E+04</pdfrwt>
<pdfrwt beam="2">  1       -2 0.42610558E-01 0.10859242E+04</pdfrwt>
<totfact> 0.11886505E+02</totfact>
</mgrwt>
</event>
<event>
12    1  0.4247462E-008  0.1986265E+04  0.7818608E-02  0.8613069E-01
          1   -1    0    0  501    0  0.00000000000E+00  0.00000000000E+00  0.75751509188E+03  0.75751509188E+03  0.00000000000E+00 0. -1.
         -1   -1    0    0    0  501 -0.00000000000E+00 -0.00000000000E+00 -0.13020356779E+04  0.13020356779E+04  0.00000000000E+00 0.  1.
         23    2    1    2    0    0 -0.69353917674E+03 -0.17420945001E+03 -0.53946708261E+03  0.90023701918E+03  0.89757647793E+02 0.  0.
        254    2    1    2    0    0  0.69353917674E+03  0.17420945001E+03 -0.50535033801E+01  0.11593137506E+04  0.91248962307E+03 0.  0.
         23    2    4    4    0    0  0.40840291433E+03  0.26692242826E+03 -0.41227770420E+03  0.64519834207E+03  0.90925640380E+02 0.  0.
         23    2    4    4    0    0  0.28513626240E+03 -0.92712978249E+02  0.40722420082E+03  0.51411540850E+03  0.92653758957E+02 0.  0.
         13    1    3    3    0    0 -0.52068437298E+03 -0.13354964532E+03 -0.45186352136E+03  0.70223099189E+03  0.00000000000E+00 0. -1.
        -13    1    3    3    0    0 -0.17285480376E+03 -0.40659804696E+02 -0.87603561241E+02  0.19800602729E+03  0.00000000000E+00 0.  1.
          4    1    5    5  502    0  0.33559874865E+02  0.35922582489E+02 -0.78738005123E+02  0.92824407267E+02  0.00000000000E+00 0. -1.
          3    1    6    6  503    0  0.47475645718E+01 -0.24887469588E+02  0.33913024112E+02  0.42332242042E+02  0.00000000000E+00 0. -1.
         -4    1    5    5    0  502  0.37484303947E+03  0.23099984577E+03 -0.33353969908E+03  0.55237393480E+03  0.00000000000E+00 0.  1.
         -3    1    6    6    0  503  0.28038869783E+03 -0.67825508660E+02  0.37331117671E+03  0.47178316646E+03  0.00000000000E+00 0.  1.
<mgrwt>
<rscale>  0 0.19862645E+04</rscale>
<asrwt>0</asrwt>
<pdfrwt beam="1">  1        1 0.11654078E+00 0.19862645E+04</pdfrwt>
<pdfrwt beam="2">  1       -1 0.20031318E+00 0.19862645E+04</pdfrwt>
<totfact> 0.33533425E+00</totfact>
</mgrwt>
</event>
<event>
12    1  0.4247462E-008  0.1628910E+04  0.7818608E-02  0.8802982E-01
          1   -1    0    0  501    0  0.00000000000E+00  0.00000000000E+00  0.19612696790E+04  0.19612696790E+04  0.00000000000E+00 0. -1.
         -1   -1    0    0    0  501 -0.00000000000E+00 -0.00000000000E+00 -0.33821818696E+03  0.33821818696E+03  0.00000000000E+00 0.  1.
         23    2    1    2    0    0  0.10140315615E+03  0.19458952774E+03 -0.13069900308E+03  0.27082230044E+03  0.90082210380E+02 0.  0.
        254    2    1    2    0    0 -0.10140315615E+03 -0.19458952774E+03  0.17537504951E+04  0.20286655655E+04  0.99583909000E+03 0.  0.
         23    2    4    4    0    0  0.34156837200E+03 -0.36442166223E+03  0.65972981778E+03  0.83257188353E+03  0.91980476956E+02 0.  0.
         23    2    4    4    0    0 -0.44297152814E+03  0.16983213448E+03  0.10940206773E+04  0.11960936819E+04  0.93231566355E+02 0.  0.
         11    1    3    3    0    0  0.51259678305E+01  0.19753455408E+00 -0.32153870121E+02  0.32560496463E+02  0.00000000000E+00 0. -1.
        -11    1    3    3    0    0  0.96277188316E+02  0.19439199319E+03 -0.98545132963E+02  0.23826180398E+03  0.00000000000E+00 0.  1.
          2    1    5    5  502    0  0.18660678199E+03 -0.20416466238E+03  0.28939624733E+03  0.40031923313E+03  0.00000000000E+00 0.  1.
          1    1    6    6  503    0 -0.18441749399E+03  0.46268796641E+02  0.34157049246E+03  0.39092328525E+03  0.00000000000E+00 0. -1.
         -2    1    5    5    0  502  0.15496159000E+03 -0.16025699985E+03  0.37033357045E+03  0.43225265040E+03  0.00000000000E+00 0. -1.
         -1    1    6    6    0  503 -0.25855403415E+03  0.12356333784E+03  0.75245018484E+03  0.80517039669E+03  0.00000000000E+00 0.  1.
<mgrwt>
<rscale>  0 0.16289102E+04</rscale>
<asrwt>0</asrwt>
<pdfrwt beam="1">  1        1 0.30173379E+00 0.16289102E+04</pdfrwt>
<pdfrwt beam="2">  1       -1 0.52033568E-01 0.16289102E+04</pdfrwt>
<totfact> 0.11274276E+01</totfact>
</mgrwt>
</event>
<event>
12    1  0.4247462E-008  0.1421314E+04  0.7818608E-02  0.8938534E-01
          2   -1    0    0  501    0  0.00000000000E+00  0.00000000000E+00  0.17107367767E+04  0.17107367767E+04  0.00000000000E+00 0.  1.
         -2   -1    0    0    0  501 -0.00000000000E+00 -0.00000000000E+00 -0.29521377031E+03  0.29521377031E+03  0.00000000000E+00 0. -1.
         23    2    1    2    0    0  0.30386406876E+03  0.85115014401E+02  0.86123957774E+03  0.92196280119E+03  0.93294472215E+02 0.  0.
        254    2    1    2    0    0 -0.30386406876E+03 -0.85115014401E+02  0.55428342863E+03  0.10839877458E+04  0.87648238764E+03 0.  0.
         23    2    4    4    0    0 -0.40753468533E+03 -0.23120300424E+03  0.69056932086E+03  0.83985022746E+03  0.94461996232E+02 0.  0.
         23    2    4    4    0    0  0.10367061657E+03  0.14608798984E+03 -0.13628589223E+03  0.24413751835E+03  0.94551498824E+02 0.  0.
         11    1    3    3    0    0  0.23318014568E+03  0.92167895612E+02  0.57971980773E+03  0.63161931319E+03  0.00000000000E+00 0. -1.
        -11    1    3    3    0    0  0.70683923085E+02 -0.70528812107E+01  0.28151977001E+03  0.29034348800E+03  0.00000000000E+00 0.  1.
          2    1    5    5  502    0 -0.15733560806E+03 -0.12460499814E+03  0.35613393888E+03  0.40879369069E+03  0.00000000000E+00 0. -1.
          1    1    6    6  503    0  0.82164430132E+02  0.12034064773E+03 -0.14886280946E+03  0.20830986802E+03  0.00000000000E+00 0. -1.
         -2    1    5    5    0  502 -0.25019907727E+03 -0.10659800610E+03  0.33443538198E+03  0.43105653677E+03  0.00000000000E+00 0.  1.
         -1    1    6    6    0  503  0.21506186440E+02  0.25747342107E+02  0.12576917233E+02  0.35827650326E+02  0.00000000000E+00 0.  1.
<mgrwt>
<rscale>  0 0.14213136E+04</rscale>
<asrwt>0</asrwt>
<pdfrwt beam="1">  1        2 0.26319027E+00 0.14213136E+04</pdfrwt>
<pdfrwt beam="2">  1       -2 0.45417504E-01 0.14213136E+04</pdfrwt>
<totfact> 0.43210542E+01</totfact>
</mgrwt>
</event>
<event>
12    1  0.4247462E-008  0.1710870E+04  0.7818608E-02  0.8755189E-01
          2   -1    0    0  501    0  0.00000000000E+00  0.00000000000E+00  0.14779085181E+04  0.14779085181E+04  0.00000000000E+00 0. -1.
         -2   -1    0    0    0  501 -0.00000000000E+00 -0.00000000000E+00 -0.49513805258E+03  0.49513805258E+03  0.00000000000E+00 0.  1.
         23    2    1    2    0    0 -0.36662545736E+03  0.12629280371E+03  0.90224792061E+03  0.98557491437E+03  0.83321685801E+02 0.  0.
        254    2    1    2    0    0  0.36662545736E+03 -0.12629280371E+03  0.80522544866E+02  0.98747165626E+03  0.90457298956E+03 0.  0.
         23    2    4    4    0    0  0.62352272006E+02 -0.49581829498E+02 -0.39347463248E+03  0.41194091165E+03  0.92341023640E+02 0.  0.
         23    2    4    4    0    0  0.30427318535E+03 -0.76710974209E+02  0.47399717735E+03  0.57553074461E+03  0.89975379823E+02 0.  0.
         13    1    3    3    0    0 -0.24889642703E+03  0.12257176038E+03  0.59433881032E+03  0.65590539660E+03  0.00000000000E+00 0. -1.
        -13    1    3    3    0    0 -0.11772903033E+03  0.37210433300E+01  0.30790911029E+03  0.32966951777E+03  0.00000000000E+00 0.  1.
          4    1    5    5  502    0  0.50192877001E+02 -0.70288920885E+02 -0.21252954858E+03  0.22940938586E+03  0.00000000000E+00 0. -1.
          1    1    6    6  503    0  0.17062292787E+03 -0.83672383829E+02  0.24196396679E+03  0.30766834832E+03  0.00000000000E+00 0. -1.
         -4    1    5    5    0  502  0.12159395005E+02  0.20707091387E+02 -0.18094508390E+03  0.18253152580E+03  0.00000000000E+00 0.  1.
         -1    1    6    6    0  503  0.13365025748E+03  0.69614096207E+01  0.23203321056E+03  0.26786239630E+03  0.00000000000E+00 0.  1.
<mgrwt>
<rscale>  0 0.17108697E+04</rscale>
<asrwt>0</asrwt>
<pdfrwt beam="1">  1        2 0.22737054E+00 0.17108697E+04</pdfrwt>
<pdfrwt beam="2">  1       -2 0.76175086E-01 0.17108697E+04</pdfrwt>
<totfact> 0.19159761E+01</totfact>
</mgrwt>
</event>
<event>
12    1  0.4247462E-008  0.3437454E+04  0.7818608E-02  0.8128775E-01
          2   -1    0    0  501    0  0.00000000000E+00  0.00000000000E+00  0.16265479124E+04  0.16265479124E+04  0.00000000000E+00 0. -1.
         -2   -1    0    0    0  501 -0.00000000000E+00 -0.00000000000E+00 -0.18161299565E+04  0.18161299565E+04  0.00000000000E+00 0.  1.
         23    2    1    2    0    0  0.11167771008E+04 -0.10727810907E+04  0.30765628942E+03  0.15818759163E+04  0.98125740100E+02 0.  0.
        254    2    1    2    0    0 -0.11167771008E+04  0.10727810907E+04 -0.49723833351E+03  0.18608019526E+04  0.90403959264E+03 0.  0.
         23    2    4    4    0    0 -0.34445329000E+03  0.86712252516E+03 -0.48643860031E+03  0.10562602098E+04  0.92269043350E+02 0.  0.
         23    2    4    4    0    0 -0.77232381078E+03  0.20565856554E+03 -0.10799733203E+02  0.80454174277E+03  0.91603860926E+02 0.  0.
         11    1    3    3    0    0  0.31313131378E+03 -0.25895216896E+03  0.11225000661E+03  0.42155368515E+03  0.00000000000E+00 0.  1.
        -11    1    3    3    0    0  0.80364578700E+03 -0.81382892174E+03  0.19540628281E+03  0.11603222312E+04  0.00000000000E+00 0. -1.
          2    1    5    5  502    0 -0.14720163266E+03  0.44765383767E+03 -0.28611540547E+03  0.55129330151E+03  0.00000000000E+00 0. -1.
          3    1    6    6  503    0 -0.76434021801E+03  0.21291123546E+03 -0.83643744817E+01  0.79348416859E+03  0.00000000000E+00 0. -1.
         -2    1    5    5    0  502 -0.19725165734E+03  0.41946868748E+03 -0.20032319484E+03  0.50496690832E+03  0.00000000000E+00 0.  1.
         -3    1    6    6    0  503 -0.79835927730E+01 -0.72526699164E+01 -0.24353587212E+01  0.11057574173E+02  0.00000000000E+00 0.  1.
<mgrwt>
<rscale>  0 0.34374539E+04</rscale>
<asrwt>0</asrwt>
<pdfrwt beam="1">  1        2 0.25023814E+00 0.34374539E+04</pdfrwt>
<pdfrwt beam="2">  1       -2 0.27940461E+00 0.34374539E+04</pdfrwt>
<totfact> 0.37797680E-01</totfact>
</mgrwt>
</event>
<event>
12    1  0.4247462E-008  0.1882995E+04  0.7818608E-02  0.8663367E-01
          2   -1    0    0  501    0  0.00000000000E+00  0.00000000000E+00  0.19929926491E+04  0.19929926491E+04  0.00000000000E+00 0. -1.
         -2   -1    0    0    0  501 -0.00000000000E+00 -0.00000000000E+00 -0.44476721798E+03  0.44476721798E+03  0.00000000000E+00 0.  1.
         23    2    1    2    0    0  0.32886513645E+03 -0.57120682855E+03  0.22416803487E+03  0.70239676843E+03  0.93168629307E+02 0.  0.
        254    2    1    2    0    0 -0.32886513645E+03  0.57120682855E+03  0.13240573963E+04  0.17353630987E+04  0.90770456463E+03 0.  0.
         23    2    4    4    0    0 -0.62235576740E+02  0.71524409558E+03  0.11846299910E+04  0.13879916473E+04  0.87893196205E+02 0.  0.
         23    2    4    4    0    0 -0.26662955971E+03 -0.14403726703E+03  0.13942740523E+03  0.34737145140E+03  0.96896168718E+02 0.  0.
         11    1    3    3    0    0  0.13296504236E+03 -0.19988286558E+03  0.12648607683E+03  0.27135141436E+03  0.00000000000E+00 0. -1.
        -11    1    3    3    0    0  0.19590009408E+03 -0.37132396297E+03  0.97681958044E+02  0.43104535407E+03  0.00000000000E+00 0.  1.
          2    1    5    5  502    0 -0.84672800546E+02  0.58429567746E+03  0.97335240377E+03  0.11384137314E+04  0.00000000000E+00 0.  1.
          1    1    6    6  503    0 -0.79456174526E+02 -0.30286245331E+02  0.88033863713E+02  0.12239485891E+03  0.00000000000E+00 0. -1.
         -2    1    5    5    0  502  0.22437223807E+02  0.13094841813E+03  0.21127758726E+03  0.24957791589E+03  0.00000000000E+00 0. -1.
         -1    1    6    6    0  503 -0.18717338518E+03 -0.11375102170E+03  0.51393541515E+02  0.22497659249E+03  0.00000000000E+00 0.  1.
<mgrwt>
<rscale>  0 0.18829953E+04</rscale>
<asrwt>0</asrwt>
<pdfrwt beam="1">  1        2 0.30661425E+00 0.18829953E+04</pdfrwt>
<pdfrwt beam="2">  1       -2 0.68425727E-01 0.18829953E+04</pdfrwt>
<totfact> 0.12349975E+01</totfact>
</mgrwt>
</event>
<event>
12    1  0.4247462E-008  0.3189135E+04  0.7818608E-02  0.8191693E-01
          2   -1    0    0  501    0  0.00000000000E+00  0.00000000000E+00  0.22914042960E+04  0.22914042960E+04  0.00000000000E+00 0. -1.
         -2   -1    0    0    0  501 -0.00000000000E+00 -0.00000000000E+00 -0.11096447740E+04  0.11096447740E+04  0.00000000000E+00 0.  1.
         23    2    1    2    0    0  0.70743757393E+03  0.91224127353E+03  0.15141979514E+04  0.19066008357E+04  0.98383172182E+02 0.  0.
        254    2    1    2    0    0 -0.70743757393E+03 -0.91224127353E+03 -0.33243842937E+03  0.14944482343E+04  0.88893652960E+03 0.  0.
         23    2    4    4    0    0 -0.73490529256E+03 -0.83031516593E+03 -0.55275249173E+03  0.12423357396E+04  0.91398626920E+02 0.  0.
         23    2    4    4    0    0  0.27467718637E+02 -0.81926107597E+02  0.22031406236E+03  0.25211249472E+03  0.86925607543E+02 0.  0.
         13    1    3    3    0    0  0.59436962071E+03  0.72513961656E+03  0.11781538545E+04  0.15057055537E+04  0.00000000000E+00 0. -1.
        -13    1    3    3    0    0  0.11306795322E+03  0.18710165696E+03  0.33604409695E+03  0.40089528206E+03  0.00000000000E+00 0.  1.
          2    1    5    5  502    0 -0.62491185168E+03 -0.73164774760E+03 -0.50730654001E+03  0.10877422371E+04  0.00000000000E+00 0. -1.
          3    1    6    6  503    0 -0.12978804513E+02 -0.50757519943E+02  0.17875746187E+03  0.18627669036E+03  0.00000000000E+00 0. -1.
         -2    1    5    5    0  502 -0.10999344089E+03 -0.98667418332E+02 -0.45445951714E+02  0.15459350247E+03  0.00000000000E+00 0.  1.
         -3    1    6    6    0  503  0.40446523150E+02 -0.31168587654E+02  0.41556600491E+02  0.65835804360E+02  0.00000000000E+00 0.  1.
<mgrwt>
<rscale>  0 0.31891346E+04</rscale>
<asrwt>0</asrwt>
<pdfrwt beam="1">  1        2 0.35252374E+00 0.31891346E+04</pdfrwt>
<pdfrwt beam="2">  1       -2 0.17071458E+00 0.31891346E+04</pdfrwt>
<totfact> 0.81395987E-01</totfact>
</mgrwt>
</event>
<event>
12    1  0.4247462E-008  0.1797409E+04  0.7818608E-02  0.8707679E-01
         -2   -1    0    0    0  501 -0.00000000000E+00  0.00000000000E+00  0.67461124339E+03  0.67461124339E+03  0.00000000000E+00 0.  1.
          2   -1    0    0  501    0  0.00000000000E+00 -0.00000000000E+00 -0.11972368967E+04  0.11972368967E+04  0.00000000000E+00 0. -1.
         23    2    1    2    0    0  0.20521102007E+03  0.59107478330E+03 -0.55609318226E+03  0.84197699310E+03  0.90579618722E+02 0.  0.
        254    2    1    2    0    0 -0.20521102007E+03 -0.59107478330E+03  0.33467528936E+02  0.10298711470E+04  0.81733318895E+03 0.  0.
         23    2    4    4    0    0 -0.30733413689E+03  0.46567490531E+02  0.16642203163E+03  0.36420071214E+03  0.91230823943E+02 0.  0.
         23    2    4    4    0    0  0.10212311682E+03 -0.63764227384E+03 -0.13295450270E+03  0.66567043488E+03  0.91779233604E+02 0.  0.
         11    1    3    3    0    0  0.11846663809E+03  0.39313767931E+03 -0.31012808211E+03  0.51455904088E+03  0.00000000000E+00 0. -1.
        -11    1    3    3    0    0  0.86744381978E+02  0.19793710399E+03 -0.24596510015E+03  0.32741795222E+03  0.00000000000E+00 0.  1.
          2    1    5    5  502    0 -0.23628724422E+03  0.49555010415E+02  0.84657972944E+02  0.25584044485E+03  0.00000000000E+00 0. -1.
          2    1    6    6  503    0  0.87912061944E+02 -0.31741404889E+03 -0.39141382216E+02  0.33168095644E+03  0.00000000000E+00 0. -1.
         -2    1    5    5    0  502 -0.71046892662E+02 -0.29875198842E+01  0.81764058688E+02  0.10836026728E+03  0.00000000000E+00 0.  1.
         -2    1    6    6    0  503  0.14211054875E+02 -0.32022822495E+03 -0.93813120479E+02  0.33398947844E+03  0.00000000000E+00 0.  1.
<mgrwt>
<rscale>  0 0.17974087E+04</rscale>
<asrwt>0</asrwt>
<pdfrwt beam="1">  1        2 0.18419029E+00 0.17974087E+04</pdfrwt>
<pdfrwt beam="2">  1       -2 0.10378635E+00 0.17974087E+04</pdfrwt>
<totfact> 0.13573055E+01</totfact>
</mgrwt>
</event>
<event>
12    1  0.4247462E-008  0.1683572E+04  0.7818608E-02  0.8770790E-01
          1   -1    0    0  501    0  0.00000000000E+00  0.00000000000E+00  0.12869872384E+04  0.12869872384E+04  0.00000000000E+00 0. -1.
         -1   -1    0    0    0  501 -0.00000000000E+00 -0.00000000000E+00 -0.55059074669E+03  0.55059074669E+03  0.00000000000E+00 0.  1.
         23    2    1    2    0    0  0.17934875650E+03 -0.38742100948E+03  0.71493580918E+03  0.83764637522E+03  0.90869266723E+02 0.  0.
        254    2    1    2    0    0 -0.17934875650E+03  0.38742100948E+03  0.21460682567E+02  0.99993160991E+03  0.90395887548E+03 0.  0.
         23    2    4    4    0    0 -0.67601236272E+02 -0.28195109318E+03  0.75320853686E+02  0.31318932979E+03  0.91367276420E+02 0.  0.
         23    2    4    4    0    0 -0.11174752022E+03  0.66937210266E+03 -0.53860171118E+02  0.68674228012E+03  0.90374339136E+02 0.  0.
         11    1    3    3    0    0  0.18109923253E+03 -0.31812628276E+03  0.57803408951E+03  0.68419636979E+03  0.00000000000E+00 0. -1.
        -11    1    3    3    0    0 -0.17504760311E+01 -0.69294726715E+02  0.13690171968E+03  0.15345000543E+03  0.00000000000E+00 0.  1.
          4    1    5    5  502    0 -0.14907127271E+01 -0.18526866071E+03  0.30430174977E+02  0.18775700897E+03  0.00000000000E+00 0. -1.
          1    1    6    6  503    0 -0.88686163055E+02  0.52682742218E+03 -0.48770426680E+01  0.53426225192E+03  0.00000000000E+00 0. -1.
         -4    1    5    5    0  502 -0.66110523545E+02 -0.96682432468E+02  0.44890678709E+02  0.12543232082E+03  0.00000000000E+00 0.  1.
         -1    1    6    6    0  503 -0.23061357169E+02  0.14254468048E+03 -0.48983128450E+02  0.15248002820E+03  0.00000000000E+00 0.  1.
<mgrwt>
<rscale>  0 0.16835715E+04</rscale>
<asrwt>0</asrwt>
<pdfrwt beam="1">  1        1 0.19799804E+00 0.16835715E+04</pdfrwt>
<pdfrwt beam="2">  1       -1 0.84706269E-01 0.16835715E+04</pdfrwt>
<totfact> 0.12148960E+01</totfact>
</mgrwt>
</event>
<event>
12    1  0.4247462E-008  0.1325833E+04  0.7818608E-02  0.9009327E-01
          2   -1    0    0  501    0  0.00000000000E+00  0.00000000000E+00  0.13787877129E+04  0.13787877129E+04  0.00000000000E+00 0.  1.
         -2   -1    0    0    0  501 -0.00000000000E+00 -0.00000000000E+00 -0.31872798759E+03  0.31872798759E+03  0.00000000000E+00 0. -1.
         23    2    1    2    0    0  0.16037450208E+03  0.13930471458E+03  0.64678250635E+03  0.68699004906E+03  0.92205924737E+02 0.  0.
        254    2    1    2    0    0 -0.16037450208E+03 -0.13930471458E+03  0.41327721900E+03  0.10105256515E+04  0.89735068291E+03 0.  0.
         23    2    4    4    0    0  0.31594156061E+03 -0.21626075544E+03  0.32398134885E+03  0.50905839892E+03  0.87113460763E+02 0.  0.
         23    2    4    4    0    0 -0.47631606269E+03  0.76956040866E+02  0.89295870150E+02  0.50146725255E+03  0.10342354253E+03 0.  0.
         11    1    3    3    0    0  0.10758216849E+03  0.14098592803E+03  0.46427900893E+03  0.49699693461E+03  0.00000000000E+00 0.  1.
        -11    1    3    3    0    0  0.52792333596E+02 -0.16812134549E+01  0.18250349743E+03  0.18999311445E+03  0.00000000000E+00 0. -1.
          1    1    5    5  502    0  0.24051350691E+03 -0.17022023664E+03  0.29267529051E+03  0.41530771922E+03  0.00000000000E+00 0. -1.
          3    1    6    6  503    0 -0.46861050792E+03  0.79899203331E+02  0.10212112423E+03  0.48621848467E+03  0.00000000000E+00 0. -1.
         -1    1    5    5    0  502  0.75428053696E+02 -0.46040518801E+02  0.31306058344E+02  0.93750679704E+02  0.00000000000E+00 0.  1.
         -3    1    6    6    0  503 -0.77055547732E+01 -0.29431624644E+01 -0.12825254075E+02  0.15248767876E+02  0.00000000000E+00 0.  1.
<mgrwt>
<rscale>  0 0.13258329E+04</rscale>
<asrwt>0</asrwt>
<pdfrwt beam="1">  1        2 0.21212118E+00 0.13258329E+04</pdfrwt>
<pdfrwt beam="2">  1       -2 0.49035076E-01 0.13258329E+04</pdfrwt>
<totfact> 0.57320311E+01</totfact>
</mgrwt>
</event>
<event>
12    1  0.4247462E-008  0.1408184E+04  0.7818608E-02  0.8947916E-01
          3   -1    0    0  501    0  0.00000000000E+00  0.00000000000E+00  0.22237319117E+04  0.22237319117E+04  0.00000000000E+00 0. -1.
         -3   -1    0    0    0  501 -0.00000000000E+00 -0.00000000000E+00 -0.22293399196E+03  0.22293399196E+03  0.00000000000E+00 0.  1.
         23    2    1    2    0    0  0.37061454483E+03  0.37971923649E+02  0.88101731295E+03  0.96101619596E+03  0.92539804181E+02 0.  0.
        254    2    1    2    0    0 -0.37061454483E+03 -0.37971923649E+02  0.11197806068E+04  0.14856497077E+04  0.90246852512E+03 0.  0.
         23    2    4    4    0    0 -0.41492946656E+03  0.93168346994E+02  0.12179473493E+04  0.12929977564E+04  0.87181701690E+02 0.  0.
         23    2    4    4    0    0  0.44314921730E+02 -0.13114027064E+03 -0.98166742539E+02  0.19265195134E+03  0.91194748443E+02 0.  0.
         13    1    3    3    0    0  0.28241268797E+02  0.12313522682E+02  0.28536859790E+02  0.41994576683E+02  0.00000000000E+00 0.  1.
        -13    1    3    3    0    0  0.34237327603E+03  0.25658400966E+02  0.85248045316E+03  0.91902161928E+03  0.00000000000E+00 0. -1.
          2    1    5    5  502    0 -0.23132886807E+03  0.48281894716E+02  0.54536856811E+03  0.59436610068E+03  0.00000000000E+00 0.  1.
          2    1    6    6  503    0 -0.63581691219E+01 -0.81121698851E+02 -0.89443117382E+02  0.12091826821E+03  0.00000000000E+00 0. -1.
         -2    1    5    5    0  502 -0.18360059849E+03  0.44886452279E+02  0.67257878124E+03  0.69863165570E+03  0.00000000000E+00 0. -1.
         -2    1    6    6    0  503  0.50673090852E+02 -0.50018571792E+02 -0.87236251571E+01  0.71733683137E+02  0.00000000000E+00 0.  1.
<mgrwt>
<rscale>  0 0.14081838E+04</rscale>
<asrwt>0</asrwt>
<pdfrwt beam="1">  1        3 0.34211259E+00 0.14081838E+04</pdfrwt>
<pdfrwt beam="2">  1       -3 0.34297539E-01 0.14081838E+04</pdfrwt>
<totfact> 0.49137732E-01</totfact>
</mgrwt>
</event>
<event>
12    1  0.4247462E-008  0.3479377E+04  0.7818608E-02  0.8118695E-01
          2   -1    0    0  501    0  0.00000000000E+00  0.00000000000E+00  0.20860727500E+04  0.20860727500E+04  0.00000000000E+00 0.  1.
         -2   -1    0    0    0  501 -0.00000000000E+00 -0.00000000000E+00 -0.14508197633E+04  0.14508197633E+04  0.00000000000E+00 0. -1.
         23    2    1    2    0    0 -0.41311001779E+03  0.12318209588E+04  0.12815915932E+04  0.18272683439E+04  0.91596002602E+02 0.  0.
        254    2    1    2    0    0  0.41311001779E+03 -0.12318209588E+04 -0.64633860649E+03  0.17096241694E+04  0.90389072629E+03 0.  0.
         23    2    4    4    0    0  0.76311832107E+02 -0.58242763049E+03 -0.75846499378E+03  0.96380459224E+03  0.92761547849E+02 0.  0.
         23    2    4    4    0    0  0.33679818569E+03 -0.64939332831E+03  0.11212638729E+03  0.74581957717E+03  0.92356928462E+02 0.  0.
         11    1    3    3    0    0 -0.47986944630E+02  0.13946520097E+03  0.10704968831E+03  0.18224413545E+03  0.00000000000E+00 0. -1.
        -11    1    3    3    0    0 -0.36512307316E+03  0.10923557578E+04  0.11745419049E+04  0.16450242085E+04  0.00000000000E+00 0.  1.
          2    1    5    5  502    0 -0.21340492299E+02 -0.76737657369E+02 -0.10259556808E+03  0.12988431491E+03  0.00000000000E+00 0. -1.
          3    1    6    6  503    0  0.71076311789E+02 -0.70742289229E+02  0.22779717498E+02  0.10283593298E+03  0.00000000000E+00 0. -1.
         -2    1    5    5    0  502  0.97652324406E+02 -0.50568997312E+03 -0.65586942570E+03  0.83392027733E+03  0.00000000000E+00 0.  1.
         -3    1    6    6    0  503  0.26572187390E+03 -0.57865103908E+03  0.89346669792E+02  0.64298364419E+03  0.00000000000E+00 0.  1.
<mgrwt>
<rscale>  0 0.34793767E+04</rscale>
<asrwt>0</asrwt>
<pdfrwt beam="1">  1        2 0.32093427E+00 0.34793767E+04</pdfrwt>
<pdfrwt beam="2">  1       -2 0.22320304E+00 0.34793767E+04</pdfrwt>
<totfact> 0.46450225E-01</totfact>
</mgrwt>
</event>
<event>
12    1  0.4247462E-008  0.1530265E+04  0.7818608E-02  0.8864572E-01
         -2   -1    0    0    0  501 -0.00000000000E+00  0.00000000000E+00  0.51937240350E+03  0.51937240350E+03  0.00000000000E+00 0.  1.
          2   -1    0    0  501    0  0.00000000000E+00 -0.00000000000E+00 -0.11271836829E+04  0.11271836829E+04  0.00000000000E+00 0. -1.
         23    2    1    2    0    0  0.37102333363E+03 -0.29884635019E+02  0.14567141967E+03  0.41030559195E+03  0.92623489268E+02 0.  0.
        254    2    1    2    0    0 -0.37102333363E+03  0.29884635019E+02 -0.75348269905E+03  0.12362504944E+04  0.90665743348E+03 0.  0.
         23    2    4    4    0    0 -0.20425264308E+03 -0.55021861935E+02 -0.93273423653E+03  0.96069532784E+03  0.90530709935E+02 0.  0.
         23    2    4    4    0    0 -0.16677069055E+03  0.84906496954E+02  0.17925153748E+03  0.27555516658E+03  0.93690766296E+02 0.  0.
         11    1    3    3    0    0  0.16635599847E+03 -0.17414609309E+02  0.11498388083E+03  0.20297507161E+03  0.00000000000E+00 0. -1.
        -11    1    3    3    0    0  0.20466733516E+03 -0.12470025709E+02  0.30687538846E+02  0.20733052034E+03  0.00000000000E+00 0.  1.
          1    1    5    5  502    0 -0.95697881491E+02  0.20192865503E+02 -0.41781014322E+03  0.42910505954E+03  0.00000000000E+00 0. -1.
          3    1    6    6  503    0 -0.13421823905E+03  0.97466756195E+02  0.17378040879E+03  0.24023724677E+03  0.00000000000E+00 0. -1.
         -1    1    5    5    0  502 -0.10855476159E+03 -0.75214727438E+02 -0.51492409331E+03  0.53159026831E+03  0.00000000000E+00 0.  1.
         -3    1    6    6    0  503 -0.32552451497E+02 -0.12560259241E+02  0.54711286944E+01  0.35317919812E+02  0.00000000000E+00 0.  1.
<mgrwt>
<rscale>  0 0.15302655E+04</rscale>
<asrwt>0</asrwt>
<pdfrwt beam="1">  1        2 0.17341287E+00 0.15302655E+04</pdfrwt>
<pdfrwt beam="2">  1       -2 0.79903447E-01 0.15302655E+04</pdfrwt>
<totfact> 0.28015417E+01</totfact>
</mgrwt>
</event>
<event>
12    1  0.4247462E-008  0.1414224E+04  0.7818608E-02  0.8943587E-01
         -2   -1    0    0    0  501 -0.00000000000E+00  0.00000000000E+00  0.45035853543E+03  0.45035853543E+03  0.00000000000E+00 0.  1.
          2   -1    0    0  501    0  0.00000000000E+00 -0.00000000000E+00 -0.11102422656E+04  0.11102422656E+04  0.00000000000E+00 0. -1.
         23    2    1    2    0    0 -0.37247443772E+02  0.26331530390E+03  0.14861945776E+03  0.31813969216E+03  0.91666783359E+02 0.  0.
        254    2    1    2    0    0  0.37247443772E+02 -0.26331530390E+03 -0.80850318789E+03  0.12424611088E+04  0.90515737901E+03 0.  0.
         23    2    4    4    0    0 -0.38988219075E+03  0.51405246888E+02 -0.37269258333E+03  0.54971713693E+03  0.92943783508E+02 0.  0.
         23    2    4    4    0    0  0.42712963452E+03 -0.31472055078E+03 -0.43581060456E+03  0.69274397189E+03  0.92057469946E+02 0.  0.
         13    1    3    3    0    0 -0.17934574350E+02  0.18057581524E+03  0.50527590180E+02  0.18836749023E+03  0.00000000000E+00 0. -1.
        -13    1    3    3    0    0 -0.19312869423E+02  0.82739488654E+02  0.98091867584E+02  0.12977220193E+03  0.00000000000E+00 0.  1.
          2    1    5    5  502    0 -0.27662587866E+03  0.64050296605E+02 -0.22006899476E+03  0.35924181229E+03  0.00000000000E+00 0. -1.
          4    1    6    6  503    0  0.40612502157E+03 -0.31927210544E+03 -0.42331710394E+03  0.66788440687E+03  0.00000000000E+00 0. -1.
         -2    1    5    5    0  502 -0.11325631209E+03 -0.12645049717E+02 -0.15262358857E+03  0.19047532464E+03  0.00000000000E+00 0.  1.
         -4    1    6    6    0  503  0.21004612955E+02  0.45515546569E+01 -0.12493500617E+02  0.24859565018E+02  0.00000000000E+00 0.  1.
<mgrwt>
<rscale>  0 0.14142236E+04</rscale>
<asrwt>0</asrwt>
<pdfrwt beam="1">  1        2 0.17080650E+00 0.14142236E+04</pdfrwt>
<pdfrwt beam="2">  1       -2 0.69285928E-01 0.14142236E+04</pdfrwt>
<totfact> 0.39693292E+01</totfact>
</mgrwt>
</event>
<event>
12    1  0.4247462E-008  0.1468428E+04  0.7818608E-02  0.8905724E-01
         -2   -1    0    0    0  501 -0.00000000000E+00  0.00000000000E+00  0.25157147487E+03  0.25157147487E+03  0.00000000000E+00 0.  1.
          2   -1    0    0  501    0  0.00000000000E+00 -0.00000000000E+00 -0.21428107560E+04  0.21428107560E+04  0.00000000000E+00 0. -1.
         23    2    1    2    0    0  0.30106784998E+03  0.37190093661E+03 -0.49476591841E+03  0.69401958003E+03  0.88981495279E+02 0.  0.
        254    2    1    2    0    0 -0.30106784998E+03 -0.37190093661E+03 -0.13964733627E+04  0.17003626508E+04  0.84388573551E+03 0.  0.
         23    2    4    4    0    0  0.27294414418E+03 -0.12326535821E+03 -0.29206175463E+03  0.42775831807E+03  0.89354662934E+02 0.  0.
         23    2    4    4    0    0 -0.57401199416E+03 -0.24863557841E+03 -0.11044116081E+04  0.12726043327E+04  0.92126909117E+02 0.  0.
         11    1    3    3    0    0  0.15989343177E+03  0.25435684988E+03 -0.27196012744E+03  0.40524761260E+03  0.00000000000E+00 0.  1.
        -11    1    3    3    0    0  0.14117441821E+03  0.11754408674E+03 -0.22280579097E+03  0.28877196743E+03  0.00000000000E+00 0. -1.
          4    1    5    5  502    0  0.36565789460E+02  0.13271428398E+02 -0.27712993468E+02  0.47761886243E+02  0.00000000000E+00 0. -1.
          3    1    6    6  503    0 -0.15119759881E+02 -0.20271085948E+02 -0.23569731662E+02  0.34569586561E+02  0.00000000000E+00 0. -1.
         -4    1    5    5    0  502  0.23637835472E+03 -0.13653678661E+03 -0.26434876116E+03  0.37999643183E+03  0.00000000000E+00 0.  1.
         -3    1    6    6    0  503 -0.55889223428E+03 -0.22836449246E+03 -0.10808418764E+04  0.12380347462E+04  0.00000000000E+00 0.  1.
<mgrwt>
<rscale>  0 0.14684278E+04</rscale>
<asrwt>0</asrwt>
<pdfrwt beam="1">  1        2 0.32966319E+00 0.14684278E+04</pdfrwt>
<pdfrwt beam="2">  1       -2 0.38703305E-01 0.14684278E+04</pdfrwt>
<totfact> 0.34000058E+01</totfact>
</mgrwt>
</event>
<event>
12    1  0.4247462E-008  0.5510017E+04  0.7818608E-02  0.7754312E-01
          2   -1    0    0  501    0  0.00000000000E+00  0.00000000000E+00  0.18226847885E+04  0.18226847885E+04  0.00000000000E+00 0. -1.
         -2   -1    0    0    0  501 -0.00000000000E+00 -0.00000000000E+00 -0.41642255983E+04  0.41642255983E+04  0.00000000000E+00 0.  1.
         23    2    1    2    0    0  0.19913008384E+04 -0.51349611582E+03  0.72769497453E+03  0.21836718934E+04  0.99627666527E+02 0.  0.
        254    2    1    2    0    0 -0.19913008384E+04  0.51349611582E+03 -0.30692357844E+04  0.38032384934E+04  0.90302682562E+03 0.  0.
         23    2    4    4    0    0 -0.18542877746E+04  0.30449281150E+03 -0.22030895627E+04  0.28970862135E+04  0.91683605541E+02 0.  0.
         23    2    4    4    0    0 -0.13701306380E+03  0.20900330432E+03 -0.86614622163E+03  0.90615227995E+03  0.91911459219E+02 0.  0.
         11    1    3    3    0    0  0.17724336956E+04 -0.47138073387E+03  0.61890396329E+03  0.19356557331E+04  0.00000000000E+00 0. -1.
        -11    1    3    3    0    0  0.21886714288E+03 -0.42115381950E+02  0.10879101124E+03  0.24801616027E+03  0.00000000000E+00 0.  1.
          1    1    6    6  502    0 -0.45872665972E+02  0.10297889689E+02 -0.17888228448E+03  0.18495734567E+03  0.00000000000E+00 0. -1.
          1    1    5    5  503    0 -0.37260407332E+03  0.53176999784E+02 -0.38752767332E+03  0.54022151600E+03  0.00000000000E+00 0. -1.
         -1    1    5    5    0  503 -0.14816837013E+04  0.25131581172E+03 -0.18155618894E+04  0.23568646975E+04  0.00000000000E+00 0.  1.
         -1    1    6    6    0  502 -0.91140397824E+02  0.19870541463E+03 -0.68726393715E+03  0.72119493428E+03  0.00000000000E+00 0.  1.
<mgrwt>
<rscale>  0 0.55100166E+04</rscale>
<asrwt>0</asrwt>
<pdfrwt beam="1">  1        2 0.28041305E+00 0.55100166E+04</pdfrwt>
<pdfrwt beam="2">  1       -2 0.64065008E+00 0.55100166E+04</pdfrwt>
<totfact> 0.21519900E-03</totfact>
</mgrwt>
</event>
<event>
12    1  0.4247462E-008  0.1059715E+04  0.7818608E-02  0.9245371E-01
         -2   -1    0    0    0  501 -0.00000000000E+00  0.00000000000E+00  0.22249458403E+03  0.22249458403E+03  0.00000000000E+00 0.  1.
          2   -1    0    0  501    0  0.00000000000E+00 -0.00000000000E+00 -0.12618234954E+04  0.12618234954E+04  0.00000000000E+00 0. -1.
         23    2    1    2    0    0 -0.39316802397E+02 -0.28893422574E+02 -0.30786824874E+03  0.32429572335E+03  0.89466288548E+02 0.  0.
        254    2    1    2    0    0  0.39316802397E+02  0.28893422574E+02 -0.73146066266E+03  0.11600223561E+04  0.89901975774E+03 0.  0.
         23    2    4    4    0    0 -0.32464998305E+02 -0.40392426190E+03 -0.51777124896E+03  0.66362603555E+03  0.90020349559E+02 0.  0.
         23    2    4    4    0    0  0.71781800702E+02  0.43281768448E+03 -0.21368941370E+03  0.49639632055E+03  0.90897561121E+02 0.  0.
         13    1    3    3    0    0  0.12477297272E+02 -0.18559907681E+02 -0.22446508871E+03  0.22557643753E+03  0.00000000000E+00 0.  1.
        -13    1    3    3    0    0 -0.51794099670E+02 -0.10333514893E+02 -0.83403160029E+02  0.98719285823E+02  0.00000000000E+00 0. -1.
          2    1    5    5  502    0 -0.26337152670E+01 -0.16734534910E+03 -0.28430765001E+03  0.32991247654E+03  0.00000000000E+00 0. -1.
          1    1    6    6  503    0  0.70434227461E+02  0.26119598162E+03 -0.90982501292E+02  0.28541572618E+03  0.00000000000E+00 0. -1.
         -2    1    5    5    0  502 -0.29831283038E+02 -0.23657891280E+03 -0.23346359895E+03  0.33371355901E+03  0.00000000000E+00 0.  1.
         -1    1    6    6    0  503  0.13475732413E+01  0.17162170286E+03 -0.12270691241E+03  0.21098059436E+03  0.00000000000E+00 0.  1.
<mgrwt>
<rscale>  0 0.10597149E+04</rscale>
<asrwt>0</asrwt>
<pdfrwt beam="1">  1        2 0.19412669E+00 0.10597149E+04</pdfrwt>
<pdfrwt beam="2">  1       -2 0.34229936E-01 0.10597149E+04</pdfrwt>
<totfact> 0.13831095E+02</totfact>
</mgrwt>
</event>
<event>
12    1  0.4247462E-008  0.1060555E+04  0.7818608E-02  0.9244514E-01
          2   -1    0    0  501    0  0.00000000000E+00  0.00000000000E+00  0.49867201006E+03  0.49867201006E+03  0.00000000000E+00 0. -1.
         -2   -1    0    0    0  501 -0.00000000000E+00 -0.00000000000E+00 -0.56388580722E+03  0.56388580722E+03  0.00000000000E+00 0.  1.
         23    2    1    2    0    0 -0.48348402002E+02 -0.44387041934E+02 -0.12143900123E+03  0.16562498042E+03  0.91522814920E+02 0.  0.
        254    2    1    2    0    0  0.48348402002E+02  0.44387041934E+02  0.56225204078E+02  0.89693283686E+03  0.89275946526E+03 0.  0.
         23    2    4    4    0    0  0.30481704022E+03  0.14317029902E+03 -0.28412668791E+03  0.45019517649E+03  0.92393504218E+02 0.  0.
         23    2    4    4    0    0 -0.25646863822E+03 -0.98783257082E+02  0.34035189198E+03  0.44673766038E+03  0.90558448263E+02 0.  0.
         11    1    3    3    0    0 -0.19198280725E+02 -0.35601533117E+02 -0.20910364853E-01  0.40448035556E+02  0.00000000000E+00 0. -1.
        -11    1    3    3    0    0 -0.29150121278E+02 -0.87855088169E+01 -0.12141809087E+03  0.12517694486E+03  0.00000000000E+00 0.  1.
          2    1    5    5  502    0 -0.25696638143E+01  0.10125926483E+02 -0.23765115717E+02  0.25959936138E+02  0.00000000000E+00 0. -1.
          3    1    6    6  503    0  0.33982064167E+01  0.36915060210E+01  0.24814194900E+02  0.25316383866E+02  0.00000000000E+00 0. -1.
         -2    1    5    5    0  502  0.30738670404E+03  0.13304437253E+03 -0.26036157219E+03  0.42423524035E+03  0.00000000000E+00 0.  1.
         -3    1    6    6    0  503 -0.25986684464E+03 -0.10247476310E+03  0.31553769708E+03  0.42142127651E+03  0.00000000000E+00 0.  1.
<mgrwt>
<rscale>  0 0.10605547E+04</rscale>
<asrwt>0</asrwt>
<pdfrwt beam="1">  1        2 0.76718771E-01 0.10605547E+04</pdfrwt>
<pdfrwt beam="2">  1       -2 0.86751663E-01 0.10605547E+04</pdfrwt>
<totfact> 0.70733582E+01</totfact>
</mgrwt>
</event>
<event>
12    1  0.4247462E-008  0.1540184E+04  0.7818608E-02  0.8858162E-01
          2   -1    0    0  501    0  0.00000000000E+00  0.00000000000E+00  0.33228931284E+04  0.33228931284E+04  0.00000000000E+00 0. -1.
         -2   -1    0    0    0  501 -0.00000000000E+00 -0.00000000000E+00 -0.17847157224E+03  0.17847157224E+03  0.00000000000E+00 0.  1.
         23    2    1    2    0    0 -0.25296719966E+02  0.61640710767E+02 -0.87411704220E+02  0.14432449609E+03  0.93537441011E+02 0.  0.
        254    2    1    2    0    0  0.25296719966E+02 -0.61640710767E+02  0.32318332603E+04  0.33570402045E+04  0.90583288239E+03 0.  0.
         23    2    4    4    0    0  0.19358097613E+03 -0.32440651565E+03  0.67255774379E+03  0.77706601883E+03  0.93725648413E+02 0.  0.
         23    2    4    4    0    0 -0.16828425616E+03  0.26276580489E+03  0.25592755166E+04  0.25799741857E+04  0.94921915742E+02 0.  0.
         11    1    3    3    0    0 -0.59074798479E+02  0.43185191895E+02 -0.72604586786E+02  0.10308355173E+03  0.00000000000E+00 0.  1.
        -11    1    3    3    0    0  0.33778078513E+02  0.18455518872E+02 -0.14807117434E+02  0.41240944358E+02  0.00000000000E+00 0. -1.
          2    1    5    5  502    0  0.65794088681E+02 -0.56465604352E+02  0.10173443618E+03  0.13366795459E+03  0.00000000000E+00 0. -1.
          3    1    6    6  503    0 -0.97268440826E+02  0.67615281318E+02  0.94392062714E+03  0.95132493197E+03  0.00000000000E+00 0. -1.
         -2    1    5    5    0  502  0.12778688745E+03 -0.26794091130E+03  0.57082330761E+03  0.64339806424E+03  0.00000000000E+00 0.  1.
         -3    1    6    6    0  503 -0.71015815337E+02  0.19515052357E+03  0.16153548894E+04  0.16286492537E+04  0.00000000000E+00 0.  1.
<mgrwt>
<rscale>  0 0.15401844E+04</rscale>
<asrwt>0</asrwt>
<pdfrwt beam="1">  1        2 0.51121428E+00 0.15401844E+04</pdfrwt>
<pdfrwt beam="2">  1       -2 0.27457167E-01 0.15401844E+04</pdfrwt>
<totfact> 0.12651776E+01</totfact>
</mgrwt>
</event>
<event>
12    1  0.4247462E-008  0.1309797E+04  0.7818608E-02  0.9021832E-01
          1   -1    0    0  501    0  0.00000000000E+00  0.00000000000E+00  0.15752573623E+04  0.15752573623E+04  0.00000000000E+00 0. -1.
         -1   -1    0    0    0  501 -0.00000000000E+00 -0.00000000000E+00 -0.27226783020E+03  0.27226783020E+03  0.00000000000E+00 0.  1.
         23    2    1    2    0    0  0.19778089295E+03 -0.26568176466E+03  0.14157353220E+03  0.37147984314E+03  0.90830210587E+02 0.  0.
        254    2    1    2    0    0 -0.19778089295E+03  0.26568176466E+03  0.11614159999E+04  0.14760453493E+04  0.84859805964E+03 0.  0.
         23    2    4    4    0    0 -0.33825967044E+03  0.42196341394E+03  0.39365326848E+03  0.67459897712E+03  0.87453740916E+02 0.  0.
         23    2    4    4    0    0  0.14047877749E+03 -0.15628164928E+03  0.76776273138E+03  0.80144637220E+03  0.93265400765E+02 0.  0.
         13    1    3    3    0    0  0.19599635943E+03 -0.20895307515E+03  0.11341140649E+03  0.30812028113E+03  0.00000000000E+00 0.  1.
        -13    1    3    3    0    0  0.17845335151E+01 -0.56728689510E+02  0.28162125710E+02  0.63359562008E+02  0.00000000000E+00 0. -1.
          2    1    5    5  502    0 -0.88050672136E+02  0.10828071547E+03  0.15130133658E+03  0.20583908437E+03  0.00000000000E+00 0. -1.
          4    1    6    6  503    0  0.81664871780E+02 -0.47429861765E+02  0.46287673403E+03  0.47241254638E+03  0.00000000000E+00 0.  1.
         -2    1    5    5    0  502 -0.25020899830E+03  0.31368269847E+03  0.24235193190E+03  0.46875989274E+03  0.00000000000E+00 0.  1.
         -4    1    6    6    0  503  0.58813905708E+02 -0.10885178752E+03  0.30488599735E+03  0.32903382582E+03  0.00000000000E+00 0. -1.
<mgrwt>
<rscale>  0 0.13097968E+04</rscale>
<asrwt>0</asrwt>
<pdfrwt beam="1">  1        1 0.24234728E+00 0.13097968E+04</pdfrwt>
<pdfrwt beam="2">  1       -1 0.41887359E-01 0.13097968E+04</pdfrwt>
<totfact> 0.31878927E+01</totfact>
</mgrwt>
</event>
<event>
12    1  0.4247462E-008  0.1204769E+04  0.7818608E-02  0.9108693E-01
         -2   -1    0    0    0  501 -0.00000000000E+00  0.00000000000E+00  0.65918532603E+03  0.65918532603E+03  0.00000000000E+00 0.  1.
          2   -1    0    0  501    0  0.00000000000E+00 -0.00000000000E+00 -0.55047772501E+03  0.55047772501E+03  0.00000000000E+00 0. -1.
         23    2    1    2    0    0 -0.13521263765E+03  0.13560970857E+03 -0.15983441925E+03  0.26569661999E+03  0.91516128962E+02 0.  0.
        254    2    1    2    0    0  0.13521263765E+03 -0.13560970857E+03  0.26854202027E+03  0.94396643105E+03  0.88446896829E+03 0.  0.
         23    2    4    4    0    0 -0.17156890249E+03 -0.31747634878E+03 -0.13719375602E+03  0.39668564303E+03  0.91160585560E+02 0.  0.
         23    2    4    4    0    0  0.30678154015E+03  0.18186664021E+03  0.40573577629E+03  0.54728078802E+03  0.87774441474E+02 0.  0.
         13    1    3    3    0    0 -0.46217453251E+02  0.16578639989E+02 -0.23518504694E+01  0.49157252664E+02  0.00000000000E+00 0.  1.
        -13    1    3    3    0    0 -0.88995184400E+02  0.11903106858E+03 -0.15748256878E+03  0.21653936733E+03  0.00000000000E+00 0. -1.
          3    1    6    6  502    0  0.27776391651E+02  0.86090046905E+01  0.55868703513E+01  0.29611754680E+02  0.00000000000E+00 0. -1.
          3    1    5    5  503    0  0.68206219419E+01 -0.31308931823E+02 -0.27059959384E+02  0.41940571020E+02  0.00000000000E+00 0. -1.
         -3    1    5    5    0  503 -0.17838952444E+03 -0.28616741696E+03 -0.11013379664E+03  0.35474507201E+03  0.00000000000E+00 0.  1.
         -3    1    6    6    0  502  0.27900514849E+03  0.17325763552E+03  0.40014890594E+03  0.51766903334E+03  0.00000000000E+00 0.  1.
<mgrwt>
<rscale>  0 0.12047686E+04</rscale>
<asrwt>0</asrwt>
<pdfrwt beam="1">  1        2 0.84688881E-01 0.12047686E+04</pdfrwt>
<pdfrwt beam="2">  1       -2 0.10141313E+00 0.12047686E+04</pdfrwt>
<totfact> 0.43346935E+01</totfact>
</mgrwt>
</event>
<event>
12    1  0.4247462E-008  0.2591094E+04  0.7818608E-02  0.8371233E-01
          2   -1    0    0  501    0  0.00000000000E+00  0.00000000000E+00  0.18146865642E+04  0.18146865642E+04  0.00000000000E+00 0.  1.
         -2   -1    0    0    0  501 -0.00000000000E+00 -0.00000000000E+00 -0.92492133265E+03  0.92492133265E+03  0.00000000000E+00 0. -1.
         23    2    1    2    0    0  0.91926158352E+03 -0.11437680992E+03 -0.29849563918E+03  0.97746580536E+03  0.90641273485E+02 0.  0.
        254    2    1    2    0    0 -0.91926158352E+03  0.11437680992E+03  0.11882608708E+04  0.17621420915E+04  0.91381449984E+03 0.  0.
         23    2    4    4    0    0 -0.82551661348E+03  0.27468337561E+03  0.42773702554E+03  0.97393565822E+03  0.93075600289E+02 0.  0.
         23    2    4    4    0    0 -0.93744970043E+02 -0.16030656569E+03  0.76052384522E+03  0.78820643330E+03  0.91578097428E+02 0.  0.
         13    1    3    3    0    0  0.47090697842E+03 -0.55878273868E+02 -0.10527100475E+03  0.48575482319E+03  0.00000000000E+00 0.  1.
        -13    1    3    3    0    0  0.44835460510E+03 -0.58498536054E+02 -0.19322463443E+03  0.49171098217E+03  0.00000000000E+00 0. -1.
          2    1    5    5  502    0 -0.31764134862E+03  0.58614944280E+02  0.15288029160E+03  0.35735713454E+03  0.00000000000E+00 0. -1.
          1    1    6    6  503    0 -0.61913004448E+01  0.10761088200E+02  0.84209315986E+02  0.85119575418E+02  0.00000000000E+00 0. -1.
         -2    1    5    5    0  502 -0.50787526485E+03  0.21606843133E+03  0.27485673394E+03  0.61657852368E+03  0.00000000000E+00 0.  1.
         -1    1    6    6    0  503 -0.87553669598E+02 -0.17106765389E+03  0.67631452923E+03  0.70308685788E+03  0.00000000000E+00 0.  1.
<mgrwt>
<rscale>  0 0.25910942E+04</rscale>
<asrwt>0</asrwt>
<pdfrwt beam="1">  1        2 0.27918255E+00 0.25910942E+04</pdfrwt>
<pdfrwt beam="2">  1       -2 0.14229559E+00 0.25910942E+04</pdfrwt>
<totfact> 0.25808983E+00</totfact>
</mgrwt>
</event>
<event>
12    1  0.4247462E-008  0.1130686E+04  0.7818608E-02  0.9175788E-01
          2   -1    0    0  501    0  0.00000000000E+00  0.00000000000E+00  0.13554260624E+04  0.13554260624E+04  0.00000000000E+00 0.  1.
         -2   -1    0    0    0  501 -0.00000000000E+00 -0.00000000000E+00 -0.23580255839E+03  0.23580255839E+03  0.00000000000E+00 0. -1.
         23    2    1    2    0    0  0.39122835546E+02 -0.11008468484E+03 -0.18129384896E+02  0.14927381289E+03  0.91130469773E+02 0.  0.
        254    2    1    2    0    0 -0.39122835546E+02  0.11008468484E+03  0.11377528889E+04  0.14419548079E+04  0.87812459120E+03 0.  0.
         23    2    4    4    0    0 -0.78845437866E+02  0.48037575981E+03  0.56166837676E+03  0.74893050858E+03  0.91913369749E+02 0.  0.
         23    2    4    4    0    0  0.39722602320E+02 -0.37029107496E+03  0.57608451211E+03  0.69302429928E+03  0.98569513403E+02 0.  0.
         11    1    3    3    0    0  0.41909385257E+02 -0.12479730827E+03 -0.22761404613E+02  0.13359957434E+03  0.00000000000E+00 0. -1.
        -11    1    3    3    0    0 -0.27865497114E+01  0.14712623430E+02  0.46320197167E+01  0.15674238550E+02  0.00000000000E+00 0.  1.
          2    1    5    5  502    0 -0.25966904440E+02  0.17870167147E+03  0.14379674105E+03  0.23083775741E+03  0.00000000000E+00 0. -1.
          3    1    6    6  503    0  0.24129045703E+02 -0.20379860722E+03  0.40364654286E+03  0.45282073132E+03  0.00000000000E+00 0. -1.
         -2    1    5    5    0  502 -0.52878533426E+02  0.30167408834E+03  0.41787163572E+03  0.51809275116E+03  0.00000000000E+00 0.  1.
         -3    1    6    6    0  503  0.15593556618E+02 -0.16649246774E+03  0.17243796925E+03  0.24020356796E+03  0.00000000000E+00 0.  1.
<mgrwt>
<rscale>  0 0.11306864E+04</rscale>
<asrwt>0</asrwt>
<pdfrwt beam="1">  1        2 0.20852708E+00 0.11306864E+04</pdfrwt>
<pdfrwt beam="2">  1       -2 0.36277317E-01 0.11306864E+04</pdfrwt>
<totfact> 0.10869772E+02</totfact>
</mgrwt>
</event>
<event>
12    1  0.4247462E-008  0.1553121E+04  0.7818608E-02  0.8849877E-01
          1   -1    0    0  501    0  0.00000000000E+00  0.00000000000E+00  0.60368474923E+03  0.60368474923E+03  0.00000000000E+00 0. -1.
         -1   -1    0    0    0  501 -0.00000000000E+00 -0.00000000000E+00 -0.99894199305E+03  0.99894199305E+03  0.00000000000E+00 0.  1.
         23    2    1    2    0    0 -0.31177943823E+03 -0.38829957315E+03  0.29154414031E+01  0.50618572895E+03  0.90733212108E+02 0.  0.
        254    2    1    2    0    0  0.31177943823E+03  0.38829957315E+03 -0.39817268522E+03  0.10964410133E+04  0.89199687882E+03 0.  0.
         23    2    4    4    0    0 -0.42411271317E+02 -0.23264986555E+03  0.34621803489E+02  0.25592039055E+03  0.91498093685E+02 0.  0.
         23    2    4    4    0    0  0.35419070955E+03  0.62094943870E+03 -0.43279448871E+03  0.84052062277E+03  0.90191927018E+02 0.  0.
         13    1    3    3    0    0 -0.10956521751E+02 -0.58122114414E+02 -0.58341896891E+01  0.59432847165E+02  0.00000000000E+00 0.  1.
        -13    1    3    3    0    0 -0.30082291648E+03 -0.33017745874E+03  0.87496310922E+01  0.44675288178E+03  0.00000000000E+00 0. -1.
          2    1    5    5  502    0 -0.22035114398E+02 -0.14231603647E+03 -0.24460790178E+02  0.14607440145E+03  0.00000000000E+00 0. -1.
          1    1    6    6  503    0  0.29385337417E+03  0.43589300281E+03 -0.32444124119E+03  0.61774965349E+03  0.00000000000E+00 0.  1.
         -2    1    5    5    0  502 -0.20376156919E+02 -0.90333829076E+02  0.59082593666E+02  0.10984598910E+03  0.00000000000E+00 0.  1.
         -1    1    6    6    0  503  0.60337335380E+02  0.18505643590E+03 -0.10835324752E+03  0.22277096928E+03  0.00000000000E+00 0. -1.
<mgrwt>
<rscale>  0 0.15531208E+04</rscale>
<asrwt>0</asrwt>
<pdfrwt beam="1">  1        1 0.92874578E-01 0.15531208E+04</pdfrwt>
<pdfrwt beam="2">  1       -1 0.15368338E+00 0.15531208E+04</pdfrwt>
<totfact> 0.10681179E+01</totfact>
</mgrwt>
</event>
<event>
12    1  0.4247462E-008  0.1451682E+04  0.7818608E-02  0.8917235E-01
         -1   -1    0    0    0  501 -0.00000000000E+00  0.00000000000E+00  0.25253103723E+03  0.25253103723E+03  0.00000000000E+00 0.  1.
          1   -1    0    0  501    0  0.00000000000E+00 -0.00000000000E+00 -0.20862604221E+04  0.20862604221E+04  0.00000000000E+00 0. -1.
         23    2    1    2    0    0  0.39399427785E+03 -0.16511853531E+03 -0.38910383124E+03  0.58536907559E+03  0.93592422159E+02 0.  0.
        254    2    1    2    0    0 -0.39399427785E+03  0.16511853531E+03 -0.14446255537E+04  0.17534223838E+04  0.89724659038E+03 0.  0.
         23    2    4    4    0    0 -0.15119768340E+03 -0.23372677643E+03 -0.73415529292E+02  0.30205670365E+03  0.91430119714E+02 0.  0.
         23    2    4    4    0    0 -0.24279659445E+03  0.39884531173E+03 -0.13712100244E+04  0.14513656801E+04  0.90651186184E+02 0.  0.
         11    1    3    3    0    0  0.17388714940E+03 -0.90871167616E+02 -0.12048492533E+03  0.23024101951E+03  0.00000000000E+00 0. -1.
        -11    1    3    3    0    0  0.22010712845E+03 -0.74247367691E+02 -0.26861890591E+03  0.35512805608E+03  0.00000000000E+00 0.  1.
          1    1    6    6  502    0 -0.24884940611E+03  0.38849563428E+03 -0.13535656290E+04  0.14300331453E+04  0.00000000000E+00 0. -1.
          1    1    5    5  503    0 -0.15198760171E+03 -0.23008483588E+03 -0.86063984112E+02  0.28887068411E+03  0.00000000000E+00 0. -1.
         -1    1    5    5    0  503  0.78991830793E+00 -0.36419405443E+01  0.12648454820E+02  0.13186019536E+02  0.00000000000E+00 0.  1.
         -1    1    6    6    0  502  0.60528116635E+01  0.10349677451E+02 -0.17644395386E+02  0.21332534798E+02  0.00000000000E+00 0.  1.
<mgrwt>
<rscale>  0 0.14516825E+04</rscale>
<asrwt>0</asrwt>
<pdfrwt beam="1">  1        1 0.32096316E+00 0.14516825E+04</pdfrwt>
<pdfrwt beam="2">  1       -1 0.38850927E-01 0.14516825E+04</pdfrwt>
<totfact> 0.16261843E+01</totfact>
</mgrwt>
</event>
<event>
12    1  0.4247462E-008  0.1288835E+04  0.7818608E-02  0.9038466E-01
         -1   -1    0    0    0  501 -0.00000000000E+00  0.00000000000E+00  0.16957478909E+03  0.16957478909E+03  0.00000000000E+00 0.  1.
          1   -1    0    0  501    0  0.00000000000E+00 -0.00000000000E+00 -0.24489141009E+04  0.24489141009E+04  0.00000000000E+00 0. -1.
         23    2    1    2    0    0 -0.52593928917E+02  0.23045866511E+03 -0.15050472399E+03  0.29512663532E+03  0.92578297934E+02 0.  0.
        254    2    1    2    0    0  0.52593928917E+02 -0.23045866511E+03 -0.21288345879E+04  0.23233622547E+04  0.90011007460E+03 0.  0.
         23    2    4    4    0    0 -0.10040048232E+02  0.33458665471E+03 -0.65471057384E+03  0.74085189571E+03  0.90369042282E+02 0.  0.
         23    2    4    4    0    0  0.62633977149E+02 -0.56504531982E+03 -0.14741240140E+04  0.15825103590E+04  0.89989994134E+02 0.  0.
         11    1    3    3    0    0 -0.32563663857E+02  0.22982904952E+03 -0.12832371356E+03  0.26523340602E+03  0.00000000000E+00 0.  1.
        -11    1    3    3    0    0 -0.20030265061E+02  0.62961558966E+00 -0.22181010431E+02  0.29893229299E+02  0.00000000000E+00 0. -1.
          2    1    6    6  502    0  0.75084926191E+02 -0.43156277404E+03 -0.10502386584E+04  0.11379303202E+04  0.00000000000E+00 0. -1.
          2    1    5    5  503    0  0.34518921163E+02  0.21229185976E+03 -0.37402314366E+03  0.43145417095E+03  0.00000000000E+00 0.  1.
         -2    1    5    5    0  503 -0.44558969395E+02  0.12229479495E+03 -0.28068743019E+03  0.30939772477E+03  0.00000000000E+00 0. -1.
         -2    1    6    6    0  502 -0.12450949042E+02 -0.13348254578E+03 -0.42388535563E+03  0.44458003877E+03  0.00000000000E+00 0.  1.
<mgrwt>
<rscale>  0 0.12888353E+04</rscale>
<asrwt>0</asrwt>
<pdfrwt beam="1">  1        1 0.37675604E+00 0.12888353E+04</pdfrwt>
<pdfrwt beam="2">  1       -1 0.26088427E-01 0.12888353E+04</pdfrwt>
<totfact> 0.18894280E+01</totfact>
</mgrwt>
</event>
<event>
12    1  0.4247462E-008  0.1868878E+04  0.7818608E-02  0.8670505E-01
          1   -1    0    0  501    0  0.00000000000E+00  0.00000000000E+00  0.16346840058E+04  0.16346840058E+04  0.00000000000E+00 0. -1.
         -1   -1    0    0    0  501 -0.00000000000E+00 -0.00000000000E+00 -0.53415608330E+03  0.53415608330E+03  0.00000000000E+00 0.  1.
         23    2    1    2    0    0 -0.37843295472E+03  0.46360884879E+03 -0.23061170616E+02  0.60594453018E+03  0.92153622642E+02 0.  0.
        254    2    1    2    0    0  0.37843295472E+03 -0.46360884879E+03  0.11235890932E+04  0.15628955590E+04  0.90666720029E+03 0.  0.
         23    2    4    4    0    0  0.14878898363E+03  0.24245820758E+03  0.14682933866E+03  0.33267810145E+03  0.90508123528E+02 0.  0.
         23    2    4    4    0    0  0.22964397109E+03 -0.70606705637E+03  0.97675975450E+03  0.12302174575E+04  0.90046283805E+02 0.  0.
         13    1    3    3    0    0 -0.38141113641E+03  0.46556500483E+03 -0.22114025446E+02  0.60225763492E+03  0.00000000000E+00 0.  1.
        -13    1    3    3    0    0  0.29781816972E+01 -0.19561560337E+01 -0.94714516991E+00  0.36868952552E+01  0.00000000000E+00 0. -1.
          4    1    5    5  502    0  0.50511994337E+02  0.13333062266E+03  0.11311862735E+03  0.18200093506E+03  0.00000000000E+00 0. -1.
          1    1    6    6  503    0  0.10488356230E+03 -0.29804558853E+03  0.34442112535E+03  0.46739452936E+03  0.00000000000E+00 0. -1.
         -4    1    5    5    0  502  0.98276989291E+02  0.10912758492E+03  0.33710711312E+02  0.15067716639E+03  0.00000000000E+00 0.  1.
         -1    1    6    6    0  503  0.12476040879E+03 -0.40802146784E+03  0.63233862915E+03  0.76282292816E+03  0.00000000000E+00 0.  1.
<mgrwt>
<rscale>  0 0.18688782E+04</rscale>
<asrwt>0</asrwt>
<pdfrwt beam="1">  1        1 0.25148984E+00 0.18688782E+04</pdfrwt>
<pdfrwt beam="2">  1       -1 0.82177860E-01 0.18688782E+04</pdfrwt>
<totfact> 0.72973379E+00</totfact>
</mgrwt>
</event>
<event>
12    1  0.4247462E-008  0.2289085E+04  0.7818608E-02  0.8482237E-01
          2   -1    0    0  501    0  0.00000000000E+00  0.00000000000E+00  0.14650639182E+04  0.14650639182E+04  0.00000000000E+00 0. -1.
         -2   -1    0    0    0  501 -0.00000000000E+00 -0.00000000000E+00 -0.89414358497E+03  0.89414358497E+03  0.00000000000E+00 0.  1.
         23    2    1    2    0    0 -0.59449091462E+03  0.32310452315E+03  0.94839106644E+03  0.11686215146E+04  0.91731396384E+02 0.  0.
        254    2    1    2    0    0  0.59449091462E+03 -0.32310452315E+03 -0.37747073321E+03  0.11905859885E+04  0.90398830814E+03 0.  0.
         23    2    4    4    0    0  0.34018461375E+03 -0.52151904694E+03 -0.52956058441E+03  0.82249927518E+03  0.91449206396E+02 0.  0.
         23    2    4    4    0    0  0.25430630087E+03  0.19841452379E+03  0.15208985120E+03  0.36808671337E+03  0.91194779538E+02 0.  0.
         11    1    3    3    0    0 -0.40924320864E+03  0.22758492296E+03  0.72520840350E+03  0.86325090761E+03  0.00000000000E+00 0. -1.
        -11    1    3    3    0    0 -0.18524770597E+03  0.95519600189E+02  0.22318266295E+03  0.30537060701E+03  0.00000000000E+00 0.  1.
          2    1    5    5  502    0  0.95757503344E+02 -0.22610603453E+03 -0.22057992800E+03  0.33007414763E+03  0.00000000000E+00 0. -1.
          4    1    6    6  503    0  0.34808355637E+01 -0.84300888535E+01 -0.88857642100E-01  0.91208831798E+01  0.00000000000E+00 0. -1.
         -2    1    5    5    0  502  0.24442711041E+03 -0.29541301241E+03 -0.30898065642E+03  0.49242512755E+03  0.00000000000E+00 0.  1.
         -4    1    6    6    0  503  0.25082546530E+03  0.20684461264E+03  0.15217870884E+03  0.35896583019E+03  0.00000000000E+00 0.  1.
<mgrwt>
<rscale>  0 0.22890850E+04</rscale>
<asrwt>0</asrwt>
<pdfrwt beam="1">  1        2 0.22539445E+00 0.22890850E+04</pdfrwt>
<pdfrwt beam="2">  1       -2 0.13756055E+00 0.22890850E+04</pdfrwt>
<totfact> 0.45327671E+00</totfact>
</mgrwt>
</event>
<event>
12    1  0.4247462E-008  0.2497344E+04  0.7818608E-02  0.8403932E-01
         -1   -1    0    0    0  501 -0.00000000000E+00  0.00000000000E+00  0.83127744522E+03  0.83127744522E+03  0.00000000000E+00 0.  1.
          1   -1    0    0  501    0  0.00000000000E+00 -0.00000000000E+00 -0.18756458253E+04  0.18756458253E+04  0.00000000000E+00 0. -1.
         23    2    1    2    0    0  0.18896805535E+03 -0.35946352290E+03 -0.15424452224E+04  0.15971642618E+04  0.82906361627E+02 0.  0.
        254    2    1    2    0    0 -0.18896805535E+03  0.35946352290E+03  0.49807684235E+03  0.11097590087E+04  0.90474392303E+03 0.  0.
         23    2    4    4    0    0  0.51217607498E+02  0.26669032551E+03 -0.20610148569E+03  0.35428616223E+03  0.96404819932E+02 0.  0.
         23    2    4    4    0    0 -0.24018566285E+03  0.92773197387E+02  0.70417832804E+03  0.75547284646E+03  0.92607155604E+02 0.  0.
         13    1    3    3    0    0  0.47430353504E+01 -0.23545978052E+02 -0.18964692415E+03  0.19116188247E+03  0.00000000000E+00 0.  1.
        -13    1    3    3    0    0  0.18422502000E+03 -0.33591754484E+03 -0.13527982983E+04  0.14060023793E+04  0.00000000000E+00 0. -1.
          1    1    5    5  502    0  0.27085875486E+02  0.14304121870E+03 -0.50533371506E+02  0.15410404451E+03  0.00000000000E+00 0. -1.
          3    1    6    6  503    0 -0.83618996540E+01 -0.61949565308E+01  0.10388902717E+03  0.10440894990E+03  0.00000000000E+00 0. -1.
         -1    1    5    5    0  502  0.24131732012E+02  0.12364910681E+03 -0.15556811418E+03  0.20018211772E+03  0.00000000000E+00 0.  1.
         -3    1    6    6    0  503 -0.23182376319E+03  0.98968153918E+02  0.60028930087E+03  0.65106389656E+03  0.00000000000E+00 0.  1.
<mgrwt>
<rscale>  0 0.24973442E+04</rscale>
<asrwt>0</asrwt>
<pdfrwt beam="1">  1        1 0.28856089E+00 0.24973442E+04</pdfrwt>
<pdfrwt beam="2">  1       -1 0.12788884E+00 0.24973442E+04</pdfrwt>
<totfact> 0.16996082E+00</totfact>
</mgrwt>
</event>
<event>
12    1  0.4247462E-008  0.1402042E+04  0.7818608E-02  0.8952342E-01
         -1   -1    0    0    0  501 -0.00000000000E+00  0.00000000000E+00  0.94173444384E+03  0.94173444384E+03  0.00000000000E+00 0.  1.
          1   -1    0    0  501    0  0.00000000000E+00 -0.00000000000E+00 -0.52183535654E+03  0.52183535654E+03  0.00000000000E+00 0. -1.
         23    2    1    2    0    0 -0.20572781459E+03  0.21804495257E+03  0.38160373617E+03  0.49327650211E+03  0.88502887135E+02 0.  0.
        254    2    1    2    0    0  0.20572781459E+03 -0.21804495257E+03  0.38295351122E+02  0.97029329827E+03  0.92202766537E+03 0.  0.
         23    2    4    4    0    0  0.30582297925E+03  0.70873129276E+02  0.38215097245E+03  0.50261749410E+03  0.89634170598E+02 0.  0.
         23    2    4    4    0    0 -0.10009516467E+03 -0.28891808185E+03 -0.34385562133E+03  0.46767580417E+03  0.83613811544E+02 0.  0.
         11    1    3    3    0    0 -0.37628351382E+02  0.17427955943E+01  0.59663128243E+02  0.70559329900E+02  0.00000000000E+00 0. -1.
        -11    1    3    3    0    0 -0.16809946320E+03  0.21630215698E+03  0.32194060793E+03  0.42271717221E+03  0.00000000000E+00 0.  1.
          4    1    5    5  502    0  0.26877324053E+03  0.33623072728E+02  0.34320928943E+03  0.43722097639E+03  0.00000000000E+00 0.  1.
          1    1    6    6  503    0 -0.11513120926E+03 -0.25550154492E+03 -0.30786344603E+03  0.41631254629E+03  0.00000000000E+00 0.  1.
         -4    1    5    5    0  502  0.37049738725E+02  0.37250056548E+02  0.38941683023E+02  0.65396517714E+02  0.00000000000E+00 0. -1.
         -1    1    6    6    0  503  0.15036044588E+02 -0.33416536931E+02 -0.35992175302E+02  0.51363257882E+02  0.00000000000E+00 0. -1.
<mgrwt>
<rscale>  0 0.14020418E+04</rscale>
<asrwt>0</asrwt>
<pdfrwt beam="1">  1        1 0.80282362E-01 0.14020418E+04</pdfrwt>
<pdfrwt beam="2">  1       -1 0.14488222E+00 0.14020418E+04</pdfrwt>
<totfact> 0.15592941E+01</totfact>
</mgrwt>
</event>
<event>
12    1  0.4247462E-008  0.4099526E+04  0.7818608E-02  0.7984764E-01
         -2   -1    0    0    0  501 -0.00000000000E+00  0.00000000000E+00  0.22898900944E+04  0.22898900944E+04  0.00000000000E+00 0.  1.
          2   -1    0    0  501    0  0.00000000000E+00 -0.00000000000E+00 -0.18348168977E+04  0.18348168977E+04  0.00000000000E+00 0. -1.
         23    2    1    2    0    0  0.13414521599E+04 -0.72292760197E+03  0.14399469882E+04  0.20985537387E+04  0.91445341351E+02 0.  0.
        254    2    1    2    0    0 -0.13414521599E+04  0.72292760197E+03 -0.98487379150E+03  0.20261532534E+04  0.90177735954E+03 0.  0.
         23    2    4    4    0    0 -0.11211315949E+04  0.79807734250E+03 -0.47602708864E+03  0.14592264374E+04  0.94215225997E+02 0.  0.
         23    2    4    4    0    0 -0.22032056494E+03 -0.75149740528E+02 -0.50884670287E+03  0.56692681598E+03  0.91062686198E+02 0.  0.
         11    1    3    3    0    0  0.10807259666E+04 -0.56503135389E+03  0.11050302028E+04  0.16456976620E+04  0.00000000000E+00 0.  1.
        -11    1    3    3    0    0  0.26072619330E+03 -0.15789624808E+03  0.33491678546E+03  0.45285607671E+03  0.00000000000E+00 0. -1.
          4    1    5    5  502    0 -0.65072058249E+02  0.36370405098E+02 -0.47642400180E+02  0.88470206435E+02  0.00000000000E+00 0. -1.
          1    1    6    6  503    0 -0.51987205588E+02  0.13099960017E+02 -0.17195890172E+03  0.18012257598E+03  0.00000000000E+00 0. -1.
         -4    1    5    5    0  502 -0.10560595367E+04  0.76170693740E+03 -0.42838468846E+03  0.13707562310E+04  0.00000000000E+00 0.  1.
         -1    1    6    6    0  503 -0.16833335935E+03 -0.88249700545E+02 -0.33688780115E+03  0.38680424000E+03  0.00000000000E+00 0.  1.
<mgrwt>
<rscale>  0 0.40995263E+04</rscale>
<asrwt>0</asrwt>
<pdfrwt beam="1">  1        2 0.28227952E+00 0.40995263E+04</pdfrwt>
<pdfrwt beam="2">  1       -2 0.35229078E+00 0.40995263E+04</pdfrwt>
<totfact> 0.97174817E-02</totfact>
</mgrwt>
</event>
<event>
12    1  0.4247462E-008  0.1157411E+04  0.7818608E-02  0.9150973E-01
         -2   -1    0    0    0  501 -0.00000000000E+00  0.00000000000E+00  0.63245665002E+03  0.63245665002E+03  0.00000000000E+00 0. -1.
          2   -1    0    0  501    0  0.00000000000E+00 -0.00000000000E+00 -0.52952299554E+03  0.52952299554E+03  0.00000000000E+00 0.  1.
         23    2    1    2    0    0  0.10479556158E+03  0.63017707389E+01 -0.13141858735E+03  0.19430344527E+03  0.97268503139E+02 0.  0.
        254    2    1    2    0    0 -0.10479556158E+03 -0.63017707389E+01  0.23435224183E+03  0.96767620028E+03  0.93298147532E+03 0.  0.
         23    2    4    4    0    0 -0.76598740739E+02 -0.39303870111E+03 -0.12602613736E+03  0.42954795729E+03  0.91005893568E+02 0.  0.
         23    2    4    4    0    0 -0.28196820842E+02  0.38673693037E+03  0.36037837919E+03  0.53812824299E+03  0.96689791103E+02 0.  0.
         13    1    3    3    0    0  0.15873797932E+01  0.23647018232E+02 -0.67812998893E+02  0.71835256419E+02  0.00000000000E+00 0.  1.
        -13    1    3    3    0    0  0.10320818179E+03 -0.17345247493E+02 -0.63605588456E+02  0.12246818885E+03  0.00000000000E+00 0. -1.
          1    1    5    5  502    0 -0.21846891651E+02 -0.83004562370E+02  0.10340381352E+02  0.86452111227E+02  0.00000000000E+00 0. -1.
          3    1    6    6  503    0 -0.25976361298E+01  0.34756385941E+02  0.16280886169E+01  0.34891327715E+02  0.00000000000E+00 0. -1.
         -1    1    5    5    0  502 -0.54751849088E+02 -0.31003413874E+03 -0.13636651871E+03  0.34309584606E+03  0.00000000000E+00 0.  1.
         -3    1    6    6    0  503 -0.25599184712E+02  0.35198054443E+03  0.35875029057E+03  0.50323691528E+03  0.00000000000E+00 0.  1.
<mgrwt>
<rscale>  0 0.11574115E+04</rscale>
<asrwt>0</asrwt>
<pdfrwt beam="1">  1        2 0.81465076E-01 0.11574115E+04</pdfrwt>
<pdfrwt beam="2">  1       -2 0.97301023E-01 0.11574115E+04</pdfrwt>
<totfact> 0.50211404E+01</totfact>
</mgrwt>
</event>
<event>
12    1  0.4247462E-008  0.1972284E+04  0.7818608E-02  0.8619689E-01
          2   -1    0    0  501    0  0.00000000000E+00  0.00000000000E+00  0.46162057969E+03  0.46162057969E+03  0.00000000000E+00 0. -1.
         -2   -1    0    0    0  501 -0.00000000000E+00 -0.00000000000E+00 -0.21066574517E+04  0.21066574517E+04  0.00000000000E+00 0.  1.
         23    2    1    2    0    0 -0.18270742942E+03  0.46531701414E+03 -0.14316805296E+04  0.15192646359E+04  0.92487656605E+02 0.  0.
        254    2    1    2    0    0  0.18270742942E+03 -0.46531701414E+03 -0.21335634242E+03  0.10490133955E+04  0.89722140338E+03 0.  0.
         23    2    4    4    0    0 -0.86685872860E+02  0.17685444173E+03  0.14521730272E+03  0.26079052006E+03  0.90175918253E+02 0.  0.
         23    2    4    4    0    0  0.26939330228E+03 -0.64217145588E+03 -0.35857364513E+03  0.78822287544E+03  0.88109660828E+02 0.  0.
         13    1    3    3    0    0 -0.87653109238E+02  0.25539376456E+03 -0.90391874593E+03  0.94338652830E+03  0.00000000000E+00 0. -1.
        -13    1    3    3    0    0 -0.95054320178E+02  0.20992324959E+03 -0.52776178363E+03  0.57587810755E+03  0.00000000000E+00 0.  1.
          2    1    5    5  502    0 -0.60223891816E+02  0.17848526473E+03  0.13737329187E+03  0.23314229172E+03  0.00000000000E+00 0. -1.
          3    1    6    6  503    0  0.19653776774E+03 -0.40742475093E+03 -0.19263969613E+03  0.49166256146E+03  0.00000000000E+00 0. -1.
         -2    1    5    5    0  502 -0.26461981044E+02 -0.16308229920E+01  0.78440108479E+01  0.27648228344E+02  0.00000000000E+00 0.  1.
         -3    1    6    6    0  503  0.72855534536E+02 -0.23474670495E+03 -0.16593394900E+03  0.29656031398E+03  0.00000000000E+00 0.  1.
<mgrwt>
<rscale>  0 0.19722844E+04</rscale>
<asrwt>0</asrwt>
<pdfrwt beam="1">  1        2 0.71018551E-01 0.19722844E+04</pdfrwt>
<pdfrwt beam="2">  1       -2 0.32410115E+00 0.19722844E+04</pdfrwt>
<totfact> 0.14230064E+00</totfact>
</mgrwt>
</event>
<event>
12    1  0.4247462E-008  0.2232171E+04  0.7818608E-02  0.8505156E-01
          2   -1    0    0  501    0  0.00000000000E+00  0.00000000000E+00  0.12257623781E+04  0.12257623781E+04  0.00000000000E+00 0. -1.
         -2   -1    0    0    0  501 -0.00000000000E+00 -0.00000000000E+00 -0.10162220414E+04  0.10162220414E+04  0.00000000000E+00 0.  1.
         23    2    1    2    0    0  0.19183094797E+03 -0.43701194730E+03 -0.71614741636E+03  0.86510184350E+03  0.88065447134E+02 0.  0.
        254    2    1    2    0    0 -0.19183094797E+03  0.43701194730E+03  0.92568775310E+03  0.13768825760E+04  0.90062714651E+03 0.  0.
         23    2    4    4    0    0 -0.52473716090E+02  0.19003700068E+03 -0.14862154395E+03  0.26254958475E+03  0.89310517954E+02 0.  0.
         23    2    4    4    0    0 -0.13935723188E+03  0.24697494662E+03  0.10743092970E+04  0.11143329912E+04  0.84737755618E+02 0.  0.
         11    1    3    3    0    0  0.89453704438E+02 -0.11248302604E+03 -0.18441140569E+03  0.23379897975E+03  0.00000000000E+00 0. -1.
        -11    1    3    3    0    0  0.10237724354E+03 -0.32452892126E+03 -0.53173601067E+03  0.63130286374E+03  0.00000000000E+00 0.  1.
          1    1    6    6  502    0 -0.10446977693E+03  0.19155197061E+03  0.66666143852E+03  0.70145817078E+03  0.00000000000E+00 0. -1.
          1    1    5    5  503    0 -0.56302522383E+02  0.17112290148E+03 -0.15931456165E+03  0.24048731982E+03  0.00000000000E+00 0. -1.
         -1    1    5    5    0  503  0.38288062924E+01  0.18914099204E+02  0.10693017705E+02  0.22062264933E+02  0.00000000000E+00 0.  1.
         -1    1    6    6    0  502 -0.34887454949E+02  0.55422976011E+02  0.40764785852E+03  0.41287482042E+03  0.00000000000E+00 0.  1.
<mgrwt>
<rscale>  0 0.22321709E+04</rscale>
<asrwt>0</asrwt>
<pdfrwt beam="1">  1        2 0.18857883E+00 0.22321709E+04</pdfrwt>
<pdfrwt beam="2">  1       -2 0.15634185E+00 0.22321709E+04</pdfrwt>
<totfact> 0.44706518E+00</totfact>
</mgrwt>
</event>
<event>
12    1  0.4247462E-008  0.1259531E+04  0.7818608E-02  0.9062287E-01
          2   -1    0    0  501    0  0.00000000000E+00  0.00000000000E+00  0.17793560337E+04  0.17793560337E+04  0.00000000000E+00 0. -1.
         -2   -1    0    0    0  501 -0.00000000000E+00 -0.00000000000E+00 -0.22289235097E+03  0.22289235097E+03  0.00000000000E+00 0.  1.
         23    2    1    2    0    0 -0.21102308963E+03 -0.72081181640E+02  0.71081778046E+02  0.25121590823E+03  0.91270873088E+02 0.  0.
        254    2    1    2    0    0  0.21102308963E+03  0.72081181640E+02  0.14853819047E+04  0.17510324765E+04  0.90001604968E+03 0.  0.
         23    2    4    4    0    0  0.36039288033E+03  0.37804060387E+01  0.14774218153E+03  0.40031940729E+03  0.92361008994E+02 0.  0.
         23    2    4    4    0    0 -0.14936979070E+03  0.68300775602E+02  0.13376397232E+04  0.13507130692E+04  0.90384931815E+02 0.  0.
         11    1    3    3    0    0 -0.31348896095E+02 -0.40257297762E+02  0.42736193205E+02  0.66556633923E+02  0.00000000000E+00 0. -1.
        -11    1    3    3    0    0 -0.17967419354E+03 -0.31823883878E+02  0.28345584841E+02  0.18465927431E+03  0.00000000000E+00 0.  1.
          1    1    5    5  502    0  0.21456413012E+02 -0.51174657147E+00  0.38691907589E+02  0.44245940568E+02  0.00000000000E+00 0. -1.
          3    1    6    6  503    0 -0.81875291636E+02  0.80415823702E+02  0.69321736188E+03  0.70265253070E+03  0.00000000000E+00 0. -1.
         -1    1    5    5    0  502  0.33893646732E+03  0.42921526101E+01  0.10905027394E+03  0.35607346672E+03  0.00000000000E+00 0.  1.
         -3    1    6    6    0  503 -0.67494499062E+02 -0.12115048101E+02  0.64442236128E+03  0.64806053847E+03  0.00000000000E+00 0.  1.
<mgrwt>
<rscale>  0 0.12595314E+04</rscale>
<asrwt>0</asrwt>
<pdfrwt beam="1">  1        2 0.27374707E+00 0.12595314E+04</pdfrwt>
<pdfrwt beam="2">  1       -2 0.34291132E-01 0.12595314E+04</pdfrwt>
<totfact> 0.69374900E+01</totfact>
</mgrwt>
</event>
<event>
12    1  0.4247462E-008  0.1215383E+04  0.7818608E-02  0.9099497E-01
          2   -1    0    0  501    0  0.00000000000E+00  0.00000000000E+00  0.74572160121E+03  0.74572160121E+03  0.00000000000E+00 0. -1.
         -2   -1    0    0    0  501 -0.00000000000E+00 -0.00000000000E+00 -0.49521044940E+03  0.49521044940E+03  0.00000000000E+00 0.  1.
         23    2    1    2    0    0  0.23056093085E+03  0.20035415728E+02  0.19221066154E+03  0.31123095643E+03  0.79749665277E+02 0.  0.
        254    2    1    2    0    0 -0.23056093085E+03 -0.20035415728E+02  0.58300490274E+02  0.92970109419E+03  0.89854627963E+03 0.  0.
         23    2    4    4    0    0  0.28045177394E+03  0.20552995653E+03  0.39161557373E+02  0.36367300290E+03  0.99139623395E+02 0.  0.
         23    2    4    4    0    0 -0.51101270479E+03 -0.22556537226E+03  0.19138932902E+02  0.56602809129E+03  0.89486198690E+02 0.  0.
         11    1    3    3    0    0  0.98155301541E+02 -0.20190403826E+02  0.11585678405E+03  0.15318260358E+03  0.00000000000E+00 0.  1.
        -11    1    3    3    0    0  0.13240562931E+03  0.40225819554E+02  0.76353877482E+02  0.15804835285E+03  0.00000000000E+00 0. -1.
          4    1    5    5  502    0  0.63480722502E+02  0.12504333467E+01  0.94246775665E+01  0.64188708198E+02  0.00000000000E+00 0.  1.
          3    1    6    6  503    0 -0.45897992157E+03 -0.21286606217E+03  0.42237967565E+02  0.50769929558E+03  0.00000000000E+00 0. -1.
         -4    1    5    5    0  502  0.21697105143E+03  0.20427952318E+03  0.29736879806E+02  0.29948429470E+03  0.00000000000E+00 0. -1.
         -3    1    6    6    0  503 -0.52032783223E+02 -0.12699310083E+02 -0.23099034663E+02  0.58328795709E+02  0.00000000000E+00 0.  1.
<mgrwt>
<rscale>  0 0.12153833E+04</rscale>
<asrwt>0</asrwt>
<pdfrwt beam="1">  1        2 0.11472640E+00 0.12153833E+04</pdfrwt>
<pdfrwt beam="2">  1       -2 0.76186223E-01 0.12153833E+04</pdfrwt>
<totfact> 0.57456732E+01</totfact>
</mgrwt>
</event>
<event>
12    1  0.4247462E-008  0.2118053E+04  0.7818608E-02  0.8553332E-01
         -2   -1    0    0    0  501 -0.00000000000E+00  0.00000000000E+00  0.73644614676E+03  0.73644614676E+03  0.00000000000E+00 0.  1.
          2   -1    0    0  501    0  0.00000000000E+00 -0.00000000000E+00 -0.15229051403E+04  0.15229051403E+04  0.00000000000E+00 0. -1.
         23    2    1    2    0    0  0.26270895866E+03 -0.22913069504E+03  0.52261018684E+03  0.63468198989E+03  0.90459651407E+02 0.  0.
        254    2    1    2    0    0 -0.26270895866E+03  0.22913069504E+03 -0.13090691804E+04  0.16246692971E+04  0.89686751183E+03 0.  0.
         23    2    4    4    0    0 -0.17603878805E+03  0.30078295044E+03 -0.57840920952E+02  0.36497813606E+03  0.91670221427E+02 0.  0.
         23    2    4    4    0    0 -0.86670170616E+02 -0.71652255398E+02 -0.12512282594E+04  0.12596911611E+04  0.92757210016E+02 0.  0.
         13    1    3    3    0    0  0.17954070879E+03 -0.10891188133E+03  0.35330103908E+03  0.41099670099E+03  0.00000000000E+00 0.  1.
        -13    1    3    3    0    0  0.83168249874E+02 -0.12021881371E+03  0.16930914776E+03  0.22368528890E+03  0.00000000000E+00 0. -1.
          2    1    5    5  502    0  0.10553078163E+02  0.15677202741E+02 -0.83685498630E+01  0.20668206775E+02  0.00000000000E+00 0. -1.
          1    1    6    6  503    0  0.18215388107E+02 -0.40688927245E+01 -0.10053469588E+03  0.10225253703E+03  0.00000000000E+00 0. -1.
         -2    1    5    5    0  502 -0.18659186621E+03  0.28510574770E+03 -0.49472371089E+02  0.34430992929E+03  0.00000000000E+00 0.  1.
         -1    1    6    6    0  503 -0.10488555872E+03 -0.67583362673E+02 -0.11506935635E+04  0.11574386241E+04  0.00000000000E+00 0.  1.
<mgrwt>
<rscale>  0 0.21180535E+04</rscale>
<asrwt>0</asrwt>
<pdfrwt beam="1">  1        2 0.23429310E+00 0.21180535E+04</pdfrwt>
<pdfrwt beam="2">  1       -2 0.11329941E+00 0.21180535E+04</pdfrwt>
<totfact> 0.69340576E+00</totfact>
</mgrwt>
</event>
<event>
12    1  0.4247462E-008  0.2385518E+04  0.7818608E-02  0.8444945E-01
         -2   -1    0    0    0  501 -0.00000000000E+00  0.00000000000E+00  0.57303344592E+03  0.57303344592E+03  0.00000000000E+00 0.  1.
          2   -1    0    0  501    0  0.00000000000E+00 -0.00000000000E+00 -0.24827060378E+04  0.24827060378E+04  0.00000000000E+00 0. -1.
         23    2    1    2    0    0 -0.35037806481E+03 -0.91589477063E+03 -0.66700704386E+03  0.11895608517E+04  0.92350442467E+02 0.  0.
        254    2    1    2    0    0  0.35037806481E+03  0.91589477063E+03 -0.12426655480E+04  0.18661786320E+04  0.98832029380E+03 0.  0.
         23    2    4    4    0    0  0.29341856935E+03  0.11121058614E+04 -0.93214660922E+03  0.14834797117E+04  0.94556068471E+02 0.  0.
         23    2    4    4    0    0  0.56959495461E+02 -0.19621109080E+03 -0.31051893879E+03  0.38269892030E+03  0.91067425424E+02 0.  0.
         11    1    3    3    0    0 -0.79156879573E+02 -0.28881308826E+03 -0.24110811607E+03  0.38446317791E+03  0.00000000000E+00 0. -1.
        -11    1    3    3    0    0 -0.27122118524E+03 -0.62708168236E+03 -0.42589892779E+03  0.80509767381E+03  0.00000000000E+00 0.  1.
          1    1    5    5  502    0  0.91247691426E+02  0.37861466817E+03 -0.37309853881E+03  0.53933081481E+03  0.00000000000E+00 0. -1.
          3    1    6    6  503    0  0.15165028372E+01 -0.35198908970E+02 -0.89165244500E+01  0.36342363459E+02  0.00000000000E+00 0. -1.
         -1    1    5    5    0  502  0.20217087792E+03  0.73349119325E+03 -0.55904807041E+03  0.94414889689E+03  0.00000000000E+00 0.  1.
         -3    1    6    6    0  503  0.55442992624E+02 -0.16101218183E+03 -0.30160241434E+03  0.34635655684E+03  0.00000000000E+00 0.  1.
<mgrwt>
<rscale>  0 0.23855176E+04</rscale>
<asrwt>0</asrwt>
<pdfrwt beam="1">  1        2 0.38195477E+00 0.23855176E+04</pdfrwt>
<pdfrwt beam="2">  1       -2 0.88158992E-01 0.23855176E+04</pdfrwt>
<totfact> 0.35543377E+00</totfact>
</mgrwt>
</event>
<event>
12    1  0.4247462E-008  0.1350746E+04  0.7818608E-02  0.8990263E-01
          1   -1    0    0  501    0  0.00000000000E+00  0.00000000000E+00  0.98763913871E+03  0.98763913871E+03  0.00000000000E+00 0. -1.
         -1   -1    0    0    0  501 -0.00000000000E+00 -0.00000000000E+00 -0.46183751894E+03  0.46183751894E+03  0.00000000000E+00 0.  1.
         23    2    1    2    0    0  0.31572206918E+03 -0.16910215190E+03  0.53471455543E+02  0.37529849831E+03  0.98558629941E+02 0.  0.
        254    2    1    2    0    0 -0.31572206918E+03  0.16910215190E+03  0.47233016422E+03  0.10741781593E+04  0.89581637137E+03 0.  0.
         23    2    4    4    0    0 -0.24261272549E+03 -0.79384053345E+02  0.67870269136E+03  0.73045716248E+03  0.88133764615E+02 0.  0.
         23    2    4    4    0    0 -0.73109343683E+02  0.24848620525E+03 -0.20637252713E+03  0.34372099686E+03  0.92000724956E+02 0.  0.
         11    1    3    3    0    0  0.23064433420E+03 -0.14012293533E+03 -0.16244893585E+01  0.26987753680E+03  0.00000000000E+00 0.  1.
        -11    1    3    3    0    0  0.85077734981E+02 -0.28979216572E+02  0.55095944901E+02  0.10542096152E+03  0.00000000000E+00 0. -1.
          1    1    6    6  502    0 -0.40738825057E+02  0.20716039534E+03 -0.20004080287E+03  0.29084601437E+03  0.00000000000E+00 0. -1.
          1    1    5    5  503    0 -0.20742627520E+03 -0.37283581889E+02  0.47817041954E+03  0.52255399266E+03  0.00000000000E+00 0. -1.
         -1    1    5    5    0  503 -0.35186450297E+02 -0.42100471456E+02  0.20053227182E+03  0.20790316982E+03  0.00000000000E+00 0.  1.
         -1    1    6    6    0  502 -0.32370518626E+02  0.41325809903E+02 -0.63317242675E+01  0.52874982482E+02  0.00000000000E+00 0.  1.
<mgrwt>
<rscale>  0 0.13507462E+04</rscale>
<asrwt>0</asrwt>
<pdfrwt beam="1">  1        1 0.15194448E+00 0.13507462E+04</pdfrwt>
<pdfrwt beam="2">  1       -1 0.71051926E-01 0.13507462E+04</pdfrwt>
<totfact> 0.30305980E+01</totfact>
</mgrwt>
</event>
<event>
12    1  0.4247462E-008  0.1344445E+04  0.7818608E-02  0.8995044E-01
         -2   -1    0    0    0  501 -0.00000000000E+00  0.00000000000E+00  0.23720683620E+03  0.23720683620E+03  0.00000000000E+00 0.  1.
          2   -1    0    0  501    0  0.00000000000E+00 -0.00000000000E+00 -0.19050174806E+04  0.19050174806E+04  0.00000000000E+00 0. -1.
         23    2    1    2    0    0  0.26852087435E+03  0.17083980543E+03 -0.18962370076E+03  0.38133029837E+03  0.90365643271E+02 0.  0.
        254    2    1    2    0    0 -0.26852087435E+03 -0.17083980543E+03 -0.14781869437E+04  0.17608940185E+04  0.90245299308E+03 0.  0.
         23    2    4    4    0    0 -0.14282402369E+03  0.23590348739E+03 -0.86787493817E+02  0.30295761797E+03  0.90565402312E+02 0.  0.
         23    2    4    4    0    0 -0.12569685066E+03 -0.40674329283E+03 -0.13913994499E+04  0.14579364005E+04  0.91358164889E+02 0.  0.
         11    1    3    3    0    0  0.23950273746E+03  0.16706835331E+03 -0.14028088269E+03  0.32396314910E+03  0.00000000000E+00 0.  1.
        -11    1    3    3    0    0  0.29018136889E+02  0.37714521216E+01 -0.49342818075E+02  0.57367149269E+02  0.00000000000E+00 0. -1.
          1    1    5    5  502    0 -0.62373806235E+02  0.57881728624E+02 -0.63591453472E+02  0.10622927641E+03  0.00000000000E+00 0. -1.
          1    1    6    6  503    0  0.64456589817E+01 -0.10743279568E+03 -0.37859449055E+03  0.39359514781E+03  0.00000000000E+00 0. -1.
         -1    1    5    5    0  502 -0.80450217452E+02  0.17802175877E+03 -0.23196040345E+02  0.19672834155E+03  0.00000000000E+00 0.  1.
         -1    1    6    6    0  503 -0.13214250965E+03 -0.29931049715E+03 -0.10128049593E+04  0.10643412527E+04  0.00000000000E+00 0.  1.
<mgrwt>
<rscale>  0 0.13444451E+04</rscale>
<asrwt>0</asrwt>
<pdfrwt beam="1">  1        2 0.29307961E+00 0.13444451E+04</pdfrwt>
<pdfrwt beam="2">  1       -2 0.36493360E-01 0.13444451E+04</pdfrwt>
<totfact> 0.52140267E+01</totfact>
</mgrwt>
</event>
<event>
12    1  0.4247462E-008  0.1934738E+04  0.7818608E-02  0.8637756E-01
          1   -1    0    0  501    0  0.00000000000E+00  0.00000000000E+00  0.49884609860E+03  0.49884609860E+03  0.00000000000E+00 0. -1.
         -1   -1    0    0    0  501 -0.00000000000E+00 -0.00000000000E+00 -0.18759350938E+04  0.18759350938E+04  0.00000000000E+00 0.  1.
         23    2    1    2    0    0  0.29371482279E+03  0.56966970100E+03 -0.10556860718E+04  0.12378760107E+04  0.84095006794E+02 0.  0.
        254    2    1    2    0    0 -0.29371482279E+03 -0.56966970100E+03 -0.32140292333E+03  0.11369051817E+04  0.88230470229E+03 0.  0.
         23    2    4    4    0    0 -0.57526909219E+03 -0.19486127444E+03 -0.17836797521E+03  0.63870229453E+03  0.84970828887E+02 0.  0.
         23    2    4    4    0    0  0.28155426939E+03 -0.37480842656E+03 -0.14303494812E+03  0.49820288716E+03  0.89403339772E+02 0.  0.
         11    1    3    3    0    0  0.25721189745E+03  0.42209891863E+03 -0.79747939025E+03  0.93824241813E+03  0.00000000000E+00 0.  1.
        -11    1    3    3    0    0  0.36502925349E+02  0.14757078237E+03 -0.25820668157E+03  0.29963359253E+03  0.00000000000E+00 0. -1.
          2    1    5    5  502    0 -0.29055420177E+03 -0.11352544714E+03 -0.13311351043E+03  0.33915922216E+03  0.00000000000E+00 0. -1.
          1    1    6    6  503    0  0.20057992471E+03 -0.22560701363E+03 -0.12761893229E+03  0.32774597278E+03  0.00000000000E+00 0. -1.
         -2    1    5    5    0  502 -0.28471489042E+03 -0.81335827298E+02 -0.45254464780E+02  0.29954307238E+03  0.00000000000E+00 0.  1.
         -1    1    6    6    0  503  0.80974344676E+02 -0.14920141293E+03 -0.15416015833E+02  0.17045691438E+03  0.00000000000E+00 0.  1.
<mgrwt>
<rscale>  0 0.19347381E+04</rscale>
<asrwt>0</asrwt>
<pdfrwt beam="1">  1        1 0.76745556E-01 0.19347381E+04</pdfrwt>
<pdfrwt beam="2">  1       -1 0.28860539E+00 0.19347381E+04</pdfrwt>
<totfact> 0.16246975E+00</totfact>
</mgrwt>
</event>
<event>
12    1  0.4247462E-008  0.1458389E+04  0.7818608E-02  0.8912605E-01
          2   -1    0    0  501    0  0.00000000000E+00  0.00000000000E+00  0.10148428890E+04  0.10148428890E+04  0.00000000000E+00 0. -1.
         -2   -1    0    0    0  501 -0.00000000000E+00 -0.00000000000E+00 -0.52394779693E+03  0.52394779693E+03  0.00000000000E+00 0.  1.
         23    2    1    2    0    0  0.21768643400E+03  0.70553061119E+02 -0.24121154779E+03  0.34647055484E+03  0.97435704970E+02 0.  0.
        254    2    1    2    0    0 -0.21768643400E+03 -0.70553061119E+02  0.73210663988E+03  0.11923201311E+04  0.91284283693E+03 0.  0.
         23    2    4    4    0    0 -0.43097553039E+03 -0.26948229516E+03  0.15551952078E+03  0.53936787145E+03  0.91491880564E+02 0.  0.
         23    2    4    4    0    0  0.21328909639E+03  0.19892923404E+03  0.57658711910E+03  0.65295225967E+03  0.93962059902E+02 0.  0.
         11    1    3    3    0    0  0.62038582255E+02  0.23506778846E+02 -0.14004737490E+03  0.15496651753E+03  0.00000000000E+00 0. -1.
        -11    1    3    3    0    0  0.15564785174E+03  0.47046282273E+02 -0.10116417289E+03  0.19150403730E+03  0.00000000000E+00 0.  1.
          2    1    5    5  502    0 -0.38977201445E+03 -0.26905596119E+03  0.13092515686E+03  0.49138043327E+03  0.00000000000E+00 0. -1.
          4    1    6    6  503    0  0.11027881271E+03  0.16382482165E+03  0.38002876969E+03  0.42827777728E+03  0.00000000000E+00 0. -1.
         -2    1    5    5    0  502 -0.41203515940E+02 -0.42633396932E+00  0.24594363923E+02  0.47987438182E+02  0.00000000000E+00 0.  1.
         -4    1    6    6    0  503  0.10301028368E+03  0.35104412388E+02  0.19655834941E+03  0.22467448238E+03  0.00000000000E+00 0.  1.
<mgrwt>
<rscale>  0 0.14583891E+04</rscale>
<asrwt>0</asrwt>
<pdfrwt beam="1">  1        2 0.15612968E+00 0.14583891E+04</pdfrwt>
<pdfrwt beam="2">  1       -2 0.80607353E-01 0.14583891E+04</pdfrwt>
<totfact> 0.32463258E+01</totfact>
</mgrwt>
</event>
<event>
12    1  0.4247462E-008  0.1742780E+04  0.7818608E-02  0.8737334E-01
          2   -1    0    0  501    0  0.00000000000E+00  0.00000000000E+00  0.48977350460E+03  0.48977350460E+03  0.00000000000E+00 0. -1.
         -2   -1    0    0    0  501 -0.00000000000E+00 -0.00000000000E+00 -0.15503508867E+04  0.15503508867E+04  0.00000000000E+00 0.  1.
         23    2    1    2    0    0  0.80927222369E+00 -0.25014388463E+03  0.29479796601E+03  0.39728577130E+03  0.91419502152E+02 0.  0.
        254    2    1    2    0    0 -0.80927222369E+00  0.25014388463E+03 -0.13553753481E+04  0.16428386200E+04  0.89403790699E+03 0.  0.
         23    2    4    4    0    0  0.19336590403E+03 -0.10762217283E+03 -0.14426895605E+02  0.23846048761E+03  0.87649095297E+02 0.  0.
         23    2    4    4    0    0 -0.19417517625E+03  0.35776605746E+03 -0.13409484525E+04  0.14043781324E+04  0.91840271800E+02 0.  0.
         13    1    3    3    0    0  0.17418251670E+02 -0.15643406823E+03  0.24133235095E+03  0.28812552266E+03  0.00000000000E+00 0. -1.
        -13    1    3    3    0    0 -0.16608979447E+02 -0.93709816403E+02  0.53465615052E+02  0.10916024863E+03  0.00000000000E+00 0.  1.
          4    1    6    6  502    0 -0.48692743098E+02  0.11098119688E+03 -0.27334598310E+03  0.29900808646E+03  0.00000000000E+00 0. -1.
          4    1    5    5  503    0  0.15887853664E+03 -0.74608459174E+02 -0.45714592019E+02  0.18137981009E+03  0.00000000000E+00 0. -1.
         -4    1    5    5    0  503  0.34487367394E+02 -0.33013713654E+02  0.31287696414E+02  0.57080677518E+02  0.00000000000E+00 0.  1.
         -4    1    6    6    0  502 -0.14548243316E+03  0.24678486058E+03 -0.10676024694E+04  0.11053700459E+04  0.00000000000E+00 0.  1.
<mgrwt>
<rscale>  0 0.17427803E+04</rscale>
<asrwt>0</asrwt>
<pdfrwt beam="1">  1        2 0.75349771E-01 0.17427803E+04</pdfrwt>
<pdfrwt beam="2">  1       -2 0.23851552E+00 0.17427803E+04</pdfrwt>
<totfact> 0.45246772E+00</totfact>
</mgrwt>
</event>
<event>
12    1  0.4247462E-008  0.1647563E+04  0.7818608E-02  0.8791850E-01
         -2   -1    0    0    0  501 -0.00000000000E+00  0.00000000000E+00  0.17971725061E+03  0.17971725061E+03  0.00000000000E+00 0.  1.
          2   -1    0    0  501    0  0.00000000000E+00 -0.00000000000E+00 -0.37760180086E+04  0.37760180086E+04  0.00000000000E+00 0. -1.
         23    2    1    2    0    0 -0.47876480353E+03 -0.21690871345E+03 -0.75085307975E+03  0.92027736311E+03  0.82854997492E+02 0.  0.
        254    2    1    2    0    0  0.47876480353E+03  0.21690871345E+03 -0.28454476783E+04  0.30354578961E+04  0.91715158089E+03 0.  0.
         23    2    4    4    0    0 -0.24618633667E+03 -0.13067504275E+01 -0.44176833671E+03  0.51370761529E+03  0.90148936351E+02 0.  0.
         23    2    4    4    0    0  0.72495114021E+03  0.21821546387E+03 -0.24036793416E+04  0.25217502808E+04  0.91531183267E+02 0.  0.
         11    1    3    3    0    0 -0.39564636867E+03 -0.19204305469E+03 -0.57231862884E+03  0.72177918841E+03  0.00000000000E+00 0.  1.
        -11    1    3    3    0    0 -0.83118434862E+02 -0.24865658760E+02 -0.17853445091E+03  0.19849817470E+03  0.00000000000E+00 0. -1.
          1    1    5    5  502    0  0.25213086858E+01  0.89318844075E+01 -0.40129581492E+02  0.41188819688E+02  0.00000000000E+00 0. -1.
          1    1    6    6  503    0  0.12543424181E+03  0.51995561169E+02 -0.54745797973E+03  0.56404567809E+03  0.00000000000E+00 0. -1.
         -1    1    5    5    0  502 -0.24870764536E+03 -0.10238634835E+02 -0.40163875522E+03  0.47251879560E+03  0.00000000000E+00 0.  1.
         -1    1    6    6    0  503  0.59951689840E+03  0.16621990270E+03 -0.18562213618E+04  0.19577046028E+04  0.00000000000E+00 0.  1.
<mgrwt>
<rscale>  0 0.16475625E+04</rscale>
<asrwt>0</asrwt>
<pdfrwt beam="1">  1        2 0.58092582E+00 0.16475625E+04</pdfrwt>
<pdfrwt beam="2">  1       -2 0.27648809E-01 0.16475625E+04</pdfrwt>
<totfact> 0.59262789E+00</totfact>
</mgrwt>
</event>
<event>
12    1  0.4247462E-008  0.1782136E+04  0.7818608E-02  0.8715857E-01
         -1   -1    0    0    0  501 -0.00000000000E+00  0.00000000000E+00  0.61844189408E+03  0.61844189408E+03  0.00000000000E+00 0.  1.
          1   -1    0    0  501    0  0.00000000000E+00 -0.00000000000E+00 -0.12838757401E+04  0.12838757401E+04  0.00000000000E+00 0. -1.
         23    2    1    2    0    0  0.51915219337E+03  0.33001506507E+03 -0.52896011780E+03  0.81636852557E+03  0.90718356892E+02 0.  0.
        254    2    1    2    0    0 -0.51915219337E+03 -0.33001506507E+03 -0.13647372827E+03  0.10859491086E+04  0.88443849137E+03 0.  0.
         23    2    4    4    0    0  0.61447223068E+02  0.11951867912E+03 -0.28668494259E+03  0.33108449120E+03  0.96789504204E+02 0.  0.
         23    2    4    4    0    0 -0.58059941644E+03 -0.44953374418E+03  0.15021121432E+03  0.75486461745E+03  0.89893894349E+02 0.  0.
         13    1    3    3    0    0  0.42561468279E+03  0.30786203950E+03 -0.45757570892E+03  0.69663650706E+03  0.00000000000E+00 0. -1.
        -13    1    3    3    0    0  0.93537510580E+02  0.22153025564E+02 -0.71384408873E+02  0.11973201851E+03  0.00000000000E+00 0.  1.
          2    1    5    5  502    0 -0.19544782608E+02  0.28642824958E+02 -0.25876845027E+02  0.43266858648E+02  0.00000000000E+00 0. -1.
          1    1    6    6  503    0 -0.16640205763E+03 -0.15810437641E+03  0.82488615870E+02  0.24390779072E+03  0.00000000000E+00 0. -1.
         -2    1    5    5    0  502  0.80992005677E+02  0.90875854161E+02 -0.26080809756E+03  0.28781763255E+03  0.00000000000E+00 0.  1.
         -1    1    6    6    0  503 -0.41419735881E+03 -0.29142936777E+03  0.67722598448E+02  0.51095682673E+03  0.00000000000E+00 0.  1.
<mgrwt>
<rscale>  0 0.17821364E+04</rscale>
<asrwt>0</asrwt>
<pdfrwt beam="1">  1        1 0.19751934E+00 0.17821364E+04</pdfrwt>
<pdfrwt beam="2">  1       -1 0.95144907E-01 0.17821364E+04</pdfrwt>
<totfact> 0.93686943E+00</totfact>
</mgrwt>
</event>
<event>
12    1  0.4247462E-008  0.1946997E+04  0.7818608E-02  0.8631810E-01
          2   -1    0    0  501    0  0.00000000000E+00  0.00000000000E+00  0.13672999538E+04  0.13672999538E+04  0.00000000000E+00 0. -1.
         -2   -1    0    0    0  501 -0.00000000000E+00 -0.00000000000E+00 -0.69311749023E+03  0.69311749023E+03  0.00000000000E+00 0.  1.
         23    2    1    2    0    0 -0.33795156082E+03 -0.40119724593E+03 -0.32353204384E+03  0.62311057845E+03  0.91778657562E+02 0.  0.
        254    2    1    2    0    0  0.33795156082E+03  0.40119724593E+03  0.99771450745E+03  0.14373068656E+04  0.89176583247E+03 0.  0.
         23    2    4    4    0    0  0.23363471442E+03  0.45755234223E+03  0.10529225417E+03  0.53230881656E+03  0.91251804025E+02 0.  0.
         23    2    4    4    0    0  0.10431684639E+03 -0.56355096293E+02  0.89242225328E+03  0.90499804905E+03  0.92445061102E+02 0.  0.
         11    1    3    3    0    0 -0.60432851244E+00 -0.32095578884E+02 -0.14001891439E+02  0.35022055346E+02  0.00000000000E+00 0. -1.
        -11    1    3    3    0    0 -0.33734723230E+03 -0.36910166705E+03 -0.30953015240E+03  0.58808852311E+03  0.00000000000E+00 0.  1.
          2    1    5    5  502    0  0.37294534312E+02  0.82155326053E+02  0.55064247692E+02  0.10569981676E+03  0.00000000000E+00 0. -1.
          1    1    6    6  503    0  0.20806741251E+01  0.21465979104E+02  0.10959910753E+03  0.11170085871E+03  0.00000000000E+00 0. -1.
         -2    1    5    5    0  502  0.19634018011E+03  0.37539701617E+03  0.50228006480E+02  0.42660899980E+03  0.00000000000E+00 0.  1.
         -1    1    6    6    0  503  0.10223617227E+03 -0.77821075397E+02  0.78282314575E+03  0.79329719035E+03  0.00000000000E+00 0.  1.
<mgrwt>
<rscale>  0 0.19469972E+04</rscale>
<asrwt>0</asrwt>
<pdfrwt beam="1">  1        2 0.21035384E+00 0.19469972E+04</pdfrwt>
<pdfrwt beam="2">  1       -2 0.10663346E+00 0.19469972E+04</pdfrwt>
<totfact> 0.99874126E+00</totfact>
</mgrwt>
</event>
<event>
12    1  0.4247462E-008  0.1325697E+04  0.7818608E-02  0.9009432E-01
          1   -1    0    0  501    0  0.00000000000E+00  0.00000000000E+00  0.30520013471E+04  0.30520013471E+04  0.00000000000E+00 0. -1.
         -1   -1    0    0    0  501 -0.00000000000E+00 -0.00000000000E+00 -0.14396058448E+03  0.14396058448E+03  0.00000000000E+00 0.  1.
         23    2    1    2    0    0  0.26660372203E+03  0.11051968023E+03  0.13252568935E+04  0.13593985122E+04  0.91467682343E+02 0.  0.
        254    2    1    2    0    0 -0.26660372203E+03 -0.11051968023E+03  0.15827838690E+04  0.18365634193E+04  0.88570213542E+03 0.  0.
         23    2    4    4    0    0 -0.24153865439E+02 -0.21440581394E+03  0.15357677032E+04  0.15534742027E+04  0.90257398933E+02 0.  0.
         23    2    4    4    0    0 -0.24244985659E+03  0.10388613371E+03  0.47016165874E+02  0.28308921661E+03  0.91404173704E+02 0.  0.
         11    1    3    3    0    0  0.16115650683E+03  0.11288148917E+03  0.90004519623E+03  0.92130071396E+03  0.00000000000E+00 0. -1.
        -11    1    3    3    0    0  0.10544721520E+03 -0.23618089400E+01  0.42521169731E+03  0.43809779829E+03  0.00000000000E+00 0.  1.
          2    1    5    5  502    0 -0.15807990918E+02 -0.14409008034E+03  0.70818750833E+03  0.72287024478E+03  0.00000000000E+00 0.  1.
          1    1    6    6  503    0 -0.29732796517E+02  0.13737878761E+02 -0.24878453035E+02  0.41130352867E+02  0.00000000000E+00 0. -1.
         -2    1    5    5    0  502 -0.83458745204E+01 -0.70315733604E+02  0.82758019483E+03  0.83060395791E+03  0.00000000000E+00 0. -1.
         -1    1    6    6    0  503 -0.21271706007E+03  0.90148254947E+02  0.71894618909E+02  0.24195886374E+03  0.00000000000E+00 0.  1.
<mgrwt>
<rscale>  0 0.13256966E+04</rscale>
<asrwt>0</asrwt>
<pdfrwt beam="1">  1        1 0.46953862E+00 0.13256966E+04</pdfrwt>
<pdfrwt beam="2">  1       -1 0.22147785E-01 0.13256966E+04</pdfrwt>
<totfact> 0.93420774E+00</totfact>
</mgrwt>
</event>
<event>
12    1  0.4247462E-008  0.1752533E+04  0.7818608E-02  0.8731957E-01
         -2   -1    0    0    0  501 -0.00000000000E+00  0.00000000000E+00  0.18115976868E+03  0.18115976868E+03  0.00000000000E+00 0.  1.
          2   -1    0    0  501    0  0.00000000000E+00 -0.00000000000E+00 -0.42384855424E+04  0.42384855424E+04  0.00000000000E+00 0. -1.
         23    2    1    2    0    0 -0.20125589808E+03  0.54870872412E+03 -0.21865417534E+04  0.22648330373E+04  0.83178405126E+02 0.  0.
        254    2    1    2    0    0  0.20125589808E+03 -0.54870872412E+03 -0.18707840203E+04  0.21548122738E+04  0.89543167469E+03 0.  0.
         23    2    4    4    0    0 -0.10916181626E+03 -0.69114727505E+03 -0.10944038112E+04  0.13016663707E+04  0.83754288196E+02 0.  0.
         23    2    4    4    0    0  0.31041771434E+03  0.14243855092E+03 -0.77638020911E+03  0.85314590303E+03  0.91890176767E+02 0.  0.
         11    1    3    3    0    0 -0.14760449289E+03  0.41392205750E+03 -0.14956082879E+04  0.15588337650E+04  0.00000000000E+00 0. -1.
        -11    1    3    3    0    0 -0.53651405194E+02  0.13478666662E+03 -0.69093346556E+03  0.70599927238E+03  0.00000000000E+00 0.  1.
          3    1    5    5  502    0 -0.17936611351E+02 -0.19197238984E+02 -0.33799764366E+02  0.42809812924E+02  0.00000000000E+00 0. -1.
          3    1    6    6  503    0  0.70009749653E+02  0.40889964041E+01 -0.10036521479E+03  0.12243880626E+03  0.00000000000E+00 0. -1.
         -3    1    5    5    0  502 -0.91225204910E+02 -0.67195003606E+03 -0.10606040468E+04  0.12588565578E+04  0.00000000000E+00 0.  1.
         -3    1    6    6    0  503  0.24040796469E+03  0.13834955452E+03 -0.67601499432E+03  0.73070709677E+03  0.00000000000E+00 0.  1.
<mgrwt>
<rscale>  0 0.17525331E+04</rscale>
<asrwt>0</asrwt>
<pdfrwt beam="1">  1        2 0.65207467E+00 0.17525331E+04</pdfrwt>
<pdfrwt beam="2">  1       -2 0.27870735E-01 0.17525331E+04</pdfrwt>
<totfact> 0.24452248E+00</totfact>
</mgrwt>
</event>
<event>
12    1  0.4247462E-008  0.1853734E+04  0.7818608E-02  0.8678235E-01
         -2   -1    0    0    0  501 -0.00000000000E+00  0.00000000000E+00  0.14588030901E+04  0.14588030901E+04  0.00000000000E+00 0.  1.
          2   -1    0    0  501    0  0.00000000000E+00 -0.00000000000E+00 -0.58889518902E+03  0.58889518902E+03  0.00000000000E+00 0. -1.
         23    2    1    2    0    0 -0.27438772106E+03  0.92810994689E+02  0.10454834262E+04  0.10889294237E+04  0.93963786861E+02 0.  0.
        254    2    1    2    0    0  0.27438772106E+03 -0.92810994689E+02 -0.17557552512E+03  0.95876885536E+03  0.89694395075E+03 0.  0.
         23    2    4    4    0    0  0.31909153458E+03  0.49067321155E+02  0.30165180602E+03  0.45131545846E+03  0.92004464676E+02 0.  0.
         23    2    4    4    0    0 -0.44703813523E+02 -0.14187831584E+03 -0.47722733114E+03  0.50745339691E+03  0.87379270985E+02 0.  0.
         11    1    3    3    0    0 -0.56355571200E+02  0.52957019319E+00  0.10574775234E+03  0.11982828537E+03  0.00000000000E+00 0. -1.
        -11    1    3    3    0    0 -0.21803214986E+03  0.92281424495E+02  0.93973567383E+03  0.96910113835E+03  0.00000000000E+00 0.  1.
          2    1    5    5  502    0  0.18404672869E+03 -0.23368416716E+01  0.12226227620E+03  0.22096769753E+03  0.00000000000E+00 0. -1.
          3    1    6    6  503    0 -0.65054915204E+02 -0.83225677050E+02 -0.35469566838E+03  0.37009143800E+03  0.00000000000E+00 0. -1.
         -2    1    5    5    0  502  0.13504480589E+03  0.51404162826E+02  0.17938952982E+03  0.23034776093E+03  0.00000000000E+00 0.  1.
         -3    1    6    6    0  503  0.20351101681E+02 -0.58652638793E+02 -0.12253166276E+03  0.13736195891E+03  0.00000000000E+00 0.  1.
<mgrwt>
<rscale>  0 0.18537337E+04</rscale>
<asrwt>0</asrwt>
<pdfrwt beam="1">  1        2 0.90599260E-01 0.18537337E+04</pdfrwt>
<pdfrwt beam="2">  1       -2 0.22443124E+00 0.18537337E+04</pdfrwt>
<totfact> 0.44162559E+00</totfact>
</mgrwt>
</event>
<event>
12    1  0.4247462E-008  0.2566265E+04  0.7818608E-02  0.8379751E-01
         -2   -1    0    0    0  501 -0.00000000000E+00  0.00000000000E+00  0.12065580993E+04  0.12065580993E+04  0.00000000000E+00 0.  1.
          2   -1    0    0  501    0  0.00000000000E+00 -0.00000000000E+00 -0.13645665670E+04  0.13645665670E+04  0.00000000000E+00 0. -1.
         23    2    1    2    0    0 -0.74425972137E+03  0.84340298693E+03  0.20810177093E+01  0.11281819045E+04  0.86827114446E+02 0.  0.
        254    2    1    2    0    0  0.74425972137E+03 -0.84340298693E+03 -0.16008948543E+03  0.14429427618E+04  0.88949650889E+03 0.  0.
         23    2    4    4    0    0  0.22927517512E+03 -0.69191260271E+03  0.23325367467E+03  0.77106280278E+03  0.93917055787E+02 0.  0.
         23    2    4    4    0    0  0.51498454625E+03 -0.15149038422E+03 -0.39334316010E+03  0.67187995904E+03  0.92441432140E+02 0.  0.
         11    1    3    3    0    0 -0.29602131451E+03  0.31977360044E+03  0.41818105564E+02  0.43775852720E+03  0.00000000000E+00 0. -1.
        -11    1    3    3    0    0 -0.44823840686E+03  0.52362938649E+03 -0.39737087854E+02  0.69042337731E+03  0.00000000000E+00 0.  1.
          2    1    5    5  502    0  0.20287388111E+02 -0.10535297667E+03  0.67299095948E+02  0.12664910629E+03  0.00000000000E+00 0. -1.
          3    1    6    6  503    0  0.26940819489E+03 -0.12721019004E+03 -0.21513109871E+03  0.36748414599E+03  0.00000000000E+00 0. -1.
         -2    1    5    5    0  502  0.20898778701E+03 -0.58655962604E+03  0.16595457872E+03  0.64441369649E+03  0.00000000000E+00 0.  1.
         -3    1    6    6    0  503  0.24557635136E+03 -0.24280194182E+02 -0.17821206139E+03  0.30439581305E+03  0.00000000000E+00 0.  1.
<mgrwt>
<rscale>  0 0.25662649E+04</rscale>
<asrwt>0</asrwt>
<pdfrwt beam="1">  1        2 0.20993332E+00 0.25662649E+04</pdfrwt>
<pdfrwt beam="2">  1       -2 0.18562432E+00 0.25662649E+04</pdfrwt>
<totfact> 0.22321803E+00</totfact>
</mgrwt>
</event>
<event>
12    1  0.4247462E-008  0.1888216E+04  0.7818608E-02  0.8660744E-01
         -1   -1    0    0    0  501 -0.00000000000E+00  0.00000000000E+00  0.70912413728E+03  0.70912413728E+03  0.00000000000E+00 0.  1.
          1   -1    0    0  501    0  0.00000000000E+00 -0.00000000000E+00 -0.12569587956E+04  0.12569587956E+04  0.00000000000E+00 0. -1.
         23    2    1    2    0    0  0.71977945680E+03  0.46289306052E+02 -0.27576740518E+03  0.77760461546E+03  0.91630289423E+02 0.  0.
        254    2    1    2    0    0 -0.71977945680E+03 -0.46289306052E+02 -0.27206725312E+03  0.11884783174E+04  0.90456340544E+03 0.  0.
         23    2    4    4    0    0 -0.73720633304E+03  0.29718122230E+03 -0.16727688215E+03  0.81737226474E+03  0.91246958855E+02 0.  0.
         23    2    4    4    0    0  0.17426876247E+02 -0.34347052835E+03 -0.10479037098E+03  0.37110605267E+03  0.91994459737E+02 0.  0.
         11    1    3    3    0    0  0.48974438980E+03  0.14340150722E+02 -0.22842174045E+03  0.54058458984E+03  0.00000000000E+00 0.  1.
        -11    1    3    3    0    0  0.23003506699E+03  0.31949155330E+02 -0.47345664728E+02  0.23702002561E+03  0.00000000000E+00 0. -1.
          1    1    6    6  502    0 -0.34047491228E+02 -0.80664196120E+02 -0.35569709206E+02  0.94504753360E+02  0.00000000000E+00 0. -1.
          1    1    5    5  503    0 -0.25496937853E+03  0.12470203788E+03 -0.20348197717E+02  0.28455936356E+03  0.00000000000E+00 0. -1.
         -1    1    5    5    0  503 -0.48223695452E+03  0.17247918442E+03 -0.14692868443E+03  0.53281290118E+03  0.00000000000E+00 0.  1.
         -1    1    6    6    0  502  0.51474367475E+02 -0.26280633223E+03 -0.69220661771E+02  0.27660129931E+03  0.00000000000E+00 0.  1.
<mgrwt>
<rscale>  0 0.18882159E+04</rscale>
<asrwt>0</asrwt>
<pdfrwt beam="1">  1        1 0.19337827E+00 0.18882159E+04</pdfrwt>
<pdfrwt beam="2">  1       -1 0.10909602E+00 0.18882159E+04</pdfrwt>
<totfact> 0.70803010E+00</totfact>
</mgrwt>
</event>
<event>
12    1  0.4247462E-008  0.1504709E+04  0.7818608E-02  0.8881328E-01
         -1   -1    0    0    0  501 -0.00000000000E+00  0.00000000000E+00  0.86523703004E+03  0.86523703004E+03  0.00000000000E+00 0.  1.
          1   -1    0    0  501    0  0.00000000000E+00 -0.00000000000E+00 -0.65419896068E+03  0.65419896068E+03  0.00000000000E+00 0. -1.
         23    2    1    2    0    0 -0.11369257438E+03  0.70507984835E+02 -0.39417237560E+03  0.42617378549E+03  0.91404903360E+02 0.  0.
        254    2    1    2    0    0  0.11369257438E+03 -0.70507984835E+02  0.60521044496E+03  0.10932622052E+04  0.90058047353E+03 0.  0.
         23    2    4    4    0    0  0.23673746720E+03  0.19901190986E+03 -0.85940899378E+02  0.33571734975E+03  0.98335812890E+02 0.  0.
         23    2    4    4    0    0 -0.12304489282E+03 -0.26951989469E+03  0.69115134434E+03  0.75754485548E+03  0.91667922442E+02 0.  0.
         11    1    3    3    0    0 -0.11700348608E+03  0.86582311225E+02 -0.35066192949E+03  0.37967104336E+03  0.00000000000E+00 0. -1.
        -11    1    3    3    0    0  0.33109116949E+01 -0.16074326390E+02 -0.43510446102E+02  0.46502742125E+02  0.00000000000E+00 0.  1.
          1    1    5    5  502    0 -0.59834903441E+01  0.10555651552E+02 -0.16830674852E+02  0.20748386741E+02  0.00000000000E+00 0. -1.
          3    1    6    6  503    0 -0.11392511085E+02 -0.10651067055E+03  0.31408012304E+03  0.33184429472E+03  0.00000000000E+00 0. -1.
         -1    1    5    5    0  502  0.24272095754E+03  0.18845625831E+03 -0.69110224526E+02  0.31496896301E+03  0.00000000000E+00 0.  1.
         -3    1    6    6    0  503 -0.11165238173E+03 -0.16300922415E+03  0.37707122130E+03  0.42570056077E+03  0.00000000000E+00 0.  1.
<mgrwt>
<rscale>  0 0.15047088E+04</rscale>
<asrwt>0</asrwt>
<pdfrwt beam="1">  1        1 0.10064599E+00 0.15047088E+04</pdfrwt>
<pdfrwt beam="2">  1       -1 0.13311339E+00 0.15047088E+04</pdfrwt>
<totfact> 0.13933153E+01</totfact>
</mgrwt>
</event>
<event>
12    1  0.4247462E-008  0.1924684E+04  0.7818608E-02  0.8642666E-01
          1   -1    0    0  501    0  0.00000000000E+00  0.00000000000E+00  0.98344675577E+03  0.98344675577E+03  0.00000000000E+00 0. -1.
         -1   -1    0    0    0  501 -0.00000000000E+00 -0.00000000000E+00 -0.94169033988E+03  0.94169033988E+03  0.00000000000E+00 0.  1.
         23    2    1    2    0    0  0.30978665385E+03 -0.67493855766E+03  0.67817624131E+02  0.75116352514E+03  0.90208557502E+02 0.  0.
        254    2    1    2    0    0 -0.30978665385E+03  0.67493855766E+03 -0.26061208241E+02  0.11739735705E+04  0.90885913658E+03 0.  0.
         23    2    4    4    0    0  0.62480065929E+02  0.99980988527E+02 -0.37360134855E+03  0.40117475680E+03  0.86390168157E+02 0.  0.
         23    2    4    4    0    0 -0.37226671978E+03  0.57495756913E+03  0.34754014031E+03  0.77279881370E+03  0.85294433413E+02 0.  0.
         13    1    3    3    0    0  0.16218298951E+03 -0.35660436456E+03 -0.94535959489E+01  0.39186651475E+03  0.00000000000E+00 0.  1.
        -13    1    3    3    0    0  0.14760366434E+03 -0.31833419310E+03  0.77271220080E+02  0.35929701039E+03  0.00000000000E+00 0. -1.
          1    1    5    5  502    0 -0.94552720543E+01  0.50178140517E+02 -0.20451672204E+03  0.21079453871E+03  0.00000000000E+00 0. -1.
          3    1    6    6  503    0 -0.19315513902E+03  0.34147174105E+03  0.23761972335E+03  0.45866653528E+03  0.00000000000E+00 0. -1.
         -1    1    5    5    0  502  0.71935337983E+02  0.49802848010E+02 -0.16908462651E+03  0.19038021810E+03  0.00000000000E+00 0.  1.
         -3    1    6    6    0  503 -0.17911158076E+03  0.23348582808E+03  0.10992041696E+03  0.31413227841E+03  0.00000000000E+00 0.  1.
<mgrwt>
<rscale>  0 0.19246842E+04</rscale>
<asrwt>0</asrwt>
<pdfrwt beam="1">  1        1 0.15129950E+00 0.19246842E+04</pdfrwt>
<pdfrwt beam="2">  1       -1 0.14487544E+00 0.19246842E+04</pdfrwt>
<totfact> 0.55750414E+00</totfact>
</mgrwt>
</event>
<event>
12    1  0.4247462E-008  0.1419962E+04  0.7818608E-02  0.8939495E-01
         -1   -1    0    0    0  501 -0.00000000000E+00  0.00000000000E+00  0.67911820468E+03  0.67911820468E+03  0.00000000000E+00 0.  1.
          1   -1    0    0  501    0  0.00000000000E+00 -0.00000000000E+00 -0.74224627379E+03  0.74224627379E+03  0.00000000000E+00 0. -1.
         23    2    1    2    0    0  0.28029130011E+03  0.16125589075E+03  0.22251008164E+03  0.40247526018E+03  0.88932128048E+02 0.  0.
        254    2    1    2    0    0 -0.28029130011E+03 -0.16125589075E+03 -0.28563815076E+03  0.10188892183E+04  0.92302730770E+03 0.  0.
         23    2    4    4    0    0 -0.43632477009E+03  0.13200965469E+03  0.12593269069E+03  0.48164057147E+03  0.91174248426E+02 0.  0.
         23    2    4    4    0    0  0.15603346997E+03 -0.29326554545E+03 -0.41157084145E+03  0.53724864683E+03  0.94310270335E+02 0.  0.
         11    1    3    3    0    0  0.13810303619E+03  0.12745907128E+03  0.10754844068E+03  0.21652928335E+03  0.00000000000E+00 0. -1.
        -11    1    3    3    0    0  0.14218826393E+03  0.33796819476E+02  0.11496164097E+03  0.18594597683E+03  0.00000000000E+00 0.  1.
          1    1    6    6  502    0  0.97928350522E+02 -0.19710197860E+03 -0.33663475654E+03  0.40219660754E+03  0.00000000000E+00 0. -1.
          1    1    5    5  503    0 -0.16245539014E+03  0.29214773671E+02  0.86849454942E+02  0.18651564173E+03  0.00000000000E+00 0. -1.
         -1    1    5    5    0  503 -0.27386937994E+03  0.10279488102E+03  0.39083235751E+02  0.29512492974E+03  0.00000000000E+00 0.  1.
         -1    1    6    6    0  502  0.58105119451E+02 -0.96163566848E+02 -0.74936084908E+02  0.13505203929E+03  0.00000000000E+00 0.  1.
<mgrwt>
<rscale>  0 0.14199619E+04</rscale>
<asrwt>0</asrwt>
<pdfrwt beam="1">  1        1 0.11419173E+00 0.14199619E+04</pdfrwt>
<pdfrwt beam="2">  1       -1 0.10447972E+00 0.14199619E+04</pdfrwt>
<totfact> 0.20881139E+01</totfact>
</mgrwt>
</event>
<event>
12    1  0.4247462E-008  0.1791676E+04  0.7818608E-02  0.8710739E-01
          2   -1    0    0  501    0  0.00000000000E+00  0.00000000000E+00  0.22033760524E+04  0.22033760524E+04  0.00000000000E+00 0. -1.
         -2   -1    0    0    0  501 -0.00000000000E+00 -0.00000000000E+00 -0.36422547272E+03  0.36422547272E+03  0.00000000000E+00 0.  1.
         23    2    1    2    0    0  0.46245898162E+03  0.43313787671E+03  0.96209477871E+03  0.11555569310E+04  0.90602028747E+02 0.  0.
        254    2    1    2    0    0 -0.46245898162E+03 -0.43313787671E+03  0.87705580094E+03  0.14120445941E+04  0.90728514142E+03 0.  0.
         23    2    4    4    0    0 -0.27279622244E+03  0.24776973603E+03  0.41407612571E+03  0.56224094210E+03  0.94064967035E+02 0.  0.
         23    2    4    4    0    0 -0.18966275918E+03 -0.68090761274E+03  0.46297967523E+03  0.84980365200E+03  0.90603134453E+02 0.  0.
         13    1    3    3    0    0  0.38527779810E+03  0.32897573739E+03  0.81352933822E+03  0.95838092721E+03  0.00000000000E+00 0. -1.
        -13    1    3    3    0    0  0.77181183520E+02  0.10416213932E+03  0.14856544049E+03  0.19717600378E+03  0.00000000000E+00 0.  1.
          1    1    5    5  502    0 -0.79422072822E+02  0.12720371258E+03  0.13344539781E+03  0.20073944392E+03  0.00000000000E+00 0. -1.
          3    1    6    6  503    0 -0.74264509092E+02 -0.24517036301E+03  0.22029682422E+03  0.33786745178E+03  0.00000000000E+00 0. -1.
         -1    1    5    5    0  502 -0.19337414962E+03  0.12056602344E+03  0.28063072790E+03  0.36150149818E+03  0.00000000000E+00 0.  1.
         -3    1    6    6    0  503 -0.11539825009E+03 -0.43573724973E+03  0.24268285101E+03  0.51193620023E+03  0.00000000000E+00 0.  1.
<mgrwt>
<rscale>  0 0.17916760E+04</rscale>
<asrwt>0</asrwt>
<pdfrwt beam="1">  1        2 0.33898092E+00 0.17916760E+04</pdfrwt>
<pdfrwt beam="2">  1       -2 0.56034690E-01 0.17916760E+04</pdfrwt>
<totfact> 0.14529008E+01</totfact>
</mgrwt>
</event>
<event>
12    1  0.4247462E-008  0.2650916E+04  0.7818608E-02  0.8351109E-01
         -2   -1    0    0    0  501 -0.00000000000E+00  0.00000000000E+00  0.12227199794E+04  0.12227199794E+04  0.00000000000E+00 0.  1.
          2   -1    0    0  501    0  0.00000000000E+00 -0.00000000000E+00 -0.14368286168E+04  0.14368286168E+04  0.00000000000E+00 0. -1.
         23    2    1    2    0    0  0.78033827407E+03  0.60842929852E+03  0.53365324924E+03  0.11279697951E+04  0.91738949448E+02 0.  0.
        254    2    1    2    0    0 -0.78033827407E+03 -0.60842929852E+03 -0.74776188666E+03  0.15315788011E+04  0.89859431982E+03 0.  0.
         23    2    4    4    0    0 -0.67115154679E+03 -0.41517032084E+02 -0.65076536113E+03  0.94011803563E+03  0.90323324606E+02 0.  0.
         23    2    4    4    0    0 -0.10918672728E+03 -0.56691226644E+03 -0.96996525537E+02  0.59146076549E+03  0.84298587711E+02 0.  0.
         11    1    3    3    0    0  0.18634179104E+03  0.18114099743E+03  0.10774110191E+03  0.28132449072E+03  0.00000000000E+00 0. -1.
        -11    1    3    3    0    0  0.59399648304E+03  0.42728830109E+03  0.42591214734E+03  0.84664530434E+03  0.00000000000E+00 0.  1.
          2    1    5    5  502    0 -0.45652956600E+02  0.81518639758E+00 -0.17175211944E+02  0.48783653825E+02  0.00000000000E+00 0. -1.
          4    1    6    6  503    0 -0.67102432075E+02 -0.49904714730E+03 -0.86632768177E+02  0.51093642280E+03  0.00000000000E+00 0.  1.
         -2    1    5    5    0  502 -0.62549859019E+03 -0.42332218481E+02 -0.63359014918E+03  0.89133438181E+03  0.00000000000E+00 0.  1.
         -4    1    6    6    0  503 -0.42084295209E+02 -0.67865119138E+02 -0.10363757360E+02  0.80524342689E+02  0.00000000000E+00 0. -1.
<mgrwt>
<rscale>  0 0.26509161E+04</rscale>
<asrwt>0</asrwt>
<pdfrwt beam="1">  1        2 0.22105056E+00 0.26509161E+04</pdfrwt>
<pdfrwt beam="2">  1       -2 0.18811077E+00 0.26509161E+04</pdfrwt>
<totfact> 0.19384232E+00</totfact>
</mgrwt>
</event>
<event>
12    1  0.4247462E-008  0.1456820E+04  0.7818608E-02  0.8913686E-01
          2   -1    0    0  501    0  0.00000000000E+00  0.00000000000E+00  0.62240864719E+03  0.62240864719E+03  0.00000000000E+00 0. -1.
         -2   -1    0    0    0  501 -0.00000000000E+00 -0.00000000000E+00 -0.85246367957E+03  0.85246367957E+03  0.00000000000E+00 0.  1.
         23    2    1    2    0    0 -0.25280506053E+03  0.29254585056E+02  0.29551320758E+03  0.40100932226E+03  0.93349832944E+02 0.  0.
        254    2    1    2    0    0  0.25280506053E+03 -0.29254585056E+02 -0.52556823996E+03  0.10738630045E+04  0.90121781397E+03 0.  0.
         23    2    4    4    0    0  0.41755392876E+03 -0.35752377106E+03 -0.33161106746E+03  0.64842187994E+03  0.91161965898E+02 0.  0.
         23    2    4    4    0    0 -0.16474886823E+03  0.32826918600E+03 -0.19395717251E+03  0.42544112457E+03  0.92075608302E+02 0.  0.
         13    1    3    3    0    0 -0.28884870432E+02  0.77337590022E+01  0.35998309783E+00  0.29904453782E+02  0.00000000000E+00 0.  1.
        -13    1    3    3    0    0 -0.22392019010E+03  0.21520826054E+02  0.29515322448E+03  0.37110486848E+03  0.00000000000E+00 0. -1.
          2    1    5    5  502    0  0.13627661940E+03 -0.13181178650E+03 -0.16421778347E+03  0.25082492791E+03  0.00000000000E+00 0. -1.
          1    1    6    6  503    0 -0.88845661586E+02  0.18976426662E+03 -0.58962434882E+02  0.21767084599E+03  0.00000000000E+00 0. -1.
         -2    1    5    5    0  502  0.28127730935E+03 -0.22571198456E+03 -0.16739328399E+03  0.39759695202E+03  0.00000000000E+00 0.  1.
         -1    1    6    6    0  503 -0.75903206643E+02  0.13850491938E+03 -0.13499473762E+03  0.20777027857E+03  0.00000000000E+00 0.  1.
<mgrwt>
<rscale>  0 0.14568195E+04</rscale>
<asrwt>0</asrwt>
<pdfrwt beam="1">  1        2 0.95755176E-01 0.14568195E+04</pdfrwt>
<pdfrwt beam="2">  1       -2 0.13114826E+00 0.14568195E+04</pdfrwt>
<totfact> 0.19517871E+01</totfact>
</mgrwt>
</event>
<event>
12    1  0.4247462E-008  0.1932932E+04  0.7818608E-02  0.8638636E-01
         -2   -1    0    0    0  501 -0.00000000000E+00  0.00000000000E+00  0.49129435955E+03  0.49129435955E+03  0.00000000000E+00 0.  1.
          2   -1    0    0  501    0  0.00000000000E+00 -0.00000000000E+00 -0.19012148823E+04  0.19012148823E+04  0.00000000000E+00 0. -1.
         23    2    1    2    0    0  0.34655243358E+03 -0.65269942895E+03 -0.39373624362E+03  0.84193763331E+03  0.87838573886E+02 0.  0.
        254    2    1    2    0    0 -0.34655243358E+03  0.65269942895E+03 -0.10161842791E+04  0.15505716085E+04  0.90858499343E+03 0.  0.
         23    2    4    4    0    0 -0.45366398602E+03  0.71145677053E+03 -0.44256749412E+03  0.95713028432E+03  0.90833065357E+02 0.  0.
         23    2    4    4    0    0  0.10711155243E+03 -0.58757341584E+02 -0.57361678499E+03  0.59344132421E+03  0.90615006511E+02 0.  0.
         13    1    3    3    0    0  0.25599219641E+03 -0.48677830185E+03 -0.33507157800E+03  0.64401714431E+03  0.00000000000E+00 0.  1.
        -13    1    3    3    0    0  0.90560237171E+02 -0.16592112709E+03 -0.58664665628E+02  0.19792048900E+03  0.00000000000E+00 0. -1.
          2    1    5    5  502    0 -0.16093680316E+03  0.18293248709E+03 -0.10808888410E+03  0.26654860028E+03  0.00000000000E+00 0. -1.
          1    1    6    6  503    0  0.17717433295E+02 -0.24705026933E+02 -0.34844823824E+02  0.46242918870E+02  0.00000000000E+00 0. -1.
         -2    1    5    5    0  502 -0.29272718286E+03  0.52852428344E+03 -0.33447861002E+03  0.69058168404E+03  0.00000000000E+00 0.  1.
         -1    1    6    6    0  503  0.89394119138E+02 -0.34052314651E+02 -0.53877196116E+03  0.54719840534E+03  0.00000000000E+00 0.  1.
<mgrwt>
<rscale>  0 0.19329316E+04</rscale>
<asrwt>0</asrwt>
<pdfrwt beam="1">  1        2 0.29249459E+00 0.19329316E+04</pdfrwt>
<pdfrwt beam="2">  1       -2 0.75583748E-01 0.19329316E+04</pdfrwt>
<totfact> 0.11114471E+01</totfact>
</mgrwt>
</event>
<event>
12    1  0.4247462E-008  0.2512822E+04  0.7818608E-02  0.8398432E-01
          2   -1    0    0  501    0  0.00000000000E+00  0.00000000000E+00  0.19036722339E+04  0.19036722339E+04  0.00000000000E+00 0. -1.
         -2   -1    0    0    0  501 -0.00000000000E+00 -0.00000000000E+00 -0.82922262123E+03  0.82922262123E+03  0.00000000000E+00 0.  1.
         23    2    1    2    0    0  0.10713502062E+04  0.38693043096E+02  0.70779330165E+03  0.12890615109E+04  0.10686348765E+03 0.  0.
        254    2    1    2    0    0 -0.10713502062E+04 -0.38693043096E+02  0.36665631104E+03  0.14438333443E+04  0.89494662388E+03 0.  0.
         23    2    4    4    0    0 -0.59890786595E+02  0.26313551568E+03 -0.77042726320E+02  0.29483739522E+03  0.90367593818E+02 0.  0.
         23    2    4    4    0    0 -0.10114594196E+04 -0.30182855877E+03  0.44369903736E+03  0.11489959490E+04  0.95771700814E+02 0.  0.
         13    1    3    3    0    0  0.44307453070E+03  0.99586418374E+01  0.35573643482E+03  0.56829800753E+03  0.00000000000E+00 0. -1.
        -13    1    3    3    0    0  0.62827567554E+03  0.28734401258E+02  0.35205686683E+03  0.72076350336E+03  0.00000000000E+00 0.  1.
          4    1    5    5  502    0 -0.24074980662E+02  0.49255052414E+02 -0.53673059413E+02  0.76723283226E+02  0.00000000000E+00 0. -1.
          3    1    6    6  503    0 -0.31194762220E+03 -0.52544933631E+02  0.11074102832E+03  0.33516542841E+03  0.00000000000E+00 0. -1.
         -4    1    5    5    0  502 -0.35815805932E+02  0.21388046326E+03 -0.23369666907E+02  0.21811411200E+03  0.00000000000E+00 0.  1.
         -3    1    6    6    0  503 -0.69951179745E+03 -0.24928362514E+03  0.33295800904E+03  0.81383052063E+03  0.00000000000E+00 0.  1.
<mgrwt>
<rscale>  0 0.25128216E+04</rscale>
<asrwt>0</asrwt>
<pdfrwt beam="1">  1        2 0.29287265E+00 0.25128216E+04</pdfrwt>
<pdfrwt beam="2">  1       -2 0.12757271E+00 0.25128216E+04</pdfrwt>
<totfact> 0.30673902E+00</totfact>
</mgrwt>
</event>
<event>
12    1  0.4247462E-008  0.1970829E+04  0.7818608E-02  0.8620382E-01
         -2   -1    0    0    0  501 -0.00000000000E+00  0.00000000000E+00  0.55226152152E+03  0.55226152152E+03  0.00000000000E+00 0.  1.
          2   -1    0    0  501    0  0.00000000000E+00 -0.00000000000E+00 -0.17583006336E+04  0.17583006336E+04  0.00000000000E+00 0. -1.
         23    2    1    2    0    0 -0.74402910976E+02  0.41989838140E+03 -0.12500693993E+04  0.13238098087E+04  0.89154152114E+02 0.  0.
        254    2    1    2    0    0  0.74402910976E+02 -0.41989838140E+03  0.44030287131E+02  0.98675234644E+03  0.88875816910E+03 0.  0.
         23    2    4    4    0    0  0.45440630355E+03 -0.10571910432E+03  0.79730904173E+02  0.48427129477E+03  0.10246976205E+03 0.  0.
         23    2    4    4    0    0 -0.38000339257E+03 -0.31417927709E+03 -0.35700617042E+02  0.50248105167E+03  0.90008203578E+02 0.  0.
         11    1    3    3    0    0 -0.36441870316E+02  0.15847189327E+03 -0.61161605573E+03  0.63286297924E+03  0.00000000000E+00 0.  1.
        -11    1    3    3    0    0 -0.37961040660E+02  0.26142648813E+03 -0.63845334353E+03  0.69094682948E+03  0.00000000000E+00 0. -1.
          2    1    5    5  502    0  0.15277001074E+03 -0.81338378248E+02  0.79600946810E+01  0.17325695098E+03  0.00000000000E+00 0.  1.
          2    1    6    6  503    0 -0.36745754788E+02 -0.69354035662E+02 -0.17793560172E+02  0.80478839089E+02  0.00000000000E+00 0. -1.
         -2    1    5    5    0  502  0.30163629281E+03 -0.24380726069E+02  0.71770809492E+02  0.31101434378E+03  0.00000000000E+00 0. -1.
         -2    1    6    6    0  503 -0.34325763779E+03 -0.24482524142E+03 -0.17907056871E+02  0.42200221258E+03  0.00000000000E+00 0.  1.
<mgrwt>
<rscale>  0 0.19708290E+04</rscale>
<asrwt>0</asrwt>
<pdfrwt beam="1">  1        2 0.27050779E+00 0.19708290E+04</pdfrwt>
<pdfrwt beam="2">  1       -2 0.84963311E-01 0.19708290E+04</pdfrwt>
<totfact> 0.10222031E+01</totfact>
</mgrwt>
</event>
<event>
12    1  0.4247462E-008  0.2309457E+04  0.7818608E-02  0.8474202E-01
          2   -1    0    0  501    0  0.00000000000E+00  0.00000000000E+00  0.81880172474E+03  0.81880172474E+03  0.00000000000E+00 0. -1.
         -2   -1    0    0    0  501 -0.00000000000E+00 -0.00000000000E+00 -0.16284750331E+04  0.16284750331E+04  0.00000000000E+00 0.  1.
         23    2    1    2    0    0  0.28887152509E+03 -0.67963799656E+03 -0.10233356397E+04  0.12654069693E+04  0.93190138852E+02 0.  0.
        254    2    1    2    0    0 -0.28887152509E+03  0.67963799656E+03  0.21366233134E+03  0.11818697886E+04  0.89766922694E+03 0.  0.
         23    2    4    4    0    0 -0.25413030161E+03  0.10981772617E+03  0.46693243455E+03  0.55106962660E+03  0.94919396032E+02 0.  0.
         23    2    4    4    0    0 -0.34741223478E+02  0.56982027040E+03 -0.25327010322E+03  0.63080016200E+03  0.88662314618E+02 0.  0.
         13    1    3    3    0    0  0.29278110181E+03 -0.66545315254E+03 -0.10149609042E+04  0.12484767954E+04  0.00000000000E+00 0.  1.
        -13    1    3    3    0    0 -0.39095767191E+01 -0.14184844028E+02 -0.83747355770E+01  0.16930173838E+02  0.00000000000E+00 0. -1.
          1    1    5    5  502    0 -0.33468514424E+02 -0.17631482352E+02  0.61996373575E+02  0.72626172721E+02  0.00000000000E+00 0. -1.
          3    1    6    6  503    0 -0.43656365049E+01 -0.20884775790E+01 -0.79628990087E+00  0.49045487353E+01  0.00000000000E+00 0. -1.
         -1    1    5    5    0  502 -0.22066178718E+03  0.12744920852E+03  0.40493606098E+03  0.47844345388E+03  0.00000000000E+00 0.  1.
         -3    1    6    6    0  503 -0.30375586974E+02  0.57190874797E+03 -0.25247381332E+03  0.62589561326E+03  0.00000000000E+00 0.  1.
<mgrwt>
<rscale>  0 0.23094572E+04</rscale>
<asrwt>0</asrwt>
<pdfrwt beam="1">  1        2 0.12596950E+00 0.23094572E+04</pdfrwt>
<pdfrwt beam="2">  1       -2 0.25053462E+00 0.23094572E+04</pdfrwt>
<totfact> 0.19288526E+00</totfact>
</mgrwt>
</event>
<event>
12    1  0.4247462E-008  0.3964860E+04  0.7818608E-02  0.8011673E-01
          1   -1    0    0  501    0  0.00000000000E+00  0.00000000000E+00  0.14859911829E+04  0.14859911829E+04  0.00000000000E+00 0. -1.
         -1   -1    0    0    0  501 -0.00000000000E+00 -0.00000000000E+00 -0.26447182461E+04  0.26447182461E+04  0.00000000000E+00 0.  1.
         23    2    1    2    0    0  0.14740925654E+04  0.11109101451E+04 -0.17512313170E+03  0.18563335381E+04  0.90751592843E+02 0.  0.
        254    2    1    2    0    0 -0.14740925654E+04 -0.11109101451E+04 -0.98360393144E+03  0.22743758909E+04  0.89344208398E+03 0.  0.
         23    2    4    4    0    0 -0.45288295627E+03 -0.18055503533E+03  0.11231009350E+03  0.50870108042E+03  0.91979015321E+02 0.  0.
         23    2    4    4    0    0 -0.10212096091E+04 -0.93035510980E+03 -0.10959140249E+04  0.17656748105E+04  0.90278958369E+02 0.  0.
         13    1    3    3    0    0  0.96870129217E+03  0.71982909501E+03 -0.71840351621E+02  0.12090066814E+04  0.00000000000E+00 0. -1.
        -13    1    3    3    0    0  0.50539127320E+03  0.39108105012E+03 -0.10328278008E+03  0.64732685673E+03  0.00000000000E+00 0.  1.
          3    1    5    5  502    0 -0.41030484537E+03 -0.17362612468E+03  0.12675378012E+03  0.46320904361E+03  0.00000000000E+00 0. -1.
          3    1    6    6  503    0 -0.68373346614E+03 -0.56515339498E+03 -0.71151445598E+03  0.11371642949E+04  0.00000000000E+00 0. -1.
         -3    1    5    5    0  502 -0.42578110892E+02 -0.69289106479E+01 -0.14443686618E+02  0.45492036809E+02  0.00000000000E+00 0.  1.
         -3    1    6    6    0  503 -0.33747614296E+03 -0.36520171483E+03 -0.38439956896E+03  0.62851051558E+03  0.00000000000E+00 0.  1.
<mgrwt>
<rscale>  0 0.39648596E+04</rscale>
<asrwt>0</asrwt>
<pdfrwt beam="1">  1        1 0.22861403E+00 0.39648596E+04</pdfrwt>
<pdfrwt beam="2">  1       -1 0.40687973E+00 0.39648596E+04</pdfrwt>
<totfact> 0.33677087E-02</totfact>
</mgrwt>
</event>
<event>
12    1  0.4247462E-008  0.2100079E+04  0.7818608E-02  0.8561209E-01
          2   -1    0    0  501    0  0.00000000000E+00  0.00000000000E+00  0.38946727700E+04  0.38946727700E+04  0.00000000000E+00 0. -1.
         -2   -1    0    0    0  501 -0.00000000000E+00 -0.00000000000E+00 -0.28310016565E+03  0.28310016565E+03  0.00000000000E+00 0.  1.
         23    2    1    2    0    0  0.10214026969E+03 -0.75887477706E+02 -0.19104644667E+03  0.24720326715E+03  0.91756016350E+02 0.  0.
        254    2    1    2    0    0 -0.10214026969E+03  0.75887477706E+02  0.38026190510E+04  0.39305696685E+04  0.98654687057E+03 0.  0.
         23    2    4    4    0    0 -0.44925433224E+03 -0.10800220780E+03  0.29444511332E+04  0.29818966327E+04  0.91766661493E+02 0.  0.
         23    2    4    4    0    0  0.34711406254E+03  0.18388968551E+03  0.85816791777E+03  0.94867303580E+03  0.96045639681E+02 0.  0.
         13    1    3    3    0    0 -0.74242529532E+01  0.11344708675E+02 -0.52575111539E+01  0.14541780165E+02  0.00000000000E+00 0. -1.
        -13    1    3    3    0    0  0.10956452265E+03 -0.87232186381E+02 -0.18578893552E+03  0.23266148698E+03  0.00000000000E+00 0.  1.
          2    1    5    5  502    0 -0.37135556440E+03 -0.74082470673E+02  0.25820179900E+04  0.26096379191E+04  0.00000000000E+00 0. -1.
          3    1    6    6  503    0  0.24520357650E+03  0.16502953960E+03  0.56351783673E+03  0.63632687762E+03  0.00000000000E+00 0. -1.
         -2    1    5    5    0  502 -0.77898767838E+02 -0.33919737130E+02  0.36243314316E+03  0.37225871361E+03  0.00000000000E+00 0.  1.
         -3    1    6    6    0  503  0.10191048605E+03  0.18860145908E+02  0.29465008104E+03  0.31234615818E+03  0.00000000000E+00 0.  1.
<mgrwt>
<rscale>  0 0.21000786E+04</rscale>
<asrwt>0</asrwt>
<pdfrwt beam="1">  1        2 0.59918039E+00 0.21000786E+04</pdfrwt>
<pdfrwt beam="2">  1       -2 0.43553874E-01 0.21000786E+04</pdfrwt>
<totfact> 0.19268848E+00</totfact>
</mgrwt>
</event>
<event>
12    1  0.4247462E-008  0.2644804E+04  0.7818608E-02  0.8353140E-01
         -2   -1    0    0    0  501 -0.00000000000E+00  0.00000000000E+00  0.50765658489E+03  0.50765658489E+03  0.00000000000E+00 0.  1.
          2   -1    0    0  501    0  0.00000000000E+00 -0.00000000000E+00 -0.34447439770E+04  0.34447439770E+04  0.00000000000E+00 0. -1.
         23    2    1    2    0    0  0.10464698728E+04 -0.24401886367E+03 -0.19915193571E+04  0.22646957293E+04  0.89738487804E+02 0.  0.
        254    2    1    2    0    0 -0.10464698728E+04  0.24401886367E+03 -0.94556803499E+03  0.16877048326E+04  0.89420595648E+03 0.  0.
         23    2    4    4    0    0 -0.11601259205E+04  0.19117183000E+03 -0.63233984425E+03  0.13381122716E+04  0.90840258957E+02 0.  0.
         23    2    4    4    0    0  0.11365604774E+03  0.52847033675E+02 -0.31322819073E+03  0.34959256100E+03  0.91610878602E+02 0.  0.
         11    1    3    3    0    0  0.84076375771E+03 -0.23051946591E+03 -0.16327304530E+04  0.18509002276E+04  0.00000000000E+00 0. -1.
        -11    1    3    3    0    0  0.20570611506E+03 -0.13499397759E+02 -0.35878890413E+03  0.41379550172E+03  0.00000000000E+00 0.  1.
          4    1    6    6  502    0  0.95929954815E+01  0.53043292947E+01  0.45332889934E+01  0.11862216516E+02  0.00000000000E+00 0. -1.
          4    1    5    5  503    0 -0.46340776919E+03  0.70305165308E+02 -0.30245210277E+03  0.55782331547E+03  0.00000000000E+00 0. -1.
         -4    1    5    5    0  503 -0.69671815132E+03  0.12086666469E+03 -0.32988774148E+03  0.78028895608E+03  0.00000000000E+00 0.  1.
         -4    1    6    6    0  502  0.10406305226E+03  0.47542704380E+02 -0.31776147973E+03  0.33773034448E+03  0.00000000000E+00 0.  1.
<mgrwt>
<rscale>  0 0.26448039E+04</rscale>
<asrwt>0</asrwt>
<pdfrwt beam="1">  1        2 0.52996062E+00 0.26448039E+04</pdfrwt>
<pdfrwt beam="2">  1       -2 0.78101012E-01 0.26448039E+04</pdfrwt>
<totfact> 0.11424349E+00</totfact>
</mgrwt>
</event>
<event>
12    1  0.4247462E-008  0.2148530E+04  0.7818608E-02  0.8540162E-01
          1   -1    0    0  501    0  0.00000000000E+00  0.00000000000E+00  0.10319179461E+04  0.10319179461E+04  0.00000000000E+00 0. -1.
         -1   -1    0    0    0  501 -0.00000000000E+00 -0.00000000000E+00 -0.11183496548E+04  0.11183496548E+04  0.00000000000E+00 0.  1.
         23    2    1    2    0    0  0.13844619135E+03  0.20186755212E+02  0.83695948016E+03  0.85353452257E+03  0.91897534248E+02 0.  0.
        254    2    1    2    0    0 -0.13844619135E+03 -0.20186755212E+02 -0.92339118887E+03  0.12967330783E+04  0.89960576679E+03 0.  0.
         23    2    4    4    0    0  0.31496595244E+03 -0.83672883609E+02 -0.10494307428E+03  0.35422820005E+03  0.90883806197E+02 0.  0.
         23    2    4    4    0    0 -0.45341214378E+03  0.63486128396E+02 -0.81844811459E+03  0.94250487823E+03  0.94048224733E+02 0.  0.
         11    1    3    3    0    0  0.12046388724E+03  0.10895854912E+02  0.81395556314E+03  0.82289363016E+03  0.00000000000E+00 0. -1.
        -11    1    3    3    0    0  0.17982304111E+02  0.92909003005E+01  0.23003917014E+02  0.30640892408E+02  0.00000000000E+00 0.  1.
          2    1    5    5  502    0  0.24515718728E+03 -0.10263555120E+03 -0.87610523682E+02  0.27984228899E+03  0.00000000000E+00 0. -1.
          3    1    6    6  503    0 -0.36802293624E+03  0.62343977494E+02 -0.58512813330E+03  0.69404797061E+03  0.00000000000E+00 0. -1.
         -2    1    5    5    0  502  0.69808765157E+02  0.18962667596E+02 -0.17332550600E+02  0.74385911068E+02  0.00000000000E+00 0.  1.
         -3    1    6    6    0  503 -0.85389207546E+02  0.11421509026E+01 -0.23331998129E+03  0.24845690762E+03  0.00000000000E+00 0.  1.
<mgrwt>
<rscale>  0 0.21485298E+04</rscale>
<asrwt>0</asrwt>
<pdfrwt beam="1">  1        1 0.15875661E+00 0.21485298E+04</pdfrwt>
<pdfrwt beam="2">  1       -1 0.17205379E+00 0.21485298E+04</pdfrwt>
<totfact> 0.31105502E+00</totfact>
</mgrwt>
</event>
<event>
12    1  0.4247462E-008  0.1154451E+04  0.7818608E-02  0.9153687E-01
          1   -1    0    0  501    0  0.00000000000E+00  0.00000000000E+00  0.14026104234E+04  0.14026104234E+04  0.00000000000E+00 0. -1.
         -1   -1    0    0    0  501 -0.00000000000E+00 -0.00000000000E+00 -0.23754938302E+03  0.23754938302E+03  0.00000000000E+00 0.  1.
         23    2    1    2    0    0 -0.95581391405E+02 -0.10500959055E+03  0.73011095278E+01  0.16826674874E+03  0.89986532551E+02 0.  0.
        254    2    1    2    0    0  0.95581391405E+02  0.10500959055E+03  0.11577599308E+04  0.14718930576E+04  0.89771838526E+03 0.  0.
         23    2    4    4    0    0  0.38572447317E+03  0.14762900126E+03  0.10741087892E+04  0.11537764440E+04  0.83142650514E+02 0.  0.
         23    2    4    4    0    0 -0.29014308176E+03 -0.42619410707E+02  0.83651141599E+02  0.31811661368E+03  0.90560721878E+02 0.  0.
         11    1    3    3    0    0  0.16834728720E+02 -0.22482536453E+02  0.64027028716E+01  0.28807414680E+02  0.00000000000E+00 0. -1.
        -11    1    3    3    0    0 -0.11241612013E+03 -0.82527054099E+02  0.89840665624E+00  0.13945933406E+03  0.00000000000E+00 0.  1.
          2    1    5    5  502    0  0.29573862498E+03  0.12717347603E+03  0.91323313667E+03  0.96831254728E+03  0.00000000000E+00 0. -1.
          4    1    6    6  503    0 -0.28846127148E+03 -0.35116275993E+02  0.64758599859E+02  0.29771922047E+03  0.00000000000E+00 0. -1.
         -2    1    5    5    0  502  0.89985848186E+02  0.20455525231E+02  0.16087565255E+03  0.18546389668E+03  0.00000000000E+00 0.  1.
         -4    1    6    6    0  503 -0.16818102818E+01 -0.75031347137E+01  0.18892541740E+02  0.20397393210E+02  0.00000000000E+00 0.  1.
<mgrwt>
<rscale>  0 0.11544509E+04</rscale>
<asrwt>0</asrwt>
<pdfrwt beam="1">  1        1 0.21578621E+00 0.11544509E+04</pdfrwt>
<pdfrwt beam="2">  1       -1 0.36546060E-01 0.11544509E+04</pdfrwt>
<totfact> 0.54504280E+01</totfact>
</mgrwt>
</event>
<event>
12    1  0.4247462E-008  0.1766818E+04  0.7818608E-02  0.8724147E-01
          2   -1    0    0  501    0  0.00000000000E+00  0.00000000000E+00  0.24747012341E+04  0.24747012341E+04  0.00000000000E+00 0. -1.
         -2   -1    0    0    0  501 -0.00000000000E+00 -0.00000000000E+00 -0.31535584184E+03  0.31535584184E+03  0.00000000000E+00 0.  1.
         23    2    1    2    0    0  0.15332376420E+03  0.62074629571E+03  0.86828168573E+03  0.10822479955E+04  0.92268616455E+02 0.  0.
        254    2    1    2    0    0 -0.15332376420E+03 -0.62074629571E+03  0.12910637065E+04  0.17078090805E+04  0.91702356609E+03 0.  0.
         23    2    4    4    0    0 -0.40187638928E+03  0.28313463699E+02  0.52059060679E+03  0.66505327050E+03  0.94736414539E+02 0.  0.
         23    2    4    4    0    0  0.24855262508E+03 -0.64905975941E+03  0.77047309974E+03  0.10427558100E+04  0.10321774610E+03 0.  0.
         11    1    3    3    0    0  0.22725939421E+02  0.16401183338E+03  0.16659363197E+03  0.23488249834E+03  0.00000000000E+00 0. -1.
        -11    1    3    3    0    0  0.13059782478E+03  0.45673446233E+03  0.70168805376E+03  0.84736549712E+03  0.00000000000E+00 0.  1.
          4    1    5    5  502    0 -0.37056348238E+03  0.50368777558E+02  0.45356893954E+03  0.58785975465E+03  0.00000000000E+00 0. -1.
          1    1    6    6  503    0  0.20849172917E+03 -0.58445523955E+03  0.72450583207E+03  0.95392108105E+03  0.00000000000E+00 0. -1.
         -4    1    5    5    0  502 -0.31312906900E+02 -0.22055313859E+02  0.67021667252E+02  0.77193515849E+02  0.00000000000E+00 0.  1.
         -1    1    6    6    0  503  0.40060895910E+02 -0.64604519863E+02  0.45967267674E+02  0.88834728937E+02  0.00000000000E+00 0.  1.
<mgrwt>
<rscale>  0 0.17668180E+04</rscale>
<asrwt>0</asrwt>
<pdfrwt beam="1">  1        2 0.38072325E+00 0.17668180E+04</pdfrwt>
<pdfrwt beam="2">  1       -2 0.48516285E-01 0.17668180E+04</pdfrwt>
<totfact> 0.13730454E+01</totfact>
</mgrwt>
</event>
<event>
12    1  0.4247462E-008  0.1448228E+04  0.7818608E-02  0.8919630E-01
          1   -1    0    0  501    0  0.00000000000E+00  0.00000000000E+00  0.57405111565E+03  0.57405111565E+03  0.00000000000E+00 0. -1.
         -1   -1    0    0    0  501 -0.00000000000E+00 -0.00000000000E+00 -0.91340527230E+03  0.91340527230E+03  0.00000000000E+00 0.  1.
         23    2    1    2    0    0 -0.37807543325E+01  0.22378246033E+03 -0.50120626401E+03  0.55675413696E+03  0.93137351696E+02 0.  0.
        254    2    1    2    0    0  0.37807543325E+01 -0.22378246033E+03  0.16185210736E+03  0.93070225100E+03  0.88877313849E+03 0.  0.
         23    2    4    4    0    0 -0.29138430203E+03  0.20803866777E+03 -0.19421130896E+02  0.36949517865E+03  0.89244652317E+02 0.  0.
         23    2    4    4    0    0  0.29516505636E+03 -0.43182112810E+03  0.18127323826E+03  0.56120707234E+03  0.92203546413E+02 0.  0.
         13    1    3    3    0    0  0.12112613124E+01  0.23126375798E+03 -0.46353623500E+03  0.51802532184E+03  0.00000000000E+00 0. -1.
        -13    1    3    3    0    0 -0.49920156449E+01 -0.74812976503E+01 -0.37670029015E+02  0.38728815121E+02  0.00000000000E+00 0.  1.
          2    1    5    5  502    0 -0.23371001213E+03  0.18222914589E+03  0.16492443232E+02  0.29681615870E+03  0.00000000000E+00 0. -1.
          4    1    6    6  503    0  0.27247640721E+03 -0.39503764943E+03  0.13639050074E+03  0.49889929409E+03  0.00000000000E+00 0. -1.
         -2    1    5    5    0  502 -0.57674289901E+02  0.25809521881E+02 -0.35913574127E+02  0.72679019957E+02  0.00000000000E+00 0.  1.
         -4    1    6    6    0  503  0.22688649151E+02 -0.36783478669E+02  0.44882737524E+02  0.62307778254E+02  0.00000000000E+00 0.  1.
<mgrwt>
<rscale>  0 0.14482283E+04</rscale>
<asrwt>0</asrwt>
<pdfrwt beam="1">  1        1 0.88315557E-01 0.14482283E+04</pdfrwt>
<pdfrwt beam="2">  1       -1 0.14052389E+00 0.14482283E+04</pdfrwt>
<totfact> 0.14718469E+01</totfact>
</mgrwt>
</event>
<event>
12    1  0.4247462E-008  0.2001865E+04  0.7818608E-02  0.8605749E-01
         -2   -1    0    0    0  501 -0.00000000000E+00  0.00000000000E+00  0.97027722441E+03  0.97027722441E+03  0.00000000000E+00 0.  1.
          2   -1    0    0  501    0  0.00000000000E+00 -0.00000000000E+00 -0.10325561110E+04  0.10325561110E+04  0.00000000000E+00 0. -1.
         23    2    1    2    0    0 -0.22043353339E+03  0.49232966375E+03 -0.60995784030E+03  0.81938129349E+03  0.91420439313E+02 0.  0.
        254    2    1    2    0    0  0.22043353339E+03 -0.49232966375E+03  0.54767895367E+03  0.11834520420E+04  0.89979278664E+03 0.  0.
         23    2    4    4    0    0  0.50707750653E+03 -0.37308722193E+03  0.57775981333E+03  0.85922691109E+03  0.90237520171E+02 0.  0.
         23    2    4    4    0    0 -0.28664397314E+03 -0.11924244182E+03 -0.30080859665E+02  0.32422513087E+03  0.88507344914E+02 0.  0.
         11    1    3    3    0    0 -0.87610290357E+02  0.26184673493E+03 -0.25537809672E+03  0.37610802684E+03  0.00000000000E+00 0. -1.
        -11    1    3    3    0    0 -0.13282324303E+03  0.23048292882E+03 -0.35457974358E+03  0.44327326665E+03  0.00000000000E+00 0.  1.
          2    1    5    5  502    0  0.26253886529E+03 -0.24699737905E+03  0.31292548167E+03  0.47734339644E+03  0.00000000000E+00 0. -1.
          4    1    6    6  503    0 -0.81331115465E+02 -0.75323575150E+02  0.67633936711E+01  0.11105915005E+03  0.00000000000E+00 0. -1.
         -2    1    5    5    0  502  0.24453864124E+03 -0.12608984288E+03  0.26483433167E+03  0.38188351465E+03  0.00000000000E+00 0.  1.
         -4    1    6    6    0  503 -0.20531285767E+03 -0.43918866667E+02 -0.36844253336E+02  0.21316598082E+03  0.00000000000E+00 0.  1.
<mgrwt>
<rscale>  0 0.20018648E+04</rscale>
<asrwt>0</asrwt>
<pdfrwt beam="1">  1        2 0.15885479E+00 0.20018648E+04</pdfrwt>
<pdfrwt beam="2">  1       -2 0.14927342E+00 0.20018648E+04</pdfrwt>
<totfact> 0.67687589E+00</totfact>
</mgrwt>
</event>
<event>
12    1  0.4247462E-008  0.1378401E+04  0.7818608E-02  0.8969603E-01
         -1   -1    0    0    0  501 -0.00000000000E+00  0.00000000000E+00  0.33312391366E+03  0.33312391366E+03  0.00000000000E+00 0.  1.
          1   -1    0    0  501    0  0.00000000000E+00 -0.00000000000E+00 -0.14258872724E+04  0.14258872724E+04  0.00000000000E+00 0. -1.
         23    2    1    2    0    0 -0.33959426906E+03 -0.47118331780E+02 -0.11305537804E+03  0.37181368508E+03  0.88991534100E+02 0.  0.
        254    2    1    2    0    0  0.33959426906E+03  0.47118331780E+02 -0.97970798065E+03  0.13871975009E+04  0.92029602545E+03 0.  0.
         23    2    4    4    0    0  0.28484309034E+03  0.42045436076E+03 -0.28167669762E+03  0.58877702892E+03  0.96949328062E+02 0.  0.
         23    2    4    4    0    0  0.54751178714E+02 -0.37333602898E+03 -0.69803128303E+03  0.79842047200E+03  0.88600767030E+02 0.  0.
         11    1    3    3    0    0 -0.24558449189E+02 -0.29269275875E+02 -0.64318320442E+01  0.38745017747E+02  0.00000000000E+00 0. -1.
        -11    1    3    3    0    0 -0.31503581987E+03 -0.17849055905E+02 -0.10662354600E+03  0.33306866733E+03  0.00000000000E+00 0.  1.
          2    1    5    5  502    0  0.15873183727E+03  0.16214171498E+03 -0.94763709399E+02  0.24589813444E+03  0.00000000000E+00 0. -1.
          1    1    6    6  503    0 -0.27668566000E+01 -0.21312696871E+03 -0.44567373263E+03  0.49402007676E+03  0.00000000000E+00 0. -1.
         -2    1    5    5    0  502  0.12611125307E+03  0.25831264577E+03 -0.18691298822E+03  0.34287889448E+03  0.00000000000E+00 0.  1.
         -1    1    6    6    0  503  0.57518035314E+02 -0.16020906026E+03 -0.25235755040E+03  0.30440039524E+03  0.00000000000E+00 0.  1.
<mgrwt>
<rscale>  0 0.13784007E+04</rscale>
<asrwt>0</asrwt>
<pdfrwt beam="1">  1        1 0.21936727E+00 0.13784007E+04</pdfrwt>
<pdfrwt beam="2">  1       -1 0.51249833E-01 0.13784007E+04</pdfrwt>
<totfact> 0.27550596E+01</totfact>
</mgrwt>
</event>
<event>
12    1  0.4247462E-008  0.2807568E+04  0.7818608E-02  0.8300923E-01
         -2   -1    0    0    0  501 -0.00000000000E+00  0.00000000000E+00  0.65849860871E+03  0.65849860871E+03  0.00000000000E+00 0.  1.
          2   -1    0    0  501    0  0.00000000000E+00 -0.00000000000E+00 -0.29925796639E+04  0.29925796639E+04  0.00000000000E+00 0. -1.
         23    2    1    2    0    0  0.81356062545E+03 -0.93672814191E+03 -0.10953340114E+04  0.16577768555E+04  0.95535349195E+02 0.  0.
        254    2    1    2    0    0 -0.81356062545E+03  0.93672814191E+03 -0.12387470437E+04  0.19933014171E+04  0.94837534651E+03 0.  0.
         23    2    4    4    0    0  0.18973208360E+03  0.10150060909E+03 -0.31414991821E+03  0.39111422146E+03  0.89328192205E+02 0.  0.
         23    2    4    4    0    0 -0.10032927091E+04  0.83522753282E+03 -0.92459712552E+03  0.16021871956E+04  0.89009402232E+02 0.  0.
         13    1    3    3    0    0  0.78916398838E+03 -0.89042060267E+03 -0.10675030930E+04  0.15984966387E+04  0.00000000000E+00 0. -1.
        -13    1    3    3    0    0  0.24396637071E+02 -0.46307539233E+02 -0.27830918441E+02  0.59280216864E+02  0.00000000000E+00 0.  1.
          4    1    5    5  502    0  0.63545158353E+02  0.19949459624E+02 -0.37851698381E+02  0.76607565943E+02  0.00000000000E+00 0. -1.
          3    1    6    6  503    0 -0.48778743058E+03  0.35599247525E+03 -0.39996116428E+03  0.72431771538E+03  0.00000000000E+00 0. -1.
         -4    1    5    5    0  502  0.12618692525E+03  0.81551149462E+02 -0.27629821983E+03  0.31450665552E+03  0.00000000000E+00 0.  1.
         -3    1    6    6    0  503 -0.51550527847E+03  0.47923505757E+03 -0.52463596124E+03  0.87786948025E+03  0.00000000000E+00 0.  1.
<mgrwt>
<rscale>  0 0.28075680E+04</rscale>
<asrwt>0</asrwt>
<pdfrwt beam="1">  1        2 0.46039688E+00 0.28075680E+04</pdfrwt>
<pdfrwt beam="2">  1       -2 0.10130748E+00 0.28075680E+04</pdfrwt>
<totfact> 0.12251538E+00</totfact>
</mgrwt>
</event>
<event>
12    1  0.4247462E-008  0.1996344E+04  0.7818608E-02  0.8608332E-01
          2   -1    0    0  501    0  0.00000000000E+00  0.00000000000E+00  0.91726810417E+03  0.91726810417E+03  0.00000000000E+00 0. -1.
         -2   -1    0    0    0  501 -0.00000000000E+00 -0.00000000000E+00 -0.10862115193E+04  0.10862115193E+04  0.00000000000E+00 0.  1.
         23    2    1    2    0    0  0.43836155757E+03 -0.33271917827E+03  0.50208425264E+03  0.75040705700E+03  0.90328554213E+02 0.  0.
        254    2    1    2    0    0 -0.43836155757E+03  0.33271917827E+03 -0.67102766773E+03  0.12530725664E+04  0.90390808115E+03 0.  0.
         23    2    4    4    0    0  0.24187171369E+03 -0.14963153852E+02 -0.49036601472E+02  0.26385945111E+03  0.92148791638E+02 0.  0.
         23    2    4    4    0    0 -0.68023327126E+03  0.34768233212E+03 -0.62199106626E+03  0.98921311533E+03  0.89829803782E+02 0.  0.
         11    1    3    3    0    0  0.18260220970E+02 -0.16701201196E+02  0.19659864701E+01  0.24823998350E+02  0.00000000000E+00 0.  1.
        -11    1    3    3    0    0  0.42010133660E+03 -0.31601797707E+03  0.50011826617E+03  0.72558305865E+03  0.00000000000E+00 0. -1.
          1    1    5    5  502    0  0.26102225906E+02  0.19270574985E+02 -0.30626363790E+02  0.44616761609E+02  0.00000000000E+00 0. -1.
          3    1    6    6  503    0 -0.61099950542E+03  0.27907491403E+03 -0.54113481294E+03  0.86257178777E+03  0.00000000000E+00 0. -1.
         -1    1    5    5    0  502  0.21576948778E+03 -0.34233728837E+02 -0.18410237682E+02  0.21924268950E+03  0.00000000000E+00 0.  1.
         -3    1    6    6    0  503 -0.69233765835E+02  0.68607418082E+02 -0.80856253313E+02  0.12664132756E+03  0.00000000000E+00 0.  1.
<mgrwt>
<rscale>  0 0.19963438E+04</rscale>
<asrwt>0</asrwt>
<pdfrwt beam="1">  1        2 0.14111817E+00 0.19963438E+04</pdfrwt>
<pdfrwt beam="2">  1       -2 0.16710946E+00 0.19963438E+04</pdfrwt>
<totfact> 0.59282913E+00</totfact>
</mgrwt>
</event>
<event>
12    1  0.4247462E-008  0.1766821E+04  0.7818608E-02  0.8724145E-01
          1   -1    0    0  501    0  0.00000000000E+00  0.00000000000E+00  0.80495557004E+03  0.80495557004E+03  0.00000000000E+00 0. -1.
         -1   -1    0    0    0  501 -0.00000000000E+00 -0.00000000000E+00 -0.96951182539E+03  0.96951182539E+03  0.00000000000E+00 0.  1.
         23    2    1    2    0    0 -0.28703671321E+03  0.15451420716E+02 -0.65935443754E+03  0.72536123933E+03  0.93658059385E+02 0.  0.
        254    2    1    2    0    0  0.28703671321E+03 -0.15451420716E+02  0.49479818220E+03  0.10491061561E+04  0.87930066788E+03 0.  0.
         23    2    4    4    0    0 -0.23133072670E+03  0.21167803902E+03  0.30071180174E+03  0.44408325257E+03  0.91982879837E+02 0.  0.
         23    2    4    4    0    0  0.51836743991E+03 -0.22712945973E+03  0.19408638045E+03  0.60502290354E+03  0.89947743081E+02 0.  0.
         13    1    3    3    0    0 -0.38481611158E+02  0.90168423053E+01 -0.19155684811E+03  0.19559182984E+03  0.00000000000E+00 0. -1.
        -13    1    3    3    0    0 -0.24855510205E+03  0.64345784103E+01 -0.46779758943E+03  0.52976940949E+03  0.00000000000E+00 0.  1.
          4    1    5    5  502    0 -0.42582367446E+02  0.83082718777E+01  0.73984538941E+02  0.85767111420E+02  0.00000000000E+00 0. -1.
          1    1    6    6  503    0  0.22229539457E+03 -0.68005809033E+02  0.42583654054E+02  0.23633323952E+03  0.00000000000E+00 0. -1.
         -4    1    5    5    0  502 -0.18874835925E+03  0.20336976714E+03  0.22672726280E+03  0.35831614115E+03  0.00000000000E+00 0.  1.
         -1    1    6    6    0  503  0.29607204534E+03 -0.15912365070E+03  0.15150272640E+03  0.36868966401E+03  0.00000000000E+00 0.  1.
<mgrwt>
<rscale>  0 0.17668208E+04</rscale>
<asrwt>0</asrwt>
<pdfrwt beam="1">  1        1 0.12383932E+00 0.17668208E+04</pdfrwt>
<pdfrwt beam="2">  1       -1 0.14915566E+00 0.17668208E+04</pdfrwt>
<totfact> 0.73387675E+00</totfact>
</mgrwt>
</event>
<event>
12    1  0.4247462E-008  0.1465836E+04  0.7818608E-02  0.8907495E-01
         -1   -1    0    0    0  501 -0.00000000000E+00  0.00000000000E+00  0.28046889596E+03  0.28046889596E+03  0.00000000000E+00 0.  1.
          1   -1    0    0  501    0  0.00000000000E+00 -0.00000000000E+00 -0.19152530410E+04  0.19152530410E+04  0.00000000000E+00 0. -1.
         23    2    1    2    0    0  0.14475377967E+03  0.25599768083E+03  0.10847553887E+02  0.30908710352E+03  0.94491792336E+02 0.  0.
        254    2    1    2    0    0 -0.14475377967E+03 -0.25599768083E+03 -0.16456316989E+04  0.18866348334E+04  0.87452777940E+03 0.  0.
         23    2    4    4    0    0 -0.25994791736E+02  0.26323126953E+03 -0.19365226738E+03  0.33728425354E+03  0.79328661712E+02 0.  0.
         23    2    4    4    0    0 -0.11875898793E+03 -0.51922895035E+03 -0.14519794315E+04  0.15493505799E+04  0.92415094658E+02 0.  0.
         11    1    3    3    0    0  0.12461594669E+03  0.24088979824E+03 -0.16751554486E+02  0.27173082939E+03  0.00000000000E+00 0.  1.
        -11    1    3    3    0    0  0.20137832982E+02  0.15107882585E+02  0.27599108373E+02  0.37356274124E+02  0.00000000000E+00 0. -1.
          2    1    5    5  502    0 -0.40833699872E+02  0.73044899341E+02 -0.76750117157E+02  0.11354967569E+03  0.00000000000E+00 0. -1.
          4    1    6    6  503    0 -0.57373155230E+01 -0.93097836601E+02 -0.17334966938E+03  0.19685078573E+03  0.00000000000E+00 0. -1.
         -2    1    5    5    0  502  0.14838908137E+02  0.19018637019E+03 -0.11690215022E+03  0.22373457785E+03  0.00000000000E+00 0.  1.
         -4    1    6    6    0  503 -0.11302167241E+03 -0.42613111375E+03 -0.12786297621E+04  0.13524997941E+04  0.00000000000E+00 0.  1.
<mgrwt>
<rscale>  0 0.14658362E+04</rscale>
<asrwt>0</asrwt>
<pdfrwt beam="1">  1        1 0.29465432E+00 0.14658362E+04</pdfrwt>
<pdfrwt beam="2">  1       -1 0.43149061E-01 0.14658362E+04</pdfrwt>
<totfact> 0.17485910E+01</totfact>
</mgrwt>
</event>
<event>
12    1  0.4247462E-008  0.1194042E+04  0.7818608E-02  0.9118088E-01
         -1   -1    0    0    0  501 -0.00000000000E+00  0.00000000000E+00  0.76488126015E+02  0.76488126015E+02  0.00000000000E+00 0.  1.
          1   -1    0    0  501    0  0.00000000000E+00 -0.00000000000E+00 -0.46599901229E+04  0.46599901229E+04  0.00000000000E+00 0. -1.
         23    2    1    2    0    0  0.12811084382E+03  0.15468623729E+03 -0.14413266423E+04  0.14582273275E+04  0.93081838834E+02 0.  0.
        254    2    1    2    0    0 -0.12811084382E+03 -0.15468623729E+03 -0.31421753546E+04  0.32782509214E+04  0.91286522779E+03 0.  0.
         23    2    4    4    0    0  0.30745429164E+03 -0.32251702833E+03 -0.13794123323E+04  0.14524982618E+04  0.91801106336E+02 0.  0.
         23    2    4    4    0    0 -0.43556513546E+03  0.16783079104E+03 -0.17627630224E+04  0.18257526596E+04  0.90305810237E+02 0.  0.
         13    1    3    3    0    0  0.82830261413E+02  0.82497392791E+02 -0.11091771177E+04  0.11153208285E+04  0.00000000000E+00 0. -1.
        -13    1    3    3    0    0  0.45280582407E+02  0.72188844500E+02 -0.33214952454E+03  0.34290649901E+03  0.00000000000E+00 0.  1.
          1    1    5    5  502    0  0.22554661368E+02 -0.22518235805E+02 -0.20232179370E+03  0.20481672759E+03  0.00000000000E+00 0. -1.
          3    1    6    6  503    0 -0.30290063621E+02  0.10721344882E+02 -0.56517954844E+02  0.65013186432E+02  0.00000000000E+00 0. -1.
         -1    1    5    5    0  502  0.28489963027E+03 -0.29999879253E+03 -0.11770905386E+04  0.12476815342E+04  0.00000000000E+00 0.  1.
         -3    1    6    6    0  503 -0.40527507184E+03  0.15710944616E+03 -0.17062450675E+04  0.17607394732E+04  0.00000000000E+00 0.  1.
<mgrwt>
<rscale>  0 0.11940417E+04</rscale>
<asrwt>0</asrwt>
<pdfrwt beam="1">  1        1 0.71692160E+00 0.11940417E+04</pdfrwt>
<pdfrwt beam="2">  1       -1 0.11767403E-01 0.11940417E+04</pdfrwt>
<totfact> 0.11119573E+00</totfact>
</mgrwt>
</event>
<event>
12    1  0.4247462E-008  0.2113946E+04  0.7818608E-02  0.8555125E-01
         -2   -1    0    0    0  501 -0.00000000000E+00  0.00000000000E+00  0.13029423508E+04  0.13029423508E+04  0.00000000000E+00 0.  1.
          2   -1    0    0  501    0  0.00000000000E+00 -0.00000000000E+00 -0.85743780821E+03  0.85743780821E+03  0.00000000000E+00 0. -1.
         23    2    1    2    0    0  0.61851463733E+03  0.68821954624E+02  0.79009397436E+03  0.10098434554E+04  0.90766172040E+02 0.  0.
        254    2    1    2    0    0 -0.61851463733E+03 -0.68821954624E+02 -0.34458943174E+03  0.11505367037E+04  0.90426545441E+03 0.  0.
         23    2    4    4    0    0 -0.42874299119E+02  0.36709104332E+02 -0.52153672780E+03  0.53234324053E+03  0.90570433537E+02 0.  0.
         23    2    4    4    0    0 -0.57564033821E+03 -0.10553105896E+03  0.17694729606E+03  0.61819346315E+03  0.91401361737E+02 0.  0.
         11    1    3    3    0    0  0.61580890780E+02  0.22739823957E+02  0.50300237407E+02  0.82700783467E+02  0.00000000000E+00 0. -1.
        -11    1    3    3    0    0  0.55693374655E+03  0.46082130667E+02  0.73979373695E+03  0.92714267189E+03  0.00000000000E+00 0.  1.
          2    1    5    5  502    0  0.28491040638E+02  0.11357641443E+02 -0.13253295156E+03  0.13603572569E+03  0.00000000000E+00 0. -1.
          4    1    6    6  503    0 -0.28542576073E+03 -0.74599611881E+02  0.47082712242E+02  0.29874696446E+03  0.00000000000E+00 0. -1.
         -2    1    5    5    0  502 -0.71365339757E+02  0.25351462890E+02 -0.38900377624E+03  0.39630751484E+03  0.00000000000E+00 0.  1.
         -4    1    6    6    0  503 -0.29021457747E+03 -0.30931447075E+02  0.12986458382E+03  0.31944649869E+03  0.00000000000E+00 0.  1.
<mgrwt>
<rscale>  0 0.21139461E+04</rscale>
<asrwt>0</asrwt>
<pdfrwt beam="1">  1        2 0.13191351E+00 0.21139461E+04</pdfrwt>
<pdfrwt beam="2">  1       -2 0.20045267E+00 0.21139461E+04</pdfrwt>
<totfact> 0.38117560E+00</totfact>
</mgrwt>
</event>
<event>
12    1  0.4247462E-008  0.3003379E+04  0.7818608E-02  0.8242767E-01
         -1   -1    0    0    0  501 -0.00000000000E+00  0.00000000000E+00  0.79444063596E+03  0.79444063596E+03  0.00000000000E+00 0.  1.
          1   -1    0    0  501    0  0.00000000000E+00 -0.00000000000E+00 -0.28385655419E+04  0.28385655419E+04  0.00000000000E+00 0. -1.
         23    2    1    2    0    0  0.10637423269E+04 -0.24102688216E+03 -0.19222253252E+04  0.22119629294E+04  0.90488144444E+02 0.  0.
        254    2    1    2    0    0 -0.10637423269E+04  0.24102688216E+03 -0.12189958075E+03  0.14210432485E+04  0.90269746328E+03 0.  0.
         23    2    4    4    0    0 -0.88997911941E+03  0.52577204702E+03  0.42018681917E+02  0.10385284542E+04  0.90976382046E+02 0.  0.
         23    2    4    4    0    0 -0.17376320750E+03 -0.28474516486E+03 -0.16391826266E+03  0.38251479428E+03  0.90415207863E+02 0.  0.
         13    1    3    3    0    0  0.42707276475E+03 -0.12738192419E+03 -0.71826210529E+03  0.84529151947E+03  0.00000000000E+00 0. -1.
        -13    1    3    3    0    0  0.63666956216E+03 -0.11364495797E+03 -0.12039632199E+04  0.13666714099E+04  0.00000000000E+00 0.  1.
          2    1    5    5  502    0 -0.42030450174E+03  0.20449766244E+03 -0.61018309713E+01  0.46745309975E+03  0.00000000000E+00 0. -1.
          4    1    6    6  503    0 -0.64121891814E+02 -0.89972383823E+02 -0.95892083377E+01  0.11089905219E+03  0.00000000000E+00 0. -1.
         -2    1    5    5    0  502 -0.46967461767E+03  0.32127438458E+03  0.48120512889E+02  0.57107535442E+03  0.00000000000E+00 0.  1.
         -4    1    6    6    0  503 -0.10964131569E+03 -0.19477278104E+03 -0.15432905433E+03  0.27161574209E+03  0.00000000000E+00 0.  1.
<mgrwt>
<rscale>  0 0.30033793E+04</rscale>
<asrwt>0</asrwt>
<pdfrwt beam="1">  1        1 0.43670238E+00 0.30033793E+04</pdfrwt>
<pdfrwt beam="2">  1       -1 0.12222164E+00 0.30033793E+04</pdfrwt>
<totfact> 0.39350568E-01</totfact>
</mgrwt>
</event>
<event>
12    1  0.4247462E-008  0.1708947E+04  0.7818608E-02  0.8756278E-01
         -2   -1    0    0    0  501 -0.00000000000E+00  0.00000000000E+00  0.38292406126E+03  0.38292406126E+03  0.00000000000E+00 0.  1.
          2   -1    0    0  501    0  0.00000000000E+00 -0.00000000000E+00 -0.19067085751E+04  0.19067085751E+04  0.00000000000E+00 0. -1.
         23    2    1    2    0    0  0.49167328650E+03  0.34292867941E+03 -0.72615320559E+03  0.94596266089E+03  0.90576917533E+02 0.  0.
        254    2    1    2    0    0 -0.49167328650E+03 -0.34292867941E+03 -0.79763130821E+03  0.13436699754E+04  0.89993921973E+03 0.  0.
         23    2    4    4    0    0 -0.61583174107E+03 -0.46202773917E+03 -0.84059941076E+03  0.11432628973E+04  0.87888098991E+02 0.  0.
         23    2    4    4    0    0  0.12415845457E+03  0.11909905976E+03  0.42968102550E+02  0.20040707811E+03  0.93363971874E+02 0.  0.
         13    1    3    3    0    0  0.41915643465E+03  0.30556352970E+03 -0.66816321770E+03  0.84587426541E+03  0.00000000000E+00 0. -1.
        -13    1    3    3    0    0  0.72516851843E+02  0.37365149708E+02 -0.57989987889E+02  0.10008839548E+03  0.00000000000E+00 0.  1.
          4    1    5    5  502    0 -0.27793667101E+03 -0.21499092941E+03 -0.31995118364E+03  0.47522484440E+03  0.00000000000E+00 0. -1.
          3    1    6    6  503    0 -0.53991889306E+00  0.44923880640E+02 -0.98612594193E+01  0.45996641198E+02  0.00000000000E+00 0. -1.
         -4    1    5    5    0  502 -0.33789507006E+03 -0.24703680975E+03 -0.52064822711E+03  0.66803805292E+03  0.00000000000E+00 0.  1.
         -3    1    6    6    0  503  0.12469837347E+03  0.74175179115E+02  0.52829361970E+02  0.15441043691E+03  0.00000000000E+00 0.  1.
<mgrwt>
<rscale>  0 0.17089466E+04</rscale>
<asrwt>0</asrwt>
<pdfrwt beam="1">  1        2 0.29333978E+00 0.17089466E+04</pdfrwt>
<pdfrwt beam="2">  1       -2 0.58911394E-01 0.17089466E+04</pdfrwt>
<totfact> 0.19272099E+01</totfact>
</mgrwt>
</event>
<event>
12    1  0.4247462E-008  0.2192002E+04  0.7818608E-02  0.8521764E-01
         -2   -1    0    0    0  501 -0.00000000000E+00  0.00000000000E+00  0.56460261215E+03  0.56460261215E+03  0.00000000000E+00 0.  1.
          2   -1    0    0  501    0  0.00000000000E+00 -0.00000000000E+00 -0.21275470812E+04  0.21275470812E+04  0.00000000000E+00 0. -1.
         23    2    1    2    0    0 -0.67788328808E+03 -0.14215156052E+02 -0.13894475340E+04  0.15484834202E+04  0.86652351394E+02 0.  0.
        254    2    1    2    0    0  0.67788328808E+03  0.14215156052E+02 -0.17349693509E+03  0.11436662732E+04  0.90451287166E+03 0.  0.
         23    2    4    4    0    0  0.23802674819E+03  0.33096504691E+03  0.21472892575E+03  0.46946861579E+03  0.89987079821E+02 0.  0.
         23    2    4    4    0    0  0.43985653990E+03 -0.31674989085E+03 -0.38822586084E+03  0.67419765738E+03  0.10009442116E+03 0.  0.
         13    1    3    3    0    0 -0.60656035015E+03 -0.25311033781E+02 -0.11811303132E+04  0.13280154078E+04  0.00000000000E+00 0. -1.
        -13    1    3    3    0    0 -0.71322937931E+02  0.11095877728E+02 -0.20831722084E+03  0.22046801237E+03  0.00000000000E+00 0.  1.
          1    1    5    5  502    0  0.22191357435E+03  0.25154285337E+03  0.18553017255E+03  0.38332869249E+03  0.00000000000E+00 0. -1.
          3    1    6    6  503    0  0.14688924718E+03 -0.16214451888E+03 -0.17595240541E+03  0.28076065413E+03  0.00000000000E+00 0. -1.
         -1    1    5    5    0  502  0.16113173833E+02  0.79422193539E+02  0.29198753200E+02  0.86139923299E+02  0.00000000000E+00 0.  1.
         -3    1    6    6    0  503  0.29296729272E+03 -0.15460537198E+03 -0.21227345543E+03  0.39343700325E+03  0.00000000000E+00 0.  1.
<mgrwt>
<rscale>  0 0.21920024E+04</rscale>
<asrwt>0</asrwt>
<pdfrwt beam="1">  1        2 0.32731493E+00 0.21920024E+04</pdfrwt>
<pdfrwt beam="2">  1       -2 0.86861941E-01 0.21920024E+04</pdfrwt>
<totfact> 0.59470861E+00</totfact>
</mgrwt>
</event>
<event>
12    1  0.4247462E-008  0.1815066E+04  0.7818608E-02  0.8698328E-01
          1   -1    0    0  501    0  0.00000000000E+00  0.00000000000E+00  0.12718943189E+04  0.12718943189E+04  0.00000000000E+00 0. -1.
         -1   -1    0    0    0  501 -0.00000000000E+00 -0.00000000000E+00 -0.64755074968E+03  0.64755074968E+03  0.00000000000E+00 0.  1.
         23    2    1    2    0    0  0.39597549881E+02 -0.19411654409E+03  0.91041570654E+03  0.93612537992E+03  0.90690515390E+02 0.  0.
        254    2    1    2    0    0 -0.39597549881E+02  0.19411654409E+03 -0.28607213730E+03  0.98331968867E+03  0.91969078702E+03 0.  0.
         23    2    4    4    0    0 -0.25580104136E+02 -0.20493803785E+02 -0.59126357306E+03  0.59889158507E+03  0.89466083649E+02 0.  0.
         23    2    4    4    0    0 -0.14017445746E+02  0.21461034787E+03  0.30519143576E+03  0.38442810359E+03  0.91591834631E+02 0.  0.
         11    1    3    3    0    0  0.37825756624E+02 -0.40363812696E+02  0.14034286480E+03  0.15085140019E+03  0.00000000000E+00 0.  1.
        -11    1    3    3    0    0  0.17717932573E+01 -0.15375273139E+03  0.77007284174E+03  0.78527397974E+03  0.00000000000E+00 0. -1.
          2    1    5    5  502    0 -0.57907973776E+02 -0.11810209653E+02 -0.44114812104E+03  0.44508929348E+03  0.00000000000E+00 0. -1.
          4    1    6    6  503    0 -0.10207024394E+02  0.22232079778E+03  0.30223100292E+03  0.37533225227E+03  0.00000000000E+00 0. -1.
         -2    1    5    5    0  502  0.32327869640E+02 -0.86835941313E+01 -0.15011545202E+03  0.15380229159E+03  0.00000000000E+00 0.  1.
         -4    1    6    6    0  503 -0.38104213513E+01 -0.77104499060E+01  0.29604328452E+01  0.90958513213E+01  0.00000000000E+00 0.  1.
<mgrwt>
<rscale>  0 0.18150660E+04</rscale>
<asrwt>0</asrwt>
<pdfrwt beam="1">  1        1 0.19567605E+00 0.18150660E+04</pdfrwt>
<pdfrwt beam="2">  1       -1 0.99623193E-01 0.18150660E+04</pdfrwt>
<totfact> 0.85857632E+00</totfact>
</mgrwt>
</event>
<event>
12    1  0.4247462E-008  0.2841284E+04  0.7818608E-02  0.8290565E-01
         -1   -1    0    0    0  501 -0.00000000000E+00  0.00000000000E+00  0.74213925532E+03  0.74213925532E+03  0.00000000000E+00 0.  1.
          1   -1    0    0  501    0  0.00000000000E+00 -0.00000000000E+00 -0.27194676806E+04  0.27194676806E+04  0.00000000000E+00 0. -1.
         23    2    1    2    0    0  0.69434842082E+03 -0.68280853649E+03  0.11539834802E+03  0.98498633404E+03  0.92380043979E+02 0.  0.
        254    2    1    2    0    0 -0.69434842082E+03  0.68280853649E+03 -0.20927267733E+04  0.24766206019E+04  0.89766198038E+03 0.  0.
         23    2    4    4    0    0 -0.52864083463E+03  0.10798587422E+03 -0.16153799044E+04  0.17054487806E+04  0.89337711426E+02 0.  0.
         23    2    4    4    0    0 -0.16570758619E+03  0.57482266227E+03 -0.47734686894E+03  0.77117182132E+03  0.94688159370E+02 0.  0.
         13    1    3    3    0    0  0.98168813869E+02 -0.10733466390E+03  0.49939080799E+02  0.15379128025E+03  0.00000000000E+00 0. -1.
        -13    1    3    3    0    0  0.59617960695E+03 -0.57547387259E+03  0.65459267220E+02  0.83119505379E+03  0.00000000000E+00 0.  1.
          4    1    5    5  502    0 -0.34947825030E+03  0.57604747350E+02 -0.92726170966E+03  0.99260648424E+03  0.00000000000E+00 0. -1.
          4    1    6    6  503    0 -0.78878543928E+01  0.15885129045E+02 -0.41185717120E+02  0.44842155014E+02  0.00000000000E+00 0. -1.
         -4    1    5    5    0  502 -0.17916258433E+03  0.50381126873E+02 -0.68811819472E+03  0.71284229636E+03  0.00000000000E+00 0.  1.
         -4    1    6    6    0  503 -0.15781973179E+03  0.55893753323E+03 -0.43616115183E+03  0.72632966630E+03  0.00000000000E+00 0.  1.
<mgrwt>
<rscale>  0 0.28412840E+04</rscale>
<asrwt>0</asrwt>
<pdfrwt beam="1">  1        1 0.41837964E+00 0.28412840E+04</pdfrwt>
<pdfrwt beam="2">  1       -1 0.11417527E+00 0.28412840E+04</pdfrwt>
<totfact> 0.57248201E-01</totfact>
</mgrwt>
</event>
<event>
12    1  0.4247462E-008  0.1482612E+04  0.7818608E-02  0.8896099E-01
          2   -1    0    0  501    0  0.00000000000E+00  0.00000000000E+00  0.12398225045E+04  0.12398225045E+04  0.00000000000E+00 0. -1.
         -2   -1    0    0    0  501 -0.00000000000E+00 -0.00000000000E+00 -0.44323658407E+03  0.44323658407E+03  0.00000000000E+00 0.  1.
         23    2    1    2    0    0 -0.93468662642E+02  0.11543422112E+03 -0.24556392440E+03  0.30135044973E+03  0.91918454548E+02 0.  0.
        254    2    1    2    0    0  0.93468662642E+02 -0.11543422112E+03  0.10421498449E+04  0.13817086389E+04  0.89497542608E+03 0.  0.
         23    2    4    4    0    0  0.35088841567E+03  0.11195378574E+03  0.93750957304E+03  0.10113720380E+04  0.91065192184E+02 0.  0.
         23    2    4    4    0    0 -0.25741975303E+03 -0.22738800686E+03  0.10464027183E+03  0.37033660092E+03  0.90715911398E+02 0.  0.
         13    1    3    3    0    0 -0.10493184407E+03  0.72863295547E+02 -0.20437424856E+03  0.24101573644E+03  0.00000000000E+00 0.  1.
        -13    1    3    3    0    0  0.11463181426E+02  0.42570925571E+02 -0.41189675845E+02  0.60334713297E+02  0.00000000000E+00 0. -1.
          4    1    5    5  502    0  0.42121018233E+02  0.47881460435E+02  0.17296226420E+03  0.18434413272E+03  0.00000000000E+00 0. -1.
          1    1    6    6  503    0 -0.18030792232E+03 -0.10449480899E+03  0.79735364640E+02  0.22313189000E+03  0.00000000000E+00 0.  1.
         -4    1    5    5    0  502  0.30876739744E+03  0.64072325304E+02  0.76454730883E+03  0.82702790523E+03  0.00000000000E+00 0.  1.
         -1    1    6    6    0  503 -0.77111830706E+02 -0.12289319787E+03  0.24904907189E+02  0.14720471093E+03  0.00000000000E+00 0. -1.
<mgrwt>
<rscale>  0 0.14826121E+04</rscale>
<asrwt>0</asrwt>
<pdfrwt beam="1">  1        2 0.19074192E+00 0.14826121E+04</pdfrwt>
<pdfrwt beam="2">  1       -2 0.68190244E-01 0.14826121E+04</pdfrwt>
<totfact> 0.34151031E+01</totfact>
</mgrwt>
</event>
<event>
12    1  0.4247462E-008  0.2312708E+04  0.7818608E-02  0.8472927E-01
          1   -1    0    0  501    0  0.00000000000E+00  0.00000000000E+00  0.19480366008E+04  0.19480366008E+04  0.00000000000E+00 0. -1.
         -1   -1    0    0    0  501 -0.00000000000E+00 -0.00000000000E+00 -0.68641161571E+03  0.68641161571E+03  0.00000000000E+00 0.  1.
         23    2    1    2    0    0 -0.36089941124E+03 -0.72474574843E+02 -0.49629894538E+03  0.62442434830E+03  0.89956514682E+02 0.  0.
        254    2    1    2    0    0  0.36089941124E+03  0.72474574843E+02  0.17579239305E+04  0.20100238682E+04  0.90244027858E+03 0.  0.
         23    2    4    4    0    0  0.25276038016E+03 -0.12175798693E+02  0.18150915952E+04  0.18351204705E+04  0.95255354109E+02 0.  0.
         23    2    4    4    0    0  0.10813903108E+03  0.84650373536E+02 -0.57167664640E+02  0.17490339778E+03  0.91996309109E+02 0.  0.
         11    1    3    3    0    0 -0.29227386664E+03 -0.93954328862E+02 -0.39932117122E+03  0.50369517252E+03  0.00000000000E+00 0.  1.
        -11    1    3    3    0    0 -0.68625544604E+02  0.21479754019E+02 -0.96977774161E+02  0.12072917579E+03  0.00000000000E+00 0. -1.
          4    1    5    5  502    0  0.16176177718E+03  0.36074847930E+02  0.12153706590E+04  0.12266189734E+04  0.00000000000E+00 0. -1.
          1    1    6    6  503    0 -0.53567085244E+00 -0.73396538225E+01 -0.28798130562E+02  0.29723556069E+02  0.00000000000E+00 0. -1.
         -4    1    5    5    0  502  0.90998602975E+02 -0.48250646622E+02  0.59972093616E+03  0.60850149705E+03  0.00000000000E+00 0.  1.
         -1    1    6    6    0  503  0.10867470194E+03  0.91990027358E+02 -0.28369534078E+02  0.14517984171E+03  0.00000000000E+00 0.  1.
<mgrwt>
<rscale>  0 0.23127083E+04</rscale>
<asrwt>0</asrwt>
<pdfrwt beam="1">  1        1 0.29969794E+00 0.23127083E+04</pdfrwt>
<pdfrwt beam="2">  1       -1 0.10560179E+00 0.23127083E+04</pdfrwt>
<totfact> 0.24511304E+00</totfact>
</mgrwt>
</event>
<event>
12    1  0.4247462E-008  0.1307947E+04  0.7818608E-02  0.9023287E-01
         -2   -1    0    0    0  501 -0.00000000000E+00  0.00000000000E+00  0.22059347469E+03  0.22059347469E+03  0.00000000000E+00 0.  1.
          2   -1    0    0  501    0  0.00000000000E+00 -0.00000000000E+00 -0.19387755685E+04  0.19387755685E+04  0.00000000000E+00 0. -1.
         23    2    1    2    0    0 -0.18515427116E+02 -0.13834022515E+03 -0.94482393776E+03  0.95927647850E+03  0.89656287548E+02 0.  0.
        254    2    1    2    0    0  0.18515427116E+02  0.13834022515E+03 -0.77335815608E+03  0.12000925647E+04  0.90700523008E+03 0.  0.
         23    2    4    4    0    0  0.42427273214E+03  0.21264156288E+03 -0.31650062993E+03  0.57764921483E+03  0.91006489556E+02 0.  0.
         23    2    4    4    0    0 -0.40575730502E+03 -0.74301337728E+02 -0.45685752615E+03  0.62244334989E+03  0.92505379634E+02 0.  0.
         13    1    3    3    0    0  0.71169383508E-02  0.12119716461E+02 -0.12231476112E+03  0.12291374360E+03  0.00000000000E+00 0.  1.
        -13    1    3    3    0    0 -0.18522544055E+02 -0.15045994162E+03 -0.82250917664E+03  0.83636273489E+03  0.00000000000E+00 0. -1.
          4    1    5    5  502    0  0.58353661104E+02  0.63744499089E+02 -0.76443508194E+02  0.11537816463E+03  0.00000000000E+00 0.  1.
          3    1    6    6  503    0 -0.15267167976E+03 -0.52325583892E+00 -0.22168078322E+03  0.26916776413E+03  0.00000000000E+00 0. -1.
         -4    1    5    5    0  502  0.36591907104E+03  0.14889706379E+03 -0.24005712174E+03  0.46227105020E+03  0.00000000000E+00 0. -1.
         -3    1    6    6    0  503 -0.25308562527E+03 -0.73778081889E+02 -0.23517674292E+03  0.35327558576E+03  0.00000000000E+00 0.  1.
<mgrwt>
<rscale>  0 0.13079468E+04</rscale>
<asrwt>0</asrwt>
<pdfrwt beam="1">  1        2 0.29827316E+00 0.13079468E+04</pdfrwt>
<pdfrwt beam="2">  1       -2 0.33937458E-01 0.13079468E+04</pdfrwt>
<totfact> 0.57554618E+01</totfact>
</mgrwt>
</event>
<event>
12    1  0.4247462E-008  0.1078198E+04  0.7818608E-02  0.9226706E-01
         -2   -1    0    0    0  501 -0.00000000000E+00  0.00000000000E+00  0.30699020803E+03  0.30699020803E+03  0.00000000000E+00 0.  1.
          2   -1    0    0  501    0  0.00000000000E+00 -0.00000000000E+00 -0.94670100978E+03  0.94670100978E+03  0.00000000000E+00 0. -1.
         23    2    1    2    0    0 -0.71779100122E+02  0.97287680562E+02 -0.39004573405E+02  0.15697733032E+03  0.92213846494E+02 0.  0.
        254    2    1    2    0    0  0.71779100122E+02 -0.97287680562E+02 -0.60070622834E+03  0.10967138875E+04  0.90956926412E+03 0.  0.
         23    2    4    4    0    0 -0.24987073268E+03  0.29216361348E+03 -0.34247905977E+03  0.52271261530E+03  0.90230880096E+02 0.  0.
         23    2    4    4    0    0  0.32164983280E+03 -0.38945129404E+03 -0.25822716857E+03  0.57400127218E+03  0.87551496311E+02 0.  0.
         11    1    3    3    0    0  0.16213970267E+02  0.42224066275E+02 -0.26509580603E+02  0.52426352805E+02  0.00000000000E+00 0. -1.
        -11    1    3    3    0    0 -0.87993070390E+02  0.55063614286E+02 -0.12494992802E+02  0.10455097752E+03  0.00000000000E+00 0.  1.
          2    1    5    5  502    0 -0.25136818569E+03  0.28617531403E+03 -0.34684330143E+03  0.51515293932E+03  0.00000000000E+00 0.  1.
          4    1    6    6  503    0 -0.21760656713E+01 -0.17278874399E+02 -0.18841789170E+02  0.25657509259E+02  0.00000000000E+00 0. -1.
         -2    1    5    5    0  502  0.14974530089E+01  0.59882994439E+01  0.43642416590E+01  0.75596759852E+01  0.00000000000E+00 0. -1.
         -4    1    6    6    0  503  0.32382589847E+03 -0.37217241964E+03 -0.23938537940E+03  0.54834376292E+03  0.00000000000E+00 0.  1.
<mgrwt>
<rscale>  0 0.10781984E+04</rscale>
<asrwt>0</asrwt>
<pdfrwt beam="1">  1        2 0.14564631E+00 0.10781984E+04</pdfrwt>
<pdfrwt beam="2">  1       -2 0.47229263E-01 0.10781984E+04</pdfrwt>
<totfact> 0.11522519E+02</totfact>
</mgrwt>
</event>
<event>
12    1  0.4247462E-008  0.1413270E+04  0.7818608E-02  0.8944269E-01
          2   -1    0    0  501    0  0.00000000000E+00  0.00000000000E+00  0.32308771762E+04  0.32308771762E+04  0.00000000000E+00 0. -1.
         -2   -1    0    0    0  501 -0.00000000000E+00 -0.00000000000E+00 -0.15455033045E+03  0.15455033045E+03  0.00000000000E+00 0.  1.
         23    2    1    2    0    0  0.31104788429E+03 -0.68113752349E+00  0.25589791894E+03  0.40973033719E+03  0.75126253905E+02 0.  0.
        254    2    1    2    0    0 -0.31104788429E+03  0.68113752349E+00  0.28204289268E+04  0.29756971695E+04  0.89621596887E+03 0.  0.
         23    2    4    4    0    0 -0.32133360448E+03 -0.35717962630E+03  0.21954218106E+04  0.22493136802E+04  0.93287378894E+02 0.  0.
         23    2    4    4    0    0  0.10285720196E+02  0.35786076382E+03  0.62500711627E+03  0.72638348923E+03  0.93962522901E+02 0.  0.
         13    1    3    3    0    0  0.10677513979E+03  0.25827360560E+02  0.12138726452E+03  0.16371576289E+03  0.00000000000E+00 0. -1.
        -13    1    3    3    0    0  0.20427274449E+03 -0.26508498084E+02  0.13451065442E+03  0.24601457430E+03  0.00000000000E+00 0.  1.
          4    1    5    5  502    0 -0.91417977048E+02 -0.73603014938E+02  0.71338203865E+03  0.72297204884E+03  0.00000000000E+00 0. -1.
          1    1    6    6  503    0  0.13820829092E+02  0.27583425436E+03  0.39348634339E+03  0.48073595001E+03  0.00000000000E+00 0. -1.
         -4    1    5    5    0  502 -0.22991562743E+03 -0.28357661136E+03  0.14820397719E+04  0.15263416314E+04  0.00000000000E+00 0.  1.
         -1    1    6    6    0  503 -0.35351088963E+01  0.82026509462E+02  0.23152077288E+03  0.24564753922E+03  0.00000000000E+00 0.  1.
<mgrwt>
<rscale>  0 0.14132702E+04</rscale>
<asrwt>0</asrwt>
<pdfrwt beam="1">  1        2 0.49705798E+00 0.14132702E+04</pdfrwt>
<pdfrwt beam="2">  1       -2 0.23776976E-01 0.14132702E+04</pdfrwt>
<totfact> 0.19138414E+01</totfact>
</mgrwt>
</event>
<event>
12    1  0.4247462E-008  0.1930787E+04  0.7818608E-02  0.8639682E-01
          2   -1    0    0  501    0  0.00000000000E+00  0.00000000000E+00  0.68487995184E+03  0.68487995184E+03  0.00000000000E+00 0. -1.
         -2   -1    0    0    0  501 -0.00000000000E+00 -0.00000000000E+00 -0.13607994053E+04  0.13607994053E+04  0.00000000000E+00 0.  1.
         23    2    1    2    0    0 -0.18812908918E+03 -0.65525767863E+03 -0.54875325255E+03  0.88032188368E+03  0.95295892351E+02 0.  0.
        254    2    1    2    0    0  0.18812908918E+03  0.65525767863E+03 -0.12716620096E+03  0.11653574735E+04  0.93655305177E+03 0.  0.
         23    2    4    4    0    0  0.32180987391E+03 -0.81303864198E+02 -0.21537337406E+03  0.40655090218E+03  0.93413235320E+02 0.  0.
         23    2    4    4    0    0 -0.13368078473E+03  0.73656154283E+03  0.88207173103E+02  0.75880657132E+03  0.87255078436E+02 0.  0.
         13    1    3    3    0    0  0.91708996578E+01 -0.42037358844E+02 -0.22756087965E+02  0.48673241916E+02  0.00000000000E+00 0. -1.
        -13    1    3    3    0    0 -0.19729998883E+03 -0.61322031978E+03 -0.52599716459E+03  0.83164864176E+03  0.00000000000E+00 0.  1.
          2    1    5    5  502    0  0.17316214631E+03 -0.20837826166E+02 -0.63523269640E+02  0.18561936779E+03  0.00000000000E+00 0. -1.
          4    1    6    6  503    0  0.35495945083E+01  0.90357039557E+01  0.10633264467E+02  0.14398259630E+02  0.00000000000E+00 0. -1.
         -2    1    5    5    0  502  0.14864772760E+03 -0.60466038032E+02 -0.15185010442E+03  0.22093153439E+03  0.00000000000E+00 0.  1.
         -4    1    6    6    0  503 -0.13723037924E+03  0.72752583887E+03  0.77573908636E+02  0.74440831169E+03  0.00000000000E+00 0.  1.
<mgrwt>
<rscale>  0 0.19307866E+04</rscale>
<asrwt>0</asrwt>
<pdfrwt beam="1">  1        2 0.10536615E+00 0.19307866E+04</pdfrwt>
<pdfrwt beam="2">  1       -2 0.20935375E+00 0.19307866E+04</pdfrwt>
<totfact> 0.45464593E+00</totfact>
</mgrwt>
</event>
<event>
12    1  0.4247462E-008  0.2501239E+04  0.7818608E-02  0.8402544E-01
          1   -1    0    0  501    0  0.00000000000E+00  0.00000000000E+00  0.96681153787E+03  0.96681153787E+03  0.00000000000E+00 0. -1.
         -1   -1    0    0    0  501 -0.00000000000E+00 -0.00000000000E+00 -0.16177400180E+04  0.16177400180E+04  0.00000000000E+00 0.  1.
         23    2    1    2    0    0 -0.90311699738E+03 -0.29087216174E+03  0.26468186963E+03  0.98924305683E+03  0.91205306515E+02 0.  0.
        254    2    1    2    0    0  0.90311699738E+03  0.29087216174E+03 -0.91561034973E+03  0.15953084990E+04  0.89802002710E+03 0.  0.
         23    2    4    4    0    0  0.41920360882E+03  0.23328034524E+03 -0.98047876462E+03  0.10953439305E+04  0.91040282193E+02 0.  0.
         23    2    4    4    0    0  0.48391338856E+03  0.57591816492E+02  0.64868414896E+02  0.49996456856E+03  0.90926748572E+02 0.  0.
         13    1    3    3    0    0 -0.84207453722E+03 -0.24976010934E+03  0.25748046783E+03  0.91529548768E+03  0.00000000000E+00 0. -1.
        -13    1    3    3    0    0 -0.61042460169E+02 -0.41112052399E+02  0.72014017949E+01  0.73947569154E+02  0.00000000000E+00 0.  1.
          1    1    5    5  502    0  0.30437519260E+03  0.20188496173E+03 -0.67483340872E+03  0.76733429818E+03  0.00000000000E+00 0. -1.
          3    1    6    6  503    0  0.47631673565E+03  0.41896698873E+02  0.60330321399E+02  0.48194679552E+03  0.00000000000E+00 0. -1.
         -1    1    5    5    0  502  0.11482841622E+03  0.31395383512E+02 -0.30564535591E+03  0.32800963227E+03  0.00000000000E+00 0.  1.
         -3    1    6    6    0  503  0.75966529155E+01  0.15695117620E+02  0.45380934971E+01  0.18017773037E+02  0.00000000000E+00 0.  1.
<mgrwt>
<rscale>  0 0.25012395E+04</rscale>
<asrwt>0</asrwt>
<pdfrwt beam="1">  1        1 0.14874024E+00 0.25012395E+04</pdfrwt>
<pdfrwt beam="2">  1       -1 0.24888308E+00 0.25012395E+04</pdfrwt>
<totfact> 0.10121305E+00</totfact>
</mgrwt>
</event>
<event>
12    1  0.4247462E-008  0.1879313E+04  0.7818608E-02  0.8665223E-01
         -2   -1    0    0    0  501 -0.00000000000E+00  0.00000000000E+00  0.64136896951E+03  0.64136896951E+03  0.00000000000E+00 0.  1.
          2   -1    0    0  501    0  0.00000000000E+00 -0.00000000000E+00 -0.13766708889E+04  0.13766708889E+04  0.00000000000E+00 0. -1.
         23    2    1    2    0    0 -0.18790326058E+03  0.65455070950E+03 -0.53921120749E+03  0.87344118725E+03  0.91687047374E+02 0.  0.
        254    2    1    2    0    0  0.18790326058E+03 -0.65455070950E+03 -0.19609071191E+03  0.11445986712E+04  0.89883829698E+03 0.  0.
         23    2    4    4    0    0  0.38224639044E+03 -0.74918400936E+03 -0.10761826840E+02  0.84596268973E+03  0.90266674973E+02 0.  0.
         23    2    4    4    0    0 -0.19434312986E+03  0.94633299861E+02 -0.18532888507E+03  0.29863598145E+03  0.90066310074E+02 0.  0.
         13    1    3    3    0    0 -0.18015334554E+03  0.53217765714E+03 -0.47085258426E+03  0.73305555231E+03  0.00000000000E+00 0. -1.
        -13    1    3    3    0    0 -0.77499150386E+01  0.12237305236E+03 -0.68358623225E+02  0.14038563493E+03  0.00000000000E+00 0.  1.
          1    1    5    5  502    0  0.31969697074E+03 -0.68238180334E+03 -0.21181587711E+02  0.75385657674E+03  0.00000000000E+00 0. -1.
          3    1    6    6  503    0 -0.10991602590E+03  0.58057331256E+02 -0.16111255347E+03  0.20349309902E+03  0.00000000000E+00 0. -1.
         -1    1    5    5    0  502  0.62549419698E+02 -0.66802206014E+02  0.10419760870E+02  0.92106112987E+02  0.00000000000E+00 0.  1.
         -3    1    6    6    0  503 -0.84427103954E+02  0.36575968605E+02 -0.24216331603E+02  0.95142882433E+02  0.00000000000E+00 0.  1.
<mgrwt>
<rscale>  0 0.18793126E+04</rscale>
<asrwt>0</asrwt>
<pdfrwt beam="1">  1        2 0.21179552E+00 0.18793126E+04</pdfrwt>
<pdfrwt beam="2">  1       -2 0.98672150E-01 0.18793126E+04</pdfrwt>
<totfact> 0.11937476E+01</totfact>
</mgrwt>
</event>
<event>
12    1  0.4247462E-008  0.1389661E+04  0.7818608E-02  0.8961337E-01
          2   -1    0    0  501    0  0.00000000000E+00  0.00000000000E+00  0.20665417732E+04  0.20665417732E+04  0.00000000000E+00 0. -1.
         -2   -1    0    0    0  501 -0.00000000000E+00 -0.00000000000E+00 -0.23362191860E+03  0.23362191860E+03  0.00000000000E+00 0.  1.
         23    2    1    2    0    0 -0.73699826624E+02 -0.17904223416E+03  0.11559151246E+04  0.11761890727E+04  0.98960464741E+02 0.  0.
        254    2    1    2    0    0  0.73699826624E+02  0.17904223416E+03  0.67700473000E+03  0.11239746190E+04  0.87606834991E+03 0.  0.
         23    2    4    4    0    0  0.41730386236E+03 -0.78976525328E+02  0.46289570895E+03  0.63481894820E+03  0.91339227836E+02 0.  0.
         23    2    4    4    0    0 -0.34360403573E+03  0.25801875949E+03  0.21410902105E+03  0.48915567082E+03  0.93771977600E+02 0.  0.
         11    1    3    3    0    0 -0.68720529332E+02 -0.19056000596E+03  0.10359888729E+04  0.10556081526E+04  0.00000000000E+00 0. -1.
        -11    1    3    3    0    0 -0.49792972916E+01  0.11517771796E+02  0.11992625163E+03  0.12058092013E+03  0.00000000000E+00 0.  1.
          2    1    5    5  502    0  0.11045387254E+03  0.29332031545E+01  0.75242306273E+02  0.13367896728E+03  0.00000000000E+00 0. -1.
          1    1    6    6  503    0 -0.89952692835E+02  0.20803348401E+02  0.39151228241E+02  0.10028501845E+03  0.00000000000E+00 0. -1.
         -2    1    5    5    0  502  0.30684998981E+03 -0.81909728482E+02  0.38765340268E+03  0.50113998092E+03  0.00000000000E+00 0.  1.
         -1    1    6    6    0  503 -0.25365134290E+03  0.23721541109E+03  0.17495779281E+03  0.38887065237E+03  0.00000000000E+00 0.  1.
<mgrwt>
<rscale>  0 0.13896610E+04</rscale>
<asrwt>0</asrwt>
<pdfrwt beam="1">  1        2 0.31792949E+00 0.13896610E+04</pdfrwt>
<pdfrwt beam="2">  1       -2 0.35941835E-01 0.13896610E+04</pdfrwt>
<totfact> 0.43537916E+01</totfact>
</mgrwt>
</event>
<event>
12    1  0.4247462E-008  0.1964346E+04  0.7818608E-02  0.8623474E-01
          1   -1    0    0  501    0  0.00000000000E+00  0.00000000000E+00  0.87891675017E+03  0.87891675017E+03  0.00000000000E+00 0. -1.
         -1   -1    0    0    0  501 -0.00000000000E+00 -0.00000000000E+00 -0.10975594801E+04  0.10975594801E+04  0.00000000000E+00 0.  1.
         23    2    1    2    0    0 -0.40943469192E+03  0.59525178213E+03  0.16324054586E+03  0.74643693192E+03  0.92515763181E+02 0.  0.
        254    2    1    2    0    0  0.40943469192E+03 -0.59525178213E+03 -0.38188327582E+03  0.12300392984E+04  0.91934780587E+03 0.  0.
         23    2    4    4    0    0  0.21127354563E+03  0.21459720060E+03 -0.19622120158E+03  0.37104282634E+03  0.92095328011E+02 0.  0.
         23    2    4    4    0    0  0.19816114629E+03 -0.80984898273E+03 -0.18566207425E+03  0.85899647205E+03  0.91001749783E+02 0.  0.
         11    1    3    3    0    0 -0.35244397193E+03  0.44635445961E+03  0.13490774334E+03  0.58450761858E+03  0.00000000000E+00 0. -1.
        -11    1    3    3    0    0 -0.56990719989E+02  0.14889732252E+03  0.28332802523E+02  0.16192931334E+03  0.00000000000E+00 0.  1.
          2    1    5    5  502    0  0.17525878855E+03  0.21635217053E+03 -0.17966511871E+03  0.33136605068E+03  0.00000000000E+00 0. -1.
          3    1    6    6  503    0  0.15821294580E+03 -0.46274131418E+03 -0.11867397017E+03  0.50323391307E+03  0.00000000000E+00 0. -1.
         -2    1    5    5    0  502  0.36014757084E+02 -0.17549699374E+01 -0.16556082867E+02  0.39676775665E+02  0.00000000000E+00 0.  1.
         -3    1    6    6    0  503  0.39948200489E+02 -0.34710766854E+03 -0.66988104072E+02  0.35576255898E+03  0.00000000000E+00 0.  1.
<mgrwt>
<rscale>  0 0.19643456E+04</rscale>
<asrwt>0</asrwt>
<pdfrwt beam="1">  1        1 0.13521796E+00 0.19643456E+04</pdfrwt>
<pdfrwt beam="2">  1       -1 0.16885530E+00 0.19643456E+04</pdfrwt>
<totfact> 0.44218674E+00</totfact>
</mgrwt>
</event>
<event>
12    1  0.4247462E-008  0.1803487E+04  0.7818608E-02  0.8704447E-01
          2   -1    0    0  501    0  0.00000000000E+00  0.00000000000E+00  0.73781527195E+03  0.73781527195E+03  0.00000000000E+00 0. -1.
         -2   -1    0    0    0  501 -0.00000000000E+00 -0.00000000000E+00 -0.11020931394E+04  0.11020931394E+04  0.00000000000E+00 0.  1.
         23    2    1    2    0    0 -0.13743726134E+03 -0.59430366397E+03 -0.41677496448E+03  0.74431434760E+03  0.90645635339E+02 0.  0.
        254    2    1    2    0    0  0.13743726134E+03  0.59430366397E+03  0.52497097016E+02  0.10955940638E+04  0.90856180944E+03 0.  0.
         23    2    4    4    0    0  0.23281228919E+03 -0.14104556416E+03  0.17507683669E+03  0.33845245839E+03  0.99008861612E+02 0.  0.
         23    2    4    4    0    0 -0.95375027841E+02  0.73534922812E+03 -0.12257973967E+03  0.75714160539E+03  0.91666432242E+02 0.  0.
         13    1    3    3    0    0 -0.76407426896E+02 -0.40874691858E+03 -0.32864329396E+03  0.53001750254E+03  0.00000000000E+00 0. -1.
        -13    1    3    3    0    0 -0.61029834449E+02 -0.18555674539E+03 -0.88131670522E+02  0.21429684506E+03  0.00000000000E+00 0.  1.
          1    1    5    5  502    0  0.79950304675E+02 -0.48128325320E+00  0.31242366992E+02  0.85839200524E+02  0.00000000000E+00 0. -1.
          3    1    6    6  503    0  0.12773441767E+01  0.65177037029E+02  0.13309573807E+02  0.66534370960E+02  0.00000000000E+00 0. -1.
         -1    1    5    5    0  502  0.15286198451E+03 -0.14056428090E+03  0.14383446970E+03  0.25261325786E+03  0.00000000000E+00 0.  1.
         -3    1    6    6    0  503 -0.96652372017E+02  0.67017219109E+03 -0.13588931348E+03  0.69060723443E+03  0.00000000000E+00 0.  1.
<mgrwt>
<rscale>  0 0.18034868E+04</rscale>
<asrwt>0</asrwt>
<pdfrwt beam="1">  1        2 0.11351004E+00 0.18034868E+04</pdfrwt>
<pdfrwt beam="2">  1       -2 0.16955279E+00 0.18034868E+04</pdfrwt>
<totfact> 0.77571390E+00</totfact>
</mgrwt>
</event>
<event>
12    1  0.4247462E-008  0.1194310E+04  0.7818608E-02  0.9117851E-01
          2   -1    0    0  501    0  0.00000000000E+00  0.00000000000E+00  0.64670537591E+03  0.64670537591E+03  0.00000000000E+00 0.  1.
         -2   -1    0    0    0  501 -0.00000000000E+00 -0.00000000000E+00 -0.55140132454E+03  0.55140132454E+03  0.00000000000E+00 0. -1.
         23    2    1    2    0    0  0.18439292772E+03 -0.12471505807E+03 -0.73582576320E+02  0.25237028249E+03  0.93390398028E+02 0.  0.
        254    2    1    2    0    0 -0.18439292772E+03  0.12471505807E+03  0.16888662770E+03  0.94573641796E+03  0.90351540205E+03 0.  0.
         23    2    4    4    0    0  0.20136225753E+02  0.27262144463E+03 -0.29351151569E+03  0.41144795802E+03  0.91719641609E+02 0.  0.
         23    2    4    4    0    0 -0.20452915347E+03 -0.14790638657E+03  0.46239814339E+03  0.53428845994E+03  0.89127109284E+02 0.  0.
         13    1    3    3    0    0  0.16931045401E+03 -0.12300311199E+03 -0.91914506927E+02  0.22856962173E+03  0.00000000000E+00 0. -1.
        -13    1    3    3    0    0  0.15082473709E+02 -0.17119460784E+01  0.18331930607E+02  0.23800660754E+02  0.00000000000E+00 0.  1.
          2    1    5    5  502    0 -0.11406716564E+02  0.11375731859E+02 -0.51415264988E+02  0.53879958536E+02  0.00000000000E+00 0. -1.
          4    1    6    6  503    0 -0.10425874519E+03 -0.58973350197E+02  0.13477574530E+03  0.18031151795E+03  0.00000000000E+00 0. -1.
         -2    1    5    5    0  502  0.31542942317E+02  0.26124571277E+03 -0.24209625070E+03  0.35756799949E+03  0.00000000000E+00 0.  1.
         -4    1    6    6    0  503 -0.10027040828E+03 -0.88933036369E+02  0.32762239809E+03  0.35397694199E+03  0.00000000000E+00 0.  1.
<mgrwt>
<rscale>  0 0.11943102E+04</rscale>
<asrwt>0</asrwt>
<pdfrwt beam="1">  1        2 0.99493134E-01 0.11943102E+04</pdfrwt>
<pdfrwt beam="2">  1       -2 0.84830973E-01 0.11943102E+04</pdfrwt>
<totfact> 0.54086166E+01</totfact>
</mgrwt>
</event>
<event>
12    1  0.4247462E-008  0.1886033E+04  0.7818608E-02  0.8661840E-01
          2   -1    0    0  501    0  0.00000000000E+00  0.00000000000E+00  0.15380085519E+04  0.15380085519E+04  0.00000000000E+00 0.  1.
         -2   -1    0    0    0  501 -0.00000000000E+00 -0.00000000000E+00 -0.57820208521E+03  0.57820208521E+03  0.00000000000E+00 0. -1.
         23    2    1    2    0    0  0.30101931699E+03 -0.41878057829E+03 -0.19963576641E+03  0.56028560318E+03  0.89864987329E+02 0.  0.
        254    2    1    2    0    0 -0.30101931699E+03  0.41878057829E+03  0.11594422331E+04  0.15559250339E+04  0.90033694656E+03 0.  0.
         23    2    4    4    0    0 -0.96164818253E+02 -0.27433319211E+03  0.27930402730E+03  0.41345429997E+03  0.91800576991E+02 0.  0.
         23    2    4    4    0    0 -0.20485449874E+03  0.69311377040E+03  0.88013820583E+03  0.11424707340E+04  0.90686560471E+02 0.  0.
         13    1    3    3    0    0  0.26758013725E+03 -0.35791259824E+03 -0.20284875712E+03  0.49076285118E+03  0.00000000000E+00 0. -1.
        -13    1    3    3    0    0  0.33439179742E+02 -0.60867980049E+02  0.32129907090E+01  0.69522752005E+02  0.00000000000E+00 0.  1.
          2    1    5    5  502    0 -0.73655009903E+02 -0.27192993333E+03  0.25201649747E+03  0.37799902662E+03  0.00000000000E+00 0. -1.
          1    1    6    6  503    0 -0.13004799062E+03  0.52212918668E+03  0.70172424321E+03  0.88427839562E+03  0.00000000000E+00 0. -1.
         -2    1    5    5    0  502 -0.22509808350E+02 -0.24032587824E+01  0.27287529823E+02  0.35455273354E+02  0.00000000000E+00 0.  1.
         -1    1    6    6    0  503 -0.74806508123E+02  0.17098458372E+03  0.17841396261E+03  0.25819233835E+03  0.00000000000E+00 0.  1.
<mgrwt>
<rscale>  0 0.18860326E+04</rscale>
<asrwt>0</asrwt>
<pdfrwt beam="1">  1        2 0.23661670E+00 0.18860326E+04</pdfrwt>
<pdfrwt beam="2">  1       -2 0.88954167E-01 0.18860326E+04</pdfrwt>
<totfact> 0.12299668E+01</totfact>
</mgrwt>
</event>
<event>
12    1  0.4247462E-008  0.1847452E+04  0.7818608E-02  0.8681464E-01
         -2   -1    0    0    0  501 -0.00000000000E+00  0.00000000000E+00  0.76809475580E+03  0.76809475580E+03  0.00000000000E+00 0. -1.
          2   -1    0    0  501    0  0.00000000000E+00 -0.00000000000E+00 -0.11108916629E+04  0.11108916629E+04  0.00000000000E+00 0.  1.
         23    2    1    2    0    0 -0.14205050638E+03  0.66068091815E+03  0.62231520451E+02  0.68466625831E+03  0.90650433831E+02 0.  0.
        254    2    1    2    0    0  0.14205050638E+03 -0.66068091815E+03 -0.40502842757E+03  0.11943201604E+04  0.89759400425E+03 0.  0.
         23    2    4    4    0    0  0.27789698916E+03 -0.81297627388E+03 -0.43543077304E+03  0.96773269552E+03  0.93538512841E+02 0.  0.
         23    2    4    4    0    0 -0.13584648279E+03  0.15229535572E+03  0.30402345477E+02  0.22658746490E+03  0.93645258176E+02 0.  0.
         13    1    3    3    0    0 -0.51061550406E+02  0.29455126993E+03  0.71149048830E+02  0.30729451622E+03  0.00000000000E+00 0.  1.
        -13    1    3    3    0    0 -0.90988955973E+02  0.36612964822E+03 -0.89175283784E+01  0.37737174209E+03  0.00000000000E+00 0. -1.
          4    1    5    5  502    0  0.23720471579E+03 -0.74105215961E+03 -0.41806314099E+03  0.88328996955E+03  0.00000000000E+00 0. -1.
          3    1    6    6  503    0 -0.64306020222E+02  0.13701840919E+03  0.18849528048E+02  0.15252741852E+03  0.00000000000E+00 0. -1.
         -4    1    5    5    0  502  0.40692273371E+02 -0.71924114272E+02 -0.17367632056E+02  0.84442725970E+02  0.00000000000E+00 0.  1.
         -3    1    6    6    0  503 -0.71540462563E+02  0.15276946539E+02  0.11552817429E+02  0.74060046380E+02  0.00000000000E+00 0.  1.
<mgrwt>
<rscale>  0 0.18474524E+04</rscale>
<asrwt>0</asrwt>
<pdfrwt beam="1">  1        2 0.17090641E+00 0.18474524E+04</pdfrwt>
<pdfrwt beam="2">  1       -2 0.11816842E+00 0.18474524E+04</pdfrwt>
<totfact> 0.11131312E+01</totfact>
</mgrwt>
</event>
<event>
12    1  0.4247462E-008  0.1431874E+04  0.7818608E-02  0.8931064E-01
          2   -1    0    0  501    0  0.00000000000E+00  0.00000000000E+00  0.12646186719E+04  0.12646186719E+04  0.00000000000E+00 0. -1.
         -2   -1    0    0    0  501 -0.00000000000E+00 -0.00000000000E+00 -0.40531272125E+03  0.40531272125E+03  0.00000000000E+00 0.  1.
         23    2    1    2    0    0 -0.24661175238E+02 -0.10522646949E+02 -0.23485009923E+03  0.25319198062E+03  0.90734283929E+02 0.  0.
        254    2    1    2    0    0  0.24661175238E+02  0.10522646949E+02  0.10941560498E+04  0.14167394125E+04  0.89958557227E+03 0.  0.
         23    2    4    4    0    0 -0.13778734985E+03  0.29678380590E+03  0.84486322294E+02  0.35077516075E+03  0.94017517086E+02 0.  0.
         23    2    4    4    0    0  0.16244852509E+03 -0.28626115895E+03  0.10096697276E+04  0.10659642517E+04  0.92259703190E+02 0.  0.
         11    1    3    3    0    0 -0.32069718278E+02 -0.85827826288E+01 -0.21168178984E+02  0.39372868699E+02  0.00000000000E+00 0. -1.
        -11    1    3    3    0    0  0.74085430405E+01 -0.19398643201E+01 -0.21368192024E+03  0.21381911192E+03  0.00000000000E+00 0.  1.
          4    1    5    5  502    0  0.13280109459E+02  0.39552532621E+02  0.47515122832E+01  0.41992154183E+02  0.00000000000E+00 0.  1.
          4    1    6    6  503    0  0.16786432047E+03 -0.28823801799E+03  0.96711003567E+03  0.10230158387E+04  0.00000000000E+00 0. -1.
         -4    1    5    5    0  502 -0.15106745931E+03  0.25723127328E+03  0.79734810011E+02  0.30878300657E+03  0.00000000000E+00 0. -1.
         -4    1    6    6    0  503 -0.54157953819E+01  0.19768590416E+01  0.42559691883E+02  0.42948413061E+02  0.00000000000E+00 0.  1.
<mgrwt>
<rscale>  0 0.14318743E+04</rscale>
<asrwt>0</asrwt>
<pdfrwt beam="1">  1        2 0.19455672E+00 0.14318743E+04</pdfrwt>
<pdfrwt beam="2">  1       -2 0.62355804E-01 0.14318743E+04</pdfrwt>
<totfact> 0.40181871E+01</totfact>
</mgrwt>
</event>
<event>
12    1  0.4247462E-008  0.1888171E+04  0.7818608E-02  0.8660767E-01
         -1   -1    0    0    0  501 -0.00000000000E+00  0.00000000000E+00  0.89869395269E+03  0.89869395269E+03  0.00000000000E+00 0. -1.
          1   -1    0    0  501    0  0.00000000000E+00 -0.00000000000E+00 -0.99176960775E+03  0.99176960775E+03  0.00000000000E+00 0.  1.
         23    2    1    2    0    0  0.26729160156E+02 -0.62824519146E+03  0.32431511770E+03  0.71330809186E+03  0.90673423638E+02 0.  0.
        254    2    1    2    0    0 -0.26729160156E+02  0.62824519146E+03 -0.41739077276E+03  0.11771554686E+04  0.90336784946E+03 0.  0.
         23    2    4    4    0    0  0.17439058010E+03  0.46791707246E+03  0.16541981648E+03  0.53409526164E+03  0.92388157758E+02 0.  0.
         23    2    4    4    0    0 -0.20111974026E+03  0.16032811899E+03 -0.58281058924E+03  0.64306020694E+03  0.87772382605E+02 0.  0.
         11    1    3    3    0    0  0.67540341070E+01 -0.60119982271E+03  0.31300821237E+03  0.67783551458E+03  0.00000000000E+00 0. -1.
        -11    1    3    3    0    0  0.19975126049E+02 -0.27045368743E+02  0.11306905322E+02  0.35472577283E+02  0.00000000000E+00 0.  1.
          4    1    5    5  502    0  0.79714642511E+02  0.27933241803E+03  0.53967755994E+02  0.29545480650E+03  0.00000000000E+00 0.  1.
          3    1    6    6  503    0 -0.13684491198E+03  0.12740217225E+03 -0.32109974912E+03  0.37156815298E+03  0.00000000000E+00 0. -1.
         -4    1    5    5    0  502  0.94675937592E+02  0.18858465443E+03  0.11145206049E+03  0.23864045515E+03  0.00000000000E+00 0. -1.
         -3    1    6    6    0  503 -0.64274828279E+02  0.32925946743E+02 -0.26171084013E+03  0.27149205395E+03  0.00000000000E+00 0.  1.
<mgrwt>
<rscale>  0 0.18881709E+04</rscale>
<asrwt>0</asrwt>
<pdfrwt beam="1">  1        1 0.15257994E+00 0.18881709E+04</pdfrwt>
<pdfrwt beam="2">  1       -1 0.13826061E+00 0.18881709E+04</pdfrwt>
<totfact> 0.62297776E+00</totfact>
</mgrwt>
</event>
<event>
12    1  0.4247462E-008  0.1347525E+04  0.7818608E-02  0.8992703E-01
          2   -1    0    0  501    0  0.00000000000E+00  0.00000000000E+00  0.26646537726E+04  0.26646537726E+04  0.00000000000E+00 0. -1.
         -2   -1    0    0    0  501 -0.00000000000E+00 -0.00000000000E+00 -0.17036218254E+03  0.17036218254E+03  0.00000000000E+00 0.  1.
         23    2    1    2    0    0 -0.22438856084E+03 -0.29203365089E+03  0.72777249389E+03  0.82067975729E+03  0.90711529966E+02 0.  0.
        254    2    1    2    0    0  0.22438856084E+03  0.29203365089E+03  0.17665190962E+04  0.20143361979E+04  0.89516854358E+03 0.  0.
         23    2    4    4    0    0  0.33117438784E+03  0.45441465771E+03  0.16943998910E+04  0.17877433063E+04  0.94159346417E+02 0.  0.
         23    2    4    4    0    0 -0.10678582700E+03 -0.16238100682E+03  0.72119205231E+02  0.22659289156E+03  0.91500571133E+02 0.  0.
         11    1    3    3    0    0 -0.13885119305E+03 -0.22380299229E+03  0.57818210112E+03  0.63534398182E+03  0.00000000000E+00 0. -1.
        -11    1    3    3    0    0 -0.85537367789E+02 -0.68230658597E+02  0.14959039277E+03  0.18533577547E+03  0.00000000000E+00 0.  1.
          2    1    5    5  502    0  0.97730913928E+02  0.14609814220E+03  0.67325870355E+03  0.69582561077E+03  0.00000000000E+00 0. -1.
          4    1    6    6  503    0 -0.59953597900E+02 -0.12246108248E+03  0.63110820221E+01  0.13649534929E+03  0.00000000000E+00 0. -1.
         -2    1    5    5    0  502  0.23344347391E+03  0.30831651551E+03  0.10211411874E+04  0.10919176956E+04  0.00000000000E+00 0.  1.
         -4    1    6    6    0  503 -0.46832229100E+02 -0.39919924347E+02  0.65808123209E+02  0.90097542267E+02  0.00000000000E+00 0.  1.
<mgrwt>
<rscale>  0 0.13475255E+04</rscale>
<asrwt>0</asrwt>
<pdfrwt beam="1">  1        2 0.40994670E+00 0.13475255E+04</pdfrwt>
<pdfrwt beam="2">  1       -2 0.26209569E-01 0.13475255E+04</pdfrwt>
<totfact> 0.36054026E+01</totfact>
</mgrwt>
</event>
<event>
12    1  0.4247462E-008  0.1588369E+04  0.7818608E-02  0.8827726E-01
          1   -1    0    0  501    0  0.00000000000E+00  0.00000000000E+00  0.58885456371E+03  0.58885456371E+03  0.00000000000E+00 0. -1.
         -1   -1    0    0    0  501 -0.00000000000E+00 -0.00000000000E+00 -0.10711112312E+04  0.10711112312E+04  0.00000000000E+00 0.  1.
         23    2    1    2    0    0  0.37629404133E+03  0.18984122707E+02 -0.52113426339E+03  0.64967238448E+03  0.92388766796E+02 0.  0.
        254    2    1    2    0    0 -0.37629404133E+03 -0.18984122707E+02  0.38877595911E+02  0.10102934104E+04  0.93660221289E+03 0.  0.
         23    2    4    4    0    0  0.26105093832E+03 -0.10364885888E+03 -0.15455321955E+03  0.33275175974E+03  0.89142344536E+02 0.  0.
         23    2    4    4    0    0 -0.63734497965E+03  0.84664736177E+02  0.19343081546E+03  0.67754165067E+03  0.90942110107E+02 0.  0.
         13    1    3    3    0    0  0.35022459890E+03  0.27736552041E+02 -0.51150608350E+03  0.62053610648E+03  0.00000000000E+00 0.  1.
        -13    1    3    3    0    0  0.26069442426E+02 -0.87524293340E+01 -0.96281798887E+01  0.29136277998E+02  0.00000000000E+00 0. -1.
          1    1    5    5  502    0  0.18690744723E+03 -0.57376411220E+02 -0.14779785684E+03  0.24509315144E+03  0.00000000000E+00 0. -1.
          3    1    6    6  503    0 -0.39627960953E+03  0.94586290764E+02  0.13622866887E+03  0.42958392143E+03  0.00000000000E+00 0. -1.
         -1    1    5    5    0  502  0.74143491091E+02 -0.46272447664E+02 -0.67553627077E+01  0.87658608301E+02  0.00000000000E+00 0.  1.
         -3    1    6    6    0  503 -0.24106537012E+03 -0.99215545874E+01  0.57202146586E+02  0.24795772924E+03  0.00000000000E+00 0.  1.
<mgrwt>
<rscale>  0 0.15883686E+04</rscale>
<asrwt>0</asrwt>
<pdfrwt beam="1">  1        1 0.90593010E-01 0.15883686E+04</pdfrwt>
<pdfrwt beam="2">  1       -1 0.16478634E+00 0.15883686E+04</pdfrwt>
<totfact> 0.90900431E+00</totfact>
</mgrwt>
</event>
<event>
12    1  0.4247462E-008  0.1454406E+04  0.7818608E-02  0.8915352E-01
         -1   -1    0    0    0  501 -0.00000000000E+00  0.00000000000E+00  0.31471908737E+03  0.31471908737E+03  0.00000000000E+00 0.  1.
          1   -1    0    0  501    0  0.00000000000E+00 -0.00000000000E+00 -0.16803050685E+04  0.16803050685E+04  0.00000000000E+00 0. -1.
         23    2    1    2    0    0  0.43264428129E+03  0.47030464207E+02 -0.40082524435E+03  0.59924827145E+03  0.95103499565E+02 0.  0.
        254    2    1    2    0    0 -0.43264428129E+03 -0.47030464207E+02 -0.96476073676E+03  0.13957758844E+04  0.90996379136E+03 0.  0.
         23    2    4    4    0    0 -0.31870430677E+03 -0.39534248139E+03 -0.21916259742E+03  0.56061779226E+03  0.91607598745E+02 0.  0.
         23    2    4    4    0    0 -0.11393997453E+03  0.34831201718E+03 -0.74559813934E+03  0.83515809215E+03  0.85257693966E+02 0.  0.
         13    1    3    3    0    0  0.41489127928E+03  0.23318508694E+02 -0.37937746077E+03  0.56267733579E+03  0.00000000000E+00 0.  1.
        -13    1    3    3    0    0  0.17753002016E+02  0.23711955513E+02 -0.21447783577E+02  0.36570935662E+02  0.00000000000E+00 0. -1.
          4    1    6    6  502    0 -0.70137096859E+02  0.93955739430E+02 -0.20661310967E+03  0.23756235059E+03  0.00000000000E+00 0. -1.
          4    1    5    5  503    0 -0.23080314504E+02 -0.78428636973E+02 -0.23201146562E+02  0.84982617145E+02  0.00000000000E+00 0. -1.
         -4    1    5    5    0  503 -0.29562399226E+03 -0.31691384441E+03 -0.19596145086E+03  0.47563517511E+03  0.00000000000E+00 0.  1.
         -4    1    6    6    0  502 -0.43802877667E+02  0.25435627775E+03 -0.53898502967E+03  0.59759574156E+03  0.00000000000E+00 0.  1.
<mgrwt>
<rscale>  0 0.14544058E+04</rscale>
<asrwt>0</asrwt>
<pdfrwt beam="1">  1        1 0.25850847E+00 0.14544058E+04</pdfrwt>
<pdfrwt beam="2">  1       -1 0.48418321E-01 0.14544058E+04</pdfrwt>
<totfact> 0.20366476E+01</totfact>
</mgrwt>
</event>
<event>
12    1  0.4247462E-008  0.1605353E+04  0.7818608E-02  0.8817266E-01
         -1   -1    0    0    0  501 -0.00000000000E+00  0.00000000000E+00  0.36949882037E+03  0.36949882037E+03  0.00000000000E+00 0.  1.
          1   -1    0    0  501    0  0.00000000000E+00 -0.00000000000E+00 -0.17436851542E+04  0.17436851542E+04  0.00000000000E+00 0. -1.
         23    2    1    2    0    0 -0.50715440043E+03 -0.13128074374E+03 -0.66331238171E+03  0.85040184003E+03  0.93593558777E+02 0.  0.
        254    2    1    2    0    0  0.50715440043E+03  0.13128074374E+03 -0.71087395213E+03  0.12627821346E+04  0.90268306950E+03 0.  0.
         23    2    4    4    0    0  0.68123424802E+02 -0.27963752126E+03  0.32333294360E+02  0.30319133298E+03  0.89674958418E+02 0.  0.
         23    2    4    4    0    0  0.43903097563E+03  0.41091826500E+03 -0.74320724649E+03  0.95959080157E+03  0.82797808770E+02 0.  0.
         11    1    3    3    0    0  0.11742894221E+01  0.16658660365E+01  0.18481600842E+01  0.27513198642E+01  0.00000000000E+00 0.  1.
        -11    1    3    3    0    0 -0.50832868986E+03 -0.13294660978E+03 -0.66516054179E+03  0.84765052017E+03  0.00000000000E+00 0. -1.
          4    1    5    5  502    0  0.36276465641E+02 -0.26169577952E+03  0.21524286653E+02  0.26507349527E+03  0.00000000000E+00 0. -1.
          3    1    6    6  503    0  0.43103876189E+03  0.37925448465E+03 -0.69716767422E+03  0.90314514025E+03  0.00000000000E+00 0. -1.
         -4    1    5    5    0  502  0.31846959161E+02 -0.17941741746E+02  0.10809007707E+02  0.38117837718E+02  0.00000000000E+00 0.  1.
         -3    1    6    6    0  503  0.79922137453E+01  0.31663780353E+02 -0.46039572275E+02  0.56445661322E+02  0.00000000000E+00 0.  1.
<mgrwt>
<rscale>  0 0.16053531E+04</rscale>
<asrwt>0</asrwt>
<pdfrwt beam="1">  1        1 0.26825926E+00 0.16053531E+04</pdfrwt>
<pdfrwt beam="2">  1       -1 0.56845971E-01 0.16053531E+04</pdfrwt>
<totfact> 0.13371271E+01</totfact>
</mgrwt>
</event>
<event>
12    1  0.4247462E-008  0.1497474E+04  0.7818608E-02  0.8886134E-01
         -1   -1    0    0    0  501 -0.00000000000E+00  0.00000000000E+00  0.89043750097E+03  0.89043750097E+03  0.00000000000E+00 0.  1.
          1   -1    0    0  501    0  0.00000000000E+00 -0.00000000000E+00 -0.62958645806E+03  0.62958645806E+03  0.00000000000E+00 0. -1.
         23    2    1    2    0    0  0.33593325657E+03 -0.13013545796E+03  0.37912513188E+03  0.53117785230E+03  0.92885170357E+02 0.  0.
        254    2    1    2    0    0 -0.33593325657E+03  0.13013545796E+03 -0.11827408897E+03  0.98884610673E+03  0.91325871055E+03 0.  0.
         23    2    4    4    0    0 -0.11928195777E+03 -0.38859016354E+02 -0.49086916640E+03  0.51495387972E+03  0.92123564376E+02 0.  0.
         23    2    4    4    0    0 -0.21665129880E+03  0.16899447431E+03  0.37259507744E+03  0.47389222701E+03  0.10124146123E+03 0.  0.
         11    1    3    3    0    0  0.26625994375E+03 -0.12807211019E+03  0.34286350252E+03  0.45260601456E+03  0.00000000000E+00 0.  1.
        -11    1    3    3    0    0  0.69673312820E+02 -0.20633477655E+01  0.36261629357E+02  0.78571837747E+02  0.00000000000E+00 0. -1.
          4    1    5    5  502    0 -0.83237364237E+01 -0.42628420458E+02 -0.11106593941E+03  0.11925648710E+03  0.00000000000E+00 0. -1.
          1    1    6    6  503    0 -0.10484192467E+03  0.12379774792E+03  0.15110998938E+03  0.22170236906E+03  0.00000000000E+00 0. -1.
         -4    1    5    5    0  502 -0.11095822135E+03  0.37694041045E+01 -0.37980322699E+03  0.39569739262E+03  0.00000000000E+00 0.  1.
         -1    1    6    6    0  503 -0.11180937413E+03  0.45196726391E+02  0.22148508806E+03  0.25218985795E+03  0.00000000000E+00 0.  1.
<mgrwt>
<rscale>  0 0.14974744E+04</rscale>
<asrwt>0</asrwt>
<pdfrwt beam="1">  1        1 0.96859456E-01 0.14974744E+04</pdfrwt>
<pdfrwt beam="2">  1       -1 0.13699038E+00 0.14974744E+04</pdfrwt>
<totfact> 0.13705195E+01</totfact>
</mgrwt>
</event>
<event>
12    1  0.4247462E-008  0.2289163E+04  0.7818608E-02  0.8482206E-01
          2   -1    0    0  501    0  0.00000000000E+00  0.00000000000E+00  0.19610996550E+04  0.19610996550E+04  0.00000000000E+00 0. -1.
         -2   -1    0    0    0  501 -0.00000000000E+00 -0.00000000000E+00 -0.66802683832E+03  0.66802683832E+03  0.00000000000E+00 0.  1.
         23    2    1    2    0    0 -0.23153957199E+03  0.89693646374E+03  0.83715014693E+03  0.12518611042E+04  0.90720793202E+02 0.  0.
        254    2    1    2    0    0  0.23153957199E+03 -0.89693646374E+03  0.45592266971E+03  0.13772653891E+04  0.91153106245E+03 0.  0.
         23    2    4    4    0    0  0.42673532881E+03 -0.63309543734E+03 -0.46066326824E+02  0.77051909297E+03  0.93084330168E+02 0.  0.
         23    2    4    4    0    0 -0.19519575682E+03 -0.26384102639E+03  0.50198899653E+03  0.60674629611E+03  0.91840320737E+02 0.  0.
         13    1    3    3    0    0 -0.11806312533E+02  0.65280575603E+01  0.94909267541E+01  0.16494915635E+02  0.00000000000E+00 0.  1.
        -13    1    3    3    0    0 -0.21973325945E+03  0.89040840618E+03  0.82765922018E+03  0.12353661886E+04  0.00000000000E+00 0. -1.
          4    1    5    5  502    0  0.32850740824E+03 -0.51204348790E+03 -0.71556494155E+02  0.61255692195E+03  0.00000000000E+00 0. -1.
          1    1    6    6  503    0 -0.64044353736E+02 -0.15733736457E+03  0.28435426043E+03  0.33123114431E+03  0.00000000000E+00 0. -1.
         -4    1    5    5    0  502  0.98227920566E+02 -0.12105194944E+03  0.25490167330E+02  0.15796217102E+03  0.00000000000E+00 0.  1.
         -1    1    6    6    0  503 -0.13115140309E+03 -0.10650366182E+03  0.21763473610E+03  0.27551515180E+03  0.00000000000E+00 0.  1.
<mgrwt>
<rscale>  0 0.22891633E+04</rscale>
<asrwt>0</asrwt>
<pdfrwt beam="1">  1        2 0.30170764E+00 0.22891633E+04</pdfrwt>
<pdfrwt beam="2">  1       -2 0.10277336E+00 0.22891633E+04</pdfrwt>
<totfact> 0.49310028E+00</totfact>
</mgrwt>
</event>
<event>
12    1  0.4247462E-008  0.1450069E+04  0.7818608E-02  0.8918353E-01
         -2   -1    0    0    0  501 -0.00000000000E+00  0.00000000000E+00  0.20318084524E+03  0.20318084524E+03  0.00000000000E+00 0.  1.
          2   -1    0    0  501    0  0.00000000000E+00 -0.00000000000E+00 -0.25872260156E+04  0.25872260156E+04  0.00000000000E+00 0. -1.
         23    2    1    2    0    0  0.30546093179E+03 -0.18067053227E+03 -0.23343118097E+03  0.43447793645E+03  0.91283837170E+02 0.  0.
        254    2    1    2    0    0 -0.30546093179E+03  0.18067053227E+03 -0.21506139894E+04  0.23559289244E+04  0.89404269660E+03 0.  0.
         23    2    4    4    0    0 -0.10103493475E+03 -0.31379419318E+03 -0.13193075499E+04  0.13629214449E+04  0.91146036350E+02 0.  0.
         23    2    4    4    0    0 -0.20442599704E+03  0.49446472545E+03 -0.83130643949E+03  0.99300747953E+03  0.93317228212E+02 0.  0.
         11    1    3    3    0    0  0.93165543898E+02 -0.47115191779E+02 -0.12043746763E+03  0.15938896911E+03  0.00000000000E+00 0. -1.
        -11    1    3    3    0    0  0.21229538790E+03 -0.13355534049E+03 -0.11299371335E+03  0.27508896734E+03  0.00000000000E+00 0.  1.
          1    1    6    6  502    0 -0.82160803454E+02  0.31055112699E+03 -0.46198802232E+03  0.56269470663E+03  0.00000000000E+00 0. -1.
          1    1    5    5  503    0 -0.11405916431E+03 -0.22570782210E+03 -0.98949258093E+03  0.10212977439E+04  0.00000000000E+00 0. -1.
         -1    1    5    5    0  503  0.13024229560E+02 -0.88086371080E+02 -0.32981496896E+03  0.34162370099E+03  0.00000000000E+00 0.  1.
         -1    1    6    6    0  502 -0.12226519359E+03  0.18391359846E+03 -0.36931841717E+03  0.43031277290E+03  0.00000000000E+00 0.  1.
<mgrwt>
<rscale>  0 0.14500686E+04</rscale>
<asrwt>0</asrwt>
<pdfrwt beam="1">  1        2 0.39803473E+00 0.14500686E+04</pdfrwt>
<pdfrwt beam="2">  1       -2 0.31258595E-01 0.14500686E+04</pdfrwt>
<totfact> 0.28619878E+01</totfact>
</mgrwt>
</event>
<event>
12    1  0.4247462E-008  0.1865069E+04  0.7818608E-02  0.8672442E-01
          1   -1    0    0  501    0  0.00000000000E+00  0.00000000000E+00  0.13712325003E+04  0.13712325003E+04  0.00000000000E+00 0. -1.
         -1   -1    0    0    0  501 -0.00000000000E+00 -0.00000000000E+00 -0.63418928566E+03  0.63418928566E+03  0.00000000000E+00 0.  1.
         23    2    1    2    0    0 -0.18273579866E+03  0.54566488176E+03 -0.16574151519E+03  0.60576046959E+03  0.91285055512E+02 0.  0.
        254    2    1    2    0    0  0.18273579866E+03 -0.54566488176E+03  0.90278472985E+03  0.13996613164E+04  0.90160356965E+03 0.  0.
         23    2    4    4    0    0  0.24563013685E+03 -0.69109337333E+03  0.95666143331E+03  0.12089113035E+04  0.91220759554E+02 0.  0.
         23    2    4    4    0    0 -0.62894338187E+02  0.14542849157E+03 -0.53876703456E+02  0.19075001287E+03  0.91529909302E+02 0.  0.
         13    1    3    3    0    0 -0.10495860166E+03  0.33337218798E+03 -0.14611720972E+03  0.37881864098E+03  0.00000000000E+00 0.  1.
        -13    1    3    3    0    0 -0.77777197007E+02  0.21229269378E+03 -0.19624305479E+02  0.22694182861E+03  0.00000000000E+00 0. -1.
          1    1    6    6  502    0 -0.13772788098E+00  0.65094989972E+02 -0.60131064765E+02  0.88617840406E+02  0.00000000000E+00 0. -1.
          1    1    5    5  503    0  0.23735152161E+03 -0.59037194855E+03  0.79533393355E+03  0.10185434936E+04  0.00000000000E+00 0.  1.
         -1    1    5    5    0  503  0.82786152418E+01 -0.10072142479E+03  0.16132749976E+03  0.19036780994E+03  0.00000000000E+00 0. -1.
         -1    1    6    6    0  502 -0.62756610306E+02  0.80333501601E+02  0.62543613083E+01  0.10213217246E+03  0.00000000000E+00 0.  1.
<mgrwt>
<rscale>  0 0.18650694E+04</rscale>
<asrwt>0</asrwt>
<pdfrwt beam="1">  1        1 0.21095885E+00 0.18650694E+04</pdfrwt>
<pdfrwt beam="2">  1       -1 0.97567583E-01 0.18650694E+04</pdfrwt>
<totfact> 0.76158099E+00</totfact>
</mgrwt>
</event>
<event>
12    1  0.4247462E-008  0.3154891E+04  0.7818608E-02  0.8200833E-01
          1   -1    0    0  501    0  0.00000000000E+00  0.00000000000E+00  0.18708460342E+04  0.18708460342E+04  0.00000000000E+00 0. -1.
         -1   -1    0    0    0  501 -0.00000000000E+00 -0.00000000000E+00 -0.13300579691E+04  0.13300579691E+04  0.00000000000E+00 0.  1.
         23    2    1    2    0    0 -0.38880962103E+03  0.33625371544E+03 -0.11244891828E+04  0.12395912425E+04  0.88718902220E+02 0.  0.
        254    2    1    2    0    0  0.38880962103E+03 -0.33625371544E+03  0.16652772480E+04  0.19613127608E+04  0.89964434654E+03 0.  0.
         23    2    4    4    0    0  0.51694219426E+03 -0.30988841504E+03  0.50922255767E+03  0.79425469562E+03  0.90955188415E+02 0.  0.
         23    2    4    4    0    0 -0.12813257323E+03 -0.26365300398E+02  0.11560546903E+04  0.11670580651E+04  0.91918414749E+02 0.  0.
         11    1    3    3    0    0 -0.29873724558E+03  0.24499316079E+03 -0.74832514818E+03  0.84217344896E+03  0.00000000000E+00 0.  1.
        -11    1    3    3    0    0 -0.90072375452E+02  0.91260554651E+02 -0.37616403466E+03  0.39741779355E+03  0.00000000000E+00 0. -1.
          1    1    5    5  502    0  0.87249471486E+02 -0.25202728999E+02  0.48696667308E+02  0.10304859645E+03  0.00000000000E+00 0. -1.
          3    1    6    6  503    0  0.11334545521E+02 -0.16359274509E+02  0.16179427069E+03  0.16301375344E+03  0.00000000000E+00 0. -1.
         -1    1    5    5    0  502  0.42969272277E+03 -0.28468568604E+03  0.46052589036E+03  0.69120609917E+03  0.00000000000E+00 0.  1.
         -3    1    6    6    0  503 -0.13946711875E+03 -0.10006025889E+02  0.99426041964E+03  0.10040443117E+04  0.00000000000E+00 0.  1.
<mgrwt>
<rscale>  0 0.31548906E+04</rscale>
<asrwt>0</asrwt>
<pdfrwt beam="1">  1        1 0.28782247E+00 0.31548906E+04</pdfrwt>
<pdfrwt beam="2">  1       -1 0.20462430E+00 0.31548906E+04</pdfrwt>
<totfact> 0.42842909E-01</totfact>
</mgrwt>
</event>
<event>
12    1  0.4247462E-008  0.1684740E+04  0.7818608E-02  0.8770116E-01
          4   -1    0    0  501    0  0.00000000000E+00  0.00000000000E+00  0.49103864412E+03  0.49103864412E+03  0.00000000000E+00 0.  1.
         -4   -1    0    0    0  501 -0.00000000000E+00 -0.00000000000E+00 -0.14450742196E+04  0.14450742196E+04  0.00000000000E+00 0. -1.
         23    2    1    2    0    0 -0.21078805575E+03 -0.50393434143E+02  0.29828113810E+03  0.37940197349E+03  0.89460144718E+02 0.  0.
        254    2    1    2    0    0  0.21078805575E+03  0.50393434143E+02 -0.12523167135E+04  0.15567108902E+04  0.89893300194E+03 0.  0.
         23    2    4    4    0    0  0.31948908762E+03  0.41972459111E+02 -0.40553023998E+02  0.33677098627E+03  0.89079655402E+02 0.  0.
         23    2    4    4    0    0 -0.10870103187E+03  0.84209750313E+01 -0.12117636895E+04  0.12199399039E+04  0.89416456749E+02 0.  0.
         13    1    3    3    0    0 -0.23537066356E+02 -0.39041727309E+02  0.43535063464E+02  0.63036114369E+02  0.00000000000E+00 0. -1.
        -13    1    3    3    0    0 -0.18725098939E+03 -0.11351706833E+02  0.25474607463E+03  0.31636585912E+03  0.00000000000E+00 0.  1.
          2    1    5    5  502    0  0.64398904835E+02  0.18457691684E+02 -0.44752548009E+02  0.80564855115E+02  0.00000000000E+00 0. -1.
          4    1    6    6  503    0 -0.48338627866E+02  0.40826779156E+02 -0.36804537414E+03  0.37344456920E+03  0.00000000000E+00 0. -1.
         -2    1    5    5    0  502  0.25509018278E+03  0.23514767427E+02  0.41995240115E+01  0.25620613116E+03  0.00000000000E+00 0.  1.
         -4    1    6    6    0  503 -0.60362404004E+02 -0.32405804125E+02 -0.84371831539E+03  0.84649533471E+03  0.00000000000E+00 0.  1.
<mgrwt>
<rscale>  0 0.16847401E+04</rscale>
<asrwt>0</asrwt>
<pdfrwt beam="1">  1        4 0.75544407E-01 0.16847401E+04</pdfrwt>
<pdfrwt beam="2">  1       -4 0.22231911E+00 0.16847401E+04</pdfrwt>
<totfact> 0.28395981E-01</totfact>
</mgrwt>
</event>
<event>
12    1  0.4247462E-008  0.1519405E+04  0.7818608E-02  0.8871651E-01
          1   -1    0    0  501    0  0.00000000000E+00  0.00000000000E+00  0.25658252868E+04  0.25658252868E+04  0.00000000000E+00 0. -1.
         -1   -1    0    0    0  501 -0.00000000000E+00 -0.00000000000E+00 -0.22493650284E+03  0.22493650284E+03  0.00000000000E+00 0.  1.
         23    2    1    2    0    0  0.27485617082E+02  0.25026688144E+03  0.12668293574E+04  0.12944530137E+04  0.85807999607E+02 0.  0.
        254    2    1    2    0    0 -0.27485617082E+02 -0.25026688144E+03  0.10740594266E+04  0.14963087760E+04  0.10109141062E+04 0.  0.
         23    2    4    4    0    0 -0.22116600104E+03 -0.23225852717E+02 -0.11424240000E+03  0.26781628338E+03  0.96022890175E+02 0.  0.
         23    2    4    4    0    0  0.19368038396E+03 -0.22704102873E+03  0.11883018266E+04  0.12284924926E+04  0.89849059009E+02 0.  0.
         11    1    3    3    0    0  0.74737247082E+01  0.24340667395E+03  0.11956068373E+04  0.12201550618E+04  0.00000000000E+00 0. -1.
        -11    1    3    3    0    0  0.20011892374E+02  0.68602074918E+01  0.71222520065E+02  0.74297951840E+02  0.00000000000E+00 0.  1.
          4    1    5    5  502    0 -0.21887547786E+03 -0.24280745143E+02 -0.12740310392E+03  0.25441615570E+03  0.00000000000E+00 0. -1.
          3    1    6    6  503    0  0.20356487366E+03 -0.21666676752E+03  0.11375822074E+04  0.11757875763E+04  0.00000000000E+00 0. -1.
         -4    1    5    5    0  502 -0.22905231839E+01  0.10548924265E+01  0.13160703917E+02  0.13400127688E+02  0.00000000000E+00 0.  1.
         -3    1    6    6    0  503 -0.98844896992E+01 -0.10374261206E+02  0.50719619138E+02  0.52704916257E+02  0.00000000000E+00 0.  1.
<mgrwt>
<rscale>  0 0.15194048E+04</rscale>
<asrwt>0</asrwt>
<pdfrwt beam="1">  1        1 0.39474233E+00 0.15194048E+04</pdfrwt>
<pdfrwt beam="2">  1       -1 0.34605618E-01 0.15194048E+04</pdfrwt>
<totfact> 0.93509438E+00</totfact>
</mgrwt>
</event>
<event>
12    1  0.4247462E-008  0.1625460E+04  0.7818608E-02  0.8805058E-01
         -1   -1    0    0    0  501 -0.00000000000E+00  0.00000000000E+00  0.21682098600E+03  0.21682098600E+03  0.00000000000E+00 0.  1.
          1   -1    0    0  501    0  0.00000000000E+00 -0.00000000000E+00 -0.30464297335E+04  0.30464297335E+04  0.00000000000E+00 0. -1.
         23    2    1    2    0    0  0.78330519026E+02  0.55593293128E+03 -0.92316453130E+03  0.10842933948E+04  0.90897304349E+02 0.  0.
        254    2    1    2    0    0 -0.78330519026E+02 -0.55593293128E+03 -0.19064442162E+04  0.21789573246E+04  0.89338031034E+03 0.  0.
         23    2    4    4    0    0  0.30980633713E+03 -0.83915234120E+02 -0.11745135803E+04  0.12209692939E+04  0.90896277123E+02 0.  0.
         23    2    4    4    0    0 -0.38813685616E+03 -0.47201769716E+03 -0.73193063582E+03  0.95798803072E+03  0.92561794572E+02 0.  0.
         11    1    3    3    0    0  0.17698915107E+02  0.28917693672E+03 -0.54946281630E+03  0.62116498519E+03  0.00000000000E+00 0.  1.
        -11    1    3    3    0    0  0.60631603919E+02  0.26675599456E+03 -0.37370171499E+03  0.46312840964E+03  0.00000000000E+00 0. -1.
          4    1    5    5  502    0  0.24113120778E+03 -0.42160355269E+02 -0.98804629475E+03  0.10179180888E+04  0.00000000000E+00 0.  1.
          1    1    6    6  503    0 -0.38082549367E+02 -0.11902827843E+02 -0.49939303042E+02  0.63920981416E+02  0.00000000000E+00 0. -1.
         -4    1    5    5    0  502  0.68675129356E+02 -0.41754878850E+02 -0.18646728558E+03  0.20305120510E+03  0.00000000000E+00 0. -1.
         -1    1    6    6    0  503 -0.35005430679E+03 -0.46011486932E+03 -0.68199133277E+03  0.89406704931E+03  0.00000000000E+00 0.  1.
<mgrwt>
<rscale>  0 0.16254598E+04</rscale>
<asrwt>0</asrwt>
<pdfrwt beam="1">  1        1 0.46868146E+00 0.16254598E+04</pdfrwt>
<pdfrwt beam="2">  1       -1 0.33357077E-01 0.16254598E+04</pdfrwt>
<totfact> 0.44984788E+00</totfact>
</mgrwt>
</event>
<event>
12    1  0.4247462E-008  0.2508395E+04  0.7818608E-02  0.8400001E-01
          2   -1    0    0  501    0  0.00000000000E+00  0.00000000000E+00  0.44039984010E+04  0.44039984010E+04  0.00000000000E+00 0.  1.
         -2   -1    0    0    0  501 -0.00000000000E+00 -0.00000000000E+00 -0.35717804999E+03  0.35717804999E+03  0.00000000000E+00 0. -1.
         23    2    1    2    0    0  0.18952844942E+03  0.66713495380E+03  0.16817607398E+03  0.71896188585E+03  0.87366593861E+02 0.  0.
        254    2    1    2    0    0 -0.18952844942E+03 -0.66713495380E+03  0.38786442770E+04  0.40422145651E+04  0.90256694112E+03 0.  0.
         23    2    4    4    0    0 -0.32268095208E+03  0.10229600693E+03  0.10934079622E+04  0.11481169352E+04  0.89688656520E+02 0.  0.
         23    2    4    4    0    0  0.13315250267E+03 -0.76943096073E+03  0.27852363148E+04  0.28940976299E+04  0.92228901006E+02 0.  0.
         11    1    3    3    0    0  0.26671343706E+02  0.41063621985E+02 -0.51585589576E+01  0.49236087945E+02  0.00000000000E+00 0.  1.
        -11    1    3    3    0    0  0.16285710571E+03  0.62607133182E+03  0.17333463294E+03  0.66972579790E+03  0.00000000000E+00 0. -1.
          1    1    5    5  502    0 -0.39736501486E+02 -0.16295288102E+02  0.11624379455E+03  0.12392395143E+03  0.00000000000E+00 0. -1.
          3    1    6    6  503    0  0.10770797951E+03 -0.44255635873E+03  0.17414961744E+04  0.18000739055E+04  0.00000000000E+00 0. -1.
         -1    1    5    5    0  502 -0.28294445059E+03  0.11859129504E+03  0.97716416767E+03  0.10241929838E+04  0.00000000000E+00 0.  1.
         -3    1    6    6    0  503  0.25444523153E+02 -0.32687460201E+03  0.10437401403E+04  0.10940237245E+04  0.00000000000E+00 0.  1.
<mgrwt>
<rscale>  0 0.25083952E+04</rscale>
<asrwt>0</asrwt>
<pdfrwt beam="1">  1        2 0.67753818E+00 0.25083952E+04</pdfrwt>
<pdfrwt beam="2">  1       -2 0.54950472E-01 0.25083952E+04</pdfrwt>
<totfact> 0.42463384E-01</totfact>
</mgrwt>
</event>
<event>
12    1  0.4247462E-008  0.2368065E+04  0.7818608E-02  0.8451557E-01
          2   -1    0    0  501    0  0.00000000000E+00  0.00000000000E+00  0.73572494827E+03  0.73572494827E+03  0.00000000000E+00 0. -1.
         -2   -1    0    0    0  501 -0.00000000000E+00 -0.00000000000E+00 -0.19055119936E+04  0.19055119936E+04  0.00000000000E+00 0.  1.
         23    2    1    2    0    0  0.66376002194E+03  0.74109696762E+03 -0.70335619328E+03  0.12218062483E+04  0.91096056436E+02 0.  0.
        254    2    1    2    0    0 -0.66376002194E+03 -0.74109696762E+03 -0.46643085202E+03  0.14194306936E+04  0.89856756676E+03 0.  0.
         23    2    4    4    0    0 -0.85879904639E+01 -0.32978024270E+03 -0.53730119490E+03  0.63699750554E+03  0.90799151811E+02 0.  0.
         23    2    4    4    0    0 -0.65517203147E+03 -0.41131672492E+03  0.70870342875E+02  0.78243318804E+03  0.93526730007E+02 0.  0.
         11    1    3    3    0    0  0.63798630856E+03  0.68798798590E+03 -0.64350123201E+03  0.11377380341E+04  0.00000000000E+00 0.  1.
        -11    1    3    3    0    0  0.25773713379E+02  0.53108981726E+02 -0.59854961273E+02  0.84068214150E+02  0.00000000000E+00 0. -1.
          4    1    5    5  502    0 -0.10971378938E+02 -0.16595362723E+03 -0.18691632772E+03  0.25019730437E+03  0.00000000000E+00 0. -1.
          4    1    6    6  503    0 -0.18903308617E+03 -0.81709386745E+02  0.45886860056E+02  0.21098705049E+03  0.00000000000E+00 0. -1.
         -4    1    5    5    0  502  0.23833884742E+01 -0.16382661548E+03 -0.35038486718E+03  0.38680020117E+03  0.00000000000E+00 0.  1.
         -4    1    6    6    0  503 -0.46613894530E+03 -0.32960733817E+03  0.24983482819E+02  0.57144613755E+03  0.00000000000E+00 0.  1.
<mgrwt>
<rscale>  0 0.23680648E+04</rscale>
<asrwt>0</asrwt>
<pdfrwt beam="1">  1        2 0.11318846E+00 0.23680648E+04</pdfrwt>
<pdfrwt beam="2">  1       -2 0.29315569E+00 0.23680648E+04</pdfrwt>
<totfact> 0.12134478E+00</totfact>
</mgrwt>
</event>
<event>
12    1  0.4247462E-008  0.2215096E+04  0.7818608E-02  0.8512171E-01
          1   -1    0    0  501    0  0.00000000000E+00  0.00000000000E+00  0.40051818428E+03  0.40051818428E+03  0.00000000000E+00 0. -1.
         -1   -1    0    0    0  501 -0.00000000000E+00 -0.00000000000E+00 -0.30626890093E+04  0.30626890093E+04  0.00000000000E+00 0.  1.
         23    2    1    2    0    0 -0.34327130278E+03  0.30637888724E+03 -0.23525169316E+04  0.23986404185E+04  0.86236501637E+02 0.  0.
        254    2    1    2    0    0  0.34327130278E+03 -0.30637888724E+03 -0.30965389341E+03  0.10645667750E+04  0.90868788641E+03 0.  0.
         23    2    4    4    0    0 -0.24096338954E+03 -0.17820835844E+03  0.10572087131E+03  0.33062501651E+03  0.91183467788E+02 0.  0.
         23    2    4    4    0    0  0.58423469231E+03 -0.12817052880E+03 -0.41537476471E+03  0.73394175850E+03  0.91522945549E+02 0.  0.
         13    1    3    3    0    0 -0.12342249418E+03  0.12222911777E+03 -0.11061150958E+04  0.11196712350E+04  0.00000000000E+00 0. -1.
        -13    1    3    3    0    0 -0.21984880859E+03  0.18414976947E+03 -0.12464018358E+04  0.12789691836E+04  0.00000000000E+00 0.  1.
          4    1    5    5  502    0 -0.15251476368E+03 -0.11196141934E+03  0.18994236757E+02  0.19014966104E+03  0.00000000000E+00 0. -1.
          1    1    6    6  503    0  0.45601827588E+03 -0.11123934693E+03 -0.36710960579E+03  0.59589959130E+03  0.00000000000E+00 0. -1.
         -4    1    5    5    0  502 -0.88448625851E+02 -0.66246939101E+02  0.86726634548E+02  0.14047535547E+03  0.00000000000E+00 0.  1.
         -1    1    6    6    0  503  0.12821641643E+03 -0.16931181865E+02 -0.48265158925E+02  0.13804216721E+03  0.00000000000E+00 0.  1.
<mgrwt>
<rscale>  0 0.22150961E+04</rscale>
<asrwt>0</asrwt>
<pdfrwt beam="1">  1        1 0.61618180E-01 0.22150961E+04</pdfrwt>
<pdfrwt beam="2">  1       -1 0.47118294E+00 0.22150961E+04</pdfrwt>
<totfact> 0.12613850E-01</totfact>
</mgrwt>
</event>
<event>
12    1  0.4247462E-008  0.3014982E+04  0.7818608E-02  0.8239466E-01
          1   -1    0    0  501    0  0.00000000000E+00  0.00000000000E+00  0.12371739459E+04  0.12371739459E+04  0.00000000000E+00 0. -1.
         -1   -1    0    0    0  501 -0.00000000000E+00 -0.00000000000E+00 -0.18368710932E+04  0.18368710932E+04  0.00000000000E+00 0.  1.
         23    2    1    2    0    0 -0.57456844774E+03 -0.12609362677E+04 -0.39630798638E+03  0.14441159445E+04  0.91223181304E+02 0.  0.
        254    2    1    2    0    0  0.57456844774E+03  0.12609362677E+04 -0.20338916092E+03  0.16299290946E+04  0.83379405746E+03 0.  0.
         23    2    4    4    0    0  0.70526726464E+01  0.56685298826E+03  0.24368699645E+03  0.62386217587E+03  0.91916330210E+02 0.  0.
         23    2    4    4    0    0  0.56751577509E+03  0.69408327940E+03 -0.44707615736E+03  0.10060669187E+04  0.92020653392E+02 0.  0.
         11    1    3    3    0    0 -0.12066468906E+03 -0.30265382690E+03 -0.56739656125E+02  0.33072449970E+03  0.00000000000E+00 0. -1.
        -11    1    3    3    0    0 -0.45390375868E+03 -0.95828244076E+03 -0.33956833025E+03  0.11133914448E+04  0.00000000000E+00 0.  1.
          3    1    5    5  502    0  0.29887205819E+02  0.40065882853E+03  0.20772790148E+03  0.45229594626E+03  0.00000000000E+00 0. -1.
          3    1    6    6  503    0  0.49747114121E+03  0.56158189611E+03 -0.35319881049E+03  0.82921719839E+03  0.00000000000E+00 0. -1.
         -3    1    5    5    0  502 -0.22834533172E+02  0.16619415973E+03  0.35959094970E+02  0.17156622961E+03  0.00000000000E+00 0.  1.
         -3    1    6    6    0  503  0.70044633887E+02  0.13250138329E+03 -0.93877346874E+02  0.17684972029E+03  0.00000000000E+00 0.  1.
<mgrwt>
<rscale>  0 0.30149820E+04</rscale>
<asrwt>0</asrwt>
<pdfrwt beam="1">  1        1 0.19033445E+00 0.30149820E+04</pdfrwt>
<pdfrwt beam="2">  1       -1 0.28259555E+00 0.30149820E+04</pdfrwt>
<totfact> 0.36534062E-01</totfact>
</mgrwt>
</event>
<event>
12    1  0.4288985E-008  0.1398872E+04  0.7818608E-02  0.8954636E-01
          1   -1    0    0  501    0  0.00000000000E+00  0.00000000000E+00  0.21336355504E+04  0.21336355504E+04  0.00000000000E+00 0. -1.
         -1   -1    0    0    0  501 -0.00000000000E+00 -0.00000000000E+00 -0.22928500473E+03  0.22928500473E+03  0.00000000000E+00 0.  1.
         23    2    1    2    0    0 -0.28041997041E+03  0.19550743772E+03  0.21415800185E+03  0.41367702739E+03  0.91687050459E+02 0.  0.
        254    2    1    2    0    0  0.28041997041E+03 -0.19550743772E+03  0.16901925438E+04  0.19492435277E+04  0.90881294952E+03 0.  0.
         23    2    4    4    0    0  0.16183642920E+03 -0.39367276420E+03  0.16388232451E+04  0.16955999806E+04  0.90268436470E+02 0.  0.
         23    2    4    4    0    0  0.11858354121E+03  0.19816532648E+03  0.51369298741E+02  0.25364354710E+03  0.91458686136E+02 0.  0.
         11    1    3    3    0    0  0.16152529718E+01  0.22550563122E+02  0.86823177992E+01  0.24218166356E+02  0.00000000000E+00 0. -1.
        -11    1    3    3    0    0 -0.28203522338E+03  0.17295687460E+03  0.20547568405E+03  0.38945886103E+03  0.00000000000E+00 0.  1.
          1    1    5    5  502    0  0.16463451808E+02 -0.51691555098E+02  0.11546778947E+03  0.12757692785E+03  0.00000000000E+00 0. -1.
          3    1    6    6  503    0 -0.59805252046E+01 -0.56706771931E+01 -0.27835898760E+01  0.86989444273E+01  0.00000000000E+00 0. -1.
         -1    1    5    5    0  502  0.14537297739E+03 -0.34198120910E+03  0.15233554556E+04  0.15680230528E+04  0.00000000000E+00 0.  1.
         -3    1    6    6    0  503  0.12456406641E+03  0.20383600367E+03  0.54152888617E+02  0.24494460267E+03  0.00000000000E+00 0.  1.
<mgrwt>
<rscale>  0 0.13988719E+04</rscale>
<asrwt>0</asrwt>
<pdfrwt beam="1">  1        1 0.32825161E+00 0.13988719E+04</pdfrwt>
<pdfrwt beam="2">  1       -1 0.35274618E-01 0.13988719E+04</pdfrwt>
<totfact> 0.18065409E+01</totfact>
</mgrwt>
</event>
<event>
12    1  0.4247462E-008  0.1623094E+04  0.7818608E-02  0.8806485E-01
          2   -1    0    0  501    0  0.00000000000E+00  0.00000000000E+00  0.22609042860E+04  0.22609042860E+04  0.00000000000E+00 0.  1.
         -2   -1    0    0    0  501 -0.00000000000E+00 -0.00000000000E+00 -0.29130329800E+03  0.29130329800E+03  0.00000000000E+00 0. -1.
         23    2    1    2    0    0  0.40529423192E+03  0.35318469462E+03  0.89942196029E+03  0.10540104061E+04  0.11390886987E+03 0.  0.
        254    2    1    2    0    0 -0.40529423192E+03 -0.35318469462E+03  0.10701790277E+04  0.14981971778E+04  0.90017153336E+03 0.  0.
         23    2    4    4    0    0  0.99403816627E+02 -0.43263853692E+03  0.22252714771E+03  0.50432140868E+03  0.88116567093E+02 0.  0.
         23    2    4    4    0    0 -0.50469804855E+03  0.79453842305E+02  0.84765187998E+03  0.99387576917E+03  0.90787122653E+02 0.  0.
         11    1    3    3    0    0  0.20126090655E+03  0.21485247306E+03  0.39563180318E+03  0.49314507132E+03  0.00000000000E+00 0.  1.
        -11    1    3    3    0    0  0.20403332537E+03  0.13833222156E+03  0.50379015711E+03  0.56086533480E+03  0.00000000000E+00 0. -1.
          1    1    6    6  502    0 -0.12464630220E+03  0.27561827581E+02  0.14378625067E+03  0.19227803013E+03  0.00000000000E+00 0. -1.
          1    1    5    5  503    0  0.26109434688E+02 -0.55804015935E+02  0.21066424868E+01  0.61645995140E+02  0.00000000000E+00 0. -1.
         -1    1    5    5    0  503  0.73294381938E+02 -0.37683452099E+03  0.22042050522E+03  0.44267541354E+03  0.00000000000E+00 0.  1.
         -1    1    6    6    0  502 -0.38005174635E+03  0.51892014724E+02  0.70386562932E+03  0.80159773904E+03  0.00000000000E+00 0.  1.
<mgrwt>
<rscale>  0 0.16230944E+04</rscale>
<asrwt>0</asrwt>
<pdfrwt beam="1">  1        2 0.34783142E+00 0.16230944E+04</pdfrwt>
<pdfrwt beam="2">  1       -2 0.44815893E-01 0.16230944E+04</pdfrwt>
<totfact> 0.21583758E+01</totfact>
</mgrwt>
</event>
<event>
12    1  0.4247462E-008  0.4232020E+04  0.7818608E-02  0.7959309E-01
         -2   -1    0    0    0  501 -0.00000000000E+00  0.00000000000E+00  0.15735627219E+04  0.15735627219E+04  0.00000000000E+00 0.  1.
          2   -1    0    0  501    0  0.00000000000E+00 -0.00000000000E+00 -0.28454531111E+04  0.28454531111E+04  0.00000000000E+00 0. -1.
         23    2    1    2    0    0 -0.42632253629E+03 -0.12202342724E+04  0.10123458888E+04  0.16442996180E+04  0.90301997080E+02 0.  0.
        254    2    1    2    0    0  0.42632253629E+03  0.12202342724E+04 -0.22842362780E+04  0.27747162149E+04  0.90032889290E+03 0.  0.
         23    2    4    4    0    0  0.24937853769E+03  0.10623139518E+04 -0.10620848426E+04  0.15262207949E+04  0.10307819632E+03 0.  0.
         23    2    4    4    0    0  0.17694399860E+03  0.15792032062E+03 -0.12221514354E+04  0.12484954201E+04  0.94014236826E+02 0.  0.
         13    1    3    3    0    0 -0.42045677439E+03 -0.12074279483E+04  0.10113430558E+04  0.16301781885E+04  0.00000000000E+00 0.  1.
        -13    1    3    3    0    0 -0.58657618973E+01 -0.12806324045E+02  0.10028330001E+01  0.14121429538E+02  0.00000000000E+00 0. -1.
          1    1    5    5  502    0  0.22104482228E+03  0.88954398612E+03 -0.93904190481E+03  0.13122305497E+04  0.00000000000E+00 0. -1.
          3    1    6    6  503    0  0.11135954100E+03  0.10621020372E+03 -0.98761532474E+03  0.99953268301E+03  0.00000000000E+00 0. -1.
         -1    1    5    5    0  502  0.28333715413E+02  0.17276996565E+03 -0.12304293781E+03  0.21399024512E+03  0.00000000000E+00 0.  1.
         -3    1    6    6    0  503  0.65584457604E+02  0.51710116899E+02 -0.23453611062E+03  0.24896273708E+03  0.00000000000E+00 0.  1.
<mgrwt>
<rscale>  0 0.42320203E+04</rscale>
<asrwt>0</asrwt>
<pdfrwt beam="1">  1        2 0.43776201E+00 0.42320203E+04</pdfrwt>
<pdfrwt beam="2">  1       -2 0.24208658E+00 0.42320203E+04</pdfrwt>
<totfact> 0.12076718E-01</totfact>
</mgrwt>
</event>
<event>
12    1  0.4247462E-008  0.2080933E+04  0.7818608E-02  0.8569690E-01
         -1   -1    0    0    0  501 -0.00000000000E+00  0.00000000000E+00  0.12269538080E+04  0.12269538080E+04  0.00000000000E+00 0.  1.
          1   -1    0    0  501    0  0.00000000000E+00 -0.00000000000E+00 -0.88232339592E+03  0.88232339592E+03  0.00000000000E+00 0. -1.
         23    2    1    2    0    0  0.42794546747E+03  0.10648674159E+03 -0.58434845004E+03  0.73681796845E+03  0.83431758329E+02 0.  0.
        254    2    1    2    0    0 -0.42794546747E+03 -0.10648674159E+03  0.92897886210E+03  0.13724592354E+04  0.90893667407E+03 0.  0.
         23    2    4    4    0    0 -0.59723594265E+03  0.10514798321E+03  0.30280183060E+03  0.68414698909E+03  0.92850872374E+02 0.  0.
         23    2    4    4    0    0  0.16929047518E+03 -0.21163472481E+03  0.62617703149E+03  0.68831224635E+03  0.90705854165E+02 0.  0.
         13    1    3    3    0    0  0.39598060881E+03  0.73654469246E+02 -0.53146724994E+03  0.66684560519E+03  0.00000000000E+00 0. -1.
        -13    1    3    3    0    0  0.31964858662E+02  0.32832272347E+02 -0.52881200099E+02  0.69972363264E+02  0.00000000000E+00 0.  1.
          4    1    5    5  502    0 -0.46062273748E+03  0.88045329373E+02  0.18934962504E+03  0.50574555541E+03  0.00000000000E+00 0.  1.
          3    1    6    6  503    0  0.10343226921E+03 -0.14030955736E+03  0.28959328881E+03  0.33800780927E+03  0.00000000000E+00 0. -1.
         -4    1    5    5    0  502 -0.13661320517E+03  0.17102653841E+02  0.11345220556E+03  0.17840143369E+03  0.00000000000E+00 0. -1.
         -3    1    6    6    0  503  0.65858205973E+02 -0.71325167444E+02  0.33658374268E+03  0.35030443709E+03  0.00000000000E+00 0.  1.
<mgrwt>
<rscale>  0 0.20809325E+04</rscale>
<asrwt>0</asrwt>
<pdfrwt beam="1">  1        1 0.13574206E+00 0.20809325E+04</pdfrwt>
<pdfrwt beam="2">  1       -1 0.18876212E+00 0.20809325E+04</pdfrwt>
<totfact> 0.31250234E+00</totfact>
</mgrwt>
</event>
<event>
12    1  0.4247462E-008  0.1536215E+04  0.7818608E-02  0.8860721E-01
          2   -1    0    0  501    0  0.00000000000E+00  0.00000000000E+00  0.97995491576E+03  0.97995491576E+03  0.00000000000E+00 0. -1.
         -2   -1    0    0    0  501 -0.00000000000E+00 -0.00000000000E+00 -0.60205717115E+03  0.60205717115E+03  0.00000000000E+00 0.  1.
         23    2    1    2    0    0 -0.26248927010E+02 -0.46526803071E+03 -0.74634069503E+02  0.48205828036E+03  0.98217079766E+02 0.  0.
        254    2    1    2    0    0  0.26248927010E+02  0.46526803071E+03  0.45253181411E+03  0.10999538065E+04  0.88766547031E+03 0.  0.
         23    2    4    4    0    0 -0.11424635919E+03 -0.18733794921E+03 -0.69538245830E+02  0.24764571170E+03  0.91351481039E+02 0.  0.
         23    2    4    4    0    0  0.14049528620E+03  0.65260597992E+03  0.52207005994E+03  0.85230809485E+03  0.90765910923E+02 0.  0.
         13    1    3    3    0    0 -0.52529779341E+02 -0.31157506528E+03 -0.19131744573E+02  0.31655082163E+03  0.00000000000E+00 0. -1.
        -13    1    3    3    0    0  0.26280852332E+02 -0.15369296543E+03 -0.55502324930E+02  0.16550745873E+03  0.00000000000E+00 0.  1.
          2    1    5    5  502    0 -0.11672645628E+03 -0.18110989535E+03 -0.84349016082E+02  0.23138845326E+03  0.00000000000E+00 0. -1.
          3    1    6    6  503    0  0.70358548799E+01  0.93233535475E+02  0.11256412958E+03  0.14633071673E+03  0.00000000000E+00 0.  1.
         -2    1    5    5    0  502  0.24800970871E+01 -0.62280538554E+01  0.14810770252E+02  0.16257258435E+02  0.00000000000E+00 0.  1.
         -3    1    6    6    0  503  0.13345943132E+03  0.55937244444E+03  0.40950593037E+03  0.70597737812E+03  0.00000000000E+00 0. -1.
<mgrwt>
<rscale>  0 0.15362147E+04</rscale>
<asrwt>0</asrwt>
<pdfrwt beam="1">  1        2 0.15076229E+00 0.15362147E+04</pdfrwt>
<pdfrwt beam="2">  1       -2 0.92624180E-01 0.15362147E+04</pdfrwt>
<totfact> 0.24729824E+01</totfact>
</mgrwt>
</event>
<event>
12    1  0.4247462E-008  0.1811102E+04  0.7818608E-02  0.8700418E-01
         -2   -1    0    0    0  501 -0.00000000000E+00  0.00000000000E+00  0.35651149246E+03  0.35651149246E+03  0.00000000000E+00 0.  1.
          2   -1    0    0  501    0  0.00000000000E+00 -0.00000000000E+00 -0.23001285639E+04  0.23001285639E+04  0.00000000000E+00 0. -1.
         23    2    1    2    0    0 -0.99437349931E+02  0.18012737964E+03  0.21441530791E+03  0.31138155531E+03  0.93010156778E+02 0.  0.
        254    2    1    2    0    0  0.99437349931E+02 -0.18012737964E+03 -0.21580323793E+04  0.23452585010E+04  0.89487430791E+03 0.  0.
         23    2    4    4    0    0  0.14670725358E+03  0.12305779613E+03 -0.19546319256E+04  0.19660881801E+04  0.90832416919E+02 0.  0.
         23    2    4    4    0    0 -0.47269903648E+02 -0.30318517578E+03 -0.20340045371E+03  0.37917032090E+03  0.90789278427E+02 0.  0.
         13    1    3    3    0    0 -0.89810384748E+02  0.12941739468E+03  0.10195577298E+03  0.18764260416E+03  0.00000000000E+00 0. -1.
        -13    1    3    3    0    0 -0.96269651831E+01  0.50709984963E+02  0.11245953493E+03  0.12373895115E+03  0.00000000000E+00 0.  1.
          2    1    5    5  502    0  0.16965927009E+01  0.13358301418E+02 -0.49380054161E+03  0.49398410657E+03  0.00000000000E+00 0. -1.
          3    1    6    6  503    0 -0.19796038170E+02 -0.17582999454E+03 -0.16839632428E+03  0.24426500392E+03  0.00000000000E+00 0. -1.
         -2    1    5    5    0  502  0.14501066088E+03  0.10969949472E+03 -0.14608313840E+04  0.14721040736E+04  0.00000000000E+00 0.  1.
         -3    1    6    6    0  503 -0.27473865477E+02 -0.12735518124E+03 -0.35004129429E+02  0.13490531698E+03  0.00000000000E+00 0.  1.
<mgrwt>
<rscale>  0 0.18111016E+04</rscale>
<asrwt>0</asrwt>
<pdfrwt beam="1">  1        2 0.35386591E+00 0.18111016E+04</pdfrwt>
<pdfrwt beam="2">  1       -2 0.54847925E-01 0.18111016E+04</pdfrwt>
<totfact> 0.13376019E+01</totfact>
</mgrwt>
</event>
<event>
12    1  0.4247462E-008  0.2031976E+04  0.7818608E-02  0.8591815E-01
         -1   -1    0    0    0  501 -0.00000000000E+00  0.00000000000E+00  0.12115656938E+04  0.12115656938E+04  0.00000000000E+00 0.  1.
          1   -1    0    0  501    0  0.00000000000E+00 -0.00000000000E+00 -0.85198168165E+03  0.85198168165E+03  0.00000000000E+00 0. -1.
         23    2    1    2    0    0  0.42392960273E+03 -0.96645558373E+02 -0.55466702220E+03  0.71037600494E+03  0.89005004673E+02 0.  0.
        254    2    1    2    0    0 -0.42392960273E+03  0.96645558373E+02  0.91425103439E+03  0.13531713705E+04  0.89786476272E+03 0.  0.
         23    2    4    4    0    0  0.11296878421E+03  0.19304091465E+02  0.77110824363E+03  0.78485003719E+03  0.90813343393E+02 0.  0.
         23    2    4    4    0    0 -0.53689838694E+03  0.77341466908E+02  0.14314279076E+03  0.56832133334E+03  0.90871882255E+02 0.  0.
         11    1    3    3    0    0  0.19241441990E+03 -0.67544650947E+02 -0.19851638249E+03  0.28459505086E+03  0.00000000000E+00 0. -1.
        -11    1    3    3    0    0  0.23151518283E+03 -0.29100907427E+02 -0.35615063971E+03  0.42578095408E+03  0.00000000000E+00 0.  1.
          2    1    5    5  502    0 -0.94982652190E+01  0.15507040437E+02  0.46023158026E+02  0.49485517275E+02  0.00000000000E+00 0.  1.
          4    1    6    6  503    0 -0.92193046475E+02  0.43747200154E+02  0.45781152200E+02  0.11184493389E+03  0.00000000000E+00 0. -1.
         -2    1    5    5    0  502  0.12246704943E+03  0.37970510282E+01  0.72508508560E+03  0.73536451992E+03  0.00000000000E+00 0. -1.
         -4    1    6    6    0  503 -0.44470534046E+03  0.33594266754E+02  0.97361638561E+02  0.45647639946E+03  0.00000000000E+00 0.  1.
<mgrwt>
<rscale>  0 0.20319762E+04</rscale>
<asrwt>0</asrwt>
<pdfrwt beam="1">  1        1 0.13107411E+00 0.20319762E+04</pdfrwt>
<pdfrwt beam="2">  1       -1 0.18639472E+00 0.20319762E+04</pdfrwt>
<totfact> 0.34577062E+00</totfact>
</mgrwt>
</event>
<event>
12    1  0.4247462E-008  0.1614671E+04  0.7818608E-02  0.8811585E-01
          1   -1    0    0  501    0  0.00000000000E+00  0.00000000000E+00  0.65796735298E+03  0.65796735298E+03  0.00000000000E+00 0. -1.
         -1   -1    0    0    0  501 -0.00000000000E+00 -0.00000000000E+00 -0.99061276728E+03  0.99061276728E+03  0.00000000000E+00 0.  1.
         23    2    1    2    0    0  0.48632100877E+03  0.26293333705E+03 -0.13715270481E+03  0.57751931385E+03  0.95266101723E+02 0.  0.
        254    2    1    2    0    0 -0.48632100877E+03 -0.26293333705E+03 -0.19549270949E+03  0.10710608064E+04  0.89627662485E+03 0.  0.
         23    2    4    4    0    0 -0.54796060452E+03 -0.45342460790E+03 -0.35401217247E+03  0.79965811424E+03  0.90960333405E+02 0.  0.
         23    2    4    4    0    0  0.61639595759E+02  0.19049127086E+03  0.15851946297E+03  0.27140269216E+03  0.91894706775E+02 0.  0.
         13    1    3    3    0    0  0.90183588670E+02  0.40830457204E+02  0.11489499220E+02  0.99660496152E+02  0.00000000000E+00 0.  1.
        -13    1    3    3    0    0  0.39613742010E+03  0.22210287984E+03 -0.14864220403E+03  0.47785881770E+03  0.00000000000E+00 0. -1.
          1    1    5    5  502    0 -0.45858006936E+02 -0.26609567088E+02 -0.53682721462E+02  0.75451046675E+02  0.00000000000E+00 0. -1.
          3    1    6    6  503    0  0.27056094849E+02  0.10176477241E+03  0.26431906762E+02  0.10856678529E+03  0.00000000000E+00 0. -1.
         -1    1    5    5    0  502 -0.50210259759E+03 -0.42681504082E+03 -0.30032945101E+03  0.72420706757E+03  0.00000000000E+00 0.  1.
         -3    1    6    6    0  503  0.34583500911E+02  0.88726498443E+02  0.13208755621E+03  0.16283590687E+03  0.00000000000E+00 0.  1.
<mgrwt>
<rscale>  0 0.16146713E+04</rscale>
<asrwt>0</asrwt>
<pdfrwt beam="1">  1        1 0.10122575E+00 0.16146713E+04</pdfrwt>
<pdfrwt beam="2">  1       -1 0.15240196E+00 0.16146713E+04</pdfrwt>
<totfact> 0.95801453E+00</totfact>
</mgrwt>
</event>
<event>
12    1  0.4247462E-008  0.2227771E+04  0.7818608E-02  0.8506957E-01
          2   -1    0    0  501    0  0.00000000000E+00  0.00000000000E+00  0.36857382815E+04  0.36857382815E+04  0.00000000000E+00 0. -1.
         -2   -1    0    0    0  501 -0.00000000000E+00 -0.00000000000E+00 -0.33663296115E+03  0.33663296115E+03  0.00000000000E+00 0.  1.
         23    2    1    2    0    0  0.46709596183E+03  0.76657086920E+03  0.14324819080E+04  0.16930586896E+04  0.92918107218E+02 0.  0.
        254    2    1    2    0    0 -0.46709596183E+03 -0.76657086920E+03  0.19166234124E+04  0.23293125531E+04  0.97285257360E+03 0.  0.
         23    2    4    4    0    0  0.14710055003E+03 -0.67147203657E+03  0.93928569694E+03  0.11674713677E+04  0.90655977174E+02 0.  0.
         23    2    4    4    0    0 -0.61419651186E+03 -0.95098832631E+02  0.97733771548E+03  0.11618411854E+04  0.91677624712E+02 0.  0.
         13    1    3    3    0    0  0.46823248956E+03  0.76186503576E+03  0.14070793068E+04  0.16671989001E+04  0.00000000000E+00 0.  1.
        -13    1    3    3    0    0 -0.11365277311E+01  0.47058334379E+01  0.25402601215E+02  0.25859789484E+02  0.00000000000E+00 0. -1.
          4    1    5    5  502    0  0.83140131038E+02 -0.19557674230E+03  0.26503868937E+03  0.33971760387E+03  0.00000000000E+00 0. -1.
          4    1    6    6  503    0 -0.57671056568E+03 -0.10967777529E+03  0.92925653032E+03  0.10991551256E+04  0.00000000000E+00 0.  1.
         -4    1    5    5    0  502  0.63960418995E+02 -0.47589529427E+03  0.67424700757E+03  0.82775376383E+03  0.00000000000E+00 0.  1.
         -4    1    6    6    0  503 -0.37485946185E+02  0.14578942663E+02  0.48081185164E+02  0.62686059832E+02  0.00000000000E+00 0. -1.
<mgrwt>
<rscale>  0 0.22277711E+04</rscale>
<asrwt>0</asrwt>
<pdfrwt beam="1">  1        2 0.56703663E+00 0.22277711E+04</pdfrwt>
<pdfrwt beam="2">  1       -2 0.51789689E-01 0.22277711E+04</pdfrwt>
<totfact> 0.19286958E+00</totfact>
</mgrwt>
</event>
<event>
12    1  0.4247462E-008  0.3441157E+04  0.7818608E-02  0.8127878E-01
          1   -1    0    0  501    0  0.00000000000E+00  0.00000000000E+00  0.22561549637E+04  0.22561549637E+04  0.00000000000E+00 0. -1.
         -1   -1    0    0    0  501 -0.00000000000E+00 -0.00000000000E+00 -0.13121394157E+04  0.13121394157E+04  0.00000000000E+00 0.  1.
         23    2    1    2    0    0 -0.12647591187E+04  0.65228874544E+03 -0.36543884609E+03  0.14720125998E+04  0.90439526676E+02 0.  0.
        254    2    1    2    0    0  0.12647591187E+04 -0.65228874544E+03  0.13094543941E+04  0.20962817796E+04  0.80909224062E+03 0.  0.
         23    2    4    4    0    0  0.11150043462E+04 -0.29284794142E+03  0.65303075414E+03  0.13279884767E+04  0.90053426363E+02 0.  0.
         23    2    4    4    0    0  0.14975477244E+03 -0.35944080402E+03  0.65642363993E+03  0.76829330290E+03  0.88081898035E+02 0.  0.
         13    1    3    3    0    0 -0.85147015538E+03  0.47430359427E+03 -0.22086524174E+03  0.99937319358E+03  0.00000000000E+00 0. -1.
        -13    1    3    3    0    0 -0.41328896330E+03  0.17798515117E+03 -0.14457360435E+03  0.47263940620E+03  0.00000000000E+00 0.  1.
          1    1    5    5  502    0  0.57607268746E+02 -0.93827455971E+01  0.56698755401E+02  0.81371875924E+02  0.00000000000E+00 0. -1.
          3    1    6    6  503    0  0.26620814485E+02 -0.16654185001E+03  0.31417534296E+03  0.35658239117E+03  0.00000000000E+00 0. -1.
         -1    1    5    5    0  502  0.10573970775E+04 -0.28346519582E+03  0.59633199874E+03  0.12466166008E+04  0.00000000000E+00 0.  1.
         -3    1    6    6    0  503  0.12313395796E+03 -0.19289895401E+03  0.34224829697E+03  0.41171091173E+03  0.00000000000E+00 0.  1.
<mgrwt>
<rscale>  0 0.34411567E+04</rscale>
<asrwt>0</asrwt>
<pdfrwt beam="1">  1        1 0.34710076E+00 0.34411567E+04</pdfrwt>
<pdfrwt beam="2">  1       -1 0.20186760E+00 0.34411567E+04</pdfrwt>
<totfact> 0.23890190E-01</totfact>
</mgrwt>
</event>
<event>
12    1  0.4247462E-008  0.2323646E+04  0.7818608E-02  0.8468656E-01
         -1   -1    0    0    0  501 -0.00000000000E+00  0.00000000000E+00  0.19341889464E+04  0.19341889464E+04  0.00000000000E+00 0.  1.
          1   -1    0    0  501    0  0.00000000000E+00 -0.00000000000E+00 -0.69788057074E+03  0.69788057074E+03  0.00000000000E+00 0. -1.
         23    2    1    2    0    0 -0.26128202329E+03 -0.36460371169E+03  0.15211853811E+04  0.15884579377E+04  0.89383968638E+02 0.  0.
        254    2    1    2    0    0  0.26128202329E+03  0.36460371169E+03 -0.28487700546E+03  0.10436115794E+04  0.89820156881E+03 0.  0.
         23    2    4    4    0    0  0.29819642924E+03  0.22928169337E+03  0.26375182607E+03  0.46854730944E+03  0.92088816419E+02 0.  0.
         23    2    4    4    0    0 -0.36914405945E+02  0.13532201833E+03 -0.54862883153E+03  0.57506426999E+03  0.10015287229E+03 0.  0.
         13    1    3    3    0    0 -0.23887825440E+03 -0.28557401662E+03  0.13093296709E+04  0.13612345597E+04  0.00000000000E+00 0.  1.
        -13    1    3    3    0    0 -0.22403768893E+02 -0.79029695077E+02  0.21185571021E+03  0.22722337801E+03  0.00000000000E+00 0. -1.
          1    1    6    6  502    0 -0.42643096014E+02  0.15030087263E+03 -0.50250901129E+03  0.52623577641E+03  0.00000000000E+00 0. -1.
          1    1    5    5  503    0  0.20372983155E+03  0.10663327777E+03  0.13121896853E+03  0.26475444830E+03  0.00000000000E+00 0. -1.
         -1    1    5    5    0  503  0.94466597685E+02  0.12264841559E+03  0.13253285753E+03  0.20379286114E+03  0.00000000000E+00 0.  1.
         -1    1    6    6    0  502  0.57286900686E+01 -0.14978854306E+02 -0.46119820240E+02  0.48828493579E+02  0.00000000000E+00 0.  1.
<mgrwt>
<rscale>  0 0.23236462E+04</rscale>
<asrwt>0</asrwt>
<pdfrwt beam="1">  1        1 0.10736624E+00 0.23236462E+04</pdfrwt>
<pdfrwt beam="2">  1       -1 0.29756753E+00 0.23236462E+04</pdfrwt>
<totfact> 0.84569850E-01</totfact>
</mgrwt>
</event>
<event>
12    1  0.4247462E-008  0.2310458E+04  0.7818608E-02  0.8473809E-01
          1   -1    0    0  501    0  0.00000000000E+00  0.00000000000E+00  0.62507897740E+03  0.62507897740E+03  0.00000000000E+00 0. -1.
         -1   -1    0    0    0  501 -0.00000000000E+00 -0.00000000000E+00 -0.21350171034E+04  0.21350171034E+04  0.00000000000E+00 0.  1.
         23    2    1    2    0    0 -0.65981154960E+03 -0.29231129084E+03 -0.13968701277E+04  0.15749799108E+04  0.92295146323E+02 0.  0.
        254    2    1    2    0    0  0.65981154960E+03  0.29231129084E+03 -0.11306799830E+03  0.11851161700E+04  0.93323029978E+03 0.  0.
         23    2    4    4    0    0  0.59001198958E+03  0.52561326358E+03  0.15672133055E+03  0.81073046277E+03  0.91317342884E+02 0.  0.
         23    2    4    4    0    0  0.69799560024E+02 -0.23330197275E+03 -0.26978932885E+03  0.37438570724E+03  0.89869832271E+02 0.  0.
         11    1    3    3    0    0 -0.65416582910E+03 -0.28683384729E+03 -0.13486939838E+04  0.15261658002E+04  0.00000000000E+00 0.  1.
        -11    1    3    3    0    0 -0.56457205057E+01 -0.54774435435E+01 -0.48176143938E+02  0.48814110588E+02  0.00000000000E+00 0. -1.
          3    1    6    6  502    0  0.44185747810E+02 -0.87487276136E+02 -0.51751742446E+02  0.11083612516E+03  0.00000000000E+00 0. -1.
          3    1    5    5  503    0  0.17428827636E+03  0.20798237920E+03  0.71927491584E+02  0.28072519905E+03  0.00000000000E+00 0. -1.
         -3    1    5    5    0  503  0.41572371322E+03  0.31763088438E+03  0.84793838968E+02  0.53000526372E+03  0.00000000000E+00 0.  1.
         -3    1    6    6    0  502  0.25613812214E+02 -0.14581469661E+03 -0.21803758641E+03  0.26354958207E+03  0.00000000000E+00 0.  1.
<mgrwt>
<rscale>  0 0.23104582E+04</rscale>
<asrwt>0</asrwt>
<pdfrwt beam="1">  1        1 0.96165996E-01 0.23104582E+04</pdfrwt>
<pdfrwt beam="2">  1       -1 0.32846417E+00 0.23104582E+04</pdfrwt>
<totfact> 0.62808099E-01</totfact>
</mgrwt>
</event>
<event>
12    1  0.4247462E-008  0.1428024E+04  0.7818608E-02  0.8933779E-01
          2   -1    0    0  501    0  0.00000000000E+00  0.00000000000E+00  0.29944466009E+04  0.29944466009E+04  0.00000000000E+00 0. -1.
         -2   -1    0    0    0  501 -0.00000000000E+00 -0.00000000000E+00 -0.17025291238E+03  0.17025291238E+03  0.00000000000E+00 0.  1.
         23    2    1    2    0    0 -0.25813329004E+03 -0.18628968117E+03  0.24174006790E+03  0.41158650558E+03  0.98125177273E+02 0.  0.
        254    2    1    2    0    0  0.25813329004E+03  0.18628968117E+03  0.25824536207E+04  0.27531130077E+04  0.89957094762E+03 0.  0.
         23    2    4    4    0    0  0.19960851321E+03  0.60975753484E+02  0.73908784341E+02  0.23920757452E+03  0.90532614263E+02 0.  0.
         23    2    4    4    0    0  0.58524776825E+02  0.12531392769E+03  0.25085448363E+04  0.25139054332E+04  0.88287039783E+02 0.  0.
         13    1    3    3    0    0 -0.15688897044E+03 -0.97857018698E+02  0.19633225247E+03  0.26969704951E+03  0.00000000000E+00 0. -1.
        -13    1    3    3    0    0 -0.10124431960E+03 -0.88432662471E+02  0.45407815424E+02  0.14188945607E+03  0.00000000000E+00 0.  1.
          2    1    5    5  502    0  0.14960697475E+01  0.25788784459E+01  0.27315071967E+02  0.27477299636E+02  0.00000000000E+00 0.  1.
          1    1    6    6  503    0  0.44928121702E+02  0.76754593101E+02  0.21492277539E+04  0.21510671170E+04  0.00000000000E+00 0. -1.
         -2    1    5    5    0  502  0.19811244346E+03  0.58396875038E+02  0.46593712374E+02  0.21173027488E+03  0.00000000000E+00 0. -1.
         -1    1    6    6    0  503  0.13596655123E+02  0.48559334584E+02  0.35931708244E+03  0.36283831625E+03  0.00000000000E+00 0.  1.
<mgrwt>
<rscale>  0 0.14280242E+04</rscale>
<asrwt>0</asrwt>
<pdfrwt beam="1">  1        2 0.46068405E+00 0.14280242E+04</pdfrwt>
<pdfrwt beam="2">  1       -2 0.26192758E-01 0.14280242E+04</pdfrwt>
<totfact> 0.22659471E+01</totfact>
</mgrwt>
</event>
<event>
12    1  0.4247462E-008  0.1133923E+04  0.7818608E-02  0.9172745E-01
         -2   -1    0    0    0  501 -0.00000000000E+00  0.00000000000E+00  0.15174737139E+04  0.15174737139E+04  0.00000000000E+00 0. -1.
          2   -1    0    0  501    0  0.00000000000E+00 -0.00000000000E+00 -0.21182912925E+03  0.21182912925E+03  0.00000000000E+00 0.  1.
         23    2    1    2    0    0  0.57770975371E+02 -0.70380626330E+02 -0.12598978601E+02  0.13033077505E+03  0.92392957005E+02 0.  0.
        254    2    1    2    0    0 -0.57770975371E+02  0.70380626330E+02  0.13182435633E+04  0.15989720681E+04  0.90036362897E+03 0.  0.
         23    2    4    4    0    0  0.30895920350E+03  0.20394324712E+03  0.10484984520E+04  0.11155220174E+04  0.89396475811E+02 0.  0.
         23    2    4    4    0    0 -0.36673017887E+03 -0.13356262079E+03  0.26974511126E+03  0.48345005076E+03  0.92906021131E+02 0.  0.
         11    1    3    3    0    0  0.75840270243E+02 -0.78451859486E+02 -0.53256470957E+01  0.10924652564E+03  0.00000000000E+00 0.  1.
        -11    1    3    3    0    0 -0.18069294872E+02  0.80712331556E+01 -0.72733315056E+01  0.21084249406E+02  0.00000000000E+00 0. -1.
          2    1    5    5  502    0  0.16752950115E+03  0.73582450425E+02  0.41694503144E+03  0.45532809051E+03  0.00000000000E+00 0. -1.
          1    1    6    6  503    0 -0.36926429155E+03 -0.12137111644E+03  0.26265036086E+03  0.46911861717E+03  0.00000000000E+00 0. -1.
         -2    1    5    5    0  502  0.14142970235E+03  0.13036079670E+03  0.63155342058E+03  0.66019392687E+03  0.00000000000E+00 0.  1.
         -1    1    6    6    0  503  0.25341126792E+01 -0.12191504346E+02  0.70947504001E+01  0.14331433583E+02  0.00000000000E+00 0.  1.
<mgrwt>
<rscale>  0 0.11339226E+04</rscale>
<asrwt>0</asrwt>
<pdfrwt beam="1">  1        2 0.32589098E-01 0.11339226E+04</pdfrwt>
<pdfrwt beam="2">  1       -2 0.23345749E+00 0.11339226E+04</pdfrwt>
<totfact> 0.13098156E+01</totfact>
</mgrwt>
</event>
<event>
12    1  0.4247462E-008  0.1980914E+04  0.7818608E-02  0.8615596E-01
         -2   -1    0    0    0  501 -0.00000000000E+00  0.00000000000E+00  0.44746352652E+03  0.44746352652E+03  0.00000000000E+00 0.  1.
          2   -1    0    0  501    0  0.00000000000E+00 -0.00000000000E+00 -0.21923688015E+04  0.21923688015E+04  0.00000000000E+00 0. -1.
         23    2    1    2    0    0 -0.38888390131E+03  0.10928844320E+03 -0.15040337158E+04  0.15599866994E+04  0.90919918406E+02 0.  0.
        254    2    1    2    0    0  0.38888390131E+03 -0.10928844320E+03 -0.24087155912E+03  0.10798456286E+04  0.97204568874E+03 0.  0.
         23    2    4    4    0    0  0.21955712057E+02  0.36973747703E+02  0.34933459579E+03  0.36388276127E+03  0.92341176232E+02 0.  0.
         23    2    4    4    0    0  0.36692818925E+03 -0.14626219091E+03 -0.59020615491E+03  0.71596286728E+03  0.90722640420E+02 0.  0.
         11    1    3    3    0    0 -0.20377412261E+03  0.52936456395E+02 -0.61181054975E+03  0.64702265049E+03  0.00000000000E+00 0.  1.
        -11    1    3    3    0    0 -0.18510977870E+03  0.56351986808E+02 -0.89222316607E+03  0.91296404894E+03  0.00000000000E+00 0. -1.
          2    1    5    5  502    0 -0.30154028044E+02 -0.93936790664E+01  0.92416870712E+02  0.97664653820E+02  0.00000000000E+00 0. -1.
          4    1    6    6  503    0  0.33269739251E+03 -0.15448219613E+03 -0.56070742882E+03  0.67003367426E+03  0.00000000000E+00 0.  1.
         -2    1    5    5    0  502  0.52109740101E+02  0.46367426769E+02  0.25691772507E+03  0.26621810745E+03  0.00000000000E+00 0.  1.
         -4    1    6    6    0  503  0.34230796741E+02  0.82200052258E+01 -0.29498726088E+02  0.45929193028E+02  0.00000000000E+00 0. -1.
<mgrwt>
<rscale>  0 0.19809140E+04</rscale>
<asrwt>0</asrwt>
<pdfrwt beam="1">  1        2 0.33728751E+00 0.19809140E+04</pdfrwt>
<pdfrwt beam="2">  1       -2 0.68840542E-01 0.19809140E+04</pdfrwt>
<totfact> 0.93559778E+00</totfact>
</mgrwt>
</event>
<event>
12    1  0.4247462E-008  0.1295026E+04  0.7818608E-02  0.9033519E-01
         -1   -1    0    0    0  501 -0.00000000000E+00  0.00000000000E+00  0.12804504499E+04  0.12804504499E+04  0.00000000000E+00 0.  1.
          1   -1    0    0  501    0  0.00000000000E+00 -0.00000000000E+00 -0.32744203355E+03  0.32744203355E+03  0.00000000000E+00 0. -1.
         23    2    1    2    0    0  0.21686868422E+03  0.12073287379E+03  0.18551403337E+02  0.26522928873E+03  0.91618600865E+02 0.  0.
        254    2    1    2    0    0 -0.21686868422E+03 -0.12073287379E+03  0.93445701306E+03  0.13426631948E+04  0.93162551077E+03 0.  0.
         23    2    4    4    0    0  0.27706454356E+03 -0.31105733201E+03  0.41884406856E+03  0.59794398374E+03  0.92656509926E+02 0.  0.
         23    2    4    4    0    0 -0.49393322778E+03  0.19032445823E+03  0.51561294450E+03  0.74471921102E+03  0.92501685524E+02 0.  0.
         13    1    3    3    0    0  0.16898737458E+03  0.62950065228E+02 -0.18973749952E+02  0.18132690552E+03  0.00000000000E+00 0. -1.
        -13    1    3    3    0    0  0.47881309641E+02  0.57782808559E+02  0.37525153289E+02  0.83902383203E+02  0.00000000000E+00 0.  1.
          2    1    5    5  502    0  0.67831299079E+02 -0.38101416312E+02  0.11608637665E+03  0.13974566148E+03  0.00000000000E+00 0. -1.
          4    1    6    6  503    0 -0.14006332659E+03  0.99097391773E+02  0.15250944210E+03  0.22955861657E+03  0.00000000000E+00 0. -1.
         -2    1    5    5    0  502  0.20923324448E+03 -0.27295591570E+03  0.30275769191E+03  0.45819832226E+03  0.00000000000E+00 0.  1.
         -4    1    6    6    0  503 -0.35386990118E+03  0.91227066455E+02  0.36310350240E+03  0.51516059445E+03  0.00000000000E+00 0.  1.
<mgrwt>
<rscale>  0 0.12950263E+04</rscale>
<asrwt>0</asrwt>
<pdfrwt beam="1">  1        1 0.50375698E-01 0.12950263E+04</pdfrwt>
<pdfrwt beam="2">  1       -1 0.19699237E+00 0.12950263E+04</pdfrwt>
<totfact> 0.12133379E+01</totfact>
</mgrwt>
</event>
<event>
12    1  0.4247462E-008  0.1791029E+04  0.7818608E-02  0.8711085E-01
          1   -1    0    0  501    0  0.00000000000E+00  0.00000000000E+00  0.74262873803E+03  0.74262873803E+03  0.00000000000E+00 0. -1.
         -1   -1    0    0    0  501 -0.00000000000E+00 -0.00000000000E+00 -0.10798745637E+04  0.10798745637E+04  0.00000000000E+00 0.  1.
         23    2    1    2    0    0  0.87546599145E+02 -0.28574489809E+03 -0.73050093341E+03  0.79409391395E+03  0.87401239424E+02 0.  0.
        254    2    1    2    0    0 -0.87546599145E+02  0.28574489809E+03  0.39325510776E+03  0.10284093878E+04  0.90203200346E+03 0.  0.
         23    2    4    4    0    0 -0.34589107988E+03 -0.16912057510E+03  0.27216662863E+03  0.48234463560E+03  0.10168217981E+03 0.  0.
         23    2    4    4    0    0  0.25834448073E+03  0.45486547319E+03  0.12108847913E+03  0.54606475217E+03  0.99397305577E+02 0.  0.
         11    1    3    3    0    0  0.82703040620E+02 -0.16884354530E+03 -0.52458847630E+03  0.55726206149E+03  0.00000000000E+00 0.  1.
        -11    1    3    3    0    0  0.48435585258E+01 -0.11690135279E+03 -0.20591245711E+03  0.23683185245E+03  0.00000000000E+00 0. -1.
          4    1    5    5  502    0 -0.11272142345E+03 -0.66697044203E+02  0.37995982595E+02  0.13637561990E+03  0.00000000000E+00 0.  1.
          1    1    6    6  503    0  0.17734238367E+03  0.36903555149E+03  0.12466210223E+03  0.42799322312E+03  0.00000000000E+00 0. -1.
         -4    1    5    5    0  502 -0.23316965643E+03 -0.10242353090E+03  0.23417064603E+03  0.34596901570E+03  0.00000000000E+00 0. -1.
         -1    1    6    6    0  503  0.81002097069E+02  0.85829921699E+02 -0.35736231009E+01  0.11807152904E+03  0.00000000000E+00 0.  1.
<mgrwt>
<rscale>  0 0.17910286E+04</rscale>
<asrwt>0</asrwt>
<pdfrwt beam="1">  1        1 0.11425057E+00 0.17910286E+04</pdfrwt>
<pdfrwt beam="2">  1       -1 0.16613455E+00 0.17910286E+04</pdfrwt>
<totfact> 0.61730396E+00</totfact>
</mgrwt>
</event>
<event>
12    1  0.4247462E-008  0.1972124E+04  0.7818608E-02  0.8619766E-01
          1   -1    0    0  501    0  0.00000000000E+00  0.00000000000E+00  0.27968889872E+04  0.27968889872E+04  0.00000000000E+00 0. -1.
         -1   -1    0    0    0  501 -0.00000000000E+00 -0.00000000000E+00 -0.34764274591E+03  0.34764274591E+03  0.00000000000E+00 0.  1.
         23    2    1    2    0    0 -0.64138696041E+03  0.35011311537E+03  0.13693248810E+04  0.15546207451E+04  0.88535896656E+02 0.  0.
        254    2    1    2    0    0  0.64138696041E+03 -0.35011311537E+03  0.10799213603E+04  0.15899109880E+04  0.90974192975E+03 0.  0.
         23    2    4    4    0    0  0.19409808092E+03 -0.59587778268E+03  0.72039310581E+03  0.95922827226E+03  0.91696534834E+02 0.  0.
         23    2    4    4    0    0  0.44728887949E+03  0.24576466730E+03  0.35952825453E+03  0.63068271575E+03  0.89624264210E+02 0.  0.
         13    1    3    3    0    0 -0.62793705159E+03  0.33310568650E+03  0.12957204864E+04  0.14778890074E+04  0.00000000000E+00 0. -1.
        -13    1    3    3    0    0 -0.13449908815E+02  0.17007428875E+02  0.73604394540E+02  0.76731737760E+02  0.00000000000E+00 0.  1.
          4    1    5    5  502    0  0.21209295046E+02 -0.67583184551E+02  0.13189998513E+03  0.14971615513E+03  0.00000000000E+00 0. -1.
          1    1    6    6  503    0 -0.12988876092E+01  0.10990954015E+02  0.13345955699E+02  0.17337898162E+02  0.00000000000E+00 0. -1.
         -4    1    5    5    0  502  0.17288878587E+03 -0.52829459812E+03  0.58849312068E+03  0.80951211713E+03  0.00000000000E+00 0.  1.
         -1    1    6    6    0  503  0.44858776710E+03  0.23477371329E+03  0.34618229883E+03  0.61334481759E+03  0.00000000000E+00 0.  1.
<mgrwt>
<rscale>  0 0.19721239E+04</rscale>
<asrwt>0</asrwt>
<pdfrwt beam="1">  1        1 0.43029060E+00 0.19721239E+04</pdfrwt>
<pdfrwt beam="2">  1       -1 0.53483501E-01 0.19721239E+04</pdfrwt>
<totfact> 0.27509726E+00</totfact>
</mgrwt>
</event>
<event>
12    1  0.4247462E-008  0.2872601E+04  0.7818608E-02  0.8281076E-01
          1   -1    0    0  501    0  0.00000000000E+00  0.00000000000E+00  0.14966909914E+04  0.14966909914E+04  0.00000000000E+00 0. -1.
         -1   -1    0    0    0  501 -0.00000000000E+00 -0.00000000000E+00 -0.13783469550E+04  0.13783469550E+04  0.00000000000E+00 0.  1.
         23    2    1    2    0    0 -0.10112782195E+04 -0.43514202700E+03  0.73161322996E+03  0.13249683840E+04  0.90835452553E+02 0.  0.
        254    2    1    2    0    0  0.10112782195E+04  0.43514202700E+03 -0.61326919357E+03  0.15500695623E+04  0.90254325292E+03 0.  0.
         23    2    4    4    0    0  0.21720450606E+01 -0.15502255360E+03 -0.27892445451E+03  0.33094293033E+03  0.87679312899E+02 0.  0.
         23    2    4    4    0    0  0.10091061745E+04  0.59016458060E+03 -0.33434473906E+03  0.12191266320E+04  0.88847266769E+02 0.  0.
         13    1    3    3    0    0 -0.67265795443E+03 -0.32846832703E+03  0.52320280322E+03  0.91329148623E+03  0.00000000000E+00 0. -1.
        -13    1    3    3    0    0 -0.33862026509E+03 -0.10667369997E+03  0.20841042675E+03  0.41167689779E+03  0.00000000000E+00 0.  1.
          1    1    5    5  502    0  0.11967866844E+02 -0.16124226016E+03 -0.23319551072E+03  0.28376476617E+03  0.00000000000E+00 0. -1.
          3    1    6    6  503    0  0.90776300133E+03  0.53977006512E+03 -0.32753012212E+03  0.11057401913E+04  0.00000000000E+00 0. -1.
         -1    1    5    5    0  502 -0.97958217833E+01  0.62197065587E+01 -0.45728943789E+02  0.47178164167E+02  0.00000000000E+00 0.  1.
         -3    1    6    6    0  503  0.10134317313E+03  0.50394515477E+02 -0.68146169397E+01  0.11338644070E+03  0.00000000000E+00 0.  1.
<mgrwt>
<rscale>  0 0.28726012E+04</rscale>
<asrwt>0</asrwt>
<pdfrwt beam="1">  1        1 0.23026015E+00 0.28726012E+04</pdfrwt>
<pdfrwt beam="2">  1       -1 0.21205338E+00 0.28726012E+04</pdfrwt>
<totfact> 0.70445908E-01</totfact>
</mgrwt>
</event>
<event>
12    1  0.4247462E-008  0.1863491E+04  0.7818608E-02  0.8673246E-01
          2   -1    0    0  501    0  0.00000000000E+00  0.00000000000E+00  0.10347709986E+04  0.10347709986E+04  0.00000000000E+00 0. -1.
         -2   -1    0    0    0  501 -0.00000000000E+00 -0.00000000000E+00 -0.83897729856E+03  0.83897729856E+03  0.00000000000E+00 0.  1.
         23    2    1    2    0    0  0.10073476031E+03  0.44537752903E+03  0.61050152596E+03  0.76827232296E+03  0.94982175809E+02 0.  0.
        254    2    1    2    0    0 -0.10073476031E+03 -0.44537752903E+03 -0.41470782589E+03  0.11054759742E+04  0.91737991773E+03 0.  0.
         23    2    4    4    0    0  0.24931631882E+03 -0.32798369641E+03  0.12872614450E+03  0.44211195588E+03  0.95711176563E+02 0.  0.
         23    2    4    4    0    0 -0.35005107913E+03 -0.11739383262E+03 -0.54343397039E+03  0.66336401835E+03  0.91729334037E+02 0.  0.
         13    1    3    3    0    0  0.72000411219E+02  0.17680064701E+03  0.31140708918E+03  0.36526278649E+03  0.00000000000E+00 0.  1.
        -13    1    3    3    0    0  0.28734349088E+02  0.26857688202E+03  0.29909443678E+03  0.40300953647E+03  0.00000000000E+00 0. -1.
          1    1    5    5  502    0  0.11381634636E+03 -0.17781187986E+03  0.11243028846E+03  0.23918987245E+03  0.00000000000E+00 0. -1.
          3    1    6    6  503    0 -0.28356855420E+02 -0.28319150726E+02 -0.10453143186E+03  0.11195046133E+03  0.00000000000E+00 0. -1.
         -1    1    5    5    0  502  0.13549997246E+03 -0.15017181654E+03  0.16295856040E+02  0.20292208344E+03  0.00000000000E+00 0.  1.
         -3    1    6    6    0  503 -0.32169422371E+03 -0.89074681898E+02 -0.43890253854E+03  0.55141355701E+03  0.00000000000E+00 0.  1.
<mgrwt>
<rscale>  0 0.18634907E+04</rscale>
<asrwt>0</asrwt>
<pdfrwt beam="1">  1        2 0.15919554E+00 0.18634907E+04</pdfrwt>
<pdfrwt beam="2">  1       -2 0.12907343E+00 0.18634907E+04</pdfrwt>
<totfact> 0.99420027E+00</totfact>
</mgrwt>
</event>
<event>
12    1  0.4247462E-008  0.2261409E+04  0.7818608E-02  0.8493294E-01
         -1   -1    0    0    0  501 -0.00000000000E+00  0.00000000000E+00  0.74588310207E+03  0.74588310207E+03  0.00000000000E+00 0.  1.
          1   -1    0    0  501    0  0.00000000000E+00 -0.00000000000E+00 -0.17140650957E+04  0.17140650957E+04  0.00000000000E+00 0. -1.
         23    2    1    2    0    0  0.83445808811E+03 -0.21535392087E+03  0.33752321042E+02  0.86594654175E+03  0.77631062946E+02 0.  0.
        254    2    1    2    0    0 -0.83445808811E+03  0.21535392087E+03 -0.10019343147E+04  0.15940016560E+04  0.89121899466E+03 0.  0.
         23    2    4    4    0    0  0.12655429329E+03 -0.13909420471E+03 -0.13788733379E+03  0.25080872636E+03  0.92352116733E+02 0.  0.
         23    2    4    4    0    0 -0.96101238140E+03  0.35444812559E+03 -0.86404698088E+03  0.13431929297E+04  0.91715812087E+02 0.  0.
         11    1    3    3    0    0  0.25083985963E+03 -0.67087941052E+02 -0.25376438358E+02  0.26089344690E+03  0.00000000000E+00 0. -1.
        -11    1    3    3    0    0  0.58361822849E+03 -0.14826597982E+03  0.59128759400E+02  0.60505309485E+03  0.00000000000E+00 0.  1.
          4    1    5    5  502    0 -0.89780984070E+01 -0.32434377140E+02 -0.40808648812E+02  0.52895565876E+02  0.00000000000E+00 0. -1.
          1    1    6    6  503    0 -0.63664160999E+03  0.20457579105E+03 -0.60594575188E+03  0.90240459223E+03  0.00000000000E+00 0.  1.
         -4    1    5    5    0  502  0.13553239169E+03 -0.10665982757E+03 -0.97078684978E+02  0.19791316049E+03  0.00000000000E+00 0.  1.
         -1    1    6    6    0  503 -0.32437077141E+03  0.14987233453E+03 -0.25810122899E+03  0.44078833743E+03  0.00000000000E+00 0. -1.
<mgrwt>
<rscale>  0 0.22614086E+04</rscale>
<asrwt>0</asrwt>
<pdfrwt beam="1">  1        1 0.26370232E+00 0.22614086E+04</pdfrwt>
<pdfrwt beam="2">  1       -1 0.11475125E+00 0.22614086E+04</pdfrwt>
<totfact> 0.29168235E+00</totfact>
</mgrwt>
</event>
<event>
12    1  0.4247462E-008  0.1743206E+04  0.7818608E-02  0.8737099E-01
         -2   -1    0    0    0  501 -0.00000000000E+00  0.00000000000E+00  0.53786096611E+03  0.53786096611E+03  0.00000000000E+00 0. -1.
          2   -1    0    0  501    0  0.00000000000E+00 -0.00000000000E+00 -0.14124315193E+04  0.14124315193E+04  0.00000000000E+00 0.  1.
         23    2    1    2    0    0  0.29450537782E+03 -0.38691945529E+01  0.30758536527E+03  0.43553400205E+03  0.91283743237E+02 0.  0.
        254    2    1    2    0    0 -0.29450537782E+03  0.38691945529E+01 -0.11821559185E+04  0.15147584834E+04  0.90014013304E+03 0.  0.
         23    2    4    4    0    0  0.13397142416E+03 -0.58750458133E+02  0.70106794541E+02  0.18638115348E+03  0.91776973756E+02 0.  0.
         23    2    4    4    0    0 -0.42847680198E+03  0.62619652686E+02 -0.12522627130E+04  0.13283773299E+04  0.94397231909E+02 0.  0.
         11    1    3    3    0    0  0.25322728640E+03  0.26725625532E+02  0.23426835989E+03  0.34600575441E+03  0.00000000000E+00 0. -1.
        -11    1    3    3    0    0  0.41278091417E+02 -0.30594820085E+02  0.73317005381E+02  0.89528247638E+02  0.00000000000E+00 0.  1.
          1    1    5    5  502    0 -0.51881636136E+01  0.95841526738E+01 -0.72814327525E+01  0.13106955676E+02  0.00000000000E+00 0. -1.
          3    1    6    6  503    0 -0.20972173697E+03 -0.16986419333E+02 -0.59424988481E+03  0.63040040530E+03  0.00000000000E+00 0. -1.
         -1    1    5    5    0  502  0.13915958777E+03 -0.68334610807E+02  0.77388227293E+02  0.17327419781E+03  0.00000000000E+00 0.  1.
         -3    1    6    6    0  503 -0.21875506501E+03  0.79606072019E+02 -0.65801282822E+03  0.69797692460E+03  0.00000000000E+00 0.  1.
<mgrwt>
<rscale>  0 0.17432060E+04</rscale>
<asrwt>0</asrwt>
<pdfrwt beam="1">  1        2 0.21729716E+00 0.17432060E+04</pdfrwt>
<pdfrwt beam="2">  1       -2 0.82747841E-01 0.17432060E+04</pdfrwt>
<totfact> 0.17290527E+01</totfact>
</mgrwt>
</event>
<event>
12    1  0.4247462E-008  0.1211923E+04  0.7818608E-02  0.9102483E-01
          1   -1    0    0  501    0  0.00000000000E+00  0.00000000000E+00  0.17667907086E+04  0.17667907086E+04  0.00000000000E+00 0. -1.
         -1   -1    0    0    0  501 -0.00000000000E+00 -0.00000000000E+00 -0.20782859437E+03  0.20782859437E+03  0.00000000000E+00 0.  1.
         23    2    1    2    0    0 -0.88443530858E+01 -0.24999987939E+03  0.26299657075E+03  0.37442221980E+03  0.91905604719E+02 0.  0.
        254    2    1    2    0    0  0.88443530858E+01  0.24999987939E+03  0.12959655434E+04  0.16001970831E+04  0.90472418603E+03 0.  0.
         23    2    4    4    0    0  0.24072500932E+03  0.24933990232E+03  0.13026554696E+04  0.13510538414E+04  0.91193710700E+02 0.  0.
         23    2    4    4    0    0 -0.23188065624E+03  0.65997706909E+00 -0.66899261428E+01  0.24914324174E+03  0.90876429777E+02 0.  0.
         13    1    3    3    0    0 -0.75034785579E+01 -0.36929824919E+01  0.44145509904E+02  0.44930683890E+02  0.00000000000E+00 0. -1.
        -13    1    3    3    0    0 -0.13408745278E+01 -0.24630689690E+03  0.21885106084E+03  0.32949153591E+03  0.00000000000E+00 0.  1.
          4    1    5    5  502    0  0.11889140299E+03  0.63644281587E+02  0.55185404229E+03  0.56809210897E+03  0.00000000000E+00 0. -1.
          4    1    6    6  503    0 -0.94703287827E+02  0.42855355663E+02 -0.16668476237E+02  0.10527645670E+03  0.00000000000E+00 0. -1.
         -4    1    5    5    0  502  0.12183360633E+03  0.18569562074E+03  0.75080142729E+03  0.78296173241E+03  0.00000000000E+00 0.  1.
         -4    1    6    6    0  503 -0.13717736841E+03 -0.42195378594E+02  0.99785500946E+01  0.14386678505E+03  0.00000000000E+00 0.  1.
<mgrwt>
<rscale>  0 0.12119235E+04</rscale>
<asrwt>0</asrwt>
<pdfrwt beam="1">  1        1 0.27181394E+00 0.12119235E+04</pdfrwt>
<pdfrwt beam="2">  1       -1 0.31973631E-01 0.12119235E+04</pdfrwt>
<totfact> 0.38719539E+01</totfact>
</mgrwt>
</event>
<event>
12    1  0.4247462E-008  0.1318595E+04  0.7818608E-02  0.9014948E-01
          1   -1    0    0  501    0  0.00000000000E+00  0.00000000000E+00  0.15620814753E+04  0.15620814753E+04  0.00000000000E+00 0. -1.
         -1   -1    0    0    0  501 -0.00000000000E+00 -0.00000000000E+00 -0.27826537256E+03  0.27826537256E+03  0.00000000000E+00 0.  1.
         23    2    1    2    0    0  0.69446746635E+02 -0.72958039390E+02 -0.11005221974E+03  0.17567122509E+03  0.92753232428E+02 0.  0.
        254    2    1    2    0    0 -0.69446746635E+02  0.72958039390E+02  0.13938683224E+04  0.16646756227E+04  0.90450555692E+03 0.  0.
         23    2    4    4    0    0 -0.20507606290E+03 -0.24859460085E+03  0.14589277765E+03  0.36569710939E+03  0.92704941043E+02 0.  0.
         23    2    4    4    0    0  0.13562931627E+03  0.32155264024E+03  0.12479755448E+04  0.12989785134E+04  0.90060012587E+02 0.  0.
         11    1    3    3    0    0  0.69916020708E+02 -0.59823809462E+02 -0.33385710997E+02  0.97886382245E+02  0.00000000000E+00 0. -1.
        -11    1    3    3    0    0 -0.46927407270E+00 -0.13134229928E+02 -0.76666508743E+02  0.77784842848E+02  0.00000000000E+00 0.  1.
          1    1    5    5  502    0 -0.15178219814E+02 -0.67609281736E+02  0.53608253156E+02  0.87608436466E+02  0.00000000000E+00 0. -1.
          1    1    6    6  503    0  0.36160641801E+02  0.15855108871E+03  0.45029886886E+03  0.47876414970E+03  0.00000000000E+00 0. -1.
         -1    1    5    5    0  502 -0.18989784309E+03 -0.18098531912E+03  0.92284524495E+02  0.27808867292E+03  0.00000000000E+00 0.  1.
         -1    1    6    6    0  503  0.99468674466E+02  0.16300155153E+03  0.79767667594E+03  0.82021436365E+03  0.00000000000E+00 0.  1.
<mgrwt>
<rscale>  0 0.13185950E+04</rscale>
<asrwt>0</asrwt>
<pdfrwt beam="1">  1        1 0.24032022E+00 0.13185950E+04</pdfrwt>
<pdfrwt beam="2">  1       -1 0.42810058E-01 0.13185950E+04</pdfrwt>
<totfact> 0.31244709E+01</totfact>
</mgrwt>
</event>
<event>
12    1  0.4247462E-008  0.1271539E+04  0.7818608E-02  0.9052445E-01
          1   -1    0    0  501    0  0.00000000000E+00  0.00000000000E+00  0.12544529033E+04  0.12544529033E+04  0.00000000000E+00 0. -1.
         -1   -1    0    0    0  501 -0.00000000000E+00 -0.00000000000E+00 -0.32221422146E+03  0.32221422146E+03  0.00000000000E+00 0.  1.
         23    2    1    2    0    0 -0.14511381780E+03  0.14991212927E+03 -0.40876269441E+02  0.22847686652E+03  0.83660878032E+02 0.  0.
        254    2    1    2    0    0  0.14511381780E+03 -0.14991212927E+03  0.97311495127E+03  0.13481902582E+04  0.90946830476E+03 0.  0.
         23    2    4    4    0    0  0.18703392999E+03  0.31463429665E+03  0.71018228228E+03  0.80425299212E+03  0.92128006998E+02 0.  0.
         23    2    4    4    0    0 -0.41920112192E+02 -0.46454642592E+03  0.26293266899E+03  0.54393726610E+03  0.95778303346E+02 0.  0.
         11    1    3    3    0    0 -0.19640822877E+02  0.29867390047E+02 -0.41569766230E+02  0.54825800277E+02  0.00000000000E+00 0. -1.
        -11    1    3    3    0    0 -0.12547299492E+03  0.12004473922E+03  0.69349678898E+00  0.17365106624E+03  0.00000000000E+00 0.  1.
          2    1    5    5  502    0  0.14734293855E+03  0.26130526404E+03  0.64403284979E+03  0.71047075532E+03  0.00000000000E+00 0. -1.
          1    1    6    6  503    0 -0.67155959064E+02 -0.40871238768E+03  0.21885873236E+03  0.46846011934E+03  0.00000000000E+00 0. -1.
         -2    1    5    5    0  502  0.39690991446E+02  0.53329032610E+02  0.66149432498E+02  0.93782236809E+02  0.00000000000E+00 0.  1.
         -1    1    6    6    0  503  0.25235846873E+02 -0.55834038240E+02  0.44073936627E+02  0.75477146762E+02  0.00000000000E+00 0.  1.
<mgrwt>
<rscale>  0 0.12715385E+04</rscale>
<asrwt>0</asrwt>
<pdfrwt beam="1">  1        1 0.19299275E+00 0.12715385E+04</pdfrwt>
<pdfrwt beam="2">  1       -1 0.49571419E-01 0.12715385E+04</pdfrwt>
<totfact> 0.39177202E+01</totfact>
</mgrwt>
</event>
<event>
12    1  0.4247462E-008  0.1226116E+04  0.7818608E-02  0.9090299E-01
          1   -1    0    0  501    0  0.00000000000E+00  0.00000000000E+00  0.82366488467E+03  0.82366488467E+03  0.00000000000E+00 0. -1.
         -1   -1    0    0    0  501 -0.00000000000E+00 -0.00000000000E+00 -0.45630253035E+03  0.45630253035E+03  0.00000000000E+00 0.  1.
         23    2    1    2    0    0 -0.13544568906E+02 -0.10058013994E+03  0.30657624678E+03  0.33790338725E+03  0.99447896550E+02 0.  0.
        254    2    1    2    0    0  0.13544568906E+02  0.10058013994E+03  0.60786107534E+02  0.94206402777E+03  0.93460679521E+03 0.  0.
         23    2    4    4    0    0 -0.37893115194E+03 -0.18079179726E+03  0.12121560753E+03  0.44609389528E+03  0.89621693982E+02 0.  0.
         23    2    4    4    0    0  0.39247572084E+03  0.28137193720E+03 -0.60429499998E+02  0.49597013249E+03  0.95536848179E+02 0.  0.
         13    1    3    3    0    0 -0.21334223584E+02 -0.11706643329E+03  0.22737448599E+03  0.25662980298E+03  0.00000000000E+00 0. -1.
        -13    1    3    3    0    0  0.77896546780E+01  0.16486293343E+02  0.79201760782E+02  0.81273584264E+02  0.00000000000E+00 0.  1.
          1    1    6    6  502    0  0.32541845135E+03  0.20211519578E+03 -0.17058285024E+02  0.38345626339E+03  0.00000000000E+00 0. -1.
          1    1    5    5  503    0 -0.18495264928E+03 -0.12961138818E+03  0.89742819195E+02  0.24302338986E+03  0.00000000000E+00 0. -1.
         -1    1    5    5    0  503 -0.19397850265E+03 -0.51180409080E+02  0.31472788338E+02  0.20307050542E+03  0.00000000000E+00 0.  1.
         -1    1    6    6    0  502  0.67057269490E+02  0.79256741418E+02 -0.43371214974E+02  0.11251386910E+03  0.00000000000E+00 0.  1.
<mgrwt>
<rscale>  0 0.12261164E+04</rscale>
<asrwt>0</asrwt>
<pdfrwt beam="1">  1        1 0.12671767E+00 0.12261164E+04</pdfrwt>
<pdfrwt beam="2">  1       -1 0.70200389E-01 0.12261164E+04</pdfrwt>
<totfact> 0.42746222E+01</totfact>
</mgrwt>
</event>
<event>
12    1  0.4247462E-008  0.1437360E+04  0.7818608E-02  0.8927211E-01
         -2   -1    0    0    0  501 -0.00000000000E+00  0.00000000000E+00  0.51223188481E+03  0.51223188481E+03  0.00000000000E+00 0.  1.
          2   -1    0    0  501    0  0.00000000000E+00 -0.00000000000E+00 -0.10083341113E+04  0.10083341113E+04  0.00000000000E+00 0. -1.
         23    2    1    2    0    0 -0.10673252073E+03  0.27218856061E+03  0.18287731327E+03  0.35676843179E+03  0.91439371743E+02 0.  0.
        254    2    1    2    0    0  0.10673252073E+03 -0.27218856061E+03 -0.67897953973E+03  0.11637975643E+04  0.89885099530E+03 0.  0.
         23    2    4    4    0    0 -0.11047665660E+03 -0.50593515710E+03 -0.16361640630E+03  0.55077132626E+03  0.91669245566E+02 0.  0.
         23    2    4    4    0    0  0.21720917734E+03  0.23374659649E+03 -0.51536313343E+03  0.61302623802E+03  0.91568068221E+02 0.  0.
         11    1    3    3    0    0 -0.58799685318E+02  0.22952427231E+03  0.11503460912E+03  0.26338518537E+03  0.00000000000E+00 0.  1.
        -11    1    3    3    0    0 -0.47932835414E+02  0.42664288294E+02  0.67842704144E+02  0.93383246421E+02  0.00000000000E+00 0. -1.
          2    1    5    5  502    0 -0.12178578145E+03 -0.42135368129E+03 -0.15420727693E+03  0.46491997759E+03  0.00000000000E+00 0.  1.
          1    1    6    6  503    0  0.70048057727E+02  0.30573787806E+02 -0.16775806141E+03  0.18434818702E+03  0.00000000000E+00 0. -1.
         -2    1    5    5    0  502  0.11309124846E+02 -0.84581475801E+02 -0.94091293699E+01  0.85851348673E+02  0.00000000000E+00 0. -1.
         -1    1    6    6    0  503  0.14716111961E+03  0.20317280868E+03 -0.34760507202E+03  0.42867805100E+03  0.00000000000E+00 0.  1.
<mgrwt>
<rscale>  0 0.14373599E+04</rscale>
<asrwt>0</asrwt>
<pdfrwt beam="1">  1        2 0.15512832E+00 0.14373599E+04</pdfrwt>
<pdfrwt beam="2">  1       -2 0.78804906E-01 0.14373599E+04</pdfrwt>
<totfact> 0.34540015E+01</totfact>
</mgrwt>
</event>
<event>
12    1  0.4247462E-008  0.2712888E+04  0.7818608E-02  0.8330835E-01
         -3   -1    0    0    0  501 -0.00000000000E+00  0.00000000000E+00  0.20526108364E+04  0.20526108364E+04  0.00000000000E+00 0.  1.
          3   -1    0    0  501    0  0.00000000000E+00 -0.00000000000E+00 -0.89639021795E+03  0.89639021795E+03  0.00000000000E+00 0. -1.
         23    2    1    2    0    0 -0.10585741765E+04 -0.30211350300E+03  0.10492409467E+04  0.15223540305E+04  0.69306379304E+02 0.  0.
        254    2    1    2    0    0  0.10585741765E+04  0.30211350300E+03  0.10697967179E+03  0.14266470238E+04  0.90112442230E+03 0.  0.
         23    2    4    4    0    0  0.89001595235E+03  0.10443925964E+03 -0.28758780995E+03  0.94548192165E+03  0.90517188084E+02 0.  0.
         23    2    4    4    0    0  0.16855822418E+03  0.19767424336E+03  0.39456748173E+03  0.48116510217E+03  0.91374922580E+02 0.  0.
         11    1    3    3    0    0 -0.70132440397E+03 -0.22031612481E+03  0.66344780858E+03  0.99023134123E+03  0.00000000000E+00 0. -1.
        -11    1    3    3    0    0 -0.35724977256E+03 -0.81797378192E+02  0.38579313807E+03  0.53212268929E+03  0.00000000000E+00 0.  1.
          4    1    5    5  502    0  0.65721140683E+03  0.59278629502E+02 -0.24859805557E+03  0.70515372963E+03  0.00000000000E+00 0.  1.
          3    1    6    6  503    0  0.80857854213E+00  0.31929133433E+02  0.17477181478E+02  0.36408450029E+02  0.00000000000E+00 0. -1.
         -4    1    5    5    0  502  0.23280454552E+03  0.45160630140E+02 -0.38989754372E+02  0.24032819201E+03  0.00000000000E+00 0. -1.
         -3    1    6    6    0  503  0.16774964563E+03  0.16574510993E+03  0.37709030025E+03  0.44475665214E+03  0.00000000000E+00 0.  1.
<mgrwt>
<rscale>  0 0.27128880E+04</rscale>
<asrwt>0</asrwt>
<pdfrwt beam="1">  1        3 0.13790619E+00 0.27128880E+04</pdfrwt>
<pdfrwt beam="2">  1       -3 0.31578628E+00 0.27128880E+04</pdfrwt>
<totfact> 0.28358487E-02</totfact>
</mgrwt>
</event>
<event>
12    1  0.4247462E-008  0.2705838E+04  0.7818608E-02  0.8333113E-01
          2   -1    0    0  501    0  0.00000000000E+00  0.00000000000E+00  0.19781709995E+04  0.19781709995E+04  0.00000000000E+00 0. -1.
         -2   -1    0    0    0  501 -0.00000000000E+00 -0.00000000000E+00 -0.92529384329E+03  0.92529384329E+03  0.00000000000E+00 0.  1.
         23    2    1    2    0    0 -0.89376252158E+03 -0.48649066777E+03  0.11522306422E+04  0.15399652634E+04  0.91503797408E+02 0.  0.
        254    2    1    2    0    0  0.89376252158E+03  0.48649066777E+03 -0.99353486022E+02  0.13634995793E+04  0.90209499103E+03 0.  0.
         23    2    4    4    0    0  0.11212558273E+03 -0.24307069015E+03 -0.65618094489E+02  0.29016503585E+03  0.90744184349E+02 0.  0.
         23    2    4    4    0    0  0.78163693884E+03  0.72956135792E+03 -0.33735391534E+02  0.10733345435E+04  0.87709101303E+02 0.  0.
         13    1    3    3    0    0 -0.21888535827E+03 -0.98320104853E+02  0.22167233482E+03  0.32667455840E+03  0.00000000000E+00 0. -1.
        -13    1    3    3    0    0 -0.67487716331E+03 -0.38817056292E+03  0.93055830738E+03  0.12132907050E+04  0.00000000000E+00 0.  1.
          4    1    5    5  502    0  0.12527359287E+01 -0.27151448486E+01  0.13556387701E+02  0.13882255089E+02  0.00000000000E+00 0.  1.
          3    1    6    6  503    0  0.71508356904E+03  0.65887911628E+03 -0.55161199383E+02  0.97391424597E+03  0.00000000000E+00 0. -1.
         -4    1    5    5    0  502  0.11087284681E+03 -0.24035554530E+03 -0.79174482190E+02  0.27628278076E+03  0.00000000000E+00 0. -1.
         -3    1    6    6    0  503  0.66553369800E+02  0.70682241645E+02  0.21425807850E+02  0.99420297514E+02  0.00000000000E+00 0.  1.
<mgrwt>
<rscale>  0 0.27058377E+04</rscale>
<asrwt>0</asrwt>
<pdfrwt beam="1">  1        2 0.30433400E+00 0.27058377E+04</pdfrwt>
<pdfrwt beam="2">  1       -2 0.14235290E+00 0.27058377E+04</pdfrwt>
<totfact> 0.20719855E+00</totfact>
</mgrwt>
</event>
<event>
12    1  0.4247462E-008  0.1251943E+04  0.7818608E-02  0.9068567E-01
          1   -1    0    0  501    0  0.00000000000E+00  0.00000000000E+00  0.31397030661E+03  0.31397030661E+03  0.00000000000E+00 0. -1.
         -1   -1    0    0    0  501 -0.00000000000E+00 -0.00000000000E+00 -0.12480178176E+04  0.12480178176E+04  0.00000000000E+00 0.  1.
         23    2    1    2    0    0  0.26782657225E+02 -0.14939476878E+03 -0.57753072413E+03  0.60408701934E+03  0.91341567493E+02 0.  0.
        254    2    1    2    0    0 -0.26782657225E+02  0.14939476878E+03 -0.35651678683E+03  0.95790110484E+03  0.87603321838E+03 0.  0.
         23    2    4    4    0    0  0.35545540039E+03  0.96768633293E+02  0.58180426770E+02  0.38418468433E+03  0.92196526832E+02 0.  0.
         23    2    4    4    0    0 -0.38223805762E+03  0.52626135487E+02 -0.41469721360E+03  0.57371642051E+03  0.91111521593E+02 0.  0.
         13    1    3    3    0    0 -0.31029923609E+02 -0.38676508204E+02 -0.21496738678E+03  0.22061211623E+03  0.00000000000E+00 0. -1.
        -13    1    3    3    0    0  0.57812580834E+02 -0.11071826058E+03 -0.36256333735E+03  0.38347490311E+03  0.00000000000E+00 0.  1.
          2    1    5    5  502    0  0.31184819325E+03  0.10698556728E+03  0.29513508747E+02  0.33100793712E+03  0.00000000000E+00 0. -1.
          4    1    6    6  503    0 -0.29396011750E+03  0.24945192162E+02 -0.25884763448E+03  0.39247536377E+03  0.00000000000E+00 0. -1.
         -2    1    5    5    0  502  0.43607207146E+02 -0.10216933991E+02  0.28666918023E+02  0.53176747213E+02  0.00000000000E+00 0.  1.
         -4    1    6    6    0  503 -0.88277940116E+02  0.27680943325E+02 -0.15584957912E+03  0.18124105674E+03  0.00000000000E+00 0.  1.
<mgrwt>
<rscale>  0 0.12519433E+04</rscale>
<asrwt>0</asrwt>
<pdfrwt beam="1">  1        1 0.48303124E-01 0.12519433E+04</pdfrwt>
<pdfrwt beam="2">  1       -1 0.19200274E+00 0.12519433E+04</pdfrwt>
<totfact> 0.13934959E+01</totfact>
</mgrwt>
</event>
<event>
12    1  0.4247462E-008  0.1738815E+04  0.7818608E-02  0.8739531E-01
          2   -1    0    0  501    0  0.00000000000E+00  0.00000000000E+00  0.66347182605E+03  0.66347182605E+03  0.00000000000E+00 0. -1.
         -2   -1    0    0    0  501 -0.00000000000E+00 -0.00000000000E+00 -0.11392634310E+04  0.11392634310E+04  0.00000000000E+00 0.  1.
         23    2    1    2    0    0 -0.29284229433E+03  0.50336975013E+03  0.90129523181E+02  0.59621580546E+03  0.90621415991E+02 0.  0.
        254    2    1    2    0    0  0.29284229433E+03 -0.50336975013E+03 -0.56592112818E+03  0.12065194516E+04  0.89234788572E+03 0.  0.
         23    2    4    4    0    0  0.60334338442E+03 -0.37796788952E+03 -0.40115851225E+03  0.82224683927E+03  0.90987623992E+02 0.  0.
         23    2    4    4    0    0 -0.31050109009E+03 -0.12540186062E+03 -0.16476261593E+03  0.38427261236E+03  0.91554177451E+02 0.  0.
         11    1    3    3    0    0  0.51931798843E-01  0.33452131418E+00  0.84081296688E+01  0.84149418268E+01  0.00000000000E+00 0.  1.
        -11    1    3    3    0    0 -0.29289422613E+03  0.50303522882E+03  0.81721393512E+02  0.58780086364E+03  0.00000000000E+00 0. -1.
          1    1    5    5  502    0  0.60636809756E+03 -0.37790183726E+03 -0.39794776885E+03  0.81783524935E+03  0.00000000000E+00 0. -1.
          1    1    6    6  503    0 -0.25298918911E+03 -0.13671989204E+03 -0.14737247905E+03  0.32313233553E+03  0.00000000000E+00 0. -1.
         -1    1    5    5    0  502 -0.30247131443E+01 -0.66052257689E-01 -0.32107433930E+01  0.44115899222E+01  0.00000000000E+00 0.  1.
         -1    1    6    6    0  503 -0.57511900977E+02  0.11318031425E+02 -0.17390136880E+02  0.61140276823E+02  0.00000000000E+00 0.  1.
<mgrwt>
<rscale>  0 0.17388148E+04</rscale>
<asrwt>0</asrwt>
<pdfrwt beam="1">  1        2 0.10207259E+00 0.17388148E+04</pdfrwt>
<pdfrwt beam="2">  1       -2 0.17527129E+00 0.17388148E+04</pdfrwt>
<totfact> 0.81273722E+00</totfact>
</mgrwt>
</event>
<event>
12    1  0.4247462E-008  0.1483863E+04  0.7818608E-02  0.8895255E-01
          2   -1    0    0  501    0  0.00000000000E+00  0.00000000000E+00  0.19731727692E+04  0.19731727692E+04  0.00000000000E+00 0. -1.
         -2   -1    0    0    0  501 -0.00000000000E+00 -0.00000000000E+00 -0.27897320618E+03  0.27897320618E+03  0.00000000000E+00 0.  1.
         23    2    1    2    0    0  0.37710090173E+03  0.14229412595E+03  0.18666069568E+03  0.45322179772E+03  0.90083706914E+02 0.  0.
        254    2    1    2    0    0 -0.37710090173E+03 -0.14229412595E+03  0.15075388674E+04  0.17989241777E+04  0.89498717984E+03 0.  0.
         23    2    4    4    0    0 -0.62927652420E+03 -0.15871419011E+03  0.13069499494E+04  0.14621226299E+04  0.92224055972E+02 0.  0.
         23    2    4    4    0    0  0.25217562248E+03  0.16420064153E+02  0.20058891796E+03  0.33680154781E+03  0.96629216690E+02 0.  0.
         13    1    3    3    0    0  0.32594235401E+03  0.11492154508E+03  0.12240022401E+03  0.36664314326E+03  0.00000000000E+00 0.  1.
        -13    1    3    3    0    0  0.51158547710E+02  0.27372580870E+02  0.64260471674E+02  0.86578654454E+02  0.00000000000E+00 0. -1.
          1    1    5    5  502    0 -0.53137011230E+03 -0.15423130676E+03  0.11638515554E+04  0.12886783677E+04  0.00000000000E+00 0. -1.
          3    1    6    6  503    0  0.72559908957E+02 -0.39212083738E+02  0.63918946572E+02  0.10434634459E+03  0.00000000000E+00 0.  1.
         -1    1    5    5    0  502 -0.97906411901E+02 -0.44828833429E+01  0.14309839401E+03  0.17344426223E+03  0.00000000000E+00 0.  1.
         -3    1    6    6    0  503  0.17961571352E+03  0.55632147891E+02  0.13666997139E+03  0.23245520321E+03  0.00000000000E+00 0. -1.
<mgrwt>
<rscale>  0 0.14838630E+04</rscale>
<asrwt>0</asrwt>
<pdfrwt beam="1">  1        2 0.30356503E+00 0.14838630E+04</pdfrwt>
<pdfrwt beam="2">  1       -2 0.42918956E-01 0.14838630E+04</pdfrwt>
<totfact> 0.34439981E+01</totfact>
</mgrwt>
</event>
<event>
12    1  0.4247462E-008  0.1719933E+04  0.7818608E-02  0.8750077E-01
         -1   -1    0    0    0  501 -0.00000000000E+00  0.00000000000E+00  0.34044886466E+03  0.34044886466E+03  0.00000000000E+00 0.  1.
          1   -1    0    0  501    0  0.00000000000E+00 -0.00000000000E+00 -0.21722579525E+04  0.21722579525E+04  0.00000000000E+00 0. -1.
         23    2    1    2    0    0  0.22313090166E+03  0.52059143851E+03 -0.10271952640E+04  0.11765620378E+04  0.91461867897E+02 0.  0.
        254    2    1    2    0    0 -0.22313090166E+03 -0.52059143851E+03 -0.80461382384E+03  0.13361447794E+04  0.90392290643E+03 0.  0.
         23    2    4    4    0    0  0.17838372834E+03 -0.50122697429E+03 -0.14443981905E+03  0.55813016703E+03  0.87161847920E+02 0.  0.
         23    2    4    4    0    0 -0.40151462999E+03 -0.19364464219E+02 -0.66017400479E+03  0.77801461233E+03  0.88814637405E+02 0.  0.
         11    1    3    3    0    0  0.20771718434E+03  0.41011858082E+03 -0.78062458938E+03  0.90593511276E+03  0.00000000000E+00 0. -1.
        -11    1    3    3    0    0  0.15413717319E+02  0.11047285769E+03 -0.24657067464E+03  0.27062692504E+03  0.00000000000E+00 0.  1.
          2    1    5    5  502    0  0.11689597954E+02 -0.41448200608E+02 -0.38407889294E+02  0.57704124584E+02  0.00000000000E+00 0. -1.
          1    1    6    6  503    0  0.45187375996E-01  0.90212330911E+01 -0.12189330791E+02  0.15164579569E+02  0.00000000000E+00 0. -1.
         -2    1    5    5    0  502  0.16669413038E+03 -0.45977877368E+03 -0.10603192975E+03  0.50042604245E+03  0.00000000000E+00 0.  1.
         -1    1    6    6    0  503 -0.40155981737E+03 -0.28385697310E+02 -0.64798467400E+03  0.76285003276E+03  0.00000000000E+00 0.  1.
<mgrwt>
<rscale>  0 0.17199334E+04</rscale>
<asrwt>0</asrwt>
<pdfrwt beam="1">  1        1 0.33419352E+00 0.17199334E+04</pdfrwt>
<pdfrwt beam="2">  1       -1 0.52376750E-01 0.17199334E+04</pdfrwt>
<totfact> 0.79429497E+00</totfact>
</mgrwt>
</event>
<event>
12    1  0.4247462E-008  0.1244917E+04  0.7818608E-02  0.9074424E-01
          1   -1    0    0  501    0  0.00000000000E+00  0.00000000000E+00  0.24603736453E+04  0.24603736453E+04  0.00000000000E+00 0. -1.
         -1   -1    0    0    0  501 -0.00000000000E+00 -0.00000000000E+00 -0.15747794147E+03  0.15747794147E+03  0.00000000000E+00 0.  1.
         23    2    1    2    0    0  0.17191829209E+03  0.18456316284E+03  0.56759101678E+03  0.62776561466E+03  0.91162735701E+02 0.  0.
        254    2    1    2    0    0 -0.17191829209E+03 -0.18456316284E+03  0.17353046871E+04  0.19900859721E+04  0.94103154001E+03 0.  0.
         23    2    4    4    0    0  0.54038248275E+02 -0.16063172521E+03  0.17333220833E+04  0.17439961120E+04  0.91620472839E+02 0.  0.
         23    2    4    4    0    0 -0.22595654037E+03 -0.23931437633E+02  0.19826037948E+01  0.24608986009E+03  0.94483949320E+02 0.  0.
         13    1    3    3    0    0  0.16165776118E+03  0.13062248137E+03  0.39058438751E+03  0.44243827610E+03  0.00000000000E+00 0.  1.
        -13    1    3    3    0    0  0.10260530917E+02  0.53940681468E+02  0.17700662927E+03  0.18532733856E+03  0.00000000000E+00 0. -1.
          2    1    5    5  502    0 -0.93280214554E+01  0.66056695007E+01  0.55175643334E+02  0.56347124781E+02  0.00000000000E+00 0. -1.
          1    1    6    6  503    0 -0.28360177830E+02 -0.33461690040E+01  0.34494572382E+02  0.44781380700E+02  0.00000000000E+00 0. -1.
         -2    1    5    5    0  502  0.63366269731E+02 -0.16723739471E+03  0.16781464399E+04  0.16876489873E+04  0.00000000000E+00 0.  1.
         -1    1    6    6    0  503 -0.19759636254E+03 -0.20585268629E+02 -0.32511968588E+02  0.20130847939E+03  0.00000000000E+00 0.  1.
<mgrwt>
<rscale>  0 0.12449170E+04</rscale>
<asrwt>0</asrwt>
<pdfrwt beam="1">  1        1 0.37851900E+00 0.12449170E+04</pdfrwt>
<pdfrwt beam="2">  1       -1 0.24227377E-01 0.12449170E+04</pdfrwt>
<totfact> 0.21153648E+01</totfact>
</mgrwt>
</event>
<event>
12    1  0.4247462E-008  0.1891681E+04  0.7818608E-02  0.8659008E-01
          1   -1    0    0  501    0  0.00000000000E+00  0.00000000000E+00  0.72101982964E+03  0.72101982964E+03  0.00000000000E+00 0. -1.
         -1   -1    0    0    0  501 -0.00000000000E+00 -0.00000000000E+00 -0.12407622781E+04  0.12407622781E+04  0.00000000000E+00 0.  1.
         23    2    1    2    0    0  0.59343674429E+03 -0.33996302381E+03  0.67041629577E+02  0.69311163706E+03  0.90372198666E+02 0.  0.
        254    2    1    2    0    0 -0.59343674429E+03  0.33996302381E+03 -0.58678407804E+03  0.12686704707E+04  0.89301018019E+03 0.  0.
         23    2    4    4    0    0 -0.20313827187E+03  0.55926103192E+03 -0.11664750056E+03  0.61317488715E+03  0.91316720971E+02 0.  0.
         23    2    4    4    0    0 -0.39029847242E+03 -0.21929800811E+03 -0.47013657748E+03  0.65549558354E+03  0.90672733602E+02 0.  0.
         11    1    3    3    0    0  0.52986516635E+03 -0.32394302197E+03  0.40435298226E+02  0.62235937314E+03  0.00000000000E+00 0. -1.
        -11    1    3    3    0    0  0.63571577942E+02 -0.16020001839E+02  0.26606331351E+02  0.70752263914E+02  0.00000000000E+00 0.  1.
          2    1    5    5  502    0  0.33214213061E+01  0.72369571592E+02 -0.23620433079E+02  0.76199157414E+02  0.00000000000E+00 0. -1.
          1    1    6    6  503    0 -0.89829981982E+02 -0.61044389409E+02 -0.17295253043E+03  0.20422639625E+03  0.00000000000E+00 0. -1.
         -2    1    5    5    0  502 -0.20645969317E+03  0.48689146033E+03 -0.93027067485E+02  0.53697572974E+03  0.00000000000E+00 0.  1.
         -1    1    6    6    0  503 -0.30046849044E+03 -0.15825361870E+03 -0.29718404704E+03  0.45126918729E+03  0.00000000000E+00 0.  1.
<mgrwt>
<rscale>  0 0.18916810E+04</rscale>
<asrwt>0</asrwt>
<pdfrwt beam="1">  1        1 0.11092613E+00 0.18916810E+04</pdfrwt>
<pdfrwt beam="2">  1       -1 0.19088651E+00 0.18916810E+04</pdfrwt>
<totfact> 0.42457422E+00</totfact>
</mgrwt>
</event>
<event>
12    1  0.4247462E-008  0.2542285E+04  0.7818608E-02  0.8388074E-01
         -2   -1    0    0    0  501 -0.00000000000E+00  0.00000000000E+00  0.48197651560E+03  0.48197651560E+03  0.00000000000E+00 0. -1.
          2   -1    0    0  501    0  0.00000000000E+00 -0.00000000000E+00 -0.33524517330E+04  0.33524517330E+04  0.00000000000E+00 0.  1.
         23    2    1    2    0    0  0.73028786509E+03  0.80735700629E+03 -0.15776898320E+04  0.19189842942E+04  0.90828486459E+02 0.  0.
        254    2    1    2    0    0 -0.73028786509E+03 -0.80735700629E+03 -0.12927853854E+04  0.19154439544E+04  0.90137993549E+03 0.  0.
         23    2    4    4    0    0 -0.67945591616E+03 -0.22284063516E+03 -0.34882933482E+03  0.80032492560E+03  0.86716728615E+02 0.  0.
         23    2    4    4    0    0 -0.50831948934E+02 -0.58451637113E+03 -0.94395605056E+03  0.11151190288E+04  0.90521532003E+02 0.  0.
         11    1    3    3    0    0  0.56618962357E+03  0.67624924222E+03 -0.12532053762E+04  0.15324514486E+04  0.00000000000E+00 0.  1.
        -11    1    3    3    0    0  0.16409824152E+03  0.13110776407E+03 -0.32448445581E+03  0.38653284560E+03  0.00000000000E+00 0. -1.
          4    1    5    5  502    0 -0.75746304895E+01 -0.15215989739E+02 -0.64890822882E+01  0.18193668122E+02  0.00000000000E+00 0. -1.
          1    1    6    6  503    0 -0.15185860783E+01 -0.18688863158E+03 -0.37811128562E+03  0.42177933927E+03  0.00000000000E+00 0. -1.
         -4    1    5    5    0  502 -0.67188128567E+03 -0.20762464543E+03 -0.34234025253E+03  0.78213125748E+03  0.00000000000E+00 0.  1.
         -1    1    6    6    0  503 -0.49313362856E+02 -0.39762773954E+03 -0.56584476493E+03  0.69333968949E+03  0.00000000000E+00 0.  1.
<mgrwt>
<rscale>  0 0.25422848E+04</rscale>
<asrwt>0</asrwt>
<pdfrwt beam="1">  1        2 0.51576183E+00 0.25422848E+04</pdfrwt>
<pdfrwt beam="2">  1       -2 0.74150230E-01 0.25422848E+04</pdfrwt>
<totfact> 0.14958868E+00</totfact>
</mgrwt>
</event>
<event>
12    1  0.4247462E-008  0.1671788E+04  0.7818608E-02  0.8777621E-01
          1   -1    0    0  501    0  0.00000000000E+00  0.00000000000E+00  0.13583879290E+04  0.13583879290E+04  0.00000000000E+00 0. -1.
         -1   -1    0    0    0  501 -0.00000000000E+00 -0.00000000000E+00 -0.51437321254E+03  0.51437321254E+03  0.00000000000E+00 0.  1.
         23    2    1    2    0    0 -0.34001797795E+03 -0.46707527601E+03  0.23691193750E+03  0.63044935634E+03  0.86991873142E+02 0.  0.
        254    2    1    2    0    0  0.34001797795E+03  0.46707527601E+03  0.60710277896E+03  0.12423117852E+04  0.91705684047E+03 0.  0.
         23    2    4    4    0    0  0.24853629219E+03 -0.32461286558E+02  0.67145726205E+03  0.72262611769E+03  0.92247642507E+02 0.  0.
         23    2    4    4    0    0  0.91481685761E+02  0.49953656257E+03 -0.64354483089E+02  0.51968566751E+03  0.89588042462E+02 0.  0.
         11    1    3    3    0    0 -0.18019931047E+03 -0.28434473412E+03  0.17732280155E+03  0.38048271349E+03  0.00000000000E+00 0. -1.
        -11    1    3    3    0    0 -0.15981866748E+03 -0.18273054189E+03  0.59589135947E+02  0.24996664285E+03  0.00000000000E+00 0.  1.
          4    1    5    5  502    0  0.27106883123E+02 -0.29055745832E+02  0.57035738070E+02  0.69513271364E+02  0.00000000000E+00 0.  1.
          3    1    6    6  503    0  0.12617215535E+02  0.27545505601E+03 -0.59454344695E+02  0.28208066420E+03  0.00000000000E+00 0. -1.
         -4    1    5    5    0  502  0.22142940907E+03 -0.34055407262E+01  0.61442152398E+03  0.65311284633E+03  0.00000000000E+00 0. -1.
         -3    1    6    6    0  503  0.78864470226E+02  0.22408150656E+03 -0.49001383944E+01  0.23760500332E+03  0.00000000000E+00 0.  1.
<mgrwt>
<rscale>  0 0.16717875E+04</rscale>
<asrwt>0</asrwt>
<pdfrwt beam="1">  1        1 0.20898276E+00 0.16717875E+04</pdfrwt>
<pdfrwt beam="2">  1       -1 0.79134341E-01 0.16717875E+04</pdfrwt>
<totfact> 0.12517809E+01</totfact>
</mgrwt>
</event>
<event>
12    1  0.4247462E-008  0.1802724E+04  0.7818608E-02  0.8704852E-01
          2   -1    0    0  501    0  0.00000000000E+00  0.00000000000E+00  0.15756997386E+04  0.15756997386E+04  0.00000000000E+00 0. -1.
         -2   -1    0    0    0  501 -0.00000000000E+00 -0.00000000000E+00 -0.51561466064E+03  0.51561466064E+03  0.00000000000E+00 0.  1.
         23    2    1    2    0    0  0.41381609212E+03 -0.48974609063E+02  0.10253420942E+04  0.11105544128E+04  0.91446286064E+02 0.  0.
        254    2    1    2    0    0 -0.41381609212E+03  0.48974609063E+02  0.34742983765E+02  0.98075998643E+03  0.88715320302E+03 0.  0.
         23    2    4    4    0    0 -0.43744351802E+03 -0.16907352431E+03  0.34497701718E+03  0.58862228919E+03  0.86743119994E+02 0.  0.
         23    2    4    4    0    0  0.23627425897E+02  0.21804813338E+03 -0.31023403342E+03  0.39213769724E+03  0.97075096623E+02 0.  0.
         13    1    3    3    0    0  0.25360148698E+03  0.14974656259E+02  0.60068589414E+03  0.65219743785E+03  0.00000000000E+00 0. -1.
        -13    1    3    3    0    0  0.16021460514E+03 -0.63949265322E+02  0.42465620004E+03  0.45835697493E+03  0.00000000000E+00 0.  1.
          4    1    5    5  502    0 -0.43553989074E+03 -0.17284700459E+03  0.34778713058E+03  0.58354688896E+03  0.00000000000E+00 0.  1.
          3    1    6    6  503    0 -0.35249004335E+02  0.67830243088E+02 -0.12466952913E+03  0.14623927543E+03  0.00000000000E+00 0. -1.
         -4    1    5    5    0  502 -0.19036272750E+01  0.37734802756E+01 -0.28101133918E+01  0.50754002273E+01  0.00000000000E+00 0. -1.
         -3    1    6    6    0  503  0.58876430232E+02  0.15021789029E+03 -0.18556450429E+03  0.24589842182E+03  0.00000000000E+00 0.  1.
<mgrwt>
<rscale>  0 0.18027245E+04</rscale>
<asrwt>0</asrwt>
<pdfrwt beam="1">  1        2 0.24241534E+00 0.18027245E+04</pdfrwt>
<pdfrwt beam="2">  1       -2 0.79325333E-01 0.18027245E+04</pdfrwt>
<totfact> 0.15301534E+01</totfact>
</mgrwt>
</event>
<event>
12    1  0.4247462E-008  0.1307229E+04  0.7818608E-02  0.9023852E-01
          2   -1    0    0  501    0  0.00000000000E+00  0.00000000000E+00  0.18098792079E+04  0.18098792079E+04  0.00000000000E+00 0. -1.
         -2   -1    0    0    0  501 -0.00000000000E+00 -0.00000000000E+00 -0.23604431524E+03  0.23604431524E+03  0.00000000000E+00 0.  1.
         23    2    1    2    0    0  0.27698890354E+02  0.31444340845E+03  0.23581001235E+03  0.40447091015E+03  0.91369959996E+02 0.  0.
        254    2    1    2    0    0 -0.27698890354E+02 -0.31444340845E+03  0.13380248803E+04  0.16414526129E+04  0.89689141744E+03 0.  0.
         23    2    4    4    0    0  0.27708325176E+03  0.14556121830E+03  0.22544445318E+03  0.39617282922E+03  0.90357691781E+02 0.  0.
         23    2    4    4    0    0 -0.30478214211E+03 -0.46000462675E+03  0.11125804271E+04  0.12452797837E+04  0.91597610419E+02 0.  0.
         11    1    3    3    0    0 -0.17533205897E+02  0.22922350016E+03  0.18701580793E+03  0.29635407665E+03  0.00000000000E+00 0. -1.
        -11    1    3    3    0    0  0.45232096251E+02  0.85219908291E+02  0.48794204418E+02  0.10811683350E+03  0.00000000000E+00 0.  1.
          2    1    5    5  502    0  0.28173495024E+03  0.14362959898E+03  0.20920739605E+03  0.37917249169E+03  0.00000000000E+00 0. -1.
          1    1    6    6  503    0 -0.16355872808E+03 -0.30659737084E+03  0.62774018229E+03  0.71750340891E+03  0.00000000000E+00 0. -1.
         -2    1    5    5    0  502 -0.46516984809E+01  0.19316193200E+01  0.16237057133E+02  0.17000337535E+02  0.00000000000E+00 0.  1.
         -1    1    6    6    0  503 -0.14122341404E+03 -0.15340725591E+03  0.48484024480E+03  0.52777637482E+03  0.00000000000E+00 0.  1.
<mgrwt>
<rscale>  0 0.13072287E+04</rscale>
<asrwt>0</asrwt>
<pdfrwt beam="1">  1        2 0.27844295E+00 0.13072287E+04</pdfrwt>
<pdfrwt beam="2">  1       -2 0.36314511E-01 0.13072287E+04</pdfrwt>
<totfact> 0.59581079E+01</totfact>
</mgrwt>
</event>
<event>
12    1  0.4247462E-008  0.1646516E+04  0.7818608E-02  0.8792470E-01
         -1   -1    0    0    0  501 -0.00000000000E+00  0.00000000000E+00  0.24767852911E+03  0.24767852911E+03  0.00000000000E+00 0. -1.
          1   -1    0    0  501    0  0.00000000000E+00 -0.00000000000E+00 -0.27364253589E+04  0.27364253589E+04  0.00000000000E+00 0.  1.
         23    2    1    2    0    0  0.35466596665E+02 -0.30212300653E+03 -0.17302765210E+04  0.17591960630E+04  0.91530095446E+02 0.  0.
        254    2    1    2    0    0 -0.35466596665E+02  0.30212300653E+03 -0.75847030885E+03  0.12249078251E+04  0.91246138547E+03 0.  0.
         23    2    4    4    0    0 -0.19773595965E+03  0.49783275028E+03 -0.78427213155E+03  0.95402146117E+03  0.90206513410E+02 0.  0.
         23    2    4    4    0    0  0.16226936298E+03 -0.19570974376E+03  0.25801822702E+02  0.27088636390E+03  0.89889032303E+02 0.  0.
         11    1    3    3    0    0 -0.17479336524E+02 -0.90817285572E+01 -0.12277842942E+03  0.12434849308E+03  0.00000000000E+00 0. -1.
        -11    1    3    3    0    0  0.52945933189E+02 -0.29304127797E+03 -0.16074980915E+04  0.16348475699E+04  0.00000000000E+00 0.  1.
          1    1    5    5  502    0 -0.20123911217E+03  0.45216638853E+03 -0.68926013547E+03  0.84854649698E+03  0.00000000000E+00 0.  1.
          1    1    6    6  503    0  0.10059329582E+02 -0.16921187652E+01 -0.17749422925E+02  0.20471819453E+02  0.00000000000E+00 0. -1.
         -1    1    5    5    0  502  0.35031525203E+01  0.45666361754E+02 -0.95011996081E+02  0.10547496420E+03  0.00000000000E+00 0. -1.
         -1    1    6    6    0  503  0.15221003340E+03 -0.19401762499E+03  0.43551245627E+02  0.25041454445E+03  0.00000000000E+00 0.  1.
<mgrwt>
<rscale>  0 0.16465161E+04</rscale>
<asrwt>0</asrwt>
<pdfrwt beam="1">  1        1 0.42098855E+00 0.16465161E+04</pdfrwt>
<pdfrwt beam="2">  1       -1 0.38104386E-01 0.16465161E+04</pdfrwt>
<totfact> 0.59005388E+00</totfact>
</mgrwt>
</event>
<event>
12    1  0.4247462E-008  0.1825506E+04  0.7818608E-02  0.8692852E-01
          2   -1    0    0  501    0  0.00000000000E+00  0.00000000000E+00  0.15236766852E+04  0.15236766852E+04  0.00000000000E+00 0. -1.
         -2   -1    0    0    0  501 -0.00000000000E+00 -0.00000000000E+00 -0.54678156001E+03  0.54678156001E+03  0.00000000000E+00 0.  1.
         23    2    1    2    0    0  0.14105272349E+03 -0.67340234902E+03  0.36153962229E+03  0.78260270171E+03  0.91594190670E+02 0.  0.
        254    2    1    2    0    0 -0.14105272349E+03  0.67340234902E+03  0.61535550288E+03  0.12878555435E+04  0.89807734160E+03 0.  0.
         23    2    4    4    0    0 -0.40491164537E+03  0.11929803509E+03  0.49539250923E+03  0.65714956599E+03  0.90809427643E+02 0.  0.
         23    2    4    4    0    0  0.26385892188E+03  0.55410431394E+03  0.11996299364E+03  0.63070597750E+03  0.82132751233E+02 0.  0.
         11    1    3    3    0    0  0.11673335703E+03 -0.62655456459E+03  0.35466563859E+03  0.72937302819E+03  0.00000000000E+00 0. -1.
        -11    1    3    3    0    0  0.24319366462E+02 -0.46847784428E+02  0.68739837014E+01  0.53229673518E+02  0.00000000000E+00 0.  1.
          2    1    5    5  502    0 -0.22770490426E+03  0.32862217376E+02  0.21893395595E+03  0.31758703660E+03  0.00000000000E+00 0. -1.
          1    1    6    6  503    0  0.13008260352E+03  0.25914432453E+03  0.98037064521E+02  0.30608582244E+03  0.00000000000E+00 0. -1.
         -2    1    5    5    0  502 -0.17720674112E+03  0.86435817711E+02  0.27645855329E+03  0.33956252939E+03  0.00000000000E+00 0.  1.
         -1    1    6    6    0  503  0.13377631836E+03  0.29495998940E+03  0.21925929124E+02  0.32462015506E+03  0.00000000000E+00 0.  1.
<mgrwt>
<rscale>  0 0.18255063E+04</rscale>
<asrwt>0</asrwt>
<pdfrwt beam="1">  1        2 0.23441180E+00 0.18255063E+04</pdfrwt>
<pdfrwt beam="2">  1       -2 0.84120240E-01 0.18255063E+04</pdfrwt>
<totfact> 0.14308356E+01</totfact>
</mgrwt>
</event>
<event>
12    1  0.4247462E-008  0.3094781E+04  0.7818608E-02  0.8217172E-01
         -2   -1    0    0    0  501 -0.00000000000E+00  0.00000000000E+00  0.57445183549E+03  0.57445183549E+03  0.00000000000E+00 0.  1.
          2   -1    0    0  501    0  0.00000000000E+00 -0.00000000000E+00 -0.41681775575E+04  0.41681775575E+04  0.00000000000E+00 0. -1.
         23    2    1    2    0    0  0.10226151992E+04  0.75592125305E+03 -0.69620839129E+03  0.14525838988E+04  0.90194637478E+02 0.  0.
        254    2    1    2    0    0 -0.10226151992E+04 -0.75592125305E+03 -0.28975173307E+04  0.32900454941E+04  0.90090725690E+03 0.  0.
         23    2    4    4    0    0 -0.23089587926E+03  0.18061240664E+03 -0.38334711212E+03  0.49121830599E+03  0.91687879671E+02 0.  0.
         23    2    4    4    0    0 -0.79171931990E+03 -0.93653365969E+03 -0.25141702186E+04  0.27988271881E+04  0.92016107226E+02 0.  0.
         13    1    3    3    0    0  0.88083301085E+03  0.63529254458E+03 -0.55992845147E+03  0.12218769500E+04  0.00000000000E+00 0.  1.
        -13    1    3    3    0    0  0.14178218831E+03  0.12062870848E+03 -0.13627993983E+03  0.23070694881E+03  0.00000000000E+00 0. -1.
          2    1    5    5  502    0 -0.20773470871E+03  0.18335507813E+03 -0.37539459437E+03  0.46657678399E+03  0.00000000000E+00 0.  1.
          3    1    6    6  503    0 -0.46359860751E+03 -0.53947319337E+03 -0.13545680408E+04  0.15299704482E+04  0.00000000000E+00 0. -1.
         -2    1    5    5    0  502 -0.23161170544E+02 -0.27426714889E+01 -0.79525177569E+01  0.24641522002E+02  0.00000000000E+00 0. -1.
         -3    1    6    6    0  503 -0.32812071239E+03 -0.39706046632E+03 -0.11596021777E+04  0.12688567399E+04  0.00000000000E+00 0.  1.
<mgrwt>
<rscale>  0 0.30947809E+04</rscale>
<asrwt>0</asrwt>
<pdfrwt beam="1">  1        2 0.64125809E+00 0.30947809E+04</pdfrwt>
<pdfrwt beam="2">  1       -2 0.88377204E-01 0.30947809E+04</pdfrwt>
<totfact> 0.23159333E-01</totfact>
</mgrwt>
</event>
<event>
12    1  0.4247462E-008  0.2295050E+04  0.7818608E-02  0.8479875E-01
         -2   -1    0    0    0  501 -0.00000000000E+00  0.00000000000E+00  0.10715139110E+04  0.10715139110E+04  0.00000000000E+00 0.  1.
          2   -1    0    0  501    0  0.00000000000E+00 -0.00000000000E+00 -0.12289284633E+04  0.12289284633E+04  0.00000000000E+00 0. -1.
         23    2    1    2    0    0  0.84453055757E+02 -0.36854019865E+03  0.83289691878E+03  0.91874496856E+03  0.86144316597E+02 0.  0.
        254    2    1    2    0    0 -0.84453055757E+02  0.36854019865E+03 -0.99031147103E+03  0.13816974058E+04  0.88623739189E+03 0.  0.
         23    2    4    4    0    0 -0.11719401028E+03  0.88549978118E+02 -0.10629777054E+04  0.10768342138E+04  0.89859818936E+02 0.  0.
         23    2    4    4    0    0  0.32740954526E+02  0.27999022053E+03  0.72666234400E+02  0.30486319198E+03  0.90524529860E+02 0.  0.
         11    1    3    3    0    0  0.56411078931E+01  0.40253665279E+01  0.16765716581E+02  0.18141524920E+02  0.00000000000E+00 0. -1.
        -11    1    3    3    0    0  0.78811947864E+02 -0.37256556517E+03  0.81613120220E+03  0.90060344364E+03  0.00000000000E+00 0.  1.
          4    1    5    5  502    0 -0.11811673821E+03  0.99984543023E+02 -0.10363494578E+04  0.10478400027E+04  0.00000000000E+00 0. -1.
          3    1    6    6  503    0 -0.11659095536E+01  0.20437347497E+03  0.17107073645E+02  0.20509151271E+03  0.00000000000E+00 0. -1.
         -4    1    5    5    0  502  0.92272793198E+00 -0.11434564905E+02 -0.26628247665E+02  0.28994211062E+02  0.00000000000E+00 0.  1.
         -3    1    6    6    0  503  0.33906864079E+02  0.75616745560E+02  0.55559160755E+02  0.99771679271E+02  0.00000000000E+00 0.  1.
<mgrwt>
<rscale>  0 0.22950503E+04</rscale>
<asrwt>0</asrwt>
<pdfrwt beam="1">  1        2 0.18906592E+00 0.22950503E+04</pdfrwt>
<pdfrwt beam="2">  1       -2 0.16484830E+00 0.22950503E+04</pdfrwt>
<totfact> 0.38323116E+00</totfact>
</mgrwt>
</event>
<event>
12    1  0.4247462E-008  0.9919239E+03  0.7818608E-02  0.9317447E-01
          1   -1    0    0  501    0  0.00000000000E+00  0.00000000000E+00  0.17909072463E+04  0.17909072463E+04  0.00000000000E+00 0. -1.
         -1   -1    0    0    0  501 -0.00000000000E+00 -0.00000000000E+00 -0.13734839657E+03  0.13734839657E+03  0.00000000000E+00 0.  1.
         23    2    1    2    0    0  0.23614263630E+01  0.61834393779E+01  0.72602810274E+02  0.11618438493E+03  0.90464534405E+02 0.  0.
        254    2    1    2    0    0 -0.23614263630E+01 -0.61834393779E+01  0.15809560395E+04  0.18120712579E+04  0.88551478469E+03 0.  0.
         23    2    4    4    0    0 -0.68951564082E+00 -0.29136216786E+03  0.13126287623E+03  0.33180036918E+03  0.89270118297E+02 0.  0.
         23    2    4    4    0    0 -0.16719107222E+01  0.28517872848E+03  0.14496931632E+04  0.14802708888E+04  0.90895182258E+02 0.  0.
         11    1    3    3    0    0  0.29901195629E+02  0.20067927382E+02  0.77024783305E+02  0.85027174789E+02  0.00000000000E+00 0. -1.
        -11    1    3    3    0    0 -0.27539769266E+02 -0.13884488004E+02 -0.44219730306E+01  0.31157210142E+02  0.00000000000E+00 0.  1.
          4    1    5    5  502    0 -0.27137055931E+02 -0.92624038006E+02  0.78694695808E+02  0.12453307741E+03  0.00000000000E+00 0. -1.
          1    1    6    6  503    0  0.24357532416E+01 -0.58192943966E+01  0.66165388124E+02  0.66465447165E+02  0.00000000000E+00 0. -1.
         -4    1    5    5    0  502  0.26447540290E+02 -0.19873812985E+03  0.52568180426E+02  0.20726729177E+03  0.00000000000E+00 0.  1.
         -1    1    6    6    0  503 -0.41076639638E+01  0.29099802288E+03  0.13835277751E+04  0.14138054416E+04  0.00000000000E+00 0.  1.
<mgrwt>
<rscale>  0 0.99192387E+03</rscale>
<asrwt>0</asrwt>
<pdfrwt beam="1">  1        1 0.27552418E+00 0.99192387E+03</pdfrwt>
<pdfrwt beam="2">  1       -1 0.21130524E-01 0.99192387E+03</pdfrwt>
<totfact> 0.77493549E+01</totfact>
</mgrwt>
</event>
<event>
12    1  0.4247462E-008  0.1731469E+04  0.7818608E-02  0.8743617E-01
         -2   -1    0    0    0  501 -0.00000000000E+00  0.00000000000E+00  0.34069160842E+03  0.34069160842E+03  0.00000000000E+00 0.  1.
          2   -1    0    0  501    0  0.00000000000E+00 -0.00000000000E+00 -0.21999247349E+04  0.21999247349E+04  0.00000000000E+00 0. -1.
         23    2    1    2    0    0 -0.52970539279E+03  0.20799041616E+03 -0.10668774388E+04  0.12126046000E+04  0.91294196356E+02 0.  0.
        254    2    1    2    0    0  0.52970539279E+03 -0.20799041616E+03 -0.79235568768E+03  0.13280117433E+04  0.90107704335E+03 0.  0.
         23    2    4    4    0    0  0.18031966866E+03 -0.51331885769E+03 -0.60431351694E+03  0.81849636969E+03  0.93434725179E+02 0.  0.
         23    2    4    4    0    0  0.34938572414E+03  0.30532844153E+03 -0.18804217074E+03  0.50951537357E+03  0.94605583798E+02 0.  0.
         13    1    3    3    0    0  0.18760396088E+01  0.78566145274E+01 -0.11060208196E+02  0.13695770215E+02  0.00000000000E+00 0.  1.
        -13    1    3    3    0    0 -0.53158143240E+03  0.20013380163E+03 -0.10558172306E+04  0.11989088298E+04  0.00000000000E+00 0. -1.
          2    1    5    5  502    0  0.11549517778E+03 -0.31261948269E+03 -0.43525469526E+03  0.54819405943E+03  0.00000000000E+00 0. -1.
          4    1    6    6  503    0  0.78303124319E+02  0.11984059072E+03 -0.78486389918E+02  0.16325826124E+03  0.00000000000E+00 0.  1.
         -2    1    5    5    0  502  0.64824490871E+02 -0.20069937500E+03 -0.16905882169E+03  0.27030231026E+03  0.00000000000E+00 0.  1.
         -4    1    6    6    0  503  0.27108259982E+03  0.18548785081E+03 -0.10955578082E+03  0.34625711232E+03  0.00000000000E+00 0. -1.
<mgrwt>
<rscale>  0 0.17314686E+04</rscale>
<asrwt>0</asrwt>
<pdfrwt beam="1">  1        2 0.33844996E+00 0.17314686E+04</pdfrwt>
<pdfrwt beam="2">  1       -2 0.52414093E-01 0.17314686E+04</pdfrwt>
<totfact> 0.16846634E+01</totfact>
</mgrwt>
</event>
<event>
12    1  0.4247462E-008  0.1521956E+04  0.7818608E-02  0.8869982E-01
         -2   -1    0    0    0  501 -0.00000000000E+00  0.00000000000E+00  0.10726948744E+04  0.10726948744E+04  0.00000000000E+00 0.  1.
          2   -1    0    0  501    0  0.00000000000E+00 -0.00000000000E+00 -0.53984400440E+03  0.53984400440E+03  0.00000000000E+00 0. -1.
         23    2    1    2    0    0  0.13008888579E+03 -0.44583836504E+02  0.66880045424E+03  0.68962116807E+03  0.96811523945E+02 0.  0.
        254    2    1    2    0    0 -0.13008888579E+03  0.44583836504E+02 -0.13594958420E+03  0.92291771077E+03  0.90243225492E+03 0.  0.
         23    2    4    4    0    0  0.16373004445E+03 -0.22490657175E+03 -0.35377095303E+03  0.45970961448E+03  0.93747261109E+02 0.  0.
         23    2    4    4    0    0 -0.29381893024E+03  0.26949040825E+03  0.21782136884E+03  0.46320809629E+03  0.90337964535E+02 0.  0.
         11    1    3    3    0    0 -0.59991794838E+01  0.28018500670E+01  0.17750394867E+03  0.17762739741E+03  0.00000000000E+00 0. -1.
        -11    1    3    3    0    0  0.13608806527E+03 -0.47385686571E+02  0.49129650558E+03  0.51199377066E+03  0.00000000000E+00 0.  1.
          4    1    5    5  502    0  0.94618994152E+02 -0.93574591645E+02 -0.23320093048E+03  0.26849884959E+03  0.00000000000E+00 0. -1.
          1    1    6    6  503    0 -0.17526619847E+03  0.14062018934E+03  0.16977197381E+03  0.28162883564E+03  0.00000000000E+00 0. -1.
         -4    1    5    5    0  502  0.69111050301E+02 -0.13133198010E+03 -0.12057002256E+03  0.19121076489E+03  0.00000000000E+00 0.  1.
         -1    1    6    6    0  503 -0.11855273177E+03  0.12887021892E+03  0.48049395031E+02  0.18157926064E+03  0.00000000000E+00 0.  1.
<mgrwt>
<rscale>  0 0.15219565E+04</rscale>
<asrwt>0</asrwt>
<pdfrwt beam="1">  1        2 0.83052924E-01 0.15219565E+04</pdfrwt>
<pdfrwt beam="2">  1       -2 0.16502998E+00 0.15219565E+04</pdfrwt>
<totfact> 0.12550318E+01</totfact>
</mgrwt>
</event>
<event>
12    1  0.4247462E-008  0.1342997E+04  0.7818608E-02  0.8996146E-01
         -1   -1    0    0    0  501 -0.00000000000E+00  0.00000000000E+00  0.10824828111E+04  0.10824828111E+04  0.00000000000E+00 0.  1.
          1   -1    0    0  501    0  0.00000000000E+00 -0.00000000000E+00 -0.41655176140E+03  0.41655176140E+03  0.00000000000E+00 0. -1.
         23    2    1    2    0    0  0.47129916627E+02 -0.31556266888E+03  0.34999660742E+03  0.48302855180E+03  0.94962780146E+02 0.  0.
        254    2    1    2    0    0 -0.47129916627E+02  0.31556266888E+03  0.31593444227E+03  0.10160060207E+04  0.91140146765E+03 0.  0.
         23    2    4    4    0    0  0.11748158110E+03 -0.29128983819E+03  0.67907298928E+02  0.33419664649E+03  0.91784015735E+02 0.  0.
         23    2    4    4    0    0 -0.16461149773E+03  0.60685250707E+03  0.24802714334E+03  0.68180937421E+03  0.89328877728E+02 0.  0.
         13    1    3    3    0    0 -0.22512593581E+02 -0.23276482962E+02  0.36417765957E+02  0.48732588748E+02  0.00000000000E+00 0. -1.
        -13    1    3    3    0    0  0.69642510208E+02 -0.29228618592E+03  0.31357884146E+03  0.43429596305E+03  0.00000000000E+00 0.  1.
          2    1    5    5  502    0 -0.35374984692E+01 -0.10343091994E+03  0.27809584509E+02  0.10716268980E+03  0.00000000000E+00 0.  1.
          4    1    6    6  503    0 -0.14278428233E+03  0.36365332829E+03  0.16170384086E+03  0.42282292582E+03  0.00000000000E+00 0. -1.
         -2    1    5    5    0  502  0.12101907957E+03 -0.18785891825E+03  0.40097714419E+02  0.22703395668E+03  0.00000000000E+00 0. -1.
         -4    1    6    6    0  503 -0.21827215403E+02  0.24319917879E+03  0.86323302484E+02  0.25898644838E+03  0.00000000000E+00 0.  1.
<mgrwt>
<rscale>  0 0.13429968E+04</rscale>
<asrwt>0</asrwt>
<pdfrwt beam="1">  1        1 0.64084887E-01 0.13429968E+04</pdfrwt>
<pdfrwt beam="2">  1       -1 0.16653582E+00 0.13429968E+04</pdfrwt>
<totfact> 0.14525900E+01</totfact>
</mgrwt>
</event>
<event>
12    1  0.4247462E-008  0.1666516E+04  0.7818608E-02  0.8780695E-01
         -2   -1    0    0    0  501 -0.00000000000E+00  0.00000000000E+00  0.12338149666E+04  0.12338149666E+04  0.00000000000E+00 0.  1.
          2   -1    0    0  501    0  0.00000000000E+00 -0.00000000000E+00 -0.56274141407E+03  0.56274141407E+03  0.00000000000E+00 0. -1.
         23    2    1    2    0    0  0.42713478085E+03 -0.36553716371E+03  0.37558479411E+03  0.68198052821E+03  0.89285856792E+02 0.  0.
        254    2    1    2    0    0 -0.42713478085E+03  0.36553716371E+03  0.29548875844E+03  0.11145758525E+04  0.91591712807E+03 0.  0.
         23    2    4    4    0    0 -0.77667164459E+02 -0.45114089717E+02 -0.28776512585E+03  0.31500094804E+03  0.91374832856E+02 0.  0.
         23    2    4    4    0    0 -0.34946761640E+03  0.41065125342E+03  0.58325388429E+03  0.79957490444E+03  0.91503373852E+02 0.  0.
         11    1    3    3    0    0  0.34992074070E+03 -0.27769696913E+03  0.25674919415E+03  0.51524778518E+03  0.00000000000E+00 0.  1.
        -11    1    3    3    0    0  0.77214040155E+02 -0.87840194574E+02  0.11883559996E+03  0.16673274303E+03  0.00000000000E+00 0. -1.
          3    1    5    5  502    0  0.60317536463E+01 -0.32393114892E+02 -0.33401872558E+02  0.46918877169E+02  0.00000000000E+00 0. -1.
          3    1    6    6  503    0 -0.14398915538E+03  0.11753920816E+03  0.16004533020E+03  0.24528116528E+03  0.00000000000E+00 0. -1.
         -3    1    5    5    0  502 -0.83698918105E+02 -0.12720974825E+02 -0.25436325330E+03  0.26808207087E+03  0.00000000000E+00 0.  1.
         -3    1    6    6    0  503 -0.20547846102E+03  0.29311204526E+03  0.42320855410E+03  0.55429373916E+03  0.00000000000E+00 0.  1.
<mgrwt>
<rscale>  0 0.16665159E+04</rscale>
<asrwt>0</asrwt>
<pdfrwt beam="1">  1        2 0.86575602E-01 0.16665159E+04</pdfrwt>
<pdfrwt beam="2">  1       -2 0.18981769E+00 0.16665159E+04</pdfrwt>
<totfact> 0.79366017E+00</totfact>
</mgrwt>
</event>
<event>
12    1  0.4247462E-008  0.2379319E+04  0.7818608E-02  0.8447287E-01
          2   -1    0    0  501    0  0.00000000000E+00  0.00000000000E+00  0.19649025157E+04  0.19649025157E+04  0.00000000000E+00 0. -1.
         -2   -1    0    0    0  501 -0.00000000000E+00 -0.00000000000E+00 -0.72028513115E+03  0.72028513115E+03  0.00000000000E+00 0.  1.
         23    2    1    2    0    0 -0.61311738807E+02  0.19363445333E+03 -0.58911343499E+03  0.62895251041E+03  0.85283000902E+02 0.  0.
        254    2    1    2    0    0  0.61311738807E+02 -0.19363445333E+03  0.18337308195E+04  0.20562351364E+04  0.90789910617E+03 0.  0.
         23    2    4    4    0    0  0.45623665594E+03 -0.19746890946E+03  0.12207780618E+04  0.13213623190E+04  0.92484839460E+02 0.  0.
         23    2    4    4    0    0 -0.39492491713E+03  0.38344561347E+01  0.61295275772E+03  0.73487281740E+03  0.91359626402E+02 0.  0.
         11    1    3    3    0    0 -0.12228525031E+00  0.73425908376E+02 -0.31505749493E+03  0.32350054728E+03  0.00000000000E+00 0. -1.
        -11    1    3    3    0    0 -0.61189453557E+02  0.12020854495E+03 -0.27405594005E+03  0.30545196314E+03  0.00000000000E+00 0.  1.
          2    1    5    5  502    0  0.64288320784E+02 -0.51121055939E+02  0.27890495027E+03  0.29074786644E+03  0.00000000000E+00 0.  1.
          1    1    6    6  503    0 -0.38507942998E+03 -0.12003303745E+02  0.59593974735E+03  0.70962978318E+03  0.00000000000E+00 0. -1.
         -2    1    5    5    0  502  0.39194833516E+03 -0.14634785352E+03  0.94187311150E+03  0.10306144526E+04  0.00000000000E+00 0. -1.
         -1    1    6    6    0  503 -0.98454871498E+01  0.15837759880E+02  0.17013010367E+02  0.25243034227E+02  0.00000000000E+00 0.  1.
<mgrwt>
<rscale>  0 0.23793193E+04</rscale>
<asrwt>0</asrwt>
<pdfrwt beam="1">  1        2 0.30229269E+00 0.23793193E+04</pdfrwt>
<pdfrwt beam="2">  1       -2 0.11081310E+00 0.23793193E+04</pdfrwt>
<totfact> 0.40625506E+00</totfact>
</mgrwt>
</event>
<event>
12    1  0.4247462E-008  0.2983287E+04  0.7818608E-02  0.8248520E-01
          1   -1    0    0  501    0  0.00000000000E+00  0.00000000000E+00  0.19014719830E+04  0.19014719830E+04  0.00000000000E+00 0. -1.
         -1   -1    0    0    0  501 -0.00000000000E+00 -0.00000000000E+00 -0.11701461440E+04  0.11701461440E+04  0.00000000000E+00 0.  1.
         23    2    1    2    0    0  0.62595860697E+03  0.11818863813E+04  0.12676827261E+03  0.13464378973E+04  0.90250874456E+02 0.  0.
        254    2    1    2    0    0 -0.62595860697E+03 -0.11818863813E+04  0.60455756636E+03  0.17251802297E+04  0.90668482836E+03 0.  0.
         23    2    4    4    0    0 -0.75213200049E+03 -0.10327642147E+04  0.24218313021E+03  0.13035737982E+04  0.91364705567E+02 0.  0.
         23    2    4    4    0    0  0.12617339352E+03 -0.14912216653E+03  0.36237443614E+03  0.42160643147E+03  0.90992336521E+02 0.  0.
         11    1    3    3    0    0  0.41006831180E+03  0.80625926150E+03  0.12530014194E+03  0.91318680601E+03  0.00000000000E+00 0. -1.
        -11    1    3    3    0    0  0.21589029517E+03  0.37562711977E+03  0.14681306721E+01  0.43325109124E+03  0.00000000000E+00 0.  1.
          4    1    6    6  502    0  0.26729036238E+02  0.31664444753E+01  0.91165366087E+02  0.95055729562E+02  0.00000000000E+00 0. -1.
          4    1    5    5  503    0 -0.10643020659E+02 -0.40748252492E+01 -0.34976387736E+01  0.11921055597E+02  0.00000000000E+00 0. -1.
         -4    1    5    5    0  503 -0.74148897983E+03 -0.10286893895E+04  0.24568076899E+03  0.12916527426E+04  0.00000000000E+00 0.  1.
         -4    1    6    6    0  502  0.99444357278E+02 -0.15228861101E+03  0.27120907006E+03  0.32655070191E+03  0.00000000000E+00 0.  1.
<mgrwt>
<rscale>  0 0.29832869E+04</rscale>
<asrwt>0</asrwt>
<pdfrwt beam="1">  1        1 0.29253415E+00 0.29832869E+04</pdfrwt>
<pdfrwt beam="2">  1       -1 0.18002248E+00 0.29832869E+04</pdfrwt>
<totfact> 0.61632623E-01</totfact>
</mgrwt>
</event>
<event>
12    1  0.4247462E-008  0.1359221E+04  0.7818608E-02  0.8983877E-01
         -1   -1    0    0    0  501 -0.00000000000E+00  0.00000000000E+00  0.61308022276E+03  0.61308022276E+03  0.00000000000E+00 0.  1.
          1   -1    0    0  501    0  0.00000000000E+00 -0.00000000000E+00 -0.75336000736E+03  0.75336000736E+03  0.00000000000E+00 0. -1.
         23    2    1    2    0    0 -0.40612539604E+02 -0.27459691696E+03 -0.28521792463E+03  0.40863734859E+03  0.92641097512E+02 0.  0.
        254    2    1    2    0    0  0.40612539604E+02  0.27459691696E+03  0.14493814003E+03  0.95780288153E+03  0.90516653178E+03 0.  0.
         23    2    4    4    0    0 -0.21695918982E+03  0.33175220091E+03 -0.24599068566E+03  0.47733996181E+03  0.10105052623E+03 0.  0.
         23    2    4    4    0    0  0.25757172942E+03 -0.57155283944E+02  0.39092882569E+03  0.48046291973E+03  0.91702498324E+02 0.  0.
         13    1    3    3    0    0  0.10704268535E+02 -0.13507816099E+02  0.17116245522E+01  0.17319703209E+02  0.00000000000E+00 0.  1.
        -13    1    3    3    0    0 -0.51316808139E+02 -0.26108910086E+03 -0.28692954919E+03  0.39131764538E+03  0.00000000000E+00 0. -1.
          1    1    5    5  502    0 -0.11647710236E+03  0.89808419616E+02 -0.90407520254E+02  0.17264410597E+03  0.00000000000E+00 0. -1.
          3    1    6    6  503    0  0.17781991456E+03 -0.92820642800E+00  0.28923072190E+03  0.33952200823E+03  0.00000000000E+00 0. -1.
         -1    1    5    5    0  502 -0.10048208746E+03  0.24194378129E+03 -0.15558316541E+03  0.30469585584E+03  0.00000000000E+00 0.  1.
         -3    1    6    6    0  503  0.79751814856E+02 -0.56227077516E+02  0.10169810379E+03  0.14094091149E+03  0.00000000000E+00 0.  1.
<mgrwt>
<rscale>  0 0.13592205E+04</rscale>
<asrwt>0</asrwt>
<pdfrwt beam="1">  1        1 0.11590154E+00 0.13592205E+04</pdfrwt>
<pdfrwt beam="2">  1       -1 0.94320034E-01 0.13592205E+04</pdfrwt>
<totfact> 0.25899604E+01</totfact>
</mgrwt>
</event>
<event>
12    1  0.4247462E-008  0.1506052E+04  0.7818608E-02  0.8880438E-01
         -2   -1    0    0    0  501 -0.00000000000E+00  0.00000000000E+00  0.66201987832E+03  0.66201987832E+03  0.00000000000E+00 0.  1.
          2   -1    0    0  501    0  0.00000000000E+00 -0.00000000000E+00 -0.85654277205E+03  0.85654277205E+03  0.00000000000E+00 0. -1.
         23    2    1    2    0    0 -0.39502610370E+03  0.22478825569E+03 -0.20233731992E+03  0.50559170961E+03  0.90040009431E+02 0.  0.
        254    2    1    2    0    0  0.39502610370E+03 -0.22478825569E+03  0.78144261885E+01  0.10129709408E+04  0.90524785504E+03 0.  0.
         23    2    4    4    0    0 -0.72819535444E+02  0.18713901758E+02 -0.34956532979E+03  0.36970593039E+03  0.93987554019E+02 0.  0.
         23    2    4    4    0    0  0.46784563914E+03 -0.24350215745E+03  0.35737975598E+03  0.64326501037E+03  0.88863608014E+02 0.  0.
         11    1    3    3    0    0 -0.74883881040E+02  0.14420345140E+02 -0.99033422357E+01  0.76900053192E+02  0.00000000000E+00 0.  1.
        -11    1    3    3    0    0 -0.32014222266E+03  0.21036791055E+03 -0.19243397768E+03  0.42869165642E+03  0.00000000000E+00 0. -1.
          4    1    5    5  502    0 -0.72896710701E+02  0.18403946891E+02 -0.35570201247E+03  0.36356094037E+03  0.00000000000E+00 0. -1.
          3    1    6    6  503    0  0.41058922203E+03 -0.20005431370E+03  0.33980147638E+03  0.56927171107E+03  0.00000000000E+00 0. -1.
         -4    1    5    5    0  502  0.77175256161E-01  0.30995486719E+00  0.61366826747E+01  0.61449900154E+01  0.00000000000E+00 0.  1.
         -3    1    6    6    0  503  0.57256417113E+02 -0.43447843744E+02  0.17578279604E+02  0.73993299294E+02  0.00000000000E+00 0.  1.
<mgrwt>
<rscale>  0 0.15060522E+04</rscale>
<asrwt>0</asrwt>
<pdfrwt beam="1">  1        2 0.13177581E+00 0.15060522E+04</pdfrwt>
<pdfrwt beam="2">  1       -2 0.10184921E+00 0.15060522E+04</pdfrwt>
<totfact> 0.23988767E+01</totfact>
</mgrwt>
</event>
<event>
12    1  0.4247462E-008  0.1788609E+04  0.7818608E-02  0.8712381E-01
         -2   -1    0    0    0  501 -0.00000000000E+00  0.00000000000E+00  0.24847730415E+03  0.24847730415E+03  0.00000000000E+00 0.  1.
          2   -1    0    0  501    0  0.00000000000E+00 -0.00000000000E+00 -0.32187257518E+04  0.32187257518E+04  0.00000000000E+00 0. -1.
         23    2    1    2    0    0 -0.11434549323E+03 -0.20136955982E+03 -0.23456412844E+04  0.23587676598E+04  0.90151244072E+02 0.  0.
        254    2    1    2    0    0  0.11434549323E+03  0.20136955982E+03 -0.62460716332E+03  0.11084353961E+04  0.88592907588E+03 0.  0.
         23    2    4    4    0    0  0.84054333013E+02  0.29358539088E+03  0.12788664529E+03  0.34350890211E+03  0.91574336759E+02 0.  0.
         23    2    4    4    0    0  0.30291160213E+02 -0.92215831053E+02 -0.75249380861E+03  0.76492649402E+03  0.97181764666E+02 0.  0.
         11    1    3    3    0    0 -0.12290181177E+03 -0.20509823810E+03 -0.22468615739E+04  0.22595479802E+04  0.00000000000E+00 0. -1.
        -11    1    3    3    0    0  0.85563185432E+01  0.37286782778E+01 -0.98779710496E+02  0.99219679673E+02  0.00000000000E+00 0.  1.
          4    1    5    5  502    0 -0.10018964968E+02  0.13350962543E+01 -0.17245973092E+01  0.10253603118E+02  0.00000000000E+00 0.  1.
          3    1    6    6  503    0  0.29597577332E+02 -0.29410715680E+02 -0.57744520323E+03  0.57895074878E+03  0.00000000000E+00 0. -1.
         -4    1    5    5    0  502  0.94073297981E+02  0.29225029462E+03  0.12961124260E+03  0.33325529899E+03  0.00000000000E+00 0. -1.
         -3    1    6    6    0  503  0.69358288073E+00 -0.62805115373E+02 -0.17504860538E+03  0.18597574525E+03  0.00000000000E+00 0.  1.
<mgrwt>
<rscale>  0 0.17886087E+04</rscale>
<asrwt>0</asrwt>
<pdfrwt beam="1">  1        2 0.49518856E+00 0.17886087E+04</pdfrwt>
<pdfrwt beam="2">  1       -2 0.38227279E-01 0.17886087E+04</pdfrwt>
<totfact> 0.77413654E+00</totfact>
</mgrwt>
</event>
<event>
12    1  0.4247462E-008  0.2074197E+04  0.7818608E-02  0.8572696E-01
          1   -1    0    0  501    0  0.00000000000E+00  0.00000000000E+00  0.45163476710E+03  0.45163476710E+03  0.00000000000E+00 0. -1.
         -1   -1    0    0    0  501 -0.00000000000E+00 -0.00000000000E+00 -0.23815113730E+04  0.23815113730E+04  0.00000000000E+00 0.  1.
         23    2    1    2    0    0  0.27093047004E+03  0.78215632666E+03 -0.97672714485E+03  0.12835797305E+04  0.91701527433E+02 0.  0.
        254    2    1    2    0    0 -0.27093047004E+03 -0.78215632666E+03 -0.95314946105E+03  0.15495664096E+04  0.89860465375E+03 0.  0.
         23    2    4    4    0    0 -0.10980882612E+03  0.25125138974E+02 -0.65354980053E+03  0.66925684837E+03  0.89934067051E+02 0.  0.
         23    2    4    4    0    0 -0.16112164392E+03 -0.80728146564E+03 -0.29959966052E+03  0.88030956123E+03  0.86726109772E+02 0.  0.
         11    1    3    3    0    0  0.45421368211E+02  0.13398055950E+03 -0.11739646109E+03  0.18383639490E+03  0.00000000000E+00 0. -1.
        -11    1    3    3    0    0  0.22550910183E+03  0.64817576716E+03 -0.85933068376E+03  0.10997433356E+04  0.00000000000E+00 0.  1.
          2    1    5    5  502    0 -0.63648913387E+02  0.50003240332E+02 -0.51095172927E+03  0.51732308847E+03  0.00000000000E+00 0. -1.
          4    1    6    6  503    0 -0.10321821235E+03 -0.68164843171E+03 -0.24834656615E+03  0.73278550799E+03  0.00000000000E+00 0. -1.
         -2    1    5    5    0  502 -0.46159912738E+02 -0.24878101358E+02 -0.14259807126E+03  0.15193375990E+03  0.00000000000E+00 0.  1.
         -4    1    6    6    0  503 -0.57903431563E+02 -0.12563303393E+03 -0.51253094368E+02  0.14752405324E+03  0.00000000000E+00 0.  1.
<mgrwt>
<rscale>  0 0.20741970E+04</rscale>
<asrwt>0</asrwt>
<pdfrwt beam="1">  1        1 0.69482272E-01 0.20741970E+04</pdfrwt>
<pdfrwt beam="2">  1       -1 0.36638636E+00 0.20741970E+04</pdfrwt>
<totfact> 0.56825500E-01</totfact>
</mgrwt>
</event>
<event>
12    1  0.4247462E-008  0.1090021E+04  0.7818608E-02  0.9214973E-01
         -4   -1    0    0    0  501 -0.00000000000E+00  0.00000000000E+00  0.52212273110E+03  0.52212273110E+03  0.00000000000E+00 0.  1.
          4   -1    0    0  501    0  0.00000000000E+00 -0.00000000000E+00 -0.56890112209E+03  0.56890112209E+03  0.00000000000E+00 0. -1.
         23    2    1    2    0    0  0.50191757778E+02 -0.11420601095E+03 -0.19145938719E+02  0.15525435767E+03  0.90416387442E+02 0.  0.
        254    2    1    2    0    0 -0.50191757778E+02  0.11420601095E+03 -0.27632452269E+02  0.93576949553E+03  0.92700527013E+03 0.  0.
         23    2    4    4    0    0  0.23772388305E+03 -0.14470690338E+03 -0.32604442813E+03  0.43771320134E+03  0.88516354724E+02 0.  0.
         23    2    4    4    0    0 -0.28791564083E+03  0.25891291434E+03  0.29841197586E+03  0.49805629419E+03  0.95284056388E+02 0.  0.
         11    1    3    3    0    0  0.66333759092E+02 -0.11854628701E+03 -0.23779113533E+02  0.13790879594E+03  0.00000000000E+00 0. -1.
        -11    1    3    3    0    0 -0.16142001314E+02  0.43402760522E+01  0.46331748141E+01  0.17345561723E+02  0.00000000000E+00 0.  1.
          4    1    6    6  502    0  0.57828964689E+01  0.58449356723E+01  0.17368427862E+02  0.19216332922E+02  0.00000000000E+00 0. -1.
          4    1    5    5  503    0  0.11500401451E+03 -0.36836649170E+02 -0.89875448007E+02  0.15053391056E+03  0.00000000000E+00 0. -1.
         -4    1    5    5    0  503  0.12271986854E+03 -0.10787025421E+03 -0.23616898012E+03  0.28717929078E+03  0.00000000000E+00 0.  1.
         -4    1    6    6    0  502 -0.29369853729E+03  0.25306797866E+03  0.28104354800E+03  0.47883996127E+03  0.00000000000E+00 0.  1.
<mgrwt>
<rscale>  0 0.10900206E+04</rscale>
<asrwt>0</asrwt>
<pdfrwt beam="1">  1        4 0.87523250E-01 0.10900206E+04</pdfrwt>
<pdfrwt beam="2">  1       -4 0.80326574E-01 0.10900206E+04</pdfrwt>
<totfact> 0.30700740E+00</totfact>
</mgrwt>
</event>
<event>
12    1  0.4247462E-008  0.2386409E+04  0.7818608E-02  0.8444610E-01
          2   -1    0    0  501    0  0.00000000000E+00  0.00000000000E+00  0.19833056319E+04  0.19833056319E+04  0.00000000000E+00 0. -1.
         -2   -1    0    0    0  501 -0.00000000000E+00 -0.00000000000E+00 -0.71786036075E+03  0.71786036075E+03  0.00000000000E+00 0.  1.
         23    2    1    2    0    0  0.64538819047E+03 -0.53170020311E+03  0.12054711262E+04  0.14699027886E+04  0.90678274126E+02 0.  0.
        254    2    1    2    0    0 -0.64538819047E+03  0.53170020311E+03  0.59974144916E+02  0.12312632040E+04  0.90176557773E+03 0.  0.
         23    2    4    4    0    0 -0.85277506846E+03  0.51756712142E+03  0.60590401926E+02  0.10035783628E+04  0.91636732925E+02 0.  0.
         23    2    4    4    0    0  0.20738687799E+03  0.14133081682E+02 -0.61625700955E+00  0.22768484128E+03  0.92902884877E+02 0.  0.
         13    1    3    3    0    0  0.80825832531E+02 -0.56061473882E+02  0.19607849468E+03  0.21936836630E+03  0.00000000000E+00 0.  1.
        -13    1    3    3    0    0  0.56456235794E+03 -0.47563872922E+03  0.10093926315E+04  0.12505344223E+04  0.00000000000E+00 0. -1.
          2    1    5    5  502    0 -0.58838788680E+03  0.39800841702E+03  0.20473292077E+02  0.71065474110E+03  0.00000000000E+00 0.  1.
          3    1    6    6  503    0  0.33887706177E+02  0.39237740259E+02 -0.66781226209E+01  0.52274029998E+02  0.00000000000E+00 0. -1.
         -2    1    5    5    0  502 -0.26438718166E+03  0.11955870440E+03  0.40117109849E+02  0.29292362166E+03  0.00000000000E+00 0. -1.
         -3    1    6    6    0  503  0.17349917181E+03 -0.25104658576E+02  0.60618656114E+01  0.17541081128E+03  0.00000000000E+00 0.  1.
<mgrwt>
<rscale>  0 0.23864086E+04</rscale>
<asrwt>0</asrwt>
<pdfrwt beam="1">  1        2 0.30512394E+00 0.23864086E+04</pdfrwt>
<pdfrwt beam="2">  1       -2 0.11044006E+00 0.23864086E+04</pdfrwt>
<totfact> 0.39981738E+00</totfact>
</mgrwt>
</event>
<event>
12    1  0.4247462E-008  0.1232311E+04  0.7818608E-02  0.9085036E-01
          2   -1    0    0  501    0  0.00000000000E+00  0.00000000000E+00  0.11373411042E+04  0.11373411042E+04  0.00000000000E+00 0.  1.
         -2   -1    0    0    0  501 -0.00000000000E+00 -0.00000000000E+00 -0.33380252061E+03  0.33380252061E+03  0.00000000000E+00 0. -1.
         23    2    1    2    0    0  0.23140806946E+03  0.38459073000E+02  0.31793433529E+02  0.25532866592E+03  0.95671888857E+02 0.  0.
        254    2    1    2    0    0 -0.23140806946E+03 -0.38459073000E+02  0.77174515006E+03  0.12158149589E+04  0.90971789182E+03 0.  0.
         23    2    4    4    0    0  0.19897827768E+03 -0.33389148191E+03  0.42231048673E+03  0.58121765002E+03  0.91607493221E+02 0.  0.
         23    2    4    4    0    0 -0.43038634714E+03  0.29543240891E+03  0.34943466334E+03  0.63459730887E+03  0.89980244728E+02 0.  0.
         11    1    3    3    0    0  0.24075528010E+02  0.66693287741E+01  0.38005629913E+02  0.45481192820E+02  0.00000000000E+00 0.  1.
        -11    1    3    3    0    0  0.20733254145E+03  0.31789744226E+02 -0.62121963846E+01  0.20984747310E+03  0.00000000000E+00 0. -1.
          3    1    5    5  502    0  0.14316250422E+03 -0.23249088318E+03  0.35312763312E+03  0.44637051722E+03  0.00000000000E+00 0. -1.
          3    1    6    6  503    0 -0.41871747539E+03  0.30184771884E+03  0.34346926633E+03  0.62000605358E+03  0.00000000000E+00 0. -1.
         -3    1    5    5    0  502  0.55815773458E+02 -0.10140059873E+03  0.69182853611E+02  0.13484713280E+03  0.00000000000E+00 0.  1.
         -3    1    6    6    0  503 -0.11668871753E+02 -0.64153099265E+01  0.59653970072E+01  0.14591255288E+02  0.00000000000E+00 0.  1.
<mgrwt>
<rscale>  0 0.12323106E+04</rscale>
<asrwt>0</asrwt>
<pdfrwt beam="1">  1        2 0.17497555E+00 0.12323106E+04</pdfrwt>
<pdfrwt beam="2">  1       -2 0.51354234E-01 0.12323106E+04</pdfrwt>
<totfact> 0.72888491E+01</totfact>
</mgrwt>
</event>
<event>
12    1  0.4247462E-008  0.3513008E+04  0.7818608E-02  0.8110714E-01
          2   -1    0    0  501    0  0.00000000000E+00  0.00000000000E+00  0.14402894840E+04  0.14402894840E+04  0.00000000000E+00 0. -1.
         -2   -1    0    0    0  501 -0.00000000000E+00 -0.00000000000E+00 -0.21421434818E+04  0.21421434818E+04  0.00000000000E+00 0.  1.
         23    2    1    2    0    0 -0.11112753164E+04  0.83662903518E+03  0.55675690615E+03  0.15011187382E+04  0.92185911373E+02 0.  0.
        254    2    1    2    0    0  0.11112753164E+04 -0.83662903518E+03 -0.12586109040E+04  0.20813142276E+04  0.90160220444E+03 0.  0.
         23    2    4    4    0    0  0.18486899511E+03  0.10935700763E+03 -0.50142990261E+03  0.55334592083E+03  0.92866896133E+02 0.  0.
         23    2    4    4    0    0  0.92640632131E+03 -0.94598604281E+03 -0.75718100138E+03  0.15279683068E+04  0.90806455398E+02 0.  0.
         11    1    3    3    0    0 -0.98735936366E+03  0.73645040085E+03  0.52322631694E+03  0.13382837833E+04  0.00000000000E+00 0.  1.
        -11    1    3    3    0    0 -0.12391595276E+03  0.10017863433E+03  0.33530589210E+02  0.16283495490E+03  0.00000000000E+00 0. -1.
          4    1    5    5  502    0  0.25202949190E+02  0.98931473267E+01 -0.13182472997E+02  0.30113794284E+02  0.00000000000E+00 0. -1.
          3    1    6    6  503    0  0.10619458004E+03 -0.13560643280E+03 -0.71668904936E+02  0.18655515373E+03  0.00000000000E+00 0. -1.
         -4    1    5    5    0  502  0.15966604592E+03  0.99463860306E+02 -0.48824742961E+03  0.52323212655E+03  0.00000000000E+00 0.  1.
         -3    1    6    6    0  503  0.82021174127E+03 -0.81037961001E+03 -0.68551209644E+03  0.13414131531E+04  0.00000000000E+00 0.  1.
<mgrwt>
<rscale>  0 0.35130082E+04</rscale>
<asrwt>0</asrwt>
<pdfrwt beam="1">  1        2 0.22158300E+00 0.35130082E+04</pdfrwt>
<pdfrwt beam="2">  1       -2 0.32956053E+00 0.35130082E+04</pdfrwt>
<totfact> 0.23525684E-01</totfact>
</mgrwt>
</event>
<event>
12    1  0.4247462E-008  0.1893460E+04  0.7818608E-02  0.8658119E-01
          2   -1    0    0  501    0  0.00000000000E+00  0.00000000000E+00  0.26334942730E+04  0.26334942730E+04  0.00000000000E+00 0.  1.
         -2   -1    0    0    0  501 -0.00000000000E+00 -0.00000000000E+00 -0.34034545604E+03  0.34034545604E+03  0.00000000000E+00 0. -1.
         23    2    1    2    0    0 -0.56654592323E+03 -0.50735619542E+02  0.14802458774E+04  0.15884444077E+04  0.92083616969E+02 0.  0.
        254    2    1    2    0    0  0.56654592323E+03  0.50735619542E+02  0.81290293955E+03  0.13853953214E+04  0.96693361773E+03 0.  0.
         23    2    4    4    0    0  0.56548828367E+03 -0.16744988982E+03  0.94286250873E+03  0.11159546451E+04  0.92458611892E+02 0.  0.
         23    2    4    4    0    0  0.10576395551E+01  0.21818550936E+03 -0.12995956918E+03  0.26944067629E+03  0.90015294944E+02 0.  0.
         11    1    3    3    0    0 -0.37813010919E+03 -0.38431745197E+02  0.11017307043E+04  0.11654483787E+04  0.00000000000E+00 0. -1.
        -11    1    3    3    0    0 -0.18841581403E+03 -0.12303874345E+02  0.37851517311E+03  0.42299602904E+03  0.00000000000E+00 0.  1.
          4    1    5    5  502    0  0.39292712610E+03 -0.85645171148E+02  0.69624049475E+03  0.80403833758E+03  0.00000000000E+00 0. -1.
          1    1    6    6  503    0  0.23009081487E+02  0.48632336894E+02 -0.69949242149E+02  0.88246351198E+02  0.00000000000E+00 0. -1.
         -4    1    5    5    0  502  0.17256115757E+03 -0.81804718667E+02  0.24662201398E+03  0.31191630749E+03  0.00000000000E+00 0.  1.
         -1    1    6    6    0  503 -0.21951441932E+02  0.16955317246E+03 -0.60010327029E+02  0.18119432509E+03  0.00000000000E+00 0.  1.
<mgrwt>
<rscale>  0 0.18934601E+04</rscale>
<asrwt>0</asrwt>
<pdfrwt beam="1">  1        2 0.40515295E+00 0.18934601E+04</pdfrwt>
<pdfrwt beam="2">  1       -2 0.52360841E-01 0.18934601E+04</pdfrwt>
<totfact> 0.93928914E+00</totfact>
</mgrwt>
</event>
<event>
12    1  0.4247462E-008  0.1708335E+04  0.7818608E-02  0.8756625E-01
         -1   -1    0    0    0  501 -0.00000000000E+00  0.00000000000E+00  0.91451846996E+03  0.91451846996E+03  0.00000000000E+00 0.  1.
          1   -1    0    0  501    0  0.00000000000E+00 -0.00000000000E+00 -0.79779942507E+03  0.79779942507E+03  0.00000000000E+00 0. -1.
         23    2    1    2    0    0  0.34433047701E+03 -0.44813908748E+03 -0.23689606183E+03  0.61963945565E+03  0.91875958545E+02 0.  0.
        254    2    1    2    0    0 -0.34433047701E+03  0.44813908748E+03  0.35361510671E+03  0.10926784394E+04  0.86574269219E+03 0.  0.
         23    2    4    4    0    0 -0.24511956270E+03 -0.11571360640E+03 -0.15015387268E+03  0.32372854233E+03  0.93705629019E+02 0.  0.
         23    2    4    4    0    0 -0.99210914309E+02  0.56385269388E+03  0.50376897939E+03  0.76894989706E+03  0.98631098956E+02 0.  0.
         13    1    3    3    0    0  0.31326246625E+03 -0.43998931846E+03 -0.21860009140E+03  0.58267484335E+03  0.00000000000E+00 0. -1.
        -13    1    3    3    0    0  0.31068010765E+02 -0.81497690182E+01 -0.18295970430E+02  0.36964612292E+02  0.00000000000E+00 0.  1.
          2    1    5    5  502    0 -0.40598059653E+02 -0.62554434874E+02 -0.50710574798E+02  0.90182161020E+02  0.00000000000E+00 0. -1.
          1    1    6    6  503    0 -0.33867131597E+02  0.42952736800E+03  0.39042567685E+03  0.58144041105E+03  0.00000000000E+00 0. -1.
         -2    1    5    5    0  502 -0.20452150305E+03 -0.53159171523E+02 -0.99443297886E+02  0.23354638131E+03  0.00000000000E+00 0.  1.
         -1    1    6    6    0  503 -0.65343782713E+02  0.13432532587E+03  0.11334330255E+03  0.18750948601E+03  0.00000000000E+00 0.  1.
<mgrwt>
<rscale>  0 0.17083352E+04</rscale>
<asrwt>0</asrwt>
<pdfrwt beam="1">  1        1 0.12273837E+00 0.17083352E+04</pdfrwt>
<pdfrwt beam="2">  1       -1 0.14069515E+00 0.17083352E+04</pdfrwt>
<totfact> 0.87389042E+00</totfact>
</mgrwt>
</event>
<event>
12    1  0.4247462E-008  0.1843769E+04  0.7818608E-02  0.8683364E-01
          2   -1    0    0  501    0  0.00000000000E+00  0.00000000000E+00  0.29651989317E+04  0.29651989317E+04  0.00000000000E+00 0. -1.
         -2   -1    0    0    0  501 -0.00000000000E+00 -0.00000000000E+00 -0.28661527082E+03  0.28661527082E+03  0.00000000000E+00 0.  1.
         23    2    1    2    0    0  0.29034593195E+03 -0.61949956462E+03  0.12771270564E+04  0.14516214551E+04  0.89837966083E+02 0.  0.
        254    2    1    2    0    0 -0.29034593195E+03  0.61949956462E+03  0.14014566046E+04  0.18001927474E+04  0.89918454317E+03 0.  0.
         23    2    4    4    0    0 -0.15273824939E+03 -0.27890931689E+02 -0.62480954665E+02  0.19128715221E+03  0.92628440591E+02 0.  0.
         23    2    4    4    0    0 -0.13760768256E+03  0.64739049631E+03  0.14639375592E+04  0.16089055952E+04  0.86102892082E+02 0.  0.
         13    1    3    3    0    0  0.29112349596E+03 -0.57209124934E+03  0.11713277142E+04  0.13356833089E+04  0.00000000000E+00 0. -1.
        -13    1    3    3    0    0 -0.77756401231E+00 -0.47408315288E+02  0.10579934213E+03  0.11593814627E+03  0.00000000000E+00 0.  1.
          2    1    5    5  502    0 -0.87577568882E+02 -0.59068004540E+02 -0.53756852320E+02  0.11852703870E+03  0.00000000000E+00 0. -1.
          4    1    6    6  503    0 -0.35455806731E+02  0.13317364373E+03  0.22864459252E+03  0.26696569686E+03  0.00000000000E+00 0. -1.
         -2    1    5    5    0  502 -0.65160680509E+02  0.31177072850E+02 -0.87241023445E+01  0.72760113508E+02  0.00000000000E+00 0.  1.
         -4    1    6    6    0  503 -0.10215187583E+03  0.51421685258E+03  0.12352929667E+04  0.13419398984E+04  0.00000000000E+00 0.  1.
<mgrwt>
<rscale>  0 0.18437693E+04</rscale>
<asrwt>0</asrwt>
<pdfrwt beam="1">  1        2 0.45618443E+00 0.18437693E+04</pdfrwt>
<pdfrwt beam="2">  1       -2 0.44094659E-01 0.18437693E+04</pdfrwt>
<totfact> 0.84271124E+00</totfact>
</mgrwt>
</event>
<event>
12    1  0.4247462E-008  0.4005610E+04  0.7818608E-02  0.8003416E-01
         -2   -1    0    0    0  501 -0.00000000000E+00  0.00000000000E+00  0.16609716317E+04  0.16609716317E+04  0.00000000000E+00 0.  1.
          2   -1    0    0  501    0  0.00000000000E+00 -0.00000000000E+00 -0.24149883166E+04  0.24149883166E+04  0.00000000000E+00 0. -1.
         23    2    1    2    0    0 -0.96139561420E+03 -0.30082904887E+02 -0.20253093422E+04  0.22438158221E+04  0.87435711766E+02 0.  0.
        254    2    1    2    0    0  0.96139561420E+03  0.30082904887E+02  0.12712926572E+04  0.18321441262E+04  0.90298425830E+03 0.  0.
         23    2    4    4    0    0  0.10648914959E+04 -0.15841479900E+03  0.98353177146E+03  0.14611133481E+04  0.91805904482E+02 0.  0.
         23    2    4    4    0    0 -0.10349588169E+03  0.18849770389E+03  0.28776088576E+03  0.37103077807E+03  0.92815564417E+02 0.  0.
         13    1    3    3    0    0 -0.32408163184E+03  0.16058263981E+02 -0.75799128519E+03  0.82452262574E+03  0.00000000000E+00 0.  1.
        -13    1    3    3    0    0 -0.63731398235E+03 -0.46141168868E+02 -0.12673180570E+04  0.14192931964E+04  0.00000000000E+00 0. -1.
          2    1    5    5  502    0  0.20191668853E+03 -0.16635314121E+02  0.23207231479E+03  0.30806597032E+03  0.00000000000E+00 0. -1.
          1    1    6    6  503    0  0.17036470809E+02  0.18402132305E+02  0.40246215727E+02  0.47419802734E+02  0.00000000000E+00 0. -1.
         -2    1    5    5    0  502  0.86297480736E+03 -0.14177948488E+03  0.75145945667E+03  0.11530473778E+04  0.00000000000E+00 0.  1.
         -1    1    6    6    0  503 -0.12053235250E+03  0.17009557158E+03  0.24751467004E+03  0.32361097533E+03  0.00000000000E+00 0.  1.
<mgrwt>
<rscale>  0 0.40056096E+04</rscale>
<asrwt>0</asrwt>
<pdfrwt beam="1">  1        2 0.37153666E+00 0.40056096E+04</pdfrwt>
<pdfrwt beam="2">  1       -2 0.25553410E+00 0.40056096E+04</pdfrwt>
<totfact> 0.18262764E-01</totfact>
</mgrwt>
</event>
<event>
12    1  0.4247462E-008  0.1089415E+04  0.7818608E-02  0.9215571E-01
         -1   -1    0    0    0  501 -0.00000000000E+00  0.00000000000E+00  0.17750535370E+03  0.17750535370E+03  0.00000000000E+00 0.  1.
          1   -1    0    0  501    0  0.00000000000E+00 -0.00000000000E+00 -0.16715326192E+04  0.16715326192E+04  0.00000000000E+00 0. -1.
         23    2    1    2    0    0  0.71360788265E+02 -0.54764773589E+02 -0.43431214623E+02  0.13651617665E+03  0.93052961030E+02 0.  0.
        254    2    1    2    0    0 -0.71360788265E+02  0.54764773589E+02 -0.14505960509E+04  0.17125217963E+04  0.90576512260E+03 0.  0.
         23    2    4    4    0    0 -0.31519052957E+02 -0.41142338011E+03 -0.54949478554E+03  0.69333234347E+03  0.92209385382E+02 0.  0.
         23    2    4    4    0    0 -0.39841735308E+02  0.46618815370E+03 -0.90110126535E+03  0.10191894528E+04  0.88571393660E+02 0.  0.
         13    1    3    3    0    0  0.61663025575E+02 -0.10259279736E+02 -0.61333134391E+02  0.87574739040E+02  0.00000000000E+00 0. -1.
        -13    1    3    3    0    0  0.96977626903E+01 -0.44505493853E+02  0.17901919768E+02  0.48941437613E+02  0.00000000000E+00 0.  1.
          2    1    5    5  502    0  0.17249050826E+02 -0.50727708124E+02 -0.38575140056E+02  0.66021750629E+02  0.00000000000E+00 0. -1.
          1    1    6    6  503    0  0.20096753948E+01  0.15189315543E+02 -0.79944930794E+02  0.81399914382E+02  0.00000000000E+00 0. -1.
         -2    1    5    5    0  502 -0.48768103783E+02 -0.36069567199E+03 -0.51091964549E+03  0.62731059284E+03  0.00000000000E+00 0.  1.
         -1    1    6    6    0  503 -0.41851410703E+02  0.45099883816E+03 -0.82115633456E+03  0.93778953843E+03  0.00000000000E+00 0.  1.
<mgrwt>
<rscale>  0 0.10894145E+04</rscale>
<asrwt>0</asrwt>
<pdfrwt beam="1">  1        1 0.25715887E+00 0.10894145E+04</pdfrwt>
<pdfrwt beam="2">  1       -1 0.27308516E-01 0.10894145E+04</pdfrwt>
<totfact> 0.59801925E+01</totfact>
</mgrwt>
</event>
<event>
12    1  0.4247462E-008  0.1710529E+04  0.7818608E-02  0.8755382E-01
         -1   -1    0    0    0  501 -0.00000000000E+00  0.00000000000E+00  0.55033805192E+03  0.55033805192E+03  0.00000000000E+00 0.  1.
          1   -1    0    0  501    0  0.00000000000E+00 -0.00000000000E+00 -0.13291415109E+04  0.13291415109E+04  0.00000000000E+00 0. -1.
         23    2    1    2    0    0 -0.14580395339E+03 -0.25906941716E+03 -0.88038357718E+03  0.93365089483E+03  0.90845994471E+02 0.  0.
        254    2    1    2    0    0  0.14580395339E+03  0.25906941716E+03  0.10158011817E+03  0.94582866803E+03  0.89213092824E+03 0.  0.
         23    2    4    4    0    0 -0.40418413115E+02  0.18645506903E+03 -0.36939779845E+03  0.42599354448E+03  0.92825780648E+02 0.  0.
         23    2    4    4    0    0  0.18622236651E+03  0.72614348130E+02  0.47097791662E+03  0.51983512355E+03  0.91960558894E+02 0.  0.
         13    1    3    3    0    0 -0.26170004492E+02 -0.12134475968E+03 -0.28288135661E+03  0.30891953929E+03  0.00000000000E+00 0.  1.
        -13    1    3    3    0    0 -0.11963394890E+03 -0.13772465748E+03 -0.59750222057E+03  0.62473135554E+03  0.00000000000E+00 0. -1.
          4    1    5    5  502    0 -0.56285559224E+01  0.14021742702E+03 -0.32180530549E+03  0.35107159117E+03  0.00000000000E+00 0.  1.
          4    1    6    6  503    0 -0.41291261585E+01  0.39761372593E+01 -0.14358391659E+01  0.59093979768E+01  0.00000000000E+00 0. -1.
         -4    1    5    5    0  502 -0.34789857192E+02  0.46237642009E+02 -0.47592492955E+02  0.74921953309E+02  0.00000000000E+00 0. -1.
         -4    1    6    6    0  503  0.19035149266E+03  0.68638210871E+02  0.47241375579E+03  0.51392572557E+03  0.00000000000E+00 0.  1.
<mgrwt>
<rscale>  0 0.17105287E+04</rscale>
<asrwt>0</asrwt>
<pdfrwt beam="1">  1        1 0.20448330E+00 0.17105287E+04</pdfrwt>
<pdfrwt beam="2">  1       -1 0.84667394E-01 0.17105287E+04</pdfrwt>
<totfact> 0.11320334E+01</totfact>
</mgrwt>
</event>
<event>
12    1  0.4247462E-008  0.1471701E+04  0.7818608E-02  0.8903492E-01
         -2   -1    0    0    0  501 -0.00000000000E+00  0.00000000000E+00  0.83389042319E+03  0.83389042319E+03  0.00000000000E+00 0.  1.
          2   -1    0    0  501    0  0.00000000000E+00 -0.00000000000E+00 -0.64933729179E+03  0.64933729179E+03  0.00000000000E+00 0. -1.
         23    2    1    2    0    0 -0.13158169303E+03 -0.34974004703E+03  0.31662093753E+03  0.49937500503E+03  0.97440931452E+02 0.  0.
        254    2    1    2    0    0  0.13158169303E+03  0.34974004703E+03 -0.13206780613E+03  0.98385270995E+03  0.90049564520E+03 0.  0.
         23    2    4    4    0    0  0.11503537197E+03  0.36954785903E+03 -0.48021997715E+03  0.62336769350E+03  0.90428413233E+02 0.  0.
         23    2    4    4    0    0  0.16546321060E+02 -0.19807811999E+02  0.34815217102E+03  0.36048501645E+03  0.89852004670E+02 0.  0.
         13    1    3    3    0    0 -0.22603245881E+02 -0.10411043651E+03  0.40211116736E+02  0.11387196154E+03  0.00000000000E+00 0. -1.
        -13    1    3    3    0    0 -0.10897844715E+03 -0.24562961052E+03  0.27640982079E+03  0.38550304349E+03  0.00000000000E+00 0.  1.
          2    1    6    6  502    0 -0.22863042122E+02  0.70267601009E+01  0.28100992771E+02  0.36902030396E+02  0.00000000000E+00 0. -1.
          2    1    5    5  503    0  0.29455252941E+02  0.49208460257E+02 -0.31496012726E+02  0.65429987807E+02  0.00000000000E+00 0. -1.
         -2    1    5    5    0  503  0.85580119030E+02  0.32033939878E+03 -0.44872396443E+03  0.55793770569E+03  0.00000000000E+00 0.  1.
         -2    1    6    6    0  502  0.39409363182E+02 -0.26834572100E+02  0.32005117825E+03  0.32358298606E+03  0.00000000000E+00 0.  1.
<mgrwt>
<rscale>  0 0.14717013E+04</rscale>
<asrwt>0</asrwt>
<pdfrwt beam="1">  1        2 0.99898044E-01 0.14717013E+04</pdfrwt>
<pdfrwt beam="2">  1       -2 0.12829084E+00 0.14717013E+04</pdfrwt>
<totfact> 0.19569303E+01</totfact>
</mgrwt>
</event>
<event>
12    1  0.4247462E-008  0.2734241E+04  0.7818608E-02  0.8323980E-01
          1   -1    0    0  501    0  0.00000000000E+00  0.00000000000E+00  0.92735132778E+03  0.92735132778E+03  0.00000000000E+00 0. -1.
         -1   -1    0    0    0  501 -0.00000000000E+00 -0.00000000000E+00 -0.20154378698E+04  0.20154378698E+04  0.00000000000E+00 0.  1.
         23    2    1    2    0    0 -0.65213689425E+03 -0.46975834509E+03 -0.14686754929E+04  0.16767191604E+04  0.91782393099E+02 0.  0.
        254    2    1    2    0    0  0.65213689425E+03  0.46975834509E+03  0.38058895086E+03  0.12660700372E+04  0.90118253314E+03 0.  0.
         23    2    4    4    0    0  0.86128806514E+03  0.30124477497E+03  0.34693857669E+03  0.98019235119E+03  0.88572703103E+02 0.  0.
         23    2    4    4    0    0 -0.20915117089E+03  0.16851357013E+03  0.33650374171E+02  0.28587768604E+03  0.91938392928E+02 0.  0.
         13    1    3    3    0    0 -0.60182699765E+03 -0.45600209108E+03 -0.13980365642E+04  0.15889115384E+04  0.00000000000E+00 0.  1.
        -13    1    3    3    0    0 -0.50309896596E+02 -0.13756254012E+02 -0.70638928717E+02  0.87807621937E+02  0.00000000000E+00 0. -1.
          1    1    5    5  502    0  0.81465053675E+03  0.29105357112E+03  0.34796929548E+03  0.93244319338E+03  0.00000000000E+00 0. -1.
          3    1    6    6  503    0 -0.19785733051E+03  0.17269895435E+03  0.48175872102E+02  0.26700817726E+03  0.00000000000E+00 0. -1.
         -1    1    5    5    0  502  0.46637528390E+02  0.10191203844E+02 -0.10307187824E+01  0.47749157808E+02  0.00000000000E+00 0.  1.
         -3    1    6    6    0  503 -0.11293840381E+02 -0.41853842237E+01 -0.14525497931E+02  0.18869508785E+02  0.00000000000E+00 0.  1.
<mgrwt>
<rscale>  0 0.27342414E+04</rscale>
<asrwt>0</asrwt>
<pdfrwt beam="1">  1        1 0.14266944E+00 0.27342414E+04</pdfrwt>
<pdfrwt beam="2">  1       -1 0.31006736E+00 0.27342414E+04</pdfrwt>
<totfact> 0.42749213E-01</totfact>
</mgrwt>
</event>
<event>
12    1  0.4247462E-008  0.1342232E+04  0.7818608E-02  0.8996729E-01
          1   -1    0    0  501    0  0.00000000000E+00  0.00000000000E+00  0.12521779095E+04  0.12521779095E+04  0.00000000000E+00 0. -1.
         -1   -1    0    0    0  501 -0.00000000000E+00 -0.00000000000E+00 -0.35969050638E+03  0.35969050638E+03  0.00000000000E+00 0.  1.
         23    2    1    2    0    0  0.47308798872E+02  0.10324944457E+03  0.65383261196E+03  0.66930399771E+03  0.87018312071E+02 0.  0.
        254    2    1    2    0    0 -0.47308798872E+02 -0.10324944457E+03  0.23865479116E+03  0.94256441817E+03  0.90475024333E+03 0.  0.
         23    2    4    4    0    0 -0.22887642837E+03  0.10615878076E+03 -0.25403624084E+03  0.37007676498E+03  0.93639169801E+02 0.  0.
         23    2    4    4    0    0  0.18156762949E+03 -0.20940822533E+03  0.49269103200E+03  0.57248765320E+03  0.90438106651E+02 0.  0.
         11    1    3    3    0    0  0.32990170283E+02  0.11416009759E+03  0.61661982720E+03  0.62796567622E+03  0.00000000000E+00 0. -1.
        -11    1    3    3    0    0  0.14318628590E+02 -0.10910653018E+02  0.37212784757E+02  0.41338321487E+02  0.00000000000E+00 0.  1.
          2    1    5    5  502    0 -0.25802440447E+02  0.14047613302E+02  0.33066633532E+01  0.29564089620E+02  0.00000000000E+00 0. -1.
          1    1    6    6  503    0  0.12083982137E+02 -0.43467218619E+01  0.32559219488E+00  0.12846113245E+02  0.00000000000E+00 0. -1.
         -2    1    5    5    0  502 -0.20307398792E+03  0.92111167454E+02 -0.25734290419E+03  0.34051267536E+03  0.00000000000E+00 0.  1.
         -1    1    6    6    0  503  0.16948364736E+03 -0.20506150347E+03  0.49236543980E+03  0.55964153995E+03  0.00000000000E+00 0.  1.
<mgrwt>
<rscale>  0 0.13422317E+04</rscale>
<asrwt>0</asrwt>
<pdfrwt beam="1">  1        1 0.19264275E+00 0.13422317E+04</pdfrwt>
<pdfrwt beam="2">  1       -1 0.55337002E-01 0.13422317E+04</pdfrwt>
<totfact> 0.31657603E+01</totfact>
</mgrwt>
</event>
<event>
12    1  0.4247462E-008  0.2733268E+04  0.7818608E-02  0.8324291E-01
          2   -1    0    0  501    0  0.00000000000E+00  0.00000000000E+00  0.11226280440E+04  0.11226280440E+04  0.00000000000E+00 0. -1.
         -2   -1    0    0    0  501 -0.00000000000E+00 -0.00000000000E+00 -0.16636750359E+04  0.16636750359E+04  0.00000000000E+00 0.  1.
         23    2    1    2    0    0  0.95239067219E+03  0.50061070303E+03 -0.82246411549E+03  0.13576627243E+04  0.95612672533E+02 0.  0.
        254    2    1    2    0    0 -0.95239067219E+03 -0.50061070303E+03  0.28141712356E+03  0.14286403557E+04  0.89674890576E+03 0.  0.
         23    2    4    4    0    0 -0.48695112347E+03 -0.54797274331E+02  0.53456167594E+03  0.73049815375E+03  0.88018346547E+02 0.  0.
         23    2    4    4    0    0 -0.46543954872E+03 -0.44581342870E+03 -0.25314455238E+03  0.69814220193E+03  0.89088624329E+02 0.  0.
         13    1    3    3    0    0  0.60907243632E+03  0.29732400138E+03 -0.46482977448E+03  0.82185005550E+03  0.00000000000E+00 0.  1.
        -13    1    3    3    0    0  0.34331823587E+03  0.20328670165E+03 -0.35763434101E+03  0.53581266878E+03  0.00000000000E+00 0. -1.
          4    1    5    5  502    0 -0.30081607356E+03 -0.59529260245E+02  0.28108525102E+03  0.41598432817E+03  0.00000000000E+00 0. -1.
          1    1    6    6  503    0 -0.42256139849E+03 -0.38108113385E+03 -0.24681022474E+03  0.62023886778E+03  0.00000000000E+00 0. -1.
         -4    1    5    5    0  502 -0.18613504991E+03  0.47319859140E+01  0.25347642492E+03  0.31451382558E+03  0.00000000000E+00 0.  1.
         -1    1    6    6    0  503 -0.42878150234E+02 -0.64732294857E+02 -0.63343276406E+01  0.77903334150E+02  0.00000000000E+00 0.  1.
<mgrwt>
<rscale>  0 0.27332678E+04</rscale>
<asrwt>0</asrwt>
<pdfrwt beam="1">  1        2 0.17271201E+00 0.27332678E+04</pdfrwt>
<pdfrwt beam="2">  1       -2 0.25595001E+00 0.27332678E+04</pdfrwt>
<totfact> 0.10904226E+00</totfact>
</mgrwt>
</event>
<event>
12    1  0.4247462E-008  0.1398222E+04  0.7818608E-02  0.8955107E-01
         -1   -1    0    0    0  501 -0.00000000000E+00  0.00000000000E+00  0.12005816893E+04  0.12005816893E+04  0.00000000000E+00 0.  1.
          1   -1    0    0  501    0  0.00000000000E+00 -0.00000000000E+00 -0.40709926367E+03  0.40709926367E+03  0.00000000000E+00 0. -1.
         23    2    1    2    0    0 -0.87101515312E+02 -0.15511582112E+03  0.59275732980E+03  0.62601860854E+03  0.94289205519E+02 0.  0.
        254    2    1    2    0    0  0.87101515312E+02  0.15511582112E+03  0.20072509583E+03  0.98166234443E+03  0.94431075523E+03 0.  0.
         23    2    4    4    0    0 -0.27339090107E+03 -0.23169572853E+03 -0.76599267710E+02  0.37782087656E+03  0.91954725517E+02 0.  0.
         23    2    4    4    0    0  0.36049241638E+03  0.38681154965E+03  0.27732436354E+03  0.60384146787E+03  0.90209525511E+02 0.  0.
         11    1    3    3    0    0 -0.52510936224E+02 -0.12609360999E+03  0.53788439123E+03  0.55495640840E+03  0.00000000000E+00 0.  1.
        -11    1    3    3    0    0 -0.34590579088E+02 -0.29022211137E+02  0.54872938573E+02  0.71062200139E+02  0.00000000000E+00 0. -1.
          2    1    5    5  502    0 -0.85044497575E+02 -0.23563826263E+02 -0.30430998857E+02  0.93348091396E+02  0.00000000000E+00 0.  1.
          4    1    6    6  503    0  0.26755430185E+03  0.23776224174E+03  0.21455097712E+03  0.41731080722E+03  0.00000000000E+00 0.  1.
         -2    1    5    5    0  502 -0.18834640350E+03 -0.20813190226E+03 -0.46168268853E+02  0.28447278516E+03  0.00000000000E+00 0. -1.
         -4    1    6    6    0  503  0.92938114534E+02  0.14904930791E+03  0.62773386422E+02  0.18653066065E+03  0.00000000000E+00 0. -1.
<mgrwt>
<rscale>  0 0.13982216E+04</rscale>
<asrwt>0</asrwt>
<pdfrwt beam="1">  1        1 0.62630657E-01 0.13982216E+04</pdfrwt>
<pdfrwt beam="2">  1       -1 0.18470487E+00 0.13982216E+04</pdfrwt>
<totfact> 0.11005478E+01</totfact>
</mgrwt>
</event>
<event>
12    1  0.4247462E-008  0.1483382E+04  0.7818608E-02  0.8895579E-01
         -2   -1    0    0    0  501 -0.00000000000E+00  0.00000000000E+00  0.82929778047E+03  0.82929778047E+03  0.00000000000E+00 0.  1.
          2   -1    0    0  501    0  0.00000000000E+00 -0.00000000000E+00 -0.66333903341E+03  0.66333903341E+03  0.00000000000E+00 0. -1.
         23    2    1    2    0    0 -0.15448215677E+02  0.21432927578E+02  0.52068608265E+03  0.53162969675E+03  0.10401019203E+03 0.  0.
        254    2    1    2    0    0  0.15448215677E+02 -0.21432927578E+02 -0.35472733559E+03  0.96100711713E+03  0.89275146531E+03 0.  0.
         23    2    4    4    0    0  0.37009783804E+03  0.21466853205E+03 -0.77274506828E+02  0.44450499312E+03  0.92511356799E+02 0.  0.
         23    2    4    4    0    0 -0.35464962236E+03 -0.23610145963E+03 -0.27745282876E+03  0.51650212401E+03  0.90962179177E+02 0.  0.
         11    1    3    3    0    0 -0.49617822918E+01 -0.26984431265E+02  0.40642402539E+02  0.49036554715E+02  0.00000000000E+00 0. -1.
        -11    1    3    3    0    0 -0.10486433386E+02  0.48417358843E+02  0.48004368011E+03  0.48259314203E+03  0.00000000000E+00 0.  1.
          2    1    5    5  502    0  0.38658762343E+02  0.35457949790E+02 -0.39824460240E+02  0.65861625721E+02  0.00000000000E+00 0. -1.
          4    1    6    6  503    0 -0.26322522782E+02 -0.34943090715E+02 -0.33929650972E+01  0.43879459961E+02  0.00000000000E+00 0. -1.
         -2    1    5    5    0  502  0.33143907569E+03  0.17921058226E+03 -0.37450046588E+02  0.37864336740E+03  0.00000000000E+00 0.  1.
         -4    1    6    6    0  503 -0.32832709958E+03 -0.20115836891E+03 -0.27405986367E+03  0.47262266405E+03  0.00000000000E+00 0.  1.
<mgrwt>
<rscale>  0 0.14833821E+04</rscale>
<asrwt>0</asrwt>
<pdfrwt beam="1">  1        2 0.10205216E+00 0.14833821E+04</pdfrwt>
<pdfrwt beam="2">  1       -2 0.12758427E+00 0.14833821E+04</pdfrwt>
<totfact> 0.19308590E+01</totfact>
</mgrwt>
</event>
<event>
12    1  0.4247462E-008  0.1384652E+04  0.7818608E-02  0.8965004E-01
         -2   -1    0    0    0  501 -0.00000000000E+00  0.00000000000E+00  0.23446581162E+03  0.23446581162E+03  0.00000000000E+00 0. -1.
          2   -1    0    0  501    0  0.00000000000E+00 -0.00000000000E+00 -0.20442861999E+04  0.20442861999E+04  0.00000000000E+00 0.  1.
         23    2    1    2    0    0 -0.35619317881E+03 -0.86696802748E+02 -0.77868903153E+03  0.86541162768E+03  0.90502824570E+02 0.  0.
        254    2    1    2    0    0  0.35619317881E+03  0.86696802748E+02 -0.10311313568E+04  0.14133403839E+04  0.89437645849E+03 0.  0.
         23    2    4    4    0    0  0.61008605541E+03 -0.11663278209E+03 -0.73283161359E+03  0.96483892808E+03  0.89798565632E+02 0.  0.
         23    2    4    4    0    0 -0.25389287660E+03  0.20332958484E+03 -0.29829974319E+03  0.44850145579E+03  0.79789135857E+02 0.  0.
         11    1    3    3    0    0 -0.15383398626E+03 -0.50496359194E+02 -0.24670515437E+03  0.29509017404E+03  0.00000000000E+00 0. -1.
        -11    1    3    3    0    0 -0.20235919255E+03 -0.36200443554E+02 -0.53198387716E+03  0.57032145364E+03  0.00000000000E+00 0.  1.
          2    1    5    5  502    0  0.59549748420E+03 -0.10808454666E+03 -0.68481224152E+03  0.91392960837E+03  0.00000000000E+00 0. -1.
          3    1    6    6  503    0 -0.24604805663E+03  0.17308887917E+03 -0.28549661645E+03  0.41473813939E+03  0.00000000000E+00 0. -1.
         -2    1    5    5    0  502  0.14588571207E+02 -0.85482354317E+01 -0.48019372076E+02  0.50909319711E+02  0.00000000000E+00 0.  1.
         -3    1    6    6    0  503 -0.78448199727E+01  0.30240705673E+02 -0.12803126738E+02  0.33763316399E+02  0.00000000000E+00 0.  1.
<mgrwt>
<rscale>  0 0.13846519E+04</rscale>
<asrwt>0</asrwt>
<pdfrwt beam="1">  1        2 0.31450557E+00 0.13846519E+04</pdfrwt>
<pdfrwt beam="2">  1       -2 0.36071663E-01 0.13846519E+04</pdfrwt>
<totfact> 0.44503168E+01</totfact>
</mgrwt>
</event>
<event>
12    1  0.4247462E-008  0.2397303E+04  0.7818608E-02  0.8440514E-01
          2   -1    0    0  501    0  0.00000000000E+00  0.00000000000E+00  0.14870864138E+04  0.14870864138E+04  0.00000000000E+00 0. -1.
         -2   -1    0    0    0  501 -0.00000000000E+00 -0.00000000000E+00 -0.96616163346E+03  0.96616163346E+03  0.00000000000E+00 0.  1.
         23    2    1    2    0    0 -0.35249139234E+03 -0.88392052979E+02 -0.73705931027E+03  0.82686083775E+03  0.91537322653E+02 0.  0.
        254    2    1    2    0    0  0.35249139234E+03  0.88392052979E+02  0.12579840906E+04  0.16263872095E+04  0.96464918302E+03 0.  0.
         23    2    4    4    0    0  0.30049263661E+03  0.49438517189E+03  0.55417328632E+03  0.80637567725E+03  0.91766980722E+02 0.  0.
         23    2    4    4    0    0  0.51998755738E+02 -0.40599311892E+03  0.70381080425E+03  0.82001153222E+03  0.97647230328E+02 0.  0.
         11    1    3    3    0    0 -0.23723462700E+02  0.18531071821E+01 -0.14387934153E+02  0.27807361218E+02  0.00000000000E+00 0. -1.
        -11    1    3    3    0    0 -0.32876792964E+03 -0.90245160161E+02 -0.72267137612E+03  0.79905347653E+03  0.00000000000E+00 0.  1.
          4    1    5    5  502    0  0.17673434285E+03  0.37000282451E+03  0.39918193548E+03  0.57226159726E+03  0.00000000000E+00 0. -1.
          3    1    6    6  503    0  0.60181203011E+02 -0.13554974688E+03  0.28756401399E+03  0.32355613611E+03  0.00000000000E+00 0. -1.
         -4    1    5    5    0  502  0.12375829376E+03  0.12438234738E+03  0.15499135084E+03  0.23411407999E+03  0.00000000000E+00 0.  1.
         -3    1    6    6    0  503 -0.81824472727E+01 -0.27044337204E+03  0.41624679026E+03  0.49645539610E+03  0.00000000000E+00 0.  1.
<mgrwt>
<rscale>  0 0.23973034E+04</rscale>
<asrwt>0</asrwt>
<pdfrwt beam="1">  1        2 0.22878252E+00 0.23973034E+04</pdfrwt>
<pdfrwt beam="2">  1       -2 0.14864025E+00 0.23973034E+04</pdfrwt>
<totfact> 0.35644072E+00</totfact>
</mgrwt>
</event>
<event>
12    1  0.4247462E-008  0.1284702E+04  0.7818608E-02  0.9041786E-01
          2   -1    0    0  501    0  0.00000000000E+00  0.00000000000E+00  0.27233149143E+03  0.27233149143E+03  0.00000000000E+00 0.  1.
         -2   -1    0    0    0  501 -0.00000000000E+00 -0.00000000000E+00 -0.15151189503E+04  0.15151189503E+04  0.00000000000E+00 0. -1.
         23    2    1    2    0    0  0.18183715555E+03  0.25771411225E+03 -0.40464934921E+03  0.52102076085E+03  0.90775671982E+02 0.  0.
        254    2    1    2    0    0 -0.18183715555E+03 -0.25771411225E+03 -0.83813810965E+03  0.12664296809E+04  0.89548161956E+03 0.  0.
         23    2    4    4    0    0  0.32299003573E+03 -0.24743349238E+03 -0.25288855425E+03  0.48818716773E+03  0.93958467059E+02 0.  0.
         23    2    4    4    0    0 -0.50482719128E+03 -0.10280619870E+02 -0.58524955540E+03  0.77824251315E+03  0.90488579242E+02 0.  0.
         13    1    3    3    0    0  0.16870945841E+02  0.36197721109E+02 -0.13437026034E+02  0.42136177991E+02  0.00000000000E+00 0.  1.
        -13    1    3    3    0    0  0.16496620971E+03  0.22151639114E+03 -0.39121232318E+03  0.47888458286E+03  0.00000000000E+00 0. -1.
          4    1    6    6  502    0 -0.45866988789E+03  0.17670628861E+02 -0.52262344420E+03  0.69557571953E+03  0.00000000000E+00 0. -1.
          4    1    5    5  503    0  0.17221704763E+03 -0.18268252794E+03 -0.17835137402E+03  0.30796238427E+03  0.00000000000E+00 0. -1.
         -4    1    5    5    0  503  0.15077298810E+03 -0.64750964440E+02 -0.74537180225E+02  0.18022478346E+03  0.00000000000E+00 0.  1.
         -4    1    6    6    0  502 -0.46157303390E+02 -0.27951248730E+02 -0.62626111208E+02  0.82666793616E+02  0.00000000000E+00 0.  1.
<mgrwt>
<rscale>  0 0.12847017E+04</rscale>
<asrwt>0</asrwt>
<pdfrwt beam="1">  1        2 0.41897153E-01 0.12847017E+04</pdfrwt>
<pdfrwt beam="2">  1       -2 0.23309522E+00 0.12847017E+04</pdfrwt>
<totfact> 0.98210450E+00</totfact>
</mgrwt>
</event>
<event>
12    1  0.4247462E-008  0.1366556E+04  0.7818608E-02  0.8978390E-01
          1   -1    0    0  501    0  0.00000000000E+00  0.00000000000E+00  0.10905013667E+04  0.10905013667E+04  0.00000000000E+00 0. -1.
         -1   -1    0    0    0  501 -0.00000000000E+00 -0.00000000000E+00 -0.42812280350E+03  0.42812280350E+03  0.00000000000E+00 0.  1.
         23    2    1    2    0    0 -0.29195474388E+03 -0.48955878408E+02  0.46570012816E+03  0.55937119909E+03  0.91571166293E+02 0.  0.
        254    2    1    2    0    0  0.29195474388E+03  0.48955878408E+02  0.19667843508E+03  0.95925297115E+03  0.89098238216E+03 0.  0.
         23    2    4    4    0    0 -0.13570525689E+03 -0.17711574533E+03  0.36689883250E+03  0.43910466596E+03  0.91718320894E+02 0.  0.
         23    2    4    4    0    0  0.42766000077E+03  0.22607162374E+03 -0.17022039742E+03  0.52014830518E+03  0.87050677022E+02 0.  0.
         11    1    3    3    0    0 -0.26370345689E+03 -0.46390156548E+02  0.45706780189E+03  0.52971929861E+03  0.00000000000E+00 0. -1.
        -11    1    3    3    0    0 -0.28251286985E+02 -0.25657218602E+01  0.86323262779E+01  0.29651900477E+02  0.00000000000E+00 0.  1.
          2    1    5    5  502    0 -0.66212812857E+02 -0.15216151886E+03  0.27537443015E+03  0.32150947294E+03  0.00000000000E+00 0. -1.
          1    1    6    6  503    0  0.18491938677E+03  0.64052443989E+02 -0.10092321226E+03  0.22018944107E+03  0.00000000000E+00 0. -1.
         -2    1    5    5    0  502 -0.69492444037E+02 -0.24954226469E+02  0.91524402354E+02  0.11759519303E+03  0.00000000000E+00 0.  1.
         -1    1    6    6    0  503  0.24274061400E+03  0.16201917975E+03 -0.69297185162E+02  0.29995886412E+03  0.00000000000E+00 0.  1.
<mgrwt>
<rscale>  0 0.13665555E+04</rscale>
<asrwt>0</asrwt>
<pdfrwt beam="1">  1        1 0.16776944E+00 0.13665555E+04</pdfrwt>
<pdfrwt beam="2">  1       -1 0.65865047E-01 0.13665555E+04</pdfrwt>
<totfact> 0.29442504E+01</totfact>
</mgrwt>
</event>
<event>
12    1  0.4247462E-008  0.1078973E+04  0.7818608E-02  0.9225932E-01
         -2   -1    0    0    0  501 -0.00000000000E+00  0.00000000000E+00  0.17305603649E+03  0.17305603649E+03  0.00000000000E+00 0.  1.
          2   -1    0    0  501    0  0.00000000000E+00 -0.00000000000E+00 -0.16817988187E+04  0.16817988187E+04  0.00000000000E+00 0. -1.
         23    2    1    2    0    0  0.12175069479E+03 -0.53421754312E+02 -0.10983209759E+03  0.19521909992E+03  0.91489298812E+02 0.  0.
        254    2    1    2    0    0 -0.12175069479E+03  0.53421754312E+02 -0.13989106846E+04  0.16596357553E+04  0.88304168709E+03 0.  0.
         23    2    4    4    0    0  0.25089915574E+03 -0.15844399515E+03 -0.10668917320E+04  0.11107870058E+04  0.86803908076E+02 0.  0.
         23    2    4    4    0    0 -0.37264985053E+03  0.21186574946E+03 -0.33201895268E+03  0.54884874955E+03  0.85107920005E+02 0.  0.
         13    1    3    3    0    0  0.76519791697E+02  0.16338625454E+02 -0.52347945658E+02  0.94141046402E+02  0.00000000000E+00 0. -1.
        -13    1    3    3    0    0  0.45230903096E+02 -0.69760379766E+02 -0.57484151932E+02  0.10107805352E+03  0.00000000000E+00 0.  1.
          2    1    5    5  502    0  0.88863639586E+01 -0.35790047788E+02 -0.10142092215E+03  0.10791709056E+03  0.00000000000E+00 0. -1.
          3    1    6    6  503    0 -0.10529914120E+03  0.99269722677E+02 -0.13715013105E+03  0.19938040382E+03  0.00000000000E+00 0. -1.
         -2    1    5    5    0  502  0.24201279178E+03 -0.12265394736E+03 -0.96547080981E+03  0.10028699152E+04  0.00000000000E+00 0.  1.
         -3    1    6    6    0  503 -0.26735070933E+03  0.11259602678E+03 -0.19486882163E+03  0.34946834573E+03  0.00000000000E+00 0.  1.
<mgrwt>
<rscale>  0 0.10789725E+04</rscale>
<asrwt>0</asrwt>
<pdfrwt beam="1">  1        2 0.25873828E+00 0.10789725E+04</pdfrwt>
<pdfrwt beam="2">  1       -2 0.26624006E-01 0.10789725E+04</pdfrwt>
<totfact> 0.12762249E+02</totfact>
</mgrwt>
</event>
<event>
12    1  0.4247462E-008  0.2174437E+04  0.7818608E-02  0.8529144E-01
         -1   -1    0    0    0  501 -0.00000000000E+00  0.00000000000E+00  0.95048830385E+03  0.95048830385E+03  0.00000000000E+00 0.  1.
          1   -1    0    0  501    0  0.00000000000E+00 -0.00000000000E+00 -0.12436176655E+04  0.12436176655E+04  0.00000000000E+00 0. -1.
         23    2    1    2    0    0  0.55416997810E+03  0.28026280958E+03  0.53038191338E+03  0.82132721452E+03  0.87302990778E+02 0.  0.
        254    2    1    2    0    0 -0.55416997810E+03 -0.28026280958E+03 -0.82351127504E+03  0.13727787548E+04  0.90592443536E+03 0.  0.
         23    2    4    4    0    0 -0.36127954619E+03  0.11155160726E+03 -0.84051771058E+03  0.92626896789E+03  0.92398633661E+02 0.  0.
         23    2    4    4    0    0 -0.19289043192E+03 -0.39181441684E+03  0.17006435546E+02  0.44650978695E+03  0.91413976098E+02 0.  0.
         13    1    3    3    0    0  0.19288798537E+03  0.11971489470E+03  0.14595911400E+03  0.26989163357E+03  0.00000000000E+00 0.  1.
        -13    1    3    3    0    0  0.36128199273E+03  0.16054791487E+03  0.38442279938E+03  0.55143558094E+03  0.00000000000E+00 0. -1.
          4    1    5    5  502    0 -0.23156913414E+03  0.26807767436E+02 -0.46910887801E+03  0.52383781813E+03  0.00000000000E+00 0. -1.
          1    1    6    6  503    0 -0.49208388266E+02 -0.19360366296E+03  0.26535468674E+02  0.20151420517E+03  0.00000000000E+00 0. -1.
         -4    1    5    5    0  502 -0.12971041205E+03  0.84743839827E+02 -0.37140883257E+03  0.40243114976E+03  0.00000000000E+00 0.  1.
         -1    1    6    6    0  503 -0.14368204365E+03 -0.19821075388E+03 -0.95290331275E+01  0.24499558179E+03  0.00000000000E+00 0.  1.
<mgrwt>
<rscale>  0 0.21744370E+04</rscale>
<asrwt>0</asrwt>
<pdfrwt beam="1">  1        1 0.19132579E+00 0.21744370E+04</pdfrwt>
<pdfrwt beam="2">  1       -1 0.14622897E+00 0.21744370E+04</pdfrwt>
<totfact> 0.33906777E+00</totfact>
</mgrwt>
</event>
<event>
12    1  0.4247462E-008  0.1591262E+04  0.7818608E-02  0.8825934E-01
         -1   -1    0    0    0  501 -0.00000000000E+00  0.00000000000E+00  0.19175160967E+03  0.19175160967E+03  0.00000000000E+00 0.  1.
          1   -1    0    0  501    0  0.00000000000E+00 -0.00000000000E+00 -0.33012935204E+04  0.33012935204E+04  0.00000000000E+00 0. -1.
         23    2    1    2    0    0 -0.26715535091E+02 -0.46259258181E+03 -0.47631303134E+03  0.67091559714E+03  0.92455492513E+02 0.  0.
        254    2    1    2    0    0  0.26715535091E+02  0.46259258181E+03 -0.26332288793E+04  0.28221295329E+04  0.90322486283E+03 0.  0.
         23    2    4    4    0    0  0.10065406095E+03  0.26582420992E+03 -0.25623909952E+04  0.25796647779E+04  0.89604708150E+02 0.  0.
         23    2    4    4    0    0 -0.73938525857E+02  0.19676837189E+03 -0.70837884170E+02  0.24246475497E+03  0.97910437581E+02 0.  0.
         13    1    3    3    0    0  0.24302346605E+02 -0.41506740012E+02 -0.55090228876E+02  0.73132392512E+02  0.00000000000E+00 0. -1.
        -13    1    3    3    0    0 -0.51017881696E+02 -0.42108584180E+03 -0.42122280247E+03  0.59778320463E+03  0.00000000000E+00 0.  1.
          2    1    6    6  502    0 -0.15091616466E+02  0.70489266318E+02 -0.73733654428E+02  0.10311714382E+03  0.00000000000E+00 0. -1.
          2    1    5    5  503    0  0.74424576575E+02  0.88676085727E+02 -0.11956555150E+04  0.12012470921E+04  0.00000000000E+00 0. -1.
         -2    1    5    5    0  503  0.26229484373E+02  0.17714812419E+03 -0.13667354801E+04  0.13784176858E+04  0.00000000000E+00 0.  1.
         -2    1    6    6    0  502 -0.58846909390E+02  0.12627910557E+03  0.28957702579E+01  0.13934761116E+03  0.00000000000E+00 0.  1.
<mgrwt>
<rscale>  0 0.15912616E+04</rscale>
<asrwt>0</asrwt>
<pdfrwt beam="1">  1        1 0.50789132E+00 0.15912616E+04</pdfrwt>
<pdfrwt beam="2">  1       -1 0.29500247E-01 0.15912616E+04</pdfrwt>
<totfact> 0.36235560E+00</totfact>
</mgrwt>
</event>
<event>
12    1  0.4247462E-008  0.1375538E+04  0.7818608E-02  0.8971718E-01
         -2   -1    0    0    0  501 -0.00000000000E+00  0.00000000000E+00  0.40022186205E+03  0.40022186205E+03  0.00000000000E+00 0.  1.
          2   -1    0    0  501    0  0.00000000000E+00 -0.00000000000E+00 -0.11819094099E+04  0.11819094099E+04  0.00000000000E+00 0. -1.
         23    2    1    2    0    0 -0.13851618799E+03 -0.11954808023E+03 -0.58900588665E+03  0.62388977793E+03  0.93978948015E+02 0.  0.
        254    2    1    2    0    0  0.13851618799E+03  0.11954808023E+03 -0.19268166120E+03  0.95824149403E+03  0.92066392375E+03 0.  0.
         23    2    4    4    0    0 -0.31194046745E+03  0.29895372479E+03 -0.50357459357E+02  0.44466441369E+03  0.92251733253E+02 0.  0.
         23    2    4    4    0    0  0.45045665544E+03 -0.17940564456E+03 -0.14232420185E+03  0.51357708034E+03  0.91693267400E+02 0.  0.
         11    1    3    3    0    0 -0.13950178808E+03 -0.83142060249E+02 -0.40561218036E+03  0.43691485660E+03  0.00000000000E+00 0. -1.
        -11    1    3    3    0    0  0.98560009150E+00 -0.36406019981E+02 -0.18339370629E+03  0.18697492133E+03  0.00000000000E+00 0.  1.
          1    1    5    5  502    0 -0.18803341989E+03  0.22920962626E+03 -0.58734620020E+02  0.30223066581E+03  0.00000000000E+00 0. -1.
          3    1    6    6  503    0  0.44037533191E+03 -0.16305146601E+03 -0.12111207177E+03  0.48495808835E+03  0.00000000000E+00 0. -1.
         -1    1    5    5    0  502 -0.12390704756E+03  0.69744098534E+02  0.83771606630E+01  0.14243374788E+03  0.00000000000E+00 0.  1.
         -3    1    6    6    0  503  0.10081323525E+02 -0.16354178548E+02 -0.21212130076E+02  0.28618991988E+02  0.00000000000E+00 0.  1.
<mgrwt>
<rscale>  0 0.13755377E+04</rscale>
<asrwt>0</asrwt>
<pdfrwt beam="1">  1        2 0.18183222E+00 0.13755377E+04</pdfrwt>
<pdfrwt beam="2">  1       -2 0.61572594E-01 0.13755377E+04</pdfrwt>
<totfact> 0.46420770E+01</totfact>
</mgrwt>
</event>
<event>
12    1  0.4247462E-008  0.2180817E+04  0.7818608E-02  0.8526455E-01
          1   -1    0    0  501    0  0.00000000000E+00  0.00000000000E+00  0.42081133164E+04  0.42081133164E+04  0.00000000000E+00 0. -1.
         -1   -1    0    0    0  501 -0.00000000000E+00 -0.00000000000E+00 -0.28254711081E+03  0.28254711081E+03  0.00000000000E+00 0.  1.
         23    2    1    2    0    0 -0.43187324443E+03 -0.29392139915E+03  0.31496861053E+04  0.31939627020E+04  0.89279850431E+02 0.  0.
        254    2    1    2    0    0  0.43187324443E+03  0.29392139915E+03  0.77588010027E+03  0.12966977252E+04  0.89807058320E+03 0.  0.
         23    2    4    4    0    0  0.55097417122E+03 -0.14141350077E+03  0.47468193143E+03  0.74642965753E+03  0.90906446715E+02 0.  0.
         23    2    4    4    0    0 -0.11910092680E+03  0.43533489991E+03  0.30119816884E+03  0.55026806767E+03  0.91504664028E+02 0.  0.
         13    1    3    3    0    0 -0.38648074720E+03 -0.25077050364E+03  0.29092653303E+04  0.29455182864E+04  0.00000000000E+00 0. -1.
        -13    1    3    3    0    0 -0.45392497227E+02 -0.43150895509E+02  0.24042077502E+03  0.24844441561E+03  0.00000000000E+00 0.  1.
          4    1    5    5  502    0  0.26380869488E+03 -0.23286664873E+02  0.20015997188E+03  0.33196582745E+03  0.00000000000E+00 0. -1.
          1    1    6    6  503    0 -0.12504461662E+03  0.40084480243E+03  0.29846280813E+03  0.51516284767E+03  0.00000000000E+00 0. -1.
         -4    1    5    5    0  502  0.28716547634E+03 -0.11812683589E+03  0.27452195955E+03  0.41446383007E+03  0.00000000000E+00 0.  1.
         -1    1    6    6    0  503  0.59436898256E+01  0.34490097486E+02  0.27353607116E+01  0.35105220005E+02  0.00000000000E+00 0.  1.
<mgrwt>
<rscale>  0 0.21808166E+04</rscale>
<asrwt>0</asrwt>
<pdfrwt beam="1">  1        1 0.64740200E+00 0.21808166E+04</pdfrwt>
<pdfrwt beam="2">  1       -1 0.43468789E-01 0.21808166E+04</pdfrwt>
<totfact> 0.29873221E-01</totfact>
</mgrwt>
</event>
<event>
12    1  0.4247462E-008  0.1484959E+04  0.7818608E-02  0.8894517E-01
          2   -1    0    0  501    0  0.00000000000E+00  0.00000000000E+00  0.22459106851E+04  0.22459106851E+04  0.00000000000E+00 0. -1.
         -2   -1    0    0    0  501 -0.00000000000E+00 -0.00000000000E+00 -0.24545748394E+03  0.24545748394E+03  0.00000000000E+00 0.  1.
         23    2    1    2    0    0 -0.14723313991E+03  0.17782593632E+03  0.12965856925E+04  0.13201290124E+04  0.91139948833E+02 0.  0.
        254    2    1    2    0    0  0.14723313991E+03 -0.17782593632E+03  0.70386750867E+03  0.11712391566E+04  0.90723317354E+03 0.  0.
         23    2    4    4    0    0  0.38957078719E+03  0.20926955536E+03  0.23381949584E+03  0.50931143090E+03  0.95746707401E+02 0.  0.
         23    2    4    4    0    0 -0.24233764729E+03 -0.38709549168E+03  0.47004801283E+03  0.66192772574E+03  0.92912457502E+02 0.  0.
         13    1    3    3    0    0 -0.11150455445E+03  0.11551512269E+03  0.10818600235E+04  0.10937084253E+04  0.00000000000E+00 0. -1.
        -13    1    3    3    0    0 -0.35728585456E+02  0.62310813629E+02  0.21472566902E+03  0.22642058708E+03  0.00000000000E+00 0.  1.
          4    1    5    5  502    0  0.32600818001E+03  0.18204610778E+03  0.15452945596E+03  0.40410576778E+03  0.00000000000E+00 0. -1.
          4    1    6    6  503    0 -0.23982761212E+03 -0.38354135962E+03  0.47459218502E+03  0.65563633224E+03  0.00000000000E+00 0. -1.
         -4    1    5    5    0  502  0.63562607185E+02  0.27223447582E+02  0.79290039874E+02  0.10520566313E+03  0.00000000000E+00 0.  1.
         -4    1    6    6    0  503 -0.25100351704E+01 -0.35541320570E+01 -0.45441721866E+01  0.62913934940E+01  0.00000000000E+00 0.  1.
<mgrwt>
<rscale>  0 0.14849587E+04</rscale>
<asrwt>0</asrwt>
<pdfrwt beam="1">  1        2 0.34552471E+00 0.14849587E+04</pdfrwt>
<pdfrwt beam="2">  1       -2 0.37762691E-01 0.14849587E+04</pdfrwt>
<totfact> 0.31180383E+01</totfact>
</mgrwt>
</event>
<event>
12    1  0.4247462E-008  0.1304314E+04  0.7818608E-02  0.9026151E-01
          2   -1    0    0  501    0  0.00000000000E+00  0.00000000000E+00  0.28012234562E+04  0.28012234562E+04  0.00000000000E+00 0. -1.
         -2   -1    0    0    0  501 -0.00000000000E+00 -0.00000000000E+00 -0.15182962384E+03  0.15182962384E+03  0.00000000000E+00 0.  1.
         23    2    1    2    0    0  0.17161093342E+03 -0.16028006835E+03  0.16072742498E+03  0.29853014924E+03  0.90260357232E+02 0.  0.
        254    2    1    2    0    0 -0.17161093342E+03  0.16028006835E+03  0.24886664073E+04  0.26545229308E+04  0.89324772045E+03 0.  0.
         23    2    4    4    0    0 -0.47759185679E+03 -0.35367943836E+02  0.91226344151E+03  0.10343405072E+04  0.91053967762E+02 0.  0.
         23    2    4    4    0    0  0.30598092337E+03  0.19564801219E+03  0.15764029658E+04  0.16201824235E+04  0.89678897709E+02 0.  0.
         13    1    3    3    0    0  0.30627882408E+01  0.10787824949E+02  0.97762819547E+01  0.14877282272E+02  0.00000000000E+00 0. -1.
        -13    1    3    3    0    0  0.16854814518E+03 -0.17106789330E+03  0.15095114302E+03  0.28365286697E+03  0.00000000000E+00 0.  1.
          4    1    6    6  502    0  0.29258846325E+03  0.15999383776E+03  0.14640798215E+04  0.15015777571E+04  0.00000000000E+00 0. -1.
          4    1    5    5  503    0 -0.16612407605E+03 -0.54920110561E+02  0.34881625103E+03  0.39023865028E+03  0.00000000000E+00 0.  1.
         -4    1    5    5    0  503 -0.31146778073E+03  0.19552166725E+02  0.56344719048E+03  0.64410185694E+03  0.00000000000E+00 0. -1.
         -4    1    6    6    0  502  0.13392460118E+02  0.35654174427E+02  0.11232314433E+03  0.11860466641E+03  0.00000000000E+00 0.  1.
<mgrwt>
<rscale>  0 0.13043139E+04</rscale>
<asrwt>0</asrwt>
<pdfrwt beam="1">  1        2 0.43095742E+00 0.13043139E+04</pdfrwt>
<pdfrwt beam="2">  1       -2 0.23358406E-01 0.13043139E+04</pdfrwt>
<totfact> 0.36996540E+01</totfact>
</mgrwt>
</event>
<event>
12    1  0.4247462E-008  0.2445508E+04  0.7818608E-02  0.8422660E-01
          2   -1    0    0  501    0  0.00000000000E+00  0.00000000000E+00  0.15287299812E+04  0.15287299812E+04  0.00000000000E+00 0.  1.
         -2   -1    0    0    0  501 -0.00000000000E+00 -0.00000000000E+00 -0.97801950729E+03  0.97801950729E+03  0.00000000000E+00 0. -1.
         23    2    1    2    0    0  0.90123196044E+03  0.22609729570E+03 -0.26945316857E+03  0.97146620748E+03  0.88332035934E+02 0.  0.
        254    2    1    2    0    0 -0.90123196044E+03 -0.22609729570E+03  0.82016364252E+03  0.15352832811E+04  0.90613868637E+03 0.  0.
         23    2    4    4    0    0 -0.68752104474E+03  0.14644603529E+03  0.13437384559E+03  0.72094486070E+03  0.87026051210E+02 0.  0.
         23    2    4    4    0    0 -0.21371091571E+03 -0.37254333099E+03  0.68578979693E+03  0.81433842035E+03  0.91534301414E+02 0.  0.
         13    1    3    3    0    0  0.14594585332E+03  0.37620783435E+02 -0.78525978222E+02  0.16994659368E+03  0.00000000000E+00 0.  1.
        -13    1    3    3    0    0  0.75528610713E+03  0.18847651227E+03 -0.19092719035E+03  0.80151961380E+03  0.00000000000E+00 0. -1.
          4    1    5    5  502    0 -0.19272254891E+03  0.15766325757E+01  0.34679146382E+02  0.19582418090E+03  0.00000000000E+00 0. -1.
          1    1    6    6  503    0 -0.97639694996E+02 -0.10267852522E+03  0.27446036411E+03  0.30887680561E+03  0.00000000000E+00 0. -1.
         -4    1    5    5    0  502 -0.49479849582E+03  0.14486940271E+03  0.99694699209E+02  0.52512067981E+03  0.00000000000E+00 0.  1.
         -1    1    6    6    0  503 -0.11607122071E+03 -0.26986480577E+03  0.41132943282E+03  0.50546161474E+03  0.00000000000E+00 0.  1.
<mgrwt>
<rscale>  0 0.24455083E+04</rscale>
<asrwt>0</asrwt>
<pdfrwt beam="1">  1        2 0.23518923E+00 0.24455083E+04</pdfrwt>
<pdfrwt beam="2">  1       -2 0.15046454E+00 0.24455083E+04</pdfrwt>
<totfact> 0.32561516E+00</totfact>
</mgrwt>
</event>
<event>
12    1  0.4247462E-008  0.1280637E+04  0.7818608E-02  0.9045063E-01
         -2   -1    0    0    0  501 -0.00000000000E+00  0.00000000000E+00  0.29499756985E+03  0.29499756985E+03  0.00000000000E+00 0.  1.
          2   -1    0    0  501    0  0.00000000000E+00 -0.00000000000E+00 -0.13898681047E+04  0.13898681047E+04  0.00000000000E+00 0. -1.
         23    2    1    2    0    0  0.19271398088E+03  0.38386688405E+02 -0.61548513369E+03  0.65247614220E+03  0.91054654381E+02 0.  0.
        254    2    1    2    0    0 -0.19271398088E+03 -0.38386688405E+02 -0.47938540115E+03  0.10323895323E+04  0.89297568129E+03 0.  0.
         23    2    4    4    0    0 -0.13105584912E+03  0.36201983795E+03  0.34569310412E+01  0.39550833268E+03  0.90448284617E+02 0.  0.
         23    2    4    4    0    0 -0.61658131751E+02 -0.40040652635E+03 -0.48284233219E+03  0.63688119965E+03  0.91399306109E+02 0.  0.
         13    1    3    3    0    0  0.24797496755E+02 -0.26460230697E+02 -0.90840777699E+02  0.97811586976E+02  0.00000000000E+00 0.  1.
        -13    1    3    3    0    0  0.16791648412E+03  0.64846919102E+02 -0.52464435599E+03  0.55466455523E+03  0.00000000000E+00 0. -1.
          1    1    5    5  502    0 -0.90969034402E+02  0.14235118840E+03  0.26595913905E+02  0.17101628196E+03  0.00000000000E+00 0. -1.
          3    1    6    6  503    0 -0.25337939996E+02 -0.59010429748E+02 -0.36823613832E+02  0.74028511790E+02  0.00000000000E+00 0. -1.
         -1    1    5    5    0  502 -0.40086814723E+02  0.21966864955E+03 -0.23138982863E+02  0.22449205072E+03  0.00000000000E+00 0.  1.
         -3    1    6    6    0  503 -0.36320191756E+02 -0.34139609661E+03 -0.44601871836E+03  0.56285268786E+03  0.00000000000E+00 0.  1.
<mgrwt>
<rscale>  0 0.12806369E+04</rscale>
<asrwt>0</asrwt>
<pdfrwt beam="1">  1        2 0.21382586E+00 0.12806369E+04</pdfrwt>
<pdfrwt beam="2">  1       -2 0.45384242E-01 0.12806369E+04</pdfrwt>
<totfact> 0.66243494E+01</totfact>
</mgrwt>
</event>
<event>
12    1  0.4247462E-008  0.2637083E+04  0.7818608E-02  0.8355713E-01
         -2   -1    0    0    0  501 -0.00000000000E+00  0.00000000000E+00  0.10866358735E+04  0.10866358735E+04  0.00000000000E+00 0.  1.
          2   -1    0    0  501    0  0.00000000000E+00 -0.00000000000E+00 -0.15999398830E+04  0.15999398830E+04  0.00000000000E+00 0. -1.
         23    2    1    2    0    0  0.13805077924E+03  0.80949687180E+03 -0.10630438175E+04  0.13464769191E+04  0.92707781444E+02 0.  0.
        254    2    1    2    0    0 -0.13805077924E+03 -0.80949687180E+03  0.54973980793E+03  0.13400988374E+04  0.90515624866E+03 0.  0.
         23    2    4    4    0    0 -0.29844883281E+03 -0.51609056984E+03 -0.92688375647E+02  0.61001801134E+03  0.90053634554E+02 0.  0.
         23    2    4    4    0    0  0.16039805357E+03 -0.29340630197E+03  0.64242818357E+03  0.73008082607E+03  0.92137114805E+02 0.  0.
         13    1    3    3    0    0  0.72513900303E+02  0.30789067757E+03 -0.47633823530E+03  0.57179808453E+03  0.00000000000E+00 0.  1.
        -13    1    3    3    0    0  0.65536878937E+02  0.50160619424E+03 -0.58670558219E+03  0.77467883460E+03  0.00000000000E+00 0. -1.
          4    1    5    5  502    0 -0.13255629988E+03 -0.24856623231E+03 -0.88247879052E+02  0.29520168130E+03  0.00000000000E+00 0. -1.
          1    1    6    6  503    0  0.77628767894E+02 -0.22924904887E+03  0.44071485803E+03  0.50280308084E+03  0.00000000000E+00 0. -1.
         -4    1    5    5    0  502 -0.16589253293E+03 -0.26752433752E+03 -0.44404965946E+01  0.31481633004E+03  0.00000000000E+00 0.  1.
         -1    1    6    6    0  503  0.82769285675E+02 -0.64157253096E+02  0.20171332554E+03  0.22727774523E+03  0.00000000000E+00 0.  1.
<mgrwt>
<rscale>  0 0.26370833E+04</rscale>
<asrwt>0</asrwt>
<pdfrwt beam="1">  1        2 0.24614460E+00 0.26370833E+04</pdfrwt>
<pdfrwt beam="2">  1       -2 0.16717475E+00 0.26370833E+04</pdfrwt>
<totfact> 0.21964717E+00</totfact>
</mgrwt>
</event>
<event>
12    1  0.4247462E-008  0.2926732E+04  0.7818608E-02  0.8264968E-01
         -2   -1    0    0    0  501 -0.00000000000E+00  0.00000000000E+00  0.84337611627E+03  0.84337611627E+03  0.00000000000E+00 0.  1.
          2   -1    0    0  501    0  0.00000000000E+00 -0.00000000000E+00 -0.25391281787E+04  0.25391281787E+04  0.00000000000E+00 0. -1.
         23    2    1    2    0    0  0.21745654173E+03  0.23428487240E+03  0.71256559669E+03  0.78657160490E+03  0.93639794320E+02 0.  0.
        254    2    1    2    0    0 -0.21745654173E+03 -0.23428487240E+03 -0.24083176592E+04  0.25959326901E+04  0.91471079317E+03 0.  0.
         23    2    4    4    0    0  0.33322007587E+03 -0.10366437403E+03 -0.61471181662E+03  0.71302934887E+03  0.93585861425E+02 0.  0.
         23    2    4    4    0    0 -0.55067661760E+03 -0.13062049836E+03 -0.17936058425E+04  0.18829033412E+04  0.89423834908E+02 0.  0.
         11    1    3    3    0    0  0.20609938721E+03  0.24207926995E+03  0.69485196031E+03  0.76413256514E+03  0.00000000000E+00 0.  1.
        -11    1    3    3    0    0  0.11357154516E+02 -0.77943975580E+01  0.17713636378E+02  0.22439039769E+02  0.00000000000E+00 0. -1.
          2    1    5    5  502    0  0.12485295127E+03 -0.67952339200E+02 -0.32179176142E+03  0.35178930848E+03  0.00000000000E+00 0. -1.
          4    1    6    6  503    0 -0.53322099981E+03 -0.13792229467E+03 -0.16869975682E+04  0.17746289722E+04  0.00000000000E+00 0. -1.
         -2    1    5    5    0  502  0.20836712460E+03 -0.35712034833E+02 -0.29292005520E+03  0.36124004040E+03  0.00000000000E+00 0.  1.
         -4    1    6    6    0  503 -0.17455617792E+02  0.73017963060E+01 -0.10660827435E+03  0.10827436899E+03  0.00000000000E+00 0.  1.
<mgrwt>
<rscale>  0 0.29267320E+04</rscale>
<asrwt>0</asrwt>
<pdfrwt beam="1">  1        2 0.39063511E+00 0.29267320E+04</pdfrwt>
<pdfrwt beam="2">  1       -2 0.12975017E+00 0.29267320E+04</pdfrwt>
<totfact> 0.12412397E+00</totfact>
</mgrwt>
</event>
<event>
12    1  0.4247462E-008  0.1939710E+04  0.7818608E-02  0.8635339E-01
          2   -1    0    0  501    0  0.00000000000E+00  0.00000000000E+00  0.14555724052E+04  0.14555724052E+04  0.00000000000E+00 0.  1.
         -2   -1    0    0    0  501 -0.00000000000E+00 -0.00000000000E+00 -0.64621894448E+03  0.64621894448E+03  0.00000000000E+00 0. -1.
         23    2    1    2    0    0 -0.33842622359E+03 -0.49401068568E+03 -0.18786499896E+03  0.63418810096E+03  0.91227316021E+02 0.  0.
        254    2    1    2    0    0  0.33842622359E+03  0.49401068568E+03  0.99721845968E+03  0.14676032487E+04  0.89489428032E+03 0.  0.
         23    2    4    4    0    0  0.11561761955E+02 -0.21902060880E+03  0.64215968610E+02  0.24570451633E+03  0.90240330801E+02 0.  0.
         23    2    4    4    0    0  0.32686446163E+03  0.71303129448E+03  0.93300249107E+03  0.12218987324E+04  0.85374824648E+02 0.  0.
         13    1    3    3    0    0 -0.33628377362E+03 -0.46537158541E+03 -0.19147293091E+03  0.60524323390E+03  0.00000000000E+00 0. -1.
        -13    1    3    3    0    0 -0.21424499620E+01 -0.28639100272E+02  0.36079319525E+01  0.28944867061E+02  0.00000000000E+00 0.  1.
          1    1    6    6  502    0  0.24943966619E+03  0.46358394175E+03  0.58884345071E+03  0.78985240872E+03  0.00000000000E+00 0. -1.
          1    1    5    5  503    0 -0.28357117060E+02 -0.12284948457E+03  0.55802280873E+01  0.12620325230E+03  0.00000000000E+00 0. -1.
         -1    1    5    5    0  503  0.39918879015E+02 -0.96171124231E+02  0.58635740523E+02  0.11950126403E+03  0.00000000000E+00 0.  1.
         -1    1    6    6    0  502  0.77424795438E+02  0.24944735273E+03  0.34415904035E+03  0.43204632366E+03  0.00000000000E+00 0.  1.
<mgrwt>
<rscale>  0 0.19397097E+04</rscale>
<asrwt>0</asrwt>
<pdfrwt beam="1">  1        2 0.22393422E+00 0.19397097E+04</pdfrwt>
<pdfrwt beam="2">  1       -2 0.99418299E-01 0.19397097E+04</pdfrwt>
<totfact> 0.10518784E+01</totfact>
</mgrwt>
</event>
<event>
12    1  0.4247462E-008  0.1401737E+04  0.7818608E-02  0.8952562E-01
         -2   -1    0    0    0  501 -0.00000000000E+00  0.00000000000E+00  0.24474226879E+03  0.24474226879E+03  0.00000000000E+00 0.  1.
          2   -1    0    0  501    0  0.00000000000E+00 -0.00000000000E+00 -0.20070778014E+04  0.20070778014E+04  0.00000000000E+00 0. -1.
         23    2    1    2    0    0  0.25656204911E+03  0.25382868469E+03 -0.22010027403E+03  0.43457375233E+03  0.10078258469E+03 0.  0.
        254    2    1    2    0    0 -0.25656204911E+03 -0.25382868469E+03 -0.15422352586E+04  0.18172463179E+04  0.89086559075E+03 0.  0.
         23    2    4    4    0    0  0.37333669900E+02  0.30490549734E+03 -0.44065042704E+03  0.54432473986E+03  0.88065080231E+02 0.  0.
         23    2    4    4    0    0 -0.29389571901E+03 -0.55873418203E+03 -0.11015848316E+04  0.12729215780E+04  0.91003422230E+02 0.  0.
         13    1    3    3    0    0  0.25162352380E+03  0.25503108888E+03 -0.22837318735E+03  0.42486417444E+03  0.00000000000E+00 0.  1.
        -13    1    3    3    0    0  0.49385253016E+01 -0.12024041937E+01  0.82729133170E+01  0.97095778873E+01  0.00000000000E+00 0. -1.
          1    1    5    5  502    0  0.16642721682E+01  0.26774463225E+03 -0.36063246237E+03  0.44916114126E+03  0.00000000000E+00 0.  1.
          3    1    6    6  503    0 -0.73182141716E+02 -0.20636891364E+03 -0.32207608628E+03  0.38945700628E+03  0.00000000000E+00 0. -1.
         -1    1    5    5    0  502  0.35669397732E+02  0.37160865085E+02 -0.80017964667E+02  0.95163598597E+02  0.00000000000E+00 0. -1.
         -3    1    6    6    0  503 -0.22071357729E+03 -0.35236526839E+03 -0.77950874529E+03  0.88346457176E+03  0.00000000000E+00 0.  1.
<mgrwt>
<rscale>  0 0.14017372E+04</rscale>
<asrwt>0</asrwt>
<pdfrwt beam="1">  1        2 0.30878120E+00 0.14017372E+04</pdfrwt>
<pdfrwt beam="2">  1       -2 0.37652657E-01 0.14017372E+04</pdfrwt>
<totfact> 0.42904422E+01</totfact>
</mgrwt>
</event>
<event>
12    1  0.4247462E-008  0.1362995E+04  0.7818608E-02  0.8981049E-01
          2   -1    0    0  501    0  0.00000000000E+00  0.00000000000E+00  0.14523424483E+04  0.14523424483E+04  0.00000000000E+00 0.  1.
         -2   -1    0    0    0  501 -0.00000000000E+00 -0.00000000000E+00 -0.31978596186E+03  0.31978596186E+03  0.00000000000E+00 0. -1.
         23    2    1    2    0    0  0.23930415273E+03 -0.13614796273E+03  0.65180991066E+03  0.71386034060E+03  0.94539309159E+02 0.  0.
        254    2    1    2    0    0 -0.23930415273E+03  0.13614796273E+03  0.48074657573E+03  0.10582680695E+04  0.90167138782E+03 0.  0.
         23    2    4    4    0    0  0.48090196423E+02 -0.12508029081E+03  0.61579812894E+03  0.63690806792E+03  0.92123858142E+02 0.  0.
         23    2    4    4    0    0 -0.28739434915E+03  0.26122825355E+03 -0.13505155320E+03  0.42136000159E+03  0.92030519645E+02 0.  0.
         11    1    3    3    0    0  0.28721770192E+02  0.80027416399E+01  0.32888637460E+02  0.44391963582E+02  0.00000000000E+00 0. -1.
        -11    1    3    3    0    0  0.21058238253E+03 -0.14415070437E+03  0.61892127320E+03  0.66946837701E+03  0.00000000000E+00 0.  1.
          2    1    5    5  502    0  0.12024897159E+02 -0.11932857211E+03  0.53439494469E+03  0.54768774241E+03  0.00000000000E+00 0. -1.
          3    1    6    6  503    0 -0.23218795539E+03  0.19062973622E+03 -0.14034374163E+03  0.33158303450E+03  0.00000000000E+00 0. -1.
         -2    1    5    5    0  502  0.36065299264E+02 -0.57517186999E+01  0.81403184244E+02  0.89220325509E+02  0.00000000000E+00 0.  1.
         -3    1    6    6    0  503 -0.55206393764E+02  0.70598517333E+02  0.52921884237E+01  0.89776967093E+02  0.00000000000E+00 0.  1.
<mgrwt>
<rscale>  0 0.13629948E+04</rscale>
<asrwt>0</asrwt>
<pdfrwt beam="1">  1        2 0.22343730E+00 0.13629948E+04</pdfrwt>
<pdfrwt beam="2">  1       -2 0.49197841E-01 0.13629948E+04</pdfrwt>
<totfact> 0.51546880E+01</totfact>
</mgrwt>
</event>
<event>
12    1  0.4247462E-008  0.1379406E+04  0.7818608E-02  0.8968862E-01
          1   -1    0    0  501    0  0.00000000000E+00  0.00000000000E+00  0.90108633319E+03  0.90108633319E+03  0.00000000000E+00 0. -1.
         -1   -1    0    0    0  501 -0.00000000000E+00 -0.00000000000E+00 -0.52790718236E+03  0.52790718236E+03  0.00000000000E+00 0.  1.
         23    2    1    2    0    0  0.14468788917E+03 -0.94454003908E+01  0.48661461647E+03  0.51559631226E+03  0.89565458703E+02 0.  0.
        254    2    1    2    0    0 -0.14468788917E+03  0.94454003908E+01 -0.11343546564E+03  0.91339720329E+03  0.89465247177E+03 0.  0.
         23    2    4    4    0    0 -0.45575219785E+03  0.14705087951E+03  0.10819981946E+03  0.49796957494E+03  0.83261453440E+02 0.  0.
         23    2    4    4    0    0  0.31106430868E+03 -0.13760547912E+03 -0.22163528510E+03  0.41542762834E+03  0.88100186000E+02 0.  0.
         13    1    3    3    0    0  0.70781330365E+02  0.26073892625E+02  0.13597214908E+03  0.15549363308E+03  0.00000000000E+00 0.  1.
        -13    1    3    3    0    0  0.73906558806E+02 -0.35519293016E+02  0.35064246739E+03  0.36010267917E+03  0.00000000000E+00 0. -1.
          2    1    5    5  502    0 -0.42068131162E+02  0.36744297423E+02  0.27632059658E+02  0.62316946119E+02  0.00000000000E+00 0. -1.
          1    1    6    6  503    0  0.17230390587E+03 -0.12147065859E+03 -0.14736447025E+03  0.25721594812E+03  0.00000000000E+00 0. -1.
         -2    1    5    5    0  502 -0.41368406669E+03  0.11030658209E+03  0.80567759800E+02  0.43565262883E+03  0.00000000000E+00 0.  1.
         -1    1    6    6    0  503  0.13876040280E+03 -0.16134820536E+02 -0.74270814848E+02  0.15821168022E+03  0.00000000000E+00 0.  1.
<mgrwt>
<rscale>  0 0.13794056E+04</rscale>
<asrwt>0</asrwt>
<pdfrwt beam="1">  1        1 0.13862867E+00 0.13794056E+04</pdfrwt>
<pdfrwt beam="2">  1       -1 0.81216490E-01 0.13794056E+04</pdfrwt>
<totfact> 0.26794696E+01</totfact>
</mgrwt>
</event>
<event>
12    1  0.4247462E-008  0.2035612E+04  0.7818608E-02  0.8590150E-01
          2   -1    0    0  501    0  0.00000000000E+00  0.00000000000E+00  0.11517416167E+04  0.11517416167E+04  0.00000000000E+00 0. -1.
         -2   -1    0    0    0  501 -0.00000000000E+00 -0.00000000000E+00 -0.89944566014E+03  0.89944566014E+03  0.00000000000E+00 0.  1.
         23    2    1    2    0    0  0.52618759196E+03  0.62853056052E+03  0.40314589302E+02  0.82572482567E+03  0.90951493499E+02 0.  0.
        254    2    1    2    0    0 -0.52618759196E+03 -0.62853056052E+03  0.21198136729E+03  0.12254624512E+04  0.88594473405E+03 0.  0.
         23    2    4    4    0    0 -0.70258449799E+03 -0.28222402413E+03  0.29712634587E+03  0.81810163232E+03  0.87925188538E+02 0.  0.
         23    2    4    4    0    0  0.17639690603E+03 -0.34630653639E+03 -0.85144978585E+02  0.40736081889E+03  0.87459040618E+02 0.  0.
         11    1    3    3    0    0  0.38992773264E+02  0.74992000133E+02  0.25072817285E+02  0.88163953050E+02  0.00000000000E+00 0. -1.
        -11    1    3    3    0    0  0.48719481870E+03  0.55353856039E+03  0.15241772017E+02  0.73756087262E+03  0.00000000000E+00 0.  1.
          1    1    6    6  502    0  0.71204829662E+02 -0.22894013010E+03 -0.65425789318E+02  0.24852413333E+03  0.00000000000E+00 0. -1.
          1    1    5    5  503    0 -0.39307760569E+02 -0.20936622510E+02  0.41193867663E+02  0.60666110277E+02  0.00000000000E+00 0. -1.
         -1    1    5    5    0  503 -0.66327673742E+03 -0.26128740162E+03  0.25593247821E+03  0.75743552204E+03  0.00000000000E+00 0.  1.
         -1    1    6    6    0  502  0.10519207636E+03 -0.11736640628E+03 -0.19719189267E+02  0.15883668556E+03  0.00000000000E+00 0.  1.
<mgrwt>
<rscale>  0 0.20356119E+04</rscale>
<asrwt>0</asrwt>
<pdfrwt beam="1">  1        2 0.17719102E+00 0.20356119E+04</pdfrwt>
<pdfrwt beam="2">  1       -2 0.13837626E+00 0.20356119E+04</pdfrwt>
<totfact> 0.69464520E+00</totfact>
</mgrwt>
</event>
<event>
12    1  0.4247462E-008  0.1957008E+04  0.7818608E-02  0.8626989E-01
         -2   -1    0    0    0  501 -0.00000000000E+00  0.00000000000E+00  0.64486720572E+03  0.64486720572E+03  0.00000000000E+00 0.  1.
          2   -1    0    0  501    0  0.00000000000E+00 -0.00000000000E+00 -0.14847555456E+04  0.14847555456E+04  0.00000000000E+00 0. -1.
         23    2    1    2    0    0  0.40547221777E+03 -0.50196577662E+03 -0.80986889043E+03  0.10395617518E+04  0.91780476660E+02 0.  0.
        254    2    1    2    0    0 -0.40547221777E+03  0.50196577662E+03 -0.30019449429E+02  0.10900609995E+04  0.87804012149E+03 0.  0.
         23    2    4    4    0    0 -0.52431982048E+03  0.67138457515E+03 -0.73814044161E+02  0.85981967762E+03  0.90403777595E+02 0.  0.
         23    2    4    4    0    0  0.11884760271E+03 -0.16941879853E+03  0.43794594731E+02  0.23024132185E+03  0.90915443098E+02 0.  0.
         11    1    3    3    0    0  0.34870186135E+03 -0.47363241590E+03 -0.73786930055E+03  0.94359512409E+03  0.00000000000E+00 0. -1.
        -11    1    3    3    0    0  0.56770356414E+02 -0.28333360715E+02 -0.71999589878E+02  0.95966627738E+02  0.00000000000E+00 0.  1.
          2    1    6    6  502    0  0.12712495369E+03 -0.16700332248E+03  0.54160023884E+02  0.21675832569E+03  0.00000000000E+00 0. -1.
          2    1    5    5  503    0 -0.18917824043E+03  0.29914379684E+03 -0.58187007598E+02  0.35869366553E+03  0.00000000000E+00 0. -1.
         -2    1    5    5    0  503 -0.33514158005E+03  0.37224077832E+03 -0.15627036562E+02  0.50112601209E+03  0.00000000000E+00 0.  1.
         -2    1    6    6    0  502 -0.82773509838E+01 -0.24154760554E+01 -0.10365429152E+02  0.13482996158E+02  0.00000000000E+00 0.  1.
<mgrwt>
<rscale>  0 0.19570081E+04</rscale>
<asrwt>0</asrwt>
<pdfrwt beam="1">  1        2 0.22842393E+00 0.19570081E+04</pdfrwt>
<pdfrwt beam="2">  1       -2 0.99210341E-01 0.19570081E+04</pdfrwt>
<totfact> 0.10161322E+01</totfact>
</mgrwt>
</event>
<event>
12    1  0.4247462E-008  0.1169780E+04  0.7818608E-02  0.9139727E-01
         -2   -1    0    0    0  501 -0.00000000000E+00  0.00000000000E+00  0.37585785603E+03  0.37585785603E+03  0.00000000000E+00 0.  1.
          2   -1    0    0  501    0  0.00000000000E+00 -0.00000000000E+00 -0.91017431478E+03  0.91017431478E+03  0.00000000000E+00 0. -1.
         23    2    1    2    0    0 -0.45061318218E+02  0.20910625057E+03 -0.14867043986E+03  0.28400342730E+03  0.11313311010E+03 0.  0.
        254    2    1    2    0    0  0.45061318218E+02 -0.20910625057E+03 -0.38564601889E+03  0.10020287435E+04  0.89976819487E+03 0.  0.
         23    2    4    4    0    0  0.37895356073E+02  0.20232983131E+03 -0.51361595373E+03  0.56085492324E+03  0.91561336535E+02 0.  0.
         23    2    4    4    0    0  0.71659621452E+01 -0.41143608188E+03  0.12796993485E+03  0.44117382027E+03  0.94482987747E+02 0.  0.
         11    1    3    3    0    0  0.11154765351E+02 -0.11962119336E+01 -0.38352263990E+02  0.39959427751E+02  0.00000000000E+00 0.  1.
        -11    1    3    3    0    0 -0.56216083570E+02  0.21030246251E+03 -0.11031817587E+03  0.24404399955E+03  0.00000000000E+00 0. -1.
          2    1    5    5  502    0  0.22203690678E+02  0.18259273419E+02 -0.23671995659E+02  0.37239338394E+02  0.00000000000E+00 0. -1.
          3    1    6    6  503    0 -0.15663422778E+02 -0.10831452770E+02 -0.25758356737E+01  0.19217130683E+02  0.00000000000E+00 0. -1.
         -2    1    5    5    0  502  0.15691665395E+02  0.18407055789E+03 -0.48994395807E+03  0.52361558485E+03  0.00000000000E+00 0.  1.
         -3    1    6    6    0  503  0.22829384924E+02 -0.40060462911E+03  0.13054577052E+03  0.42195668958E+03  0.00000000000E+00 0.  1.
<mgrwt>
<rscale>  0 0.11697798E+04</rscale>
<asrwt>0</asrwt>
<pdfrwt beam="1">  1        2 0.14002682E+00 0.11697798E+04</pdfrwt>
<pdfrwt beam="2">  1       -2 0.57824287E-01 0.11697798E+04</pdfrwt>
<totfact> 0.79899771E+01</totfact>
</mgrwt>
</event>
<event>
12    1  0.4247462E-008  0.2160460E+04  0.7818608E-02  0.8535068E-01
          1   -1    0    0  501    0  0.00000000000E+00  0.00000000000E+00  0.16146946609E+04  0.16146946609E+04  0.00000000000E+00 0. -1.
         -1   -1    0    0    0  501 -0.00000000000E+00 -0.00000000000E+00 -0.72267313533E+03  0.72267313533E+03  0.00000000000E+00 0.  1.
         23    2    1    2    0    0 -0.78761264657E+03  0.10412012399E+02  0.80480304690E+03  0.11300613678E+04  0.94279688816E+02 0.  0.
        254    2    1    2    0    0  0.78761264657E+03 -0.10412012399E+02  0.87218478721E+02  0.12073064285E+04  0.91079067744E+03 0.  0.
         23    2    4    4    0    0  0.79150423712E+03 -0.29101165247E+03 -0.10520946949E+03  0.85487155096E+03  0.92572117360E+02 0.  0.
         23    2    4    4    0    0 -0.38915905588E+01  0.28059964007E+03  0.19242794821E+03  0.35243487749E+03  0.91817891145E+02 0.  0.
         13    1    3    3    0    0 -0.23787749980E+03  0.30783892960E+02  0.19808922974E+03  0.31108310130E+03  0.00000000000E+00 0. -1.
        -13    1    3    3    0    0 -0.54973514676E+03 -0.20371880561E+02  0.60671381716E+03  0.81897826652E+03  0.00000000000E+00 0.  1.
          4    1    5    5  502    0  0.72612677399E+03 -0.23915358655E+03 -0.86707737701E+02  0.76939766158E+03  0.00000000000E+00 0. -1.
          3    1    6    6  503    0  0.28993544925E+02  0.24064900126E+03  0.16987004453E+03  0.29598716102E+03  0.00000000000E+00 0. -1.
         -4    1    5    5    0  502  0.65377463133E+02 -0.51858065923E+02 -0.18501731786E+02  0.85473889381E+02  0.00000000000E+00 0.  1.
         -3    1    6    6    0  503 -0.32885135483E+02  0.39950638810E+02  0.22557903674E+02  0.56447716475E+02  0.00000000000E+00 0.  1.
<mgrwt>
<rscale>  0 0.21604596E+04</rscale>
<asrwt>0</asrwt>
<pdfrwt beam="1">  1        1 0.24841456E+00 0.21604596E+04</pdfrwt>
<pdfrwt beam="2">  1       -1 0.11118048E+00 0.21604596E+04</pdfrwt>
<totfact> 0.37111608E+00</totfact>
</mgrwt>
</event>
<event>
12    1  0.4247462E-008  0.9972736E+03  0.7818608E-02  0.9311540E-01
          1   -1    0    0  501    0  0.00000000000E+00  0.00000000000E+00  0.13599679163E+04  0.13599679163E+04  0.00000000000E+00 0. -1.
         -1   -1    0    0    0  501 -0.00000000000E+00 -0.00000000000E+00 -0.18282686583E+03  0.18282686583E+03  0.00000000000E+00 0.  1.
         23    2    1    2    0    0  0.29766573692E+02  0.38271340582E+02  0.84077588443E+02  0.13312121436E+03  0.91112416354E+02 0.  0.
        254    2    1    2    0    0 -0.29766573692E+02 -0.38271340582E+02  0.10930634620E+04  0.14096735678E+04  0.88884255707E+03 0.  0.
         23    2    4    4    0    0 -0.10025323692E+02  0.32615117394E+03  0.94753410771E+03  0.10062784358E+04  0.91106035574E+02 0.  0.
         23    2    4    4    0    0 -0.19741250000E+02 -0.36442251452E+03  0.14552935431E+03  0.40339513196E+03  0.91407622675E+02 0.  0.
         13    1    3    3    0    0 -0.12205646382E+02 -0.13391809590E+02  0.59445939383E+02  0.62146102668E+02  0.00000000000E+00 0. -1.
        -13    1    3    3    0    0  0.41972220074E+02  0.51663150172E+02  0.24631649060E+02  0.70975111688E+02  0.00000000000E+00 0.  1.
          4    1    5    5  502    0 -0.36449679753E+02  0.11592169969E+03  0.43551363268E+03  0.45214880721E+03  0.00000000000E+00 0. -1.
          3    1    6    6  503    0  0.48056157998E+01 -0.30278355298E+03  0.87390894758E+02  0.31517953992E+03  0.00000000000E+00 0. -1.
         -4    1    5    5    0  502  0.26424356061E+02  0.21022947425E+03  0.51202047503E+03  0.55412962860E+03  0.00000000000E+00 0.  1.
         -3    1    6    6    0  503 -0.24546865800E+02 -0.61638961547E+02  0.58138459548E+02  0.88215592045E+02  0.00000000000E+00 0.  1.
<mgrwt>
<rscale>  0 0.99727363E+03</rscale>
<asrwt>0</asrwt>
<pdfrwt beam="1">  1        1 0.20922583E+00 0.99727363E+03</pdfrwt>
<pdfrwt beam="2">  1       -1 0.28127211E-01 0.99727363E+03</pdfrwt>
<totfact> 0.93852451E+01</totfact>
</mgrwt>
</event>
<event>
12    1  0.4247462E-008  0.1143984E+04  0.7818608E-02  0.9163352E-01
          2   -1    0    0  501    0  0.00000000000E+00  0.00000000000E+00  0.57465467290E+03  0.57465467290E+03  0.00000000000E+00 0. -1.
         -2   -1    0    0    0  501 -0.00000000000E+00 -0.00000000000E+00 -0.56934161465E+03  0.56934161465E+03  0.00000000000E+00 0.  1.
         23    2    1    2    0    0  0.19380450210E+03  0.44228003241E+02 -0.28999691133E+02  0.22103034708E+03  0.92179883586E+02 0.  0.
        254    2    1    2    0    0 -0.19380450210E+03 -0.44228003241E+02  0.34312749381E+02  0.92296594047E+03  0.90065113179E+03 0.  0.
         23    2    4    4    0    0  0.10442343379E+03 -0.16401817467E+03  0.38353538137E+03  0.43972110146E+03  0.91918676905E+02 0.  0.
         23    2    4    4    0    0 -0.29822793589E+03  0.11979017143E+03 -0.34922263199E+03  0.48324483900E+03  0.90991982140E+02 0.  0.
         11    1    3    3    0    0  0.13216363519E+03  0.36350359847E+02  0.24242768514E+02  0.13919873186E+03  0.00000000000E+00 0. -1.
        -11    1    3    3    0    0  0.61640866914E+02  0.78776433941E+01 -0.53242459647E+02  0.81831615214E+02  0.00000000000E+00 0.  1.
          3    1    5    5  502    0  0.63058736846E+02 -0.15819164215E+03  0.27542334725E+03  0.32381942522E+03  0.00000000000E+00 0. -1.
          3    1    6    6  503    0 -0.18294060093E+03  0.71827734990E+02 -0.27491212879E+03  0.33793958859E+03  0.00000000000E+00 0. -1.
         -3    1    5    5    0  502  0.41364696941E+02 -0.58265325145E+01  0.10811203412E+03  0.11590167625E+03  0.00000000000E+00 0.  1.
         -3    1    6    6    0  503 -0.11528733496E+03  0.47962436438E+02 -0.74310503200E+02  0.14530525041E+03  0.00000000000E+00 0.  1.
<mgrwt>
<rscale>  0 0.11439839E+04</rscale>
<asrwt>0</asrwt>
<pdfrwt beam="1">  1        2 0.88408411E-01 0.11439839E+04</pdfrwt>
<pdfrwt beam="2">  1       -2 0.87591018E-01 0.11439839E+04</pdfrwt>
<totfact> 0.58227775E+01</totfact>
</mgrwt>
</event>
<event>
12    1  0.4247462E-008  0.2096555E+04  0.7818608E-02  0.8562762E-01
         -1   -1    0    0    0  501 -0.00000000000E+00  0.00000000000E+00  0.83205009699E+03  0.83205009699E+03  0.00000000000E+00 0.  1.
          1   -1    0    0  501    0  0.00000000000E+00 -0.00000000000E+00 -0.13206964137E+04  0.13206964137E+04  0.00000000000E+00 0. -1.
         23    2    1    2    0    0  0.97851789678E+02  0.81627557204E+03 -0.35671640915E+03  0.90081115543E+03  0.91287233211E+02 0.  0.
        254    2    1    2    0    0 -0.97851789678E+02 -0.81627557204E+03 -0.13192990753E+03  0.12519353552E+04  0.93490954158E+03 0.  0.
         23    2    4    4    0    0 -0.32915136227E+03 -0.88985901946E+03  0.89005280800E+01  0.95330263577E+03  0.92287605748E+02 0.  0.
         23    2    4    4    0    0  0.23129957259E+03  0.73583447424E+02 -0.14083043561E+03  0.29863271946E+03  0.10214829183E+03 0.  0.
         13    1    3    3    0    0  0.93820020456E+02  0.49115842758E+03 -0.24650822045E+03  0.55749896858E+03  0.00000000000E+00 0. -1.
        -13    1    3    3    0    0  0.40317692214E+01  0.32511714446E+03 -0.11020818870E+03  0.34331218685E+03  0.00000000000E+00 0.  1.
          2    1    5    5  502    0 -0.10988045823E+03 -0.42585528966E+03 -0.68521605813E+01  0.43985610708E+03  0.00000000000E+00 0. -1.
          4    1    6    6  503    0  0.37659967289E+02 -0.84467594767E+01 -0.64004876498E+02  0.74741187423E+02  0.00000000000E+00 0. -1.
         -2    1    5    5    0  502 -0.21927090403E+03 -0.46400372980E+03  0.15752688661E+02  0.51344652869E+03  0.00000000000E+00 0.  1.
         -4    1    6    6    0  503  0.19363960530E+03  0.82030206901E+02 -0.76825559111E+02  0.22389153204E+03  0.00000000000E+00 0.  1.
<mgrwt>
<rscale>  0 0.20965549E+04</rscale>
<asrwt>0</asrwt>
<pdfrwt beam="1">  1        1 0.20318406E+00 0.20965549E+04</pdfrwt>
<pdfrwt beam="2">  1       -1 0.12800771E+00 0.20965549E+04</pdfrwt>
<totfact> 0.42412746E+00</totfact>
</mgrwt>
</event>
<event>
12    1  0.4247462E-008  0.1518014E+04  0.7818608E-02  0.8872562E-01
         -2   -1    0    0    0  501 -0.00000000000E+00  0.00000000000E+00  0.12847819593E+04  0.12847819593E+04  0.00000000000E+00 0.  1.
          2   -1    0    0  501    0  0.00000000000E+00 -0.00000000000E+00 -0.44839628557E+03  0.44839628557E+03  0.00000000000E+00 0. -1.
         23    2    1    2    0    0  0.48386175570E+03  0.62364319729E+02  0.19143032315E+03  0.53178598646E+03  0.90217846211E+02 0.  0.
        254    2    1    2    0    0 -0.48386175570E+03 -0.62364319729E+02  0.64495535054E+03  0.12013922584E+04  0.88846184346E+03 0.  0.
         23    2    4    4    0    0 -0.63762924496E+03  0.10826251867E+03  0.68939318178E+03  0.95014078069E+03  0.95982899851E+02 0.  0.
         23    2    4    4    0    0  0.15376748926E+03 -0.17062683840E+03 -0.44437831243E+02  0.25125147768E+03  0.91622188667E+02 0.  0.
         11    1    3    3    0    0  0.41599266690E+03  0.38227230331E+02  0.13112400931E+03  0.43784098240E+03  0.00000000000E+00 0.  1.
        -11    1    3    3    0    0  0.67869088798E+02  0.24137089398E+02  0.60306313844E+02  0.93945004063E+02  0.00000000000E+00 0. -1.
          1    1    5    5  502    0 -0.20492127760E+03  0.80120248568E+02  0.22133102378E+03  0.31208877957E+03  0.00000000000E+00 0. -1.
          3    1    6    6  503    0  0.46058861721E+02 -0.93835625494E+02  0.16124845874E+02  0.10576650703E+03  0.00000000000E+00 0. -1.
         -1    1    5    5    0  502 -0.43270796735E+03  0.28142270103E+02  0.46806215800E+03  0.63805200111E+03  0.00000000000E+00 0.  1.
         -3    1    6    6    0  503  0.10770862754E+03 -0.76791212905E+02 -0.60562677117E+02  0.14548497065E+03  0.00000000000E+00 0.  1.
<mgrwt>
<rscale>  0 0.15180138E+04</rscale>
<asrwt>0</asrwt>
<pdfrwt beam="1">  1        2 0.68984044E-01 0.15180138E+04</pdfrwt>
<pdfrwt beam="2">  1       -2 0.19765876E+00 0.15180138E+04</pdfrwt>
<totfact> 0.92761702E+00</totfact>
</mgrwt>
</event>
<event>
12    1  0.4247462E-008  0.2224047E+04  0.7818608E-02  0.8508486E-01
         -2   -1    0    0    0  501 -0.00000000000E+00  0.00000000000E+00  0.50480654250E+03  0.50480654250E+03  0.00000000000E+00 0.  1.
          2   -1    0    0  501    0  0.00000000000E+00 -0.00000000000E+00 -0.24496431863E+04  0.24496431863E+04  0.00000000000E+00 0. -1.
         23    2    1    2    0    0  0.15813627846E+03  0.33770390870E+03 -0.19406012813E+04  0.19781780331E+04  0.90575853228E+02 0.  0.
        254    2    1    2    0    0 -0.15813627846E+03 -0.33770390870E+03 -0.42353625629E+01  0.97627169576E+03  0.90224025244E+03 0.  0.
         23    2    4    4    0    0  0.40976223750E+02 -0.28403635025E+03 -0.41182884484E+03  0.51069017038E+03  0.94051866052E+02 0.  0.
         23    2    4    4    0    0 -0.19911250221E+03 -0.53667558458E+02  0.40759348227E+03  0.46558152538E+03  0.90042848785E+02 0.  0.
         11    1    3    3    0    0  0.85204841177E+00  0.24797047020E+02 -0.55106085599E+02  0.60434263439E+02  0.00000000000E+00 0.  1.
        -11    1    3    3    0    0  0.15728423004E+03  0.31290686168E+03 -0.18854951957E+04  0.19177437696E+04  0.00000000000E+00 0. -1.
          2    1    5    5  502    0 -0.28703433826E+01 -0.78938657960E+02 -0.53198447239E+02  0.95234580801E+02  0.00000000000E+00 0. -1.
          4    1    6    6  503    0  0.80688658137E+01  0.52311292992E+01  0.18429122834E+02  0.20787108450E+02  0.00000000000E+00 0. -1.
         -2    1    5    5    0  502  0.43846567132E+02 -0.20509769229E+03 -0.35863039760E+03  0.41545558958E+03  0.00000000000E+00 0.  1.
         -4    1    6    6    0  503 -0.20718136802E+03 -0.58898687757E+02  0.38916435944E+03  0.44479441693E+03  0.00000000000E+00 0.  1.
<mgrwt>
<rscale>  0 0.22240467E+04</rscale>
<asrwt>0</asrwt>
<pdfrwt beam="1">  1        2 0.37686819E+00 0.22240467E+04</pdfrwt>
<pdfrwt beam="2">  1       -2 0.77662544E-01 0.22240467E+04</pdfrwt>
<totfact> 0.50170875E+00</totfact>
</mgrwt>
</event>
<event>
12    1  0.4247462E-008  0.1918584E+04  0.7818608E-02  0.8645661E-01
         -2   -1    0    0    0  501 -0.00000000000E+00  0.00000000000E+00  0.11987963447E+04  0.11987963447E+04  0.00000000000E+00 0.  1.
          2   -1    0    0  501    0  0.00000000000E+00 -0.00000000000E+00 -0.76763795470E+03  0.76763795470E+03  0.00000000000E+00 0. -1.
         23    2    1    2    0    0 -0.65621979572E+03  0.23186089973E+03 -0.10486195454E+03  0.70966205561E+03  0.90776134258E+02 0.  0.
        254    2    1    2    0    0  0.65621979572E+03 -0.23186089973E+03  0.53602034459E+03  0.12567722438E+04  0.89876290864E+03 0.  0.
         23    2    4    4    0    0  0.57171692596E+02 -0.46784868004E+03  0.29630031474E+03  0.56406108392E+03  0.90664436371E+02 0.  0.
         23    2    4    4    0    0  0.59904810312E+03  0.23598778031E+03  0.23972002985E+03  0.69271115991E+03  0.88510993956E+02 0.  0.
         11    1    3    3    0    0 -0.28595245299E+02  0.13759251579E+01 -0.21657240857E+02  0.35897316129E+02  0.00000000000E+00 0.  1.
        -11    1    3    3    0    0 -0.62762455042E+03  0.23048497457E+03 -0.83204713679E+02  0.67376473948E+03  0.00000000000E+00 0. -1.
          3    1    5    5  502    0  0.46371079464E+02 -0.12939291938E+03  0.54019783444E+02  0.14768527888E+03  0.00000000000E+00 0.  1.
          3    1    6    6  503    0  0.19817391813E+03  0.92499104148E+02  0.12434208469E+03  0.25157491950E+03  0.00000000000E+00 0.  1.
         -3    1    5    5    0  502  0.10800613131E+02 -0.33845576066E+03  0.24228053130E+03  0.41637580503E+03  0.00000000000E+00 0. -1.
         -3    1    6    6    0  503  0.40087418499E+03  0.14348867616E+03  0.11537794515E+03  0.44113624042E+03  0.00000000000E+00 0. -1.
<mgrwt>
<rscale>  0 0.19185845E+04</rscale>
<asrwt>0</asrwt>
<pdfrwt beam="1">  1        2 0.11809815E+00 0.19185845E+04</pdfrwt>
<pdfrwt beam="2">  1       -2 0.18443021E+00 0.19185845E+04</pdfrwt>
<totfact> 0.57480967E+00</totfact>
</mgrwt>
</event>
<event>
12    1  0.4247462E-008  0.1663185E+04  0.7818608E-02  0.8782645E-01
          2   -1    0    0  501    0  0.00000000000E+00  0.00000000000E+00  0.13877638044E+04  0.13877638044E+04  0.00000000000E+00 0.  1.
         -2   -1    0    0    0  501 -0.00000000000E+00 -0.00000000000E+00 -0.49831665406E+03  0.49831665406E+03  0.00000000000E+00 0. -1.
         23    2    1    2    0    0  0.56160090336E+03 -0.15467348249E+03  0.29557645418E+03  0.65979241592E+03  0.92957683920E+02 0.  0.
        254    2    1    2    0    0 -0.56160090336E+03  0.15467348249E+03  0.59387069615E+03  0.12262880425E+04  0.90098862294E+03 0.  0.
         23    2    4    4    0    0 -0.69038143083E+03 -0.48943111423E+02  0.65972216213E+03  0.96048919084E+03  0.91017615508E+02 0.  0.
         23    2    4    4    0    0  0.12878052747E+03  0.20361659391E+03 -0.65851465976E+02  0.26579885169E+03  0.90931141060E+02 0.  0.
         11    1    3    3    0    0  0.15452398339E+03 -0.17414206433E+02  0.11680623637E+03  0.19448550816E+03  0.00000000000E+00 0.  1.
        -11    1    3    3    0    0  0.40707691997E+03 -0.13725927605E+03  0.17877021781E+03  0.46530690776E+03  0.00000000000E+00 0. -1.
          4    1    5    5  502    0 -0.47119893988E+03 -0.59113530457E+02  0.40359069387E+03  0.62322411588E+03  0.00000000000E+00 0. -1.
          3    1    6    6  503    0  0.11660452697E+03  0.10136546174E+03 -0.37380957597E+02  0.15896197198E+03  0.00000000000E+00 0. -1.
         -4    1    5    5    0  502 -0.21918249095E+03  0.10170419034E+02  0.25613146826E+03  0.33726507497E+03  0.00000000000E+00 0.  1.
         -3    1    6    6    0  503  0.12176000501E+02  0.10225113217E+03 -0.28470508379E+02  0.10683687971E+03  0.00000000000E+00 0.  1.
<mgrwt>
<rscale>  0 0.16631847E+04</rscale>
<asrwt>0</asrwt>
<pdfrwt beam="1">  1        2 0.21350212E+00 0.16631847E+04</pdfrwt>
<pdfrwt beam="2">  1       -2 0.76664101E-01 0.16631847E+04</pdfrwt>
<totfact> 0.21342198E+01</totfact>
</mgrwt>
</event>
<event>
12    1  0.4247462E-008  0.1674363E+04  0.7818608E-02  0.8776123E-01
          2   -1    0    0  501    0  0.00000000000E+00  0.00000000000E+00  0.13395185316E+04  0.13395185316E+04  0.00000000000E+00 0. -1.
         -2   -1    0    0    0  501 -0.00000000000E+00 -0.00000000000E+00 -0.52322715777E+03  0.52322715777E+03  0.00000000000E+00 0.  1.
         23    2    1    2    0    0  0.26065831730E+03  0.31241386049E+03 -0.18923976450E+03  0.45815929275E+03  0.92482811695E+02 0.  0.
        254    2    1    2    0    0 -0.26065831730E+03 -0.31241386049E+03  0.10055311383E+04  0.14045863966E+04  0.89231434867E+03 0.  0.
         23    2    4    4    0    0 -0.56304324206E+03 -0.33349342545E+03  0.73551338377E+03  0.98864223652E+03  0.90542679938E+02 0.  0.
         23    2    4    4    0    0  0.30238492476E+03  0.21079564965E+02  0.27001775455E+03  0.41594416010E+03  0.90658511850E+02 0.  0.
         11    1    3    3    0    0  0.14089535136E+02 -0.52206391406E+01 -0.89264434284E+01  0.17477169841E+02  0.00000000000E+00 0. -1.
        -11    1    3    3    0    0  0.24656878217E+03  0.31763449963E+03 -0.18031332107E+03  0.44068212290E+03  0.00000000000E+00 0.  1.
          4    1    5    5  502    0 -0.20153842516E+03 -0.13571086754E+03  0.21240225642E+03  0.32272262846E+03  0.00000000000E+00 0.  1.
          3    1    6    6  503    0  0.29258389583E+03  0.88192250022E+01  0.22782917279E+03  0.37093024520E+03  0.00000000000E+00 0. -1.
         -4    1    5    5    0  502 -0.36150481689E+03 -0.19778255791E+03  0.52311112735E+03  0.66591960807E+03  0.00000000000E+00 0. -1.
         -3    1    6    6    0  503  0.98010289271E+01  0.12260339963E+02  0.42188581759E+02  0.45013914903E+02  0.00000000000E+00 0.  1.
<mgrwt>
<rscale>  0 0.16743625E+04</rscale>
<asrwt>0</asrwt>
<pdfrwt beam="1">  1        2 0.20607977E+00 0.16743625E+04</pdfrwt>
<pdfrwt beam="2">  1       -2 0.80496486E-01 0.16743625E+04</pdfrwt>
<totfact> 0.20379961E+01</totfact>
</mgrwt>
</event>
<event>
12    1  0.4247462E-008  0.1360455E+04  0.7818608E-02  0.8982952E-01
         -1   -1    0    0    0  501 -0.00000000000E+00  0.00000000000E+00  0.58250677323E+03  0.58250677323E+03  0.00000000000E+00 0.  1.
          1   -1    0    0  501    0  0.00000000000E+00 -0.00000000000E+00 -0.79434127816E+03  0.79434127816E+03  0.00000000000E+00 0. -1.
         23    2    1    2    0    0  0.30643801280E+03  0.71486562188E+02 -0.27236707271E+03  0.42590143025E+03  0.90518626415E+02 0.  0.
        254    2    1    2    0    0 -0.30643801280E+03 -0.71486562188E+02  0.60532567784E+02  0.95094662113E+03  0.89533273157E+03 0.  0.
         23    2    4    4    0    0 -0.51671123378E+03  0.20586480777E+03 -0.68579191433E+02  0.56711482440E+03  0.86863688413E+02 0.  0.
         23    2    4    4    0    0  0.21027322098E+03 -0.27735136996E+03  0.12911175922E+03  0.38383179673E+03  0.97562246459E+02 0.  0.
         13    1    3    3    0    0  0.21578965662E+03  0.70104923809E+02 -0.14393569099E+03  0.26869566314E+03  0.00000000000E+00 0. -1.
        -13    1    3    3    0    0  0.90648356177E+02  0.13816383794E+01 -0.12843138172E+03  0.15720576711E+03  0.00000000000E+00 0.  1.
          1    1    5    5  502    0 -0.24451283132E+01  0.10744542447E+02 -0.82765491763E+01  0.13781331979E+02  0.00000000000E+00 0. -1.
          3    1    6    6  503    0  0.41549197238E+02 -0.12942262225E+03  0.63619183483E+02  0.15007981693E+03  0.00000000000E+00 0. -1.
         -1    1    5    5    0  502 -0.51426610547E+03  0.19512026532E+03 -0.60302642257E+02  0.55333349242E+03  0.00000000000E+00 0.  1.
         -3    1    6    6    0  503  0.16872402374E+03 -0.14792874770E+03  0.65492575734E+02  0.23375197980E+03  0.00000000000E+00 0.  1.
<mgrwt>
<rscale>  0 0.13604546E+04</rscale>
<asrwt>0</asrwt>
<pdfrwt beam="1">  1        1 0.12220635E+00 0.13604546E+04</pdfrwt>
<pdfrwt beam="2">  1       -1 0.89616427E-01 0.13604546E+04</pdfrwt>
<totfact> 0.26682011E+01</totfact>
</mgrwt>
</event>
<event>
12    1  0.4247462E-008  0.1469750E+04  0.7818608E-02  0.8904822E-01
         -2   -1    0    0    0  501 -0.00000000000E+00  0.00000000000E+00  0.52935544834E+03  0.52935544834E+03  0.00000000000E+00 0. -1.
          2   -1    0    0  501    0  0.00000000000E+00 -0.00000000000E+00 -0.10201859557E+04  0.10201859557E+04  0.00000000000E+00 0.  1.
         23    2    1    2    0    0 -0.25457143077E+03 -0.22890808986E+03  0.15421193635E+03  0.38835359339E+03  0.99154753897E+02 0.  0.
        254    2    1    2    0    0  0.25457143077E+03  0.22890808986E+03 -0.64504244374E+03  0.11611878107E+04  0.90281329768E+03 0.  0.
         23    2    4    4    0    0  0.36479456653E+03  0.30160975779E+03 -0.80221059201E+03  0.93606217010E+03  0.92881809763E+02 0.  0.
         23    2    4    4    0    0 -0.11022313576E+03 -0.72701667936E+02  0.15716814827E+03  0.22512564058E+03  0.92439466889E+02 0.  0.
         13    1    3    3    0    0 -0.61504871050E+01 -0.12785894786E+02 -0.12832489507E+02  0.19130613792E+02  0.00000000000E+00 0.  1.
        -13    1    3    3    0    0 -0.24842094366E+03 -0.21612219507E+03  0.16704442586E+03  0.36922297960E+03  0.00000000000E+00 0. -1.
          2    1    5    5  502    0  0.35610870246E+03  0.29132080768E+03 -0.73208691322E+03  0.86465742897E+03  0.00000000000E+00 0. -1.
          4    1    6    6  503    0 -0.58032767517E+02 -0.83715073087E+02  0.13033039962E+03  0.16541471710E+03  0.00000000000E+00 0. -1.
         -2    1    5    5    0  502  0.86858640711E+01  0.10288950112E+02 -0.70123678786E+02  0.71404741128E+02  0.00000000000E+00 0.  1.
         -4    1    6    6    0  503 -0.52190368247E+02  0.11013405151E+02  0.26837748649E+02  0.59710923484E+02  0.00000000000E+00 0.  1.
<mgrwt>
<rscale>  0 0.14697496E+04</rscale>
<asrwt>0</asrwt>
<pdfrwt beam="1">  1        2 0.15695169E+00 0.14697496E+04</pdfrwt>
<pdfrwt beam="2">  1       -2 0.81439300E-01 0.14697496E+04</pdfrwt>
<totfact> 0.31444704E+01</totfact>
</mgrwt>
</event>
<event>
12    1  0.4247462E-008  0.1416392E+04  0.7818608E-02  0.8942038E-01
         -2   -1    0    0    0  501 -0.00000000000E+00  0.00000000000E+00  0.36252034191E+03  0.36252034191E+03  0.00000000000E+00 0.  1.
          2   -1    0    0  501    0  0.00000000000E+00 -0.00000000000E+00 -0.13834844139E+04  0.13834844139E+04  0.00000000000E+00 0. -1.
         23    2    1    2    0    0  0.58312183608E+02 -0.82279437048E+02 -0.80424104526E+03  0.81555399189E+03  0.90301928409E+02 0.  0.
        254    2    1    2    0    0 -0.58312183608E+02  0.82279437048E+02 -0.21672302671E+03  0.93045076391E+03  0.89922162854E+03 0.  0.
         23    2    4    4    0    0 -0.86147190353E+02 -0.26438221497E+03  0.21879438116E+03  0.36583319315E+03  0.92971232037E+02 0.  0.
         23    2    4    4    0    0  0.27835006746E+02  0.34666165202E+03 -0.43551740787E+03  0.56461757076E+03  0.90379754750E+02 0.  0.
         11    1    3    3    0    0  0.45031997668E+01 -0.75524440394E+02 -0.57658352570E+03  0.58152625221E+03  0.00000000000E+00 0. -1.
        -11    1    3    3    0    0  0.53808983841E+02 -0.67549966544E+01 -0.22765751957E+03  0.23402773968E+03  0.00000000000E+00 0.  1.
          4    1    5    5  502    0 -0.46587903280E+02 -0.16214142274E+03  0.73996195649E+02  0.18421647774E+03  0.00000000000E+00 0.  1.
          1    1    6    6  503    0  0.54769094910E+01  0.15734587822E+03 -0.26808391835E+03  0.31089662141E+03  0.00000000000E+00 0. -1.
         -4    1    5    5    0  502 -0.39559287074E+02 -0.10224079223E+03  0.14479818551E+03  0.18161671541E+03  0.00000000000E+00 0. -1.
         -1    1    6    6    0  503  0.22358097255E+02  0.18931577380E+03 -0.16743348952E+03  0.25372094934E+03  0.00000000000E+00 0.  1.
<mgrwt>
<rscale>  0 0.14163915E+04</rscale>
<asrwt>0</asrwt>
<pdfrwt beam="1">  1        2 0.21284376E+00 0.14163915E+04</pdfrwt>
<pdfrwt beam="2">  1       -2 0.55772360E-01 0.14163915E+04</pdfrwt>
<totfact> 0.43413854E+01</totfact>
</mgrwt>
</event>
<event>
12    1  0.4247462E-008  0.1544062E+04  0.7818608E-02  0.8855669E-01
         -4   -1    0    0    0  501 -0.00000000000E+00  0.00000000000E+00  0.29940813424E+03  0.29940813424E+03  0.00000000000E+00 0.  1.
          4   -1    0    0  501    0  0.00000000000E+00 -0.00000000000E+00 -0.19907007642E+04  0.19907007642E+04  0.00000000000E+00 0. -1.
         23    2    1    2    0    0  0.13223211198E+03 -0.44812101295E+03 -0.28819684537E+03  0.55642726180E+03  0.90863096496E+02 0.  0.
        254    2    1    2    0    0 -0.13223211198E+03  0.44812101295E+03 -0.14030957846E+04  0.17336816367E+04  0.90480741755E+03 0.  0.
         23    2    4    4    0    0  0.31852217821E+03  0.24659148070E+03 -0.10208074420E+04  0.11015494312E+04  0.95391715662E+02 0.  0.
         23    2    4    4    0    0 -0.45075429019E+03  0.20152953225E+03 -0.38228834264E+03  0.63213220548E+03  0.98250525645E+02 0.  0.
         13    1    3    3    0    0  0.29709430613E+02 -0.10278215193E+03 -0.11380338389E+03  0.15619869144E+03  0.00000000000E+00 0. -1.
        -13    1    3    3    0    0  0.10252268137E+03 -0.34533886102E+03 -0.17439346149E+03  0.40022857036E+03  0.00000000000E+00 0.  1.
          2    1    5    5  502    0  0.27351010767E+03  0.16132877672E+03 -0.78398536124E+03  0.84585329687E+03  0.00000000000E+00 0. -1.
          1    1    6    6  503    0 -0.45085048575E+03  0.18863161773E+03 -0.36239239752E+03  0.60842115141E+03  0.00000000000E+00 0. -1.
         -2    1    5    5    0  502  0.45012070538E+02  0.85262703980E+02 -0.23682208071E+03  0.25569613430E+03  0.00000000000E+00 0.  1.
         -1    1    6    6    0  503  0.96195559940E-01  0.12897914516E+02 -0.19895945123E+02  0.23711054063E+02  0.00000000000E+00 0.  1.
<mgrwt>
<rscale>  0 0.15440622E+04</rscale>
<asrwt>0</asrwt>
<pdfrwt beam="1">  1        4 0.30626166E+00 0.15440622E+04</pdfrwt>
<pdfrwt beam="2">  1       -4 0.46062790E-01 0.15440622E+04</pdfrwt>
<totfact> 0.25027056E-01</totfact>
</mgrwt>
</event>
<event>
12    1  0.4247462E-008  0.1558347E+04  0.7818608E-02  0.8846554E-01
          2   -1    0    0  501    0  0.00000000000E+00  0.00000000000E+00  0.45624957910E+03  0.45624957910E+03  0.00000000000E+00 0.  1.
         -2   -1    0    0    0  501 -0.00000000000E+00 -0.00000000000E+00 -0.13306558252E+04  0.13306558252E+04  0.00000000000E+00 0. -1.
         23    2    1    2    0    0  0.37871798331E+03  0.25105675297E+03 -0.57052524347E+03  0.73501336402E+03  0.91042779809E+02 0.  0.
        254    2    1    2    0    0 -0.37871798331E+03 -0.25105675297E+03 -0.30388100259E+03  0.10518920402E+04  0.89870818205E+03 0.  0.
         23    2    4    4    0    0 -0.16105992872E+03  0.17932820128E+03 -0.46773306617E+03  0.53409069267E+03  0.91540932891E+02 0.  0.
         23    2    4    4    0    0 -0.21765805459E+03 -0.43038495425E+03  0.16385206358E+03  0.51780134757E+03  0.93083291921E+02 0.  0.
         11    1    3    3    0    0  0.36903338850E+03  0.21958000597E+03 -0.51595077304E+03  0.67127209167E+03  0.00000000000E+00 0. -1.
        -11    1    3    3    0    0  0.96845948089E+01  0.31476746998E+02 -0.54574470432E+02  0.63741272352E+02  0.00000000000E+00 0.  1.
          2    1    5    5  502    0  0.54890019091E+01  0.33055331577E+02 -0.91144432328E+02  0.97108658893E+02  0.00000000000E+00 0. -1.
          1    1    6    6  503    0 -0.41155883548E+02 -0.92608816623E+02 -0.38712212994E+01  0.10141590615E+03  0.00000000000E+00 0. -1.
         -2    1    5    5    0  502 -0.16654893063E+03  0.14627286970E+03 -0.37658863385E+03  0.43698203378E+03  0.00000000000E+00 0.  1.
         -1    1    6    6    0  503 -0.17650217104E+03 -0.33777613762E+03  0.16772328488E+03  0.41638544141E+03  0.00000000000E+00 0.  1.
<mgrwt>
<rscale>  0 0.15583468E+04</rscale>
<asrwt>0</asrwt>
<pdfrwt beam="1">  1        2 0.70192243E-01 0.15583468E+04</pdfrwt>
<pdfrwt beam="2">  1       -2 0.20471628E+00 0.15583468E+04</pdfrwt>
<totfact> 0.81504850E+00</totfact>
</mgrwt>
</event>
<event>
12    1  0.4247462E-008  0.1238984E+04  0.7818608E-02  0.9079402E-01
         -1   -1    0    0    0  501 -0.00000000000E+00  0.00000000000E+00  0.17359877993E+03  0.17359877993E+03  0.00000000000E+00 0.  1.
          1   -1    0    0  501    0  0.00000000000E+00 -0.00000000000E+00 -0.22106756274E+04  0.22106756274E+04  0.00000000000E+00 0. -1.
         23    2    1    2    0    0 -0.13342262271E+03 -0.12346814659E+01 -0.84068454587E+01  0.16189661151E+03  0.91305624574E+02 0.  0.
        254    2    1    2    0    0  0.13342262271E+03  0.12346814659E+01 -0.20286700020E+04  0.22223777958E+04  0.89758451948E+03 0.  0.
         23    2    4    4    0    0  0.50784351895E+03 -0.49996193219E+02 -0.11809718635E+04  0.12897215675E+04  0.91008352308E+02 0.  0.
         23    2    4    4    0    0 -0.37442089625E+03  0.51230874685E+02 -0.84769813850E+03  0.93265622832E+03  0.91868907371E+02 0.  0.
         13    1    3    3    0    0 -0.14450966014E+03 -0.56025558005E+01  0.40272892870E+01  0.14467428785E+03  0.00000000000E+00 0.  1.
        -13    1    3    3    0    0  0.11087037435E+02  0.43678743346E+01 -0.12434134746E+02  0.17222323658E+02  0.00000000000E+00 0. -1.
          1    1    5    5  502    0  0.35952757309E+03 -0.29963911332E+02 -0.72478391792E+03  0.80961079506E+03  0.00000000000E+00 0. -1.
          3    1    6    6  503    0 -0.31582913102E+03  0.76653059603E+02 -0.70294002271E+03  0.77443424968E+03  0.00000000000E+00 0. -1.
         -1    1    5    5    0  502  0.14831594587E+03 -0.20032281887E+02 -0.45618794561E+03  0.48011077246E+03  0.00000000000E+00 0.  1.
         -3    1    6    6    0  503 -0.58591765230E+02 -0.25422184918E+02 -0.14475811579E+03  0.15822197865E+03  0.00000000000E+00 0.  1.
<mgrwt>
<rscale>  0 0.12389844E+04</rscale>
<asrwt>0</asrwt>
<pdfrwt beam="1">  1        1 0.34010393E+00 0.12389844E+04</pdfrwt>
<pdfrwt beam="2">  1       -1 0.26707505E-01 0.12389844E+04</pdfrwt>
<totfact> 0.26506455E+01</totfact>
</mgrwt>
</event>
<event>
12    1  0.4247462E-008  0.2290767E+04  0.7818608E-02  0.8481571E-01
         -1   -1    0    0    0  501 -0.00000000000E+00  0.00000000000E+00  0.10269586274E+04  0.10269586274E+04  0.00000000000E+00 0.  1.
          1   -1    0    0  501    0  0.00000000000E+00 -0.00000000000E+00 -0.12774642803E+04  0.12774642803E+04  0.00000000000E+00 0. -1.
         23    2    1    2    0    0 -0.92668979213E+03  0.25175698557E+03 -0.12819915169E+03  0.97298014130E+03  0.90109834369E+02 0.  0.
        254    2    1    2    0    0  0.92668979213E+03 -0.25175698557E+03 -0.12230650117E+03  0.13314427664E+04  0.91413642818E+03 0.  0.
         23    2    4    4    0    0  0.13604920128E+03 -0.31175689485E+03  0.26852352307E+03  0.44308287234E+03  0.92281106760E+02 0.  0.
         23    2    4    4    0    0  0.79064059085E+03  0.59999909278E+02 -0.39083002424E+03  0.88835989406E+03  0.87878669226E+02 0.  0.
         11    1    3    3    0    0 -0.77909032462E+03  0.22128683063E+03 -0.75916469062E+02  0.81345737787E+03  0.00000000000E+00 0.  1.
        -11    1    3    3    0    0 -0.14759946751E+03  0.30470154940E+02 -0.52282682633E+02  0.15952276344E+03  0.00000000000E+00 0. -1.
          4    1    5    5  502    0  0.74949349286E+02 -0.96736433383E+02  0.55752753763E+02  0.13447569317E+03  0.00000000000E+00 0. -1.
          1    1    6    6  503    0  0.62540010942E+03  0.64368768529E+02 -0.34348444237E+03  0.71641482214E+03  0.00000000000E+00 0. -1.
         -4    1    5    5    0  502  0.61099851991E+02 -0.21502046147E+03  0.21277076930E+03  0.30860717917E+03  0.00000000000E+00 0.  1.
         -1    1    6    6    0  503  0.16524048143E+03 -0.43688592507E+01 -0.47345581862E+02  0.17194507192E+03  0.00000000000E+00 0.  1.
<mgrwt>
<rscale>  0 0.22907667E+04</rscale>
<asrwt>0</asrwt>
<pdfrwt beam="1">  1        1 0.19653297E+00 0.22907667E+04</pdfrwt>
<pdfrwt beam="2">  1       -1 0.15799364E+00 0.22907667E+04</pdfrwt>
<totfact> 0.25709993E+00</totfact>
</mgrwt>
</event>
<event>
12    1  0.4247462E-008  0.1731910E+04  0.7818608E-02  0.8743371E-01
         -1   -1    0    0    0  501 -0.00000000000E+00  0.00000000000E+00  0.10441299092E+04  0.10441299092E+04  0.00000000000E+00 0.  1.
          1   -1    0    0  501    0  0.00000000000E+00 -0.00000000000E+00 -0.71818464815E+03  0.71818464815E+03  0.00000000000E+00 0. -1.
         23    2    1    2    0    0 -0.52378148312E+03 -0.82316876927E+02 -0.23369218427E+03  0.58661867800E+03  0.91576886322E+02 0.  0.
        254    2    1    2    0    0  0.52378148312E+03  0.82316876927E+02  0.55963744533E+03  0.11756958794E+04  0.88766188396E+03 0.  0.
         23    2    4    4    0    0  0.65194446193E+03 -0.24159757057E+02  0.68350552790E+03  0.94922436928E+03  0.90729384753E+02 0.  0.
         23    2    4    4    0    0 -0.12816297881E+03  0.10647663398E+03 -0.12386808257E+03  0.22647151008E+03  0.90460047947E+02 0.  0.
         11    1    3    3    0    0 -0.12262110611E+03 -0.11849759594E+02 -0.97640691634E+02  0.15719432919E+03  0.00000000000E+00 0.  1.
        -11    1    3    3    0    0 -0.40116037701E+03 -0.70467117333E+02 -0.13605149263E+03  0.42942434881E+03  0.00000000000E+00 0. -1.
          4    1    5    5  502    0  0.66281627646E+02  0.19395125402E+02  0.98441362785E+02  0.12025026802E+03  0.00000000000E+00 0. -1.
          1    1    6    6  503    0  0.68673136020E+01  0.32002201766E+02 -0.83034012223E+01  0.33767549302E+02  0.00000000000E+00 0. -1.
         -4    1    5    5    0  502  0.58566283428E+03 -0.43554882459E+02  0.58506416511E+03  0.82897410125E+03  0.00000000000E+00 0.  1.
         -1    1    6    6    0  503 -0.13503029241E+03  0.74474432218E+02 -0.11556468135E+03  0.19270396077E+03  0.00000000000E+00 0.  1.
<mgrwt>
<rscale>  0 0.17319100E+04</rscale>
<asrwt>0</asrwt>
<pdfrwt beam="1">  1        1 0.11048995E+00 0.17319100E+04</pdfrwt>
<pdfrwt beam="2">  1       -1 0.16063537E+00 0.17319100E+04</pdfrwt>
<totfact> 0.71853878E+00</totfact>
</mgrwt>
</event>
<event>
12    1  0.4247462E-008  0.2238201E+04  0.7818608E-02  0.8502694E-01
         -2   -1    0    0    0  501 -0.00000000000E+00  0.00000000000E+00  0.45341561654E+03  0.45341561654E+03  0.00000000000E+00 0.  1.
          2   -1    0    0  501    0  0.00000000000E+00 -0.00000000000E+00 -0.27621158229E+04  0.27621158229E+04  0.00000000000E+00 0. -1.
         23    2    1    2    0    0  0.58794480124E+03 -0.57203161786E+03 -0.32400929506E+03  0.88659401989E+03  0.90375171810E+02 0.  0.
        254    2    1    2    0    0 -0.58794480124E+03  0.57203161786E+03 -0.19846909113E+04  0.23289374196E+04  0.90113940634E+03 0.  0.
         23    2    4    4    0    0 -0.39697623201E+02  0.77158299921E+01  0.73572048828E+02  0.12359204893E+03  0.90701228605E+02 0.  0.
         23    2    4    4    0    0 -0.54824717804E+03  0.56431578787E+03 -0.20582629601E+04  0.22053453706E+04  0.89858299656E+02 0.  0.
         11    1    3    3    0    0  0.49148351428E+03 -0.50333435600E+03 -0.30454043725E+03  0.76658097854E+03  0.00000000000E+00 0.  1.
        -11    1    3    3    0    0  0.96461286962E+02 -0.68697261868E+02 -0.19468857805E+02  0.12001304135E+03  0.00000000000E+00 0. -1.
          2    1    6    6  502    0 -0.13886110292E+03  0.18436418287E+03 -0.68517460439E+03  0.72300539164E+03  0.00000000000E+00 0.  1.
          2    1    5    5  503    0  0.91946654809E+01 -0.22114490359E+02  0.60183842908E+02  0.64774126813E+02  0.00000000000E+00 0. -1.
         -2    1    5    5    0  503 -0.48892288682E+02  0.29830320351E+02  0.13388205920E+02  0.58817922120E+02  0.00000000000E+00 0.  1.
         -2    1    6    6    0  502 -0.40938607511E+03  0.37995160500E+03 -0.13730883557E+04  0.14823399790E+04  0.00000000000E+00 0. -1.
<mgrwt>
<rscale>  0 0.22382015E+04</rscale>
<asrwt>0</asrwt>
<pdfrwt beam="1">  1        2 0.42494091E+00 0.22382015E+04</pdfrwt>
<pdfrwt beam="2">  1       -2 0.69756246E-01 0.22382015E+04</pdfrwt>
<totfact> 0.41621042E+00</totfact>
</mgrwt>
</event>
<event>
12    1  0.4247462E-008  0.1799985E+04  0.7818608E-02  0.8706307E-01
          1   -1    0    0  501    0  0.00000000000E+00  0.00000000000E+00  0.13504435616E+04  0.13504435616E+04  0.00000000000E+00 0. -1.
         -1   -1    0    0    0  501 -0.00000000000E+00 -0.00000000000E+00 -0.59979310817E+03  0.59979310817E+03  0.00000000000E+00 0.  1.
         23    2    1    2    0    0  0.11108273922E+03 -0.50225673047E+03  0.74348964189E+03  0.90925406802E+03  0.96772487587E+02 0.  0.
        254    2    1    2    0    0 -0.11108273922E+03  0.50225673047E+03  0.71608115668E+01  0.10409826018E+04  0.90498193448E+03 0.  0.
         23    2    4    4    0    0  0.38916101463E+03  0.20907870709E+03 -0.24655908487E+02  0.45199921175E+03  0.92385997499E+02 0.  0.
         23    2    4    4    0    0 -0.50024375385E+03  0.29317802338E+03  0.31816720054E+02  0.58898339003E+03  0.98447769915E+02 0.  0.
         11    1    3    3    0    0  0.10159038384E+03 -0.40368816271E+03  0.65700927010E+03  0.77778269445E+03  0.00000000000E+00 0. -1.
        -11    1    3    3    0    0  0.94923553776E+01 -0.98568567760E+02  0.86480371795E+02  0.13147137356E+03  0.00000000000E+00 0.  1.
          2    1    5    5  502    0  0.14703759316E+03  0.61431681537E+02 -0.50674767098E+02  0.16721793360E+03  0.00000000000E+00 0. -1.
          1    1    6    6  503    0 -0.77776302543E+02  0.82989068467E+02  0.27858603357E+02  0.11710013024E+03  0.00000000000E+00 0. -1.
         -2    1    5    5    0  502  0.24212342148E+03  0.14764702555E+03  0.26018858611E+02  0.28478127815E+03  0.00000000000E+00 0.  1.
         -1    1    6    6    0  503 -0.42246745131E+03  0.21018895492E+03  0.39581166971E+01  0.47188325979E+03  0.00000000000E+00 0.  1.
<mgrwt>
<rscale>  0 0.17999853E+04</rscale>
<asrwt>0</asrwt>
<pdfrwt beam="1">  1        1 0.20776055E+00 0.17999853E+04</pdfrwt>
<pdfrwt beam="2">  1       -1 0.92275863E-01 0.17999853E+04</pdfrwt>
<totfact> 0.89803087E+00</totfact>
</mgrwt>
</event>
<event>
12    1  0.4247462E-008  0.1909489E+04  0.7818608E-02  0.8650148E-01
         -2   -1    0    0    0  501 -0.00000000000E+00  0.00000000000E+00  0.25211208869E+03  0.25211208869E+03  0.00000000000E+00 0. -1.
          2   -1    0    0  501    0  0.00000000000E+00 -0.00000000000E+00 -0.36156007578E+04  0.36156007578E+04  0.00000000000E+00 0.  1.
         23    2    1    2    0    0  0.10946706823E+03 -0.64151402369E+03 -0.61159142301E+03  0.89756796010E+03  0.89782474266E+02 0.  0.
        254    2    1    2    0    0 -0.10946706823E+03  0.64151402369E+03 -0.27518972461E+04  0.29701448864E+04  0.90845963666E+03 0.  0.
         23    2    4    4    0    0  0.12482582766E+03  0.39617528252E+02 -0.17860107315E+02  0.15926322982E+03  0.88852445904E+02 0.  0.
         23    2    4    4    0    0 -0.23429289589E+03  0.60189649544E+03 -0.27340371388E+04  0.28108816566E+04  0.94467236184E+02 0.  0.
         13    1    3    3    0    0  0.60654069587E+02 -0.44797765727E+03 -0.47483276000E+03  0.65561348945E+03  0.00000000000E+00 0. -1.
        -13    1    3    3    0    0  0.48812998643E+02 -0.19353636642E+03 -0.13675866300E+03  0.24195447066E+03  0.00000000000E+00 0.  1.
          2    1    6    6  502    0 -0.95926746569E+02  0.37257451610E+03 -0.15772043425E+04  0.16234491827E+04  0.00000000000E+00 0.  1.
          2    1    5    5  503    0  0.94913727646E+02  0.47697641788E+02 -0.47521607778E+02  0.11637003022E+03  0.00000000000E+00 0. -1.
         -2    1    5    5    0  503  0.29912100011E+02 -0.80801135354E+01  0.29661500463E+02  0.42893199595E+02  0.00000000000E+00 0.  1.
         -2    1    6    6    0  502 -0.13836614932E+03  0.22932197934E+03 -0.11568327963E+04  0.11874324739E+04  0.00000000000E+00 0. -1.
<mgrwt>
<rscale>  0 0.19094886E+04</rscale>
<asrwt>0</asrwt>
<pdfrwt beam="1">  1        2 0.55624623E+00 0.19094886E+04</pdfrwt>
<pdfrwt beam="2">  1       -2 0.38786478E-01 0.19094886E+04</pdfrwt>
<totfact> 0.39858880E+00</totfact>
</mgrwt>
</event>
<event>
12    1  0.4247462E-008  0.2592073E+04  0.7818608E-02  0.8370899E-01
         -1   -1    0    0    0  501 -0.00000000000E+00  0.00000000000E+00  0.19643269032E+04  0.19643269032E+04  0.00000000000E+00 0.  1.
          1   -1    0    0  501    0  0.00000000000E+00 -0.00000000000E+00 -0.85510744948E+03  0.85510744948E+03  0.00000000000E+00 0. -1.
         23    2    1    2    0    0  0.86555236367E+02  0.76653419319E+03  0.13897270952E+04  0.15924350197E+04  0.97166942342E+02 0.  0.
        254    2    1    2    0    0 -0.86555236367E+02 -0.76653419319E+03 -0.28050764144E+03  0.12269993330E+04  0.91201773445E+03 0.  0.
         23    2    4    4    0    0  0.13264190277E+03 -0.90317699912E+03 -0.17591118247E+03  0.93422799777E+03  0.92274815585E+02 0.  0.
         23    2    4    4    0    0 -0.21919713913E+03  0.13664280594E+03 -0.10459645897E+03  0.29277133521E+03  0.89755185206E+02 0.  0.
         11    1    3    3    0    0  0.27973940101E+02  0.14724601917E+03  0.20032457400E+03  0.25018766244E+03  0.00000000000E+00 0. -1.
        -11    1    3    3    0    0  0.58581296266E+02  0.61928817402E+03  0.11894025212E+04  0.13422473573E+04  0.00000000000E+00 0.  1.
          2    1    5    5  502    0  0.38481129114E+02 -0.51352537092E+03 -0.12694466052E+03  0.53038104294E+03  0.00000000000E+00 0. -1.
          1    1    6    6  503    0 -0.65101828986E+02  0.91224372140E+02 -0.53538659280E+02  0.12420355167E+03  0.00000000000E+00 0. -1.
         -2    1    5    5    0  502  0.94160773652E+02 -0.38965162820E+03 -0.48966521954E+02  0.40384695483E+03  0.00000000000E+00 0.  1.
         -1    1    6    6    0  503 -0.15409531015E+03  0.45418433797E+02 -0.51057799689E+02  0.16856778354E+03  0.00000000000E+00 0.  1.
<mgrwt>
<rscale>  0 0.25920730E+04</rscale>
<asrwt>0</asrwt>
<pdfrwt beam="1">  1        1 0.13155499E+00 0.25920730E+04</pdfrwt>
<pdfrwt beam="2">  1       -1 0.30220414E+00 0.25920730E+04</pdfrwt>
<totfact> 0.55851339E-01</totfact>
</mgrwt>
</event>
<event>
12    1  0.4247462E-008  0.1727278E+04  0.7818608E-02  0.8745958E-01
         -1   -1    0    0    0  501 -0.00000000000E+00  0.00000000000E+00  0.60066164436E+03  0.60066164436E+03  0.00000000000E+00 0.  1.
          1   -1    0    0  501    0  0.00000000000E+00 -0.00000000000E+00 -0.12417509877E+04  0.12417509877E+04  0.00000000000E+00 0. -1.
         23    2    1    2    0    0  0.40690301143E+03  0.21601371220E+03  0.21489235620E+03  0.51677195950E+03  0.92965309654E+02 0.  0.
        254    2    1    2    0    0 -0.40690301143E+03 -0.21601371220E+03 -0.85598169955E+03  0.13256406726E+04  0.90132487939E+03 0.  0.
         23    2    4    4    0    0 -0.59500116544E+03 -0.16188672047E+03 -0.91013937888E+03  0.11032014054E+04  0.92010622538E+02 0.  0.
         23    2    4    4    0    0  0.18809815401E+03 -0.54126991736E+02  0.54157679334E+02  0.22243926720E+03  0.90749802121E+02 0.  0.
         13    1    3    3    0    0  0.14151231808E+03  0.29813380088E+02  0.49736012572E+02  0.15293215734E+03  0.00000000000E+00 0. -1.
        -13    1    3    3    0    0  0.26539069335E+03  0.18620033211E+03  0.16515634363E+03  0.36383980216E+03  0.00000000000E+00 0.  1.
          3    1    6    6  502    0  0.18679064185E+03 -0.60426261090E+02  0.67520780081E+02  0.20760812281E+03  0.00000000000E+00 0. -1.
          3    1    5    5  503    0 -0.55049247648E+03 -0.12771824064E+03 -0.79833698756E+03  0.97810830758E+03  0.00000000000E+00 0. -1.
         -3    1    5    5    0  503 -0.44508688958E+02 -0.34168479832E+02 -0.11180239131E+03  0.12509309777E+03  0.00000000000E+00 0.  1.
         -3    1    6    6    0  502  0.13075121598E+01  0.62992693542E+01 -0.13363100747E+02  0.14831144394E+02  0.00000000000E+00 0.  1.
<mgrwt>
<rscale>  0 0.17272778E+04</rscale>
<asrwt>0</asrwt>
<pdfrwt beam="1">  1        1 0.19103861E+00 0.17272778E+04</pdfrwt>
<pdfrwt beam="2">  1       -1 0.92409484E-01 0.17272778E+04</pdfrwt>
<totfact> 0.10776210E+01</totfact>
</mgrwt>
</event>
<event>
12    1  0.4247462E-008  0.1792497E+04  0.7818608E-02  0.8710300E-01
         -2   -1    0    0    0  501 -0.00000000000E+00  0.00000000000E+00  0.28791470411E+04  0.28791470411E+04  0.00000000000E+00 0.  1.
          2   -1    0    0  501    0  0.00000000000E+00 -0.00000000000E+00 -0.27899273092E+03  0.27899273092E+03  0.00000000000E+00 0. -1.
         23    2    1    2    0    0  0.41318282582E+03 -0.19289259553E+03  0.18342984351E+04  0.18920647831E+04  0.85620050979E+02 0.  0.
        254    2    1    2    0    0 -0.41318282582E+03  0.19289259553E+03  0.76585587505E+03  0.12660749890E+04  0.89915685807E+03 0.  0.
         23    2    4    4    0    0  0.15111837704E+03  0.82883719541E+02  0.64278786969E+03  0.67128586021E+03  0.87988555267E+02 0.  0.
         23    2    4    4    0    0 -0.56430120286E+03  0.11000887599E+03  0.12306800536E+03  0.59478912877E+03  0.89947614816E+02 0.  0.
         11    1    3    3    0    0  0.96939500382E+02 -0.84431330301E+02  0.45349232869E+03  0.47136101711E+03  0.00000000000E+00 0. -1.
        -11    1    3    3    0    0  0.31624332544E+03 -0.10846126523E+03  0.13808061065E+04  0.14207037659E+04  0.00000000000E+00 0.  1.
          2    1    5    5  502    0  0.82347507296E+01  0.37152273631E+02  0.20510289486E+03  0.20860321195E+03  0.00000000000E+00 0. -1.
          1    1    6    6  503    0 -0.15349731161E+03  0.22261141285E+02 -0.63534188725E+01  0.15523320847E+03  0.00000000000E+00 0. -1.
         -2    1    5    5    0  502  0.14288362631E+03  0.45731445909E+02  0.43768497482E+03  0.46268264826E+03  0.00000000000E+00 0.  1.
         -1    1    6    6    0  503 -0.41080389126E+03  0.87747734708E+02  0.12942142423E+03  0.43955592030E+03  0.00000000000E+00 0.  1.
<mgrwt>
<rscale>  0 0.17924967E+04</rscale>
<asrwt>0</asrwt>
<pdfrwt beam="1">  1        2 0.42921961E-01 0.17924967E+04</pdfrwt>
<pdfrwt beam="2">  1       -2 0.44294568E+00 0.17924967E+04</pdfrwt>
<totfact> 0.43638726E-01</totfact>
</mgrwt>
</event>
<event>
12    1  0.4247462E-008  0.1666119E+04  0.7818608E-02  0.8780928E-01
          1   -1    0    0  501    0  0.00000000000E+00  0.00000000000E+00  0.60528375840E+03  0.60528375840E+03  0.00000000000E+00 0. -1.
         -1   -1    0    0    0  501 -0.00000000000E+00 -0.00000000000E+00 -0.11465494942E+04  0.11465494942E+04  0.00000000000E+00 0.  1.
         23    2    1    2    0    0  0.62384797751E+02 -0.39008188984E+03 -0.63228861608E+03  0.75067358065E+03  0.87556763782E+02 0.  0.
        254    2    1    2    0    0 -0.62384797751E+02  0.39008188984E+03  0.91022880240E+02  0.10011596720E+04  0.91541235535E+03 0.  0.
         23    2    4    4    0    0 -0.29413947772E+03  0.74935426669E+02 -0.30287246161E+03  0.43844821035E+03  0.91497293012E+02 0.  0.
         23    2    4    4    0    0  0.23175467997E+03  0.31514646317E+03  0.39389534185E+03  0.56271146164E+03  0.91995237881E+02 0.  0.
         11    1    3    3    0    0  0.73490026201E+02 -0.24643575850E+03 -0.45031713837E+03  0.51857197392E+03  0.00000000000E+00 0.  1.
        -11    1    3    3    0    0 -0.11105228449E+02 -0.14364613134E+03 -0.18197147770E+03  0.23210160673E+03  0.00000000000E+00 0. -1.
          2    1    5    5  502    0 -0.10240194169E+03  0.16992281807E+02 -0.16623024854E+03  0.19597803661E+03  0.00000000000E+00 0. -1.
          3    1    6    6  503    0  0.13208310316E+03  0.24812791971E+03  0.29046067110E+03  0.40420392395E+03  0.00000000000E+00 0. -1.
         -2    1    5    5    0  502 -0.19173753603E+03  0.57943144862E+02 -0.13664221307E+03  0.24247017374E+03  0.00000000000E+00 0.  1.
         -3    1    6    6    0  503  0.99671576813E+02  0.67018543462E+02  0.10343467075E+03  0.15850753769E+03  0.00000000000E+00 0.  1.
<mgrwt>
<rscale>  0 0.16661186E+04</rscale>
<asrwt>0</asrwt>
<pdfrwt beam="1">  1        1 0.93120580E-01 0.16661186E+04</pdfrwt>
<pdfrwt beam="2">  1       -1 0.17639223E+00 0.16661186E+04</pdfrwt>
<totfact> 0.71303239E+00</totfact>
</mgrwt>
</event>
<event>
12    1  0.4247462E-008  0.2698590E+04  0.7818608E-02  0.8335463E-01
         -2   -1    0    0    0  501 -0.00000000000E+00  0.00000000000E+00  0.55240742263E+03  0.55240742263E+03  0.00000000000E+00 0.  1.
          2   -1    0    0  501    0  0.00000000000E+00 -0.00000000000E+00 -0.32957502612E+04  0.32957502612E+04  0.00000000000E+00 0. -1.
         23    2    1    2    0    0 -0.88547201695E+03 -0.40895012978E+03 -0.23233886444E+03  0.10067294484E+04  0.90674875015E+02 0.  0.
        254    2    1    2    0    0  0.88547201695E+03  0.40895012978E+03 -0.25110039741E+04  0.28414282354E+04  0.90403128120E+03 0.  0.
         23    2    4    4    0    0  0.83695654033E+02  0.50243457745E+03 -0.10350343105E+04  0.11571738602E+04  0.91158387217E+02 0.  0.
         23    2    4    4    0    0  0.80177636291E+03 -0.93484447669E+02 -0.14759696636E+04  0.16842543752E+04  0.81496469487E+02 0.  0.
         13    1    3    3    0    0 -0.20429264212E+03 -0.58585192578E+02 -0.31630506366E+02  0.21486786020E+03  0.00000000000E+00 0.  1.
        -13    1    3    3    0    0 -0.68117937483E+03 -0.35036493720E+03 -0.20070835807E+03  0.79186158823E+03  0.00000000000E+00 0. -1.
          2    1    5    5  502    0  0.71623924268E+02  0.48105106469E+03 -0.10149095896E+04  0.11254250701E+04  0.00000000000E+00 0. -1.
          1    1    6    6  503    0  0.52174633979E+03 -0.76746434606E+02 -0.88796863121E+03  0.10327620967E+04  0.00000000000E+00 0. -1.
         -2    1    5    5    0  502  0.12071729765E+02  0.21383512764E+02 -0.20124720919E+02  0.31748790051E+02  0.00000000000E+00 0.  1.
         -1    1    6    6    0  503  0.28003002312E+03 -0.16738013063E+02 -0.58800103240E+03  0.65149227856E+03  0.00000000000E+00 0.  1.
<mgrwt>
<rscale>  0 0.26985899E+04</rscale>
<asrwt>0</asrwt>
<pdfrwt beam="1">  1        2 0.50703850E+00 0.26985899E+04</pdfrwt>
<pdfrwt beam="2">  1       -2 0.84985758E-01 0.26985899E+04</pdfrwt>
<totfact> 0.11856364E+00</totfact>
</mgrwt>
</event>
<event>
12    1  0.4247462E-008  0.2390183E+04  0.7818608E-02  0.8443188E-01
         -1   -1    0    0    0  501 -0.00000000000E+00  0.00000000000E+00  0.12567831288E+04  0.12567831288E+04  0.00000000000E+00 0.  1.
          1   -1    0    0  501    0  0.00000000000E+00 -0.00000000000E+00 -0.11364277180E+04  0.11364277180E+04  0.00000000000E+00 0. -1.
         23    2    1    2    0    0  0.40929951352E+03  0.32521362036E+03  0.93670325244E+03  0.10765859553E+04  0.91292635473E+02 0.  0.
        254    2    1    2    0    0 -0.40929951352E+03 -0.32521362036E+03 -0.81634784163E+03  0.13166248916E+04  0.89094742604E+03 0.  0.
         23    2    4    4    0    0 -0.68044105584E+03 -0.21012191496E+03 -0.50091618072E+03  0.87544213653E+03  0.91272474989E+02 0.  0.
         23    2    4    4    0    0  0.27114154232E+03 -0.11509170540E+03 -0.31543166092E+03  0.44118275506E+03  0.91549189127E+02 0.  0.
         11    1    3    3    0    0  0.14585043786E+03  0.14167367523E+03  0.28520817787E+03  0.35026773360E+03  0.00000000000E+00 0. -1.
        -11    1    3    3    0    0  0.26344907566E+03  0.18353994514E+03  0.65149507457E+03  0.72631822166E+03  0.00000000000E+00 0.  1.
          2    1    6    6  502    0  0.17286983781E+03 -0.25534705686E+02 -0.19428835587E+03  0.26131201130E+03  0.00000000000E+00 0. -1.
          2    1    5    5  503    0 -0.30002897817E+02 -0.27655343011E+02 -0.43264000202E+02  0.59470712018E+02  0.00000000000E+00 0. -1.
         -2    1    5    5    0  503 -0.65043815802E+03 -0.18246657195E+03 -0.45765218052E+03  0.81597142451E+03  0.00000000000E+00 0.  1.
         -2    1    6    6    0  502  0.98271704505E+02 -0.89556999719E+02 -0.12114330504E+03  0.17987074376E+03  0.00000000000E+00 0.  1.
<mgrwt>
<rscale>  0 0.23901826E+04</rscale>
<asrwt>0</asrwt>
<pdfrwt beam="1">  1        1 0.17483503E+00 0.23901826E+04</pdfrwt>
<pdfrwt beam="2">  1       -1 0.19335125E+00 0.23901826E+04</pdfrwt>
<totfact> 0.17875357E+00</totfact>
</mgrwt>
</event>
<event>
12    1  0.4247462E-008  0.2091745E+04  0.7818608E-02  0.8564888E-01
         -1   -1    0    0    0  501 -0.00000000000E+00  0.00000000000E+00  0.47333977483E+03  0.47333977483E+03  0.00000000000E+00 0.  1.
          1   -1    0    0  501    0  0.00000000000E+00 -0.00000000000E+00 -0.23109183690E+04  0.23109183690E+04  0.00000000000E+00 0. -1.
         23    2    1    2    0    0 -0.83675552590E+03  0.12706786952E+03 -0.81727277563E+03  0.11803585864E+04  0.94897571785E+02 0.  0.
        254    2    1    2    0    0  0.83675552590E+03 -0.12706786952E+03 -0.10203058186E+04  0.16038995574E+04  0.90286420540E+03 0.  0.
         23    2    4    4    0    0  0.52376455400E+03  0.57106608539E+02 -0.19384358113E+02  0.53524463574E+03  0.92307063588E+02 0.  0.
         23    2    4    4    0    0  0.31299097190E+03 -0.18417447806E+03 -0.10009214605E+04  0.10686549217E+04  0.91082297044E+02 0.  0.
         11    1    3    3    0    0 -0.70338675749E+03  0.70973227792E+02 -0.67642816634E+03  0.97844018412E+03  0.00000000000E+00 0.  1.
        -11    1    3    3    0    0 -0.13336876841E+03  0.56094641725E+02 -0.14084460929E+03  0.20191840229E+03  0.00000000000E+00 0. -1.
          2    1    5    5  502    0  0.25610046418E+03 -0.26455470289E+01 -0.44090861975E+02  0.25988160916E+03  0.00000000000E+00 0. -1.
          3    1    6    6  503    0  0.17048859827E+03 -0.48532368751E+02 -0.44960845419E+03  0.48329030100E+03  0.00000000000E+00 0. -1.
         -2    1    5    5    0  502  0.26766408982E+03  0.59752155568E+02  0.24706503862E+02  0.27536302658E+03  0.00000000000E+00 0.  1.
         -3    1    6    6    0  503  0.14250237363E+03 -0.13564210930E+03 -0.55131300626E+03  0.58536462071E+03  0.00000000000E+00 0.  1.
<mgrwt>
<rscale>  0 0.20917453E+04</rscale>
<asrwt>0</asrwt>
<pdfrwt beam="1">  1        1 0.35552591E+00 0.20917453E+04</pdfrwt>
<pdfrwt beam="2">  1       -1 0.72821503E-01 0.20917453E+04</pdfrwt>
<totfact> 0.32012412E+00</totfact>
</mgrwt>
</event>
<event>
12    1  0.4247462E-008  0.1661161E+04  0.7818608E-02  0.8783831E-01
         -1   -1    0    0    0  501 -0.00000000000E+00  0.00000000000E+00  0.42986540554E+03  0.42986540554E+03  0.00000000000E+00 0.  1.
          1   -1    0    0  501    0  0.00000000000E+00 -0.00000000000E+00 -0.16048375826E+04  0.16048375826E+04  0.00000000000E+00 0. -1.
         23    2    1    2    0    0 -0.19163259590E+03 -0.33431746456E+03  0.13240467877E+03  0.41759597455E+03  0.91455891429E+02 0.  0.
        254    2    1    2    0    0  0.19163259590E+03  0.33431746456E+03 -0.13073768558E+04  0.16171070136E+04  0.87023538846E+03 0.  0.
         23    2    4    4    0    0  0.14668276064E+02  0.58569612433E+03 -0.10492279294E+04  0.12051784495E+04  0.91218084987E+02 0.  0.
         23    2    4    4    0    0  0.17696431983E+03 -0.25137865977E+03 -0.25814892643E+03  0.41192856405E+03  0.92394115530E+02 0.  0.
         11    1    3    3    0    0 -0.92021149819E+01 -0.89253872713E+02  0.19003178544E+02  0.91717247610E+02  0.00000000000E+00 0. -1.
        -11    1    3    3    0    0 -0.18243048092E+03 -0.24506359185E+03  0.11340150023E+03  0.32587872694E+03  0.00000000000E+00 0.  1.
          2    1    5    5  502    0 -0.11317211282E+02  0.54142265314E+03 -0.95340952267E+03  0.10964744806E+04  0.00000000000E+00 0. -1.
          1    1    6    6  503    0  0.11821982841E+03 -0.11333486986E+03 -0.17784993672E+03  0.24176707912E+03  0.00000000000E+00 0. -1.
         -2    1    5    5    0  502  0.25985487346E+02  0.44273471187E+02 -0.95818406694E+02  0.10870396895E+03  0.00000000000E+00 0.  1.
         -1    1    6    6    0  503  0.58744491424E+02 -0.13804378991E+03 -0.80298989706E+02  0.17016148493E+03  0.00000000000E+00 0.  1.
<mgrwt>
<rscale>  0 0.16611612E+04</rscale>
<asrwt>0</asrwt>
<pdfrwt beam="1">  1        1 0.24689809E+00 0.16611612E+04</pdfrwt>
<pdfrwt beam="2">  1       -1 0.66133140E-01 0.16611612E+04</pdfrwt>
<totfact> 0.12249821E+01</totfact>
</mgrwt>
</event>
<event>
12    1  0.4247462E-008  0.2131986E+04  0.7818608E-02  0.8547283E-01
         -2   -1    0    0    0  501 -0.00000000000E+00  0.00000000000E+00  0.10738085904E+04  0.10738085904E+04  0.00000000000E+00 0.  1.
          2   -1    0    0  501    0  0.00000000000E+00 -0.00000000000E+00 -0.10582343830E+04  0.10582343830E+04  0.00000000000E+00 0. -1.
         23    2    1    2    0    0  0.32558910122E+03  0.58168831414E+03 -0.55367979665E+03  0.87138856405E+03  0.91581410211E+02 0.  0.
        254    2    1    2    0    0 -0.32558910122E+03 -0.58168831414E+03  0.56925400400E+03  0.12606544093E+04  0.90599661205E+03 0.  0.
         23    2    4    4    0    0 -0.12012452470E+03 -0.69130783829E+03  0.68532360295E+03  0.98536589536E+03  0.94557274954E+02 0.  0.
         23    2    4    4    0    0 -0.20546457652E+03  0.10961952415E+03 -0.11606959895E+03  0.27528851397E+03  0.89885937972E+02 0.  0.
         11    1    3    3    0    0  0.22360561962E+03  0.44155028230E+03 -0.45299325790E+03  0.67094635898E+03  0.00000000000E+00 0. -1.
        -11    1    3    3    0    0  0.10198348160E+03  0.14013803184E+03 -0.10068653875E+03  0.20044220507E+03  0.00000000000E+00 0.  1.
          4    1    5    5  502    0 -0.11651851160E+03 -0.66945231652E+03  0.68240013950E+03  0.96302280245E+03  0.00000000000E+00 0. -1.
          1    1    6    6  503    0 -0.11197493148E+03  0.13454644854E+02 -0.32925914806E+02  0.11748841907E+03  0.00000000000E+00 0. -1.
         -4    1    5    5    0  502 -0.36060130981E+01 -0.21855521767E+02  0.29234634568E+01  0.22343092909E+02  0.00000000000E+00 0.  1.
         -1    1    6    6    0  503 -0.93489645036E+02  0.96164879295E+02 -0.83143684145E+02  0.15780009491E+03  0.00000000000E+00 0.  1.
<mgrwt>
<rscale>  0 0.21319861E+04</rscale>
<asrwt>0</asrwt>
<pdfrwt beam="1">  1        2 0.16280529E+00 0.21319861E+04</pdfrwt>
<pdfrwt beam="2">  1       -2 0.16520132E+00 0.21319861E+04</pdfrwt>
<totfact> 0.49052432E+00</totfact>
</mgrwt>
</event>
<event>
12    1  0.4247462E-008  0.1342173E+04  0.7818608E-02  0.8996774E-01
          2   -1    0    0  501    0  0.00000000000E+00  0.00000000000E+00  0.42184301985E+03  0.42184301985E+03  0.00000000000E+00 0. -1.
         -2   -1    0    0    0  501 -0.00000000000E+00 -0.00000000000E+00 -0.10675944266E+04  0.10675944266E+04  0.00000000000E+00 0.  1.
         23    2    1    2    0    0 -0.25266212119E+02 -0.24051762088E+03  0.12105509038E+03  0.28565804528E+03  0.91973237936E+02 0.  0.
        254    2    1    2    0    0  0.25266212119E+02  0.24051762088E+03 -0.76680649717E+03  0.12037794012E+04  0.89588254544E+03 0.  0.
         23    2    4    4    0    0  0.12201978245E+03  0.28917286369E+02 -0.90519618738E+03  0.91845678109E+03  0.91965669254E+02 0.  0.
         23    2    4    4    0    0 -0.96753570332E+02  0.21160033452E+03  0.13838969021E+03  0.28532262011E+03  0.90118456777E+02 0.  0.
         11    1    3    3    0    0  0.37621501450E+01 -0.21028482557E+03  0.12310021818E+03  0.24369555875E+03  0.00000000000E+00 0. -1.
        -11    1    3    3    0    0 -0.29028362264E+02 -0.30232795319E+02 -0.20451277988E+01  0.41962486536E+02  0.00000000000E+00 0.  1.
          2    1    5    5  502    0  0.69874291358E+01  0.21881410869E+02 -0.38328634848E+03  0.38397401636E+03  0.00000000000E+00 0. -1.
          4    1    6    6  503    0 -0.44660095328E+02  0.11942613956E+03  0.12508214816E+03  0.17861318740E+03  0.00000000000E+00 0. -1.
         -2    1    5    5    0  502  0.11503235332E+03  0.70358755005E+01 -0.52190983889E+03  0.53448276473E+03  0.00000000000E+00 0.  1.
         -4    1    6    6    0  503 -0.52093475005E+02  0.92174194958E+02  0.13307542046E+02  0.10670943271E+03  0.00000000000E+00 0.  1.
<mgrwt>
<rscale>  0 0.13421732E+04</rscale>
<asrwt>0</asrwt>
<pdfrwt beam="1">  1        2 0.64898927E-01 0.13421732E+04</pdfrwt>
<pdfrwt beam="2">  1       -2 0.16424529E+00 0.13421732E+04</pdfrwt>
<totfact> 0.17135876E+01</totfact>
</mgrwt>
</event>
<event>
12    1  0.4247462E-008  0.1336389E+04  0.7818608E-02  0.9001196E-01
         -1   -1    0    0    0  501 -0.00000000000E+00  0.00000000000E+00  0.36634204080E+03  0.36634204080E+03  0.00000000000E+00 0.  1.
          1   -1    0    0  501    0  0.00000000000E+00 -0.00000000000E+00 -0.12187631363E+04  0.12187631363E+04  0.00000000000E+00 0. -1.
         23    2    1    2    0    0  0.10212364337E+03 -0.33381240390E+03 -0.31212300259E+03  0.47733959248E+03  0.92587030787E+02 0.  0.
        254    2    1    2    0    0 -0.10212364337E+03  0.33381240390E+03 -0.54029809289E+03  0.11077655846E+04  0.90186617726E+03 0.  0.
         23    2    4    4    0    0 -0.40722832108E+02 -0.88775370277E+02 -0.64472471581E+03  0.65950833870E+03  0.98700933236E+02 0.  0.
         23    2    4    4    0    0 -0.61400811260E+02  0.42258777418E+03  0.10442662292E+03  0.44825724589E+03  0.87630773170E+02 0.  0.
         11    1    3    3    0    0 -0.10450064852E+01  0.55307200406E+01 -0.13918784195E+01  0.57981228217E+01  0.00000000000E+00 0. -1.
        -11    1    3    3    0    0  0.10316864985E+03 -0.33934312394E+03 -0.31073112417E+03  0.47154146966E+03  0.00000000000E+00 0.  1.
          4    1    5    5  502    0  0.79151762232E+01 -0.73672868030E+02 -0.51224950190E+03  0.51758080885E+03  0.00000000000E+00 0. -1.
          3    1    6    6  503    0 -0.69039083005E+02  0.31168881483E+03  0.45581536073E+02  0.32248098968E+03  0.00000000000E+00 0. -1.
         -4    1    5    5    0  502 -0.48638008331E+02 -0.15102502247E+02 -0.13247521391E+03  0.14192752985E+03  0.00000000000E+00 0.  1.
         -3    1    6    6    0  503  0.76382717450E+01  0.11089895935E+03  0.58845086848E+02  0.12577625621E+03  0.00000000000E+00 0.  1.
<mgrwt>
<rscale>  0 0.13363894E+04</rscale>
<asrwt>0</asrwt>
<pdfrwt beam="1">  1        1 0.18750202E+00 0.13363894E+04</pdfrwt>
<pdfrwt beam="2">  1       -1 0.56360314E-01 0.13363894E+04</pdfrwt>
<totfact> 0.32315967E+01</totfact>
</mgrwt>
</event>
<event>
12    1  0.4247462E-008  0.1802322E+04  0.7818608E-02  0.8705066E-01
         -3   -1    0    0    0  501 -0.00000000000E+00  0.00000000000E+00  0.26941111610E+04  0.26941111610E+04  0.00000000000E+00 0.  1.
          3   -1    0    0  501    0  0.00000000000E+00 -0.00000000000E+00 -0.30143180103E+03  0.30143180103E+03  0.00000000000E+00 0. -1.
         23    2    1    2    0    0  0.14440414995E+03 -0.44227443299E+03  0.17088711767E+04  0.17733997778E+04  0.90812117372E+02 0.  0.
        254    2    1    2    0    0 -0.14440414995E+03  0.44227443299E+03  0.68380818325E+03  0.12221431842E+04  0.89976724696E+03 0.  0.
         23    2    4    4    0    0 -0.10739918553E+03  0.67336835052E+03  0.27249682374E+03  0.74030267653E+03  0.93989432315E+02 0.  0.
         23    2    4    4    0    0 -0.37004964420E+02 -0.23109391753E+03  0.41131135951E+03  0.48184050772E+03  0.90661316460E+02 0.  0.
         11    1    3    3    0    0  0.11897936093E+03 -0.34443821143E+03  0.11812236867E+04  0.12361566114E+04  0.00000000000E+00 0.  1.
        -11    1    3    3    0    0  0.25424789029E+02 -0.97836221565E+02  0.52764748994E+03  0.53724316635E+03  0.00000000000E+00 0. -1.
          2    1    5    5  502    0  0.26394721244E+01  0.27155337844E+03  0.11511200246E+03  0.29495589037E+03  0.00000000000E+00 0. -1.
          3    1    6    6  503    0 -0.44645874018E+02 -0.10293606541E+03  0.26142782016E+03  0.28448829991E+03  0.00000000000E+00 0. -1.
         -2    1    5    5    0  502 -0.11003865766E+03  0.40181497208E+03  0.15738482128E+03  0.44534678615E+03  0.00000000000E+00 0.  1.
         -3    1    6    6    0  503  0.76409095975E+01 -0.12815785212E+03  0.14988353935E+03  0.19735220781E+03  0.00000000000E+00 0.  1.
<mgrwt>
<rscale>  0 0.18023216E+04</rscale>
<asrwt>0</asrwt>
<pdfrwt beam="1">  1        3 0.46374125E-01 0.18023216E+04</pdfrwt>
<pdfrwt beam="2">  1       -3 0.41447862E+00 0.18023216E+04</pdfrwt>
<totfact> 0.10112138E-01</totfact>
</mgrwt>
</event>
<event>
12    1  0.4247462E-008  0.1854613E+04  0.7818608E-02  0.8677784E-01
          2   -1    0    0  501    0  0.00000000000E+00  0.00000000000E+00  0.35911440806E+04  0.35911440806E+04  0.00000000000E+00 0.  1.
         -2   -1    0    0    0  501 -0.00000000000E+00 -0.00000000000E+00 -0.23944940104E+03  0.23944940104E+03  0.00000000000E+00 0. -1.
         23    2    1    2    0    0 -0.86118609190E+02 -0.46211361500E+03  0.19755336014E+03  0.51799996560E+03  0.91275551146E+02 0.  0.
        254    2    1    2    0    0  0.86118609190E+02  0.46211361500E+03  0.31541413194E+04  0.33125935160E+04  0.89649480289E+03 0.  0.
         23    2    4    4    0    0  0.33234531671E+03  0.61721438788E+03  0.22574480337E+04  0.23655642803E+04  0.91737283865E+02 0.  0.
         23    2    4    4    0    0 -0.24622670752E+03 -0.15510077289E+03  0.89669328568E+03  0.94702923570E+03  0.90120383001E+02 0.  0.
         11    1    3    3    0    0  0.13197237457E+02 -0.14014783012E+03  0.42072921351E+02  0.14692076802E+03  0.00000000000E+00 0.  1.
        -11    1    3    3    0    0 -0.99315846647E+02 -0.32196578487E+03  0.15548043879E+03  0.37107919757E+03  0.00000000000E+00 0. -1.
          4    1    5    5  502    0  0.15744388477E+03  0.21541853598E+03  0.77073784655E+03  0.81561666891E+03  0.00000000000E+00 0. -1.
          3    1    6    6  503    0 -0.23905251483E+03 -0.11986060828E+03  0.81553413825E+03  0.85825905233E+03  0.00000000000E+00 0. -1.
         -4    1    5    5    0  502  0.17490143194E+03  0.40179585191E+03  0.14867101871E+04  0.15499476114E+04  0.00000000000E+00 0.  1.
         -3    1    6    6    0  503 -0.71741926869E+01 -0.35240164606E+02  0.81159147438E+02  0.88770183367E+02  0.00000000000E+00 0.  1.
<mgrwt>
<rscale>  0 0.18546130E+04</rscale>
<asrwt>0</asrwt>
<pdfrwt beam="1">  1        2 0.55248367E+00 0.18546130E+04</pdfrwt>
<pdfrwt beam="2">  1       -2 0.36838372E-01 0.18546130E+04</pdfrwt>
<totfact> 0.46099885E+00</totfact>
</mgrwt>
</event>
<event>
12    1  0.4247462E-008  0.1362964E+04  0.7818608E-02  0.8981072E-01
         -1   -1    0    0    0  501 -0.00000000000E+00  0.00000000000E+00  0.23725102513E+03  0.23725102513E+03  0.00000000000E+00 0.  1.
          1   -1    0    0  501    0  0.00000000000E+00 -0.00000000000E+00 -0.19574958166E+04  0.19574958166E+04  0.00000000000E+00 0. -1.
         23    2    1    2    0    0  0.30602468356E+03 -0.16868522957E+03 -0.65998347248E+03  0.75218132099E+03  0.89959669176E+02 0.  0.
        254    2    1    2    0    0 -0.30602468356E+03  0.16868522957E+03 -0.10602613190E+04  0.14425655207E+04  0.91363855187E+03 0.  0.
         23    2    4    4    0    0 -0.62308927054E+03  0.14054685814E+03 -0.66583269595E+03  0.92770431540E+03  0.96480357699E+02 0.  0.
         23    2    4    4    0    0  0.31706458697E+03  0.28138371430E+02 -0.39442862305E+03  0.51486120535E+03  0.90478736903E+02 0.  0.
         13    1    3    3    0    0  0.25458410423E+03 -0.15114566270E+03 -0.47808761709E+03  0.56233961900E+03  0.00000000000E+00 0. -1.
        -13    1    3    3    0    0  0.51440579332E+02 -0.17539566867E+02 -0.18189585539E+03  0.18984170199E+03  0.00000000000E+00 0.  1.
          4    1    5    5  502    0 -0.31083485888E+02  0.26500684436E+02 -0.63345949568E+02  0.75373594163E+02  0.00000000000E+00 0.  1.
          1    1    6    6  503    0  0.27243012379E+03  0.56094725130E+02 -0.33636033061E+03  0.43646656521E+03  0.00000000000E+00 0. -1.
         -4    1    5    5    0  502 -0.59200578465E+03  0.11404617370E+03 -0.60248674638E+03  0.85233072123E+03  0.00000000000E+00 0. -1.
         -1    1    6    6    0  503  0.44634463182E+02 -0.27956353700E+02 -0.58068292444E+02  0.78394640143E+02  0.00000000000E+00 0.  1.
<mgrwt>
<rscale>  0 0.13629643E+04</rscale>
<asrwt>0</asrwt>
<pdfrwt beam="1">  1        1 0.30115319E+00 0.13629643E+04</pdfrwt>
<pdfrwt beam="2">  1       -1 0.36500159E-01 0.13629643E+04</pdfrwt>
<totfact> 0.22426048E+01</totfact>
</mgrwt>
</event>
<event>
12    1  0.4247462E-008  0.1502588E+04  0.7818608E-02  0.8882734E-01
         -2   -1    0    0    0  501 -0.00000000000E+00  0.00000000000E+00  0.61973971024E+03  0.61973971024E+03  0.00000000000E+00 0.  1.
          2   -1    0    0  501    0  0.00000000000E+00 -0.00000000000E+00 -0.91077414965E+03  0.91077414965E+03  0.00000000000E+00 0. -1.
         23    2    1    2    0    0  0.10530712088E+03  0.42751390973E+03  0.79856730948E+02  0.45669941259E+03  0.91320990281E+02 0.  0.
        254    2    1    2    0    0 -0.10530712088E+03 -0.42751390973E+03 -0.37089117036E+03  0.10738144473E+04  0.90645434207E+03 0.  0.
         23    2    4    4    0    0  0.52973866242E+02  0.84698187698E+02  0.22887062036E+03  0.26427380258E+03  0.86480450757E+02 0.  0.
         23    2    4    4    0    0 -0.15828098713E+03 -0.51221209742E+03 -0.59976179072E+03  0.80954064472E+03  0.90706924822E+02 0.  0.
         11    1    3    3    0    0  0.38614931917E+02  0.18002743962E+03 -0.11773354423E+02  0.18449824893E+03  0.00000000000E+00 0. -1.
        -11    1    3    3    0    0  0.66692188968E+02  0.24748647010E+03  0.91630085371E+02  0.27220116366E+03  0.00000000000E+00 0.  1.
          2    1    5    5  502    0  0.26389378537E+02  0.54809370344E+02  0.43875672936E+02  0.75003606931E+02  0.00000000000E+00 0.  1.
          4    1    6    6  503    0 -0.81125784873E+02 -0.17119500976E+03 -0.16181273031E+03  0.24914350088E+03  0.00000000000E+00 0.  1.
         -2    1    5    5    0  502  0.26584487705E+02  0.29888817354E+02  0.18499494743E+03  0.18927019565E+03  0.00000000000E+00 0. -1.
         -4    1    6    6    0  503 -0.77155202253E+02 -0.34101708766E+03 -0.43794906041E+03  0.56039714384E+03  0.00000000000E+00 0. -1.
<mgrwt>
<rscale>  0 0.15025883E+04</rscale>
<asrwt>0</asrwt>
<pdfrwt beam="1">  1        2 0.14011910E+00 0.15025883E+04</pdfrwt>
<pdfrwt beam="2">  1       -2 0.95344570E-01 0.15025883E+04</pdfrwt>
<totfact> 0.25747366E+01</totfact>
</mgrwt>
</event>
<event>
12    1  0.4247462E-008  0.2757036E+04  0.7818608E-02  0.8316733E-01
         -2   -1    0    0    0  501 -0.00000000000E+00  0.00000000000E+00  0.15322925983E+04  0.15322925983E+04  0.00000000000E+00 0.  1.
          2   -1    0    0  501    0  0.00000000000E+00 -0.00000000000E+00 -0.12401751964E+04  0.12401751964E+04  0.00000000000E+00 0. -1.
         23    2    1    2    0    0  0.63397760791E+03  0.25354435660E+02 -0.93097994174E+03  0.11301928744E+04  0.89676232012E+02 0.  0.
        254    2    1    2    0    0 -0.63397760791E+03 -0.25354435660E+02  0.12230973437E+04  0.16422749204E+04  0.89360469297E+03 0.  0.
         23    2    4    4    0    0  0.18570109947E+03 -0.14317764775E+02  0.51266276928E+03  0.55361884481E+03  0.94767154599E+02 0.  0.
         23    2    4    4    0    0 -0.81967870738E+03 -0.11036670885E+02  0.71043457440E+03  0.10886560756E+04  0.91977034973E+02 0.  0.
         11    1    3    3    0    0  0.48435776529E+03 -0.15259598268E+02 -0.67533926993E+03  0.83121503213E+03  0.00000000000E+00 0.  1.
        -11    1    3    3    0    0  0.14961984262E+03  0.40614033927E+02 -0.25564067181E+03  0.29897784222E+03  0.00000000000E+00 0. -1.
          1    1    5    5  502    0  0.54660146476E+02 -0.28505113795E+02  0.27527837685E+03  0.28209654001E+03  0.00000000000E+00 0. -1.
          3    1    6    6  503    0 -0.27466628330E+03  0.39069587416E+02  0.24899076009E+03  0.37277928920E+03  0.00000000000E+00 0. -1.
         -1    1    5    5    0  502  0.13104095300E+03  0.14187349020E+02  0.23738439243E+03  0.27152230480E+03  0.00000000000E+00 0.  1.
         -3    1    6    6    0  503 -0.54501242408E+03 -0.50106258301E+02  0.46144381431E+03  0.71587678638E+03  0.00000000000E+00 0.  1.
<mgrwt>
<rscale>  0 0.27570356E+04</rscale>
<asrwt>0</asrwt>
<pdfrwt beam="1">  1        2 0.19079619E+00 0.27570356E+04</pdfrwt>
<pdfrwt beam="2">  1       -2 0.23573732E+00 0.27570356E+04</pdfrwt>
<totfact> 0.12323782E+00</totfact>
</mgrwt>
</event>
<event>
12    1  0.4247462E-008  0.1479354E+04  0.7818608E-02  0.8898299E-01
          1   -1    0    0  501    0  0.00000000000E+00  0.00000000000E+00  0.76953315025E+03  0.76953315025E+03  0.00000000000E+00 0. -1.
         -1   -1    0    0    0  501 -0.00000000000E+00 -0.00000000000E+00 -0.71097935365E+03  0.71097935365E+03  0.00000000000E+00 0.  1.
         23    2    1    2    0    0 -0.87111259397E+02 -0.20167062038E+03 -0.38106168887E+03  0.44926789756E+03  0.91510777628E+02 0.  0.
        254    2    1    2    0    0  0.87111259397E+02  0.20167062038E+03  0.43961548547E+03  0.10312446063E+04  0.90661141201E+03 0.  0.
         23    2    4    4    0    0 -0.40255812884E+03  0.87893145470E+02  0.17845477691E+03  0.45721960106E+03  0.86170784321E+02 0.  0.
         23    2    4    4    0    0  0.48966938824E+03  0.11377747491E+03  0.26116070855E+03  0.57402500528E+03  0.92619476454E+02 0.  0.
         11    1    3    3    0    0 -0.10214747813E+03 -0.14053532635E+03 -0.29937477145E+03  0.34613514560E+03  0.00000000000E+00 0.  1.
        -11    1    3    3    0    0  0.15036218737E+02 -0.61135294028E+02 -0.81686917417E+02  0.10313275196E+03  0.00000000000E+00 0. -1.
          1    1    5    5  502    0 -0.32951694840E+00 -0.73618044659E+01  0.12121036311E+01  0.74681953393E+01  0.00000000000E+00 0.  1.
          3    1    6    6  503    0  0.39524042661E+03  0.54363813514E+02  0.21585020470E+03  0.45360966691E+03  0.00000000000E+00 0. -1.
         -1    1    5    5    0  502 -0.40222861189E+03  0.95254949936E+02  0.17724267328E+03  0.44975140572E+03  0.00000000000E+00 0. -1.
         -3    1    6    6    0  503  0.94428961624E+02  0.59413661393E+02  0.45310503851E+02  0.12041533836E+03  0.00000000000E+00 0.  1.
<mgrwt>
<rscale>  0 0.14793542E+04</rscale>
<asrwt>0</asrwt>
<pdfrwt beam="1">  1        1 0.11838972E+00 0.14793542E+04</pdfrwt>
<pdfrwt beam="2">  1       -1 0.10938144E+00 0.14793542E+04</pdfrwt>
<totfact> 0.17634699E+01</totfact>
</mgrwt>
</event>
<event>
12    1  0.4247462E-008  0.1759704E+04  0.7818608E-02  0.8728027E-01
         -2   -1    0    0    0  501 -0.00000000000E+00  0.00000000000E+00  0.17867513485E+04  0.17867513485E+04  0.00000000000E+00 0.  1.
          2   -1    0    0  501    0  0.00000000000E+00 -0.00000000000E+00 -0.43326672046E+03  0.43326672046E+03  0.00000000000E+00 0. -1.
         23    2    1    2    0    0  0.14661622492E+03 -0.23108326753E+03 -0.23733162535E+03  0.37461777241E+03  0.95479741686E+02 0.  0.
        254    2    1    2    0    0 -0.14661622492E+03  0.23108326753E+03  0.15908162533E+04  0.18454002965E+04  0.89437693871E+03 0.  0.
         23    2    4    4    0    0  0.13167073631E+03  0.82795472459E+02 -0.36276844721E+02  0.18552723967E+03  0.94403782427E+02 0.  0.
         23    2    4    4    0    0 -0.27828696123E+03  0.14828779507E+03  0.16270930981E+04  0.16598730568E+04  0.91179559606E+02 0.  0.
         11    1    3    3    0    0  0.15506350145E+03 -0.18068745556E+03 -0.18549472079E+03  0.30182931852E+03  0.00000000000E+00 0. -1.
        -11    1    3    3    0    0 -0.84472765311E+01 -0.50395811969E+02 -0.51836904563E+02  0.72788453889E+02  0.00000000000E+00 0.  1.
          2    1    5    5  502    0 -0.90706989135E+01 -0.33429860849E+01  0.10244585933E+02  0.14085619464E+02  0.00000000000E+00 0. -1.
          1    1    6    6  503    0 -0.70537853072E+02  0.82967296044E+02  0.46846321231E+03  0.48095419971E+03  0.00000000000E+00 0. -1.
         -2    1    5    5    0  502  0.14074143522E+03  0.86138458543E+02 -0.46521430654E+02  0.17144162020E+03  0.00000000000E+00 0.  1.
         -1    1    6    6    0  503 -0.20774910816E+03  0.65320499029E+02  0.11586298858E+04  0.11789188571E+04  0.00000000000E+00 0.  1.
<mgrwt>
<rscale>  0 0.17597044E+04</rscale>
<asrwt>0</asrwt>
<pdfrwt beam="1">  1        2 0.66656419E-01 0.17597044E+04</pdfrwt>
<pdfrwt beam="2">  1       -2 0.27488482E+00 0.17597044E+04</pdfrwt>
<totfact> 0.31151337E+00</totfact>
</mgrwt>
</event>
<event>
12    1  0.4247462E-008  0.1369950E+04  0.7818608E-02  0.8975862E-01
         -2   -1    0    0    0  501 -0.00000000000E+00  0.00000000000E+00  0.12184204549E+03  0.12184204549E+03  0.00000000000E+00 0.  1.
          2   -1    0    0  501    0  0.00000000000E+00 -0.00000000000E+00 -0.38508117971E+04  0.38508117971E+04  0.00000000000E+00 0. -1.
         23    2    1    2    0    0  0.25360916891E+03 -0.92992647635E+02 -0.28854208849E+03  0.40568199999E+03  0.91411734540E+02 0.  0.
        254    2    1    2    0    0 -0.25360916891E+03  0.92992647635E+02 -0.34404276631E+04  0.35669718426E+04  0.90209776503E+03 0.  0.
         23    2    4    4    0    0 -0.46061783221E+03 -0.11090407247E+03 -0.29524532020E+04  0.29917018743E+04  0.93977093178E+02 0.  0.
         23    2    4    4    0    0  0.20700866330E+03  0.20389672011E+03 -0.48797446111E+03  0.57526996829E+03  0.91596957226E+02 0.  0.
         11    1    3    3    0    0  0.91386682849E+02  0.35515072394E+01 -0.60566354230E+02  0.10969239842E+03  0.00000000000E+00 0.  1.
        -11    1    3    3    0    0  0.16222248606E+03 -0.96544154875E+02 -0.22797573426E+03  0.29598960157E+03  0.00000000000E+00 0. -1.
          2    1    5    5  502    0 -0.91958527778E+02  0.15440197159E+02 -0.58848462451E+03  0.59582625304E+03  0.00000000000E+00 0.  1.
          3    1    6    6  503    0  0.15954611265E+03  0.15208315349E+03 -0.43364916402E+03  0.48645230506E+03  0.00000000000E+00 0. -1.
         -2    1    5    5    0  502 -0.36865930443E+03 -0.12634426963E+03 -0.23639685775E+04  0.23958756213E+04  0.00000000000E+00 0. -1.
         -3    1    6    6    0  503  0.47462550644E+02  0.51813566614E+02 -0.54325297092E+02  0.88817663237E+02  0.00000000000E+00 0.  1.
<mgrwt>
<rscale>  0 0.13699501E+04</rscale>
<asrwt>0</asrwt>
<pdfrwt beam="1">  1        2 0.59243267E+00 0.13699501E+04</pdfrwt>
<pdfrwt beam="2">  1       -2 0.18744928E-01 0.13699501E+04</pdfrwt>
<totfact> 0.10761790E+01</totfact>
</mgrwt>
</event>
<event>
12    1  0.4247462E-008  0.1882931E+04  0.7818608E-02  0.8663400E-01
         -2   -1    0    0    0  501 -0.00000000000E+00  0.00000000000E+00  0.62971631602E+03  0.62971631602E+03  0.00000000000E+00 0.  1.
          2   -1    0    0  501    0  0.00000000000E+00 -0.00000000000E+00 -0.14075502057E+04  0.14075502057E+04  0.00000000000E+00 0. -1.
         23    2    1    2    0    0 -0.70058713008E+03  0.43568387289E+02 -0.18351527641E+03  0.73392389856E+03  0.11066119916E+03 0.  0.
        254    2    1    2    0    0  0.70058713008E+03 -0.43568387289E+02 -0.59431861327E+03  0.13033426232E+04  0.92345376066E+03 0.  0.
         23    2    4    4    0    0  0.28086319230E+03  0.39153645273E+03 -0.65141276252E+02  0.49479469604E+03  0.91615930665E+02 0.  0.
         23    2    4    4    0    0  0.41972393778E+03 -0.43510484002E+03 -0.52917733702E+03  0.80854792712E+03  0.90756215695E+02 0.  0.
         11    1    3    3    0    0 -0.21646257524E+03  0.38519579760E+02 -0.11644156437E+02  0.22017127624E+03  0.00000000000E+00 0.  1.
        -11    1    3    3    0    0 -0.48412455484E+03  0.50488075286E+01 -0.17187111998E+03  0.51375262232E+03  0.00000000000E+00 0. -1.
          1    1    5    5  502    0  0.14474778998E+03  0.12640480715E+03 -0.33784046682E+02  0.19511909128E+03  0.00000000000E+00 0. -1.
          3    1    6    6  503    0  0.94383883638E+02 -0.15109391231E+03 -0.17908375316E+03  0.25260379742E+03  0.00000000000E+00 0. -1.
         -1    1    5    5    0  502  0.13611540232E+03  0.26513164559E+03 -0.31357229570E+02  0.29967560476E+03  0.00000000000E+00 0.  1.
         -3    1    6    6    0  503  0.32534005414E+03 -0.28401092772E+03 -0.35009358386E+03  0.55594412970E+03  0.00000000000E+00 0.  1.
<mgrwt>
<rscale>  0 0.18829310E+04</rscale>
<asrwt>0</asrwt>
<pdfrwt beam="1">  1        2 0.21654619E+00 0.18829310E+04</pdfrwt>
<pdfrwt beam="2">  1       -2 0.96879433E-01 0.18829310E+04</pdfrwt>
<totfact> 0.11962349E+01</totfact>
</mgrwt>
</event>
<event>
12    1  0.4247462E-008  0.1990031E+04  0.7818608E-02  0.8611296E-01
         -1   -1    0    0    0  501 -0.00000000000E+00  0.00000000000E+00  0.15520619366E+04  0.15520619366E+04  0.00000000000E+00 0.  1.
          1   -1    0    0  501    0  0.00000000000E+00 -0.00000000000E+00 -0.63789680663E+03  0.63789680663E+03  0.00000000000E+00 0. -1.
         23    2    1    2    0    0 -0.56043972091E+03  0.54656660414E+03  0.44348855709E+03  0.90449739826E+03  0.92766964200E+02 0.  0.
        254    2    1    2    0    0  0.56043972091E+03 -0.54656660414E+03  0.47067657292E+03  0.12854613450E+04  0.90445934109E+03 0.  0.
         23    2    4    4    0    0  0.14785483446E+03  0.21962858840E+03  0.26886102059E+03  0.38726241068E+03  0.87110030525E+02 0.  0.
         23    2    4    4    0    0  0.41258488645E+03 -0.76619519255E+03  0.20181555233E+03  0.89819893433E+03  0.93543823258E+02 0.  0.
         11    1    3    3    0    0 -0.25964467138E+03  0.29454516205E+03  0.18082186475E+03  0.43228318801E+03  0.00000000000E+00 0. -1.
        -11    1    3    3    0    0 -0.30079504953E+03  0.25202144210E+03  0.26266669234E+03  0.47221421025E+03  0.00000000000E+00 0.  1.
          4    1    5    5  502    0  0.11614441162E+03  0.10198080696E+03  0.17479996934E+03  0.23333374942E+03  0.00000000000E+00 0. -1.
          3    1    6    6  503    0  0.32109970768E+01 -0.62287396619E+01  0.12712077831E+02  0.14515668182E+02  0.00000000000E+00 0. -1.
         -4    1    5    5    0  502  0.31710422841E+02  0.11764778144E+03  0.94061051251E+02  0.15392866126E+03  0.00000000000E+00 0.  1.
         -3    1    6    6    0  503  0.40937388937E+03 -0.75996645288E+03  0.18910347450E+03  0.88368326615E+03  0.00000000000E+00 0.  1.
<mgrwt>
<rscale>  0 0.19900305E+04</rscale>
<asrwt>0</asrwt>
<pdfrwt beam="1">  1        1 0.98137970E-01 0.19900305E+04</pdfrwt>
<pdfrwt beam="2">  1       -1 0.23877876E+00 0.19900305E+04</pdfrwt>
<totfact> 0.24010366E+00</totfact>
</mgrwt>
</event>
<event>
12    1  0.4247462E-008  0.2276070E+04  0.7818608E-02  0.8487416E-01
          2   -1    0    0  501    0  0.00000000000E+00  0.00000000000E+00  0.22333550771E+04  0.22333550771E+04  0.00000000000E+00 0. -1.
         -2   -1    0    0    0  501 -0.00000000000E+00 -0.00000000000E+00 -0.57990067118E+03  0.57990067118E+03  0.00000000000E+00 0.  1.
         23    2    1    2    0    0  0.93714446190E+03 -0.68364684357E+02  0.93563939522E+03  0.13298099815E+04  0.10029973335E+03 0.  0.
        254    2    1    2    0    0 -0.93714446190E+03  0.68364684357E+02  0.71781501070E+03  0.14834457668E+04  0.89578986420E+03 0.  0.
         23    2    4    4    0    0 -0.27293858788E+02 -0.26663221456E+03  0.32846973419E+03  0.43460035223E+03  0.95642079178E+02 0.  0.
         23    2    4    4    0    0 -0.90985060311E+03  0.33499689892E+03  0.38934527651E+03  0.10488454145E+04  0.91847248095E+02 0.  0.
         11    1    3    3    0    0  0.40047972379E+03 -0.50626263496E+02  0.33906306521E+03  0.52717244798E+03  0.00000000000E+00 0.  1.
        -11    1    3    3    0    0  0.53666473811E+03 -0.17738420860E+02  0.59657633001E+03  0.80263753353E+03  0.00000000000E+00 0. -1.
          4    1    5    5  502    0 -0.26112032093E+02 -0.40307524779E+02  0.11002123461E+03  0.12004668608E+03  0.00000000000E+00 0. -1.
          3    1    6    6  503    0 -0.19221551957E+03  0.10795509832E+03  0.71105497029E+02  0.23164002444E+03  0.00000000000E+00 0. -1.
         -4    1    5    5    0  502 -0.11818266951E+01 -0.22632468978E+03  0.21844849959E+03  0.31455366615E+03  0.00000000000E+00 0.  1.
         -3    1    6    6    0  503 -0.71763508354E+03  0.22704180060E+03  0.31823977948E+03  0.81720539009E+03  0.00000000000E+00 0.  1.
<mgrwt>
<rscale>  0 0.22760704E+04</rscale>
<asrwt>0</asrwt>
<pdfrwt beam="1">  1        2 0.34359308E+00 0.22760704E+04</pdfrwt>
<pdfrwt beam="2">  1       -2 0.89215489E-01 0.22760704E+04</pdfrwt>
<totfact> 0.48434128E+00</totfact>
</mgrwt>
</event>
<event>
12    1  0.4247462E-008  0.1720859E+04  0.7818608E-02  0.8749556E-01
         -1   -1    0    0    0  501 -0.00000000000E+00  0.00000000000E+00  0.53423747323E+03  0.53423747323E+03  0.00000000000E+00 0.  1.
          1   -1    0    0  501    0  0.00000000000E+00 -0.00000000000E+00 -0.13857858422E+04  0.13857858422E+04  0.00000000000E+00 0. -1.
         23    2    1    2    0    0 -0.50495497377E+03 -0.18620153535E+03 -0.67381853383E+03  0.86732656053E+03  0.92592703656E+02 0.  0.
        254    2    1    2    0    0  0.50495497377E+03  0.18620153535E+03 -0.17772983509E+03  0.10526967549E+04  0.88709189270E+03 0.  0.
         23    2    4    4    0    0  0.21439613944E+03  0.51827463215E+03 -0.19787270370E+03  0.60174748308E+03  0.91499331087E+02 0.  0.
         23    2    4    4    0    0  0.29055883434E+03 -0.33207309680E+03  0.20142868611E+02  0.45094927177E+03  0.90843451770E+02 0.  0.
         13    1    3    3    0    0 -0.43758801502E+03 -0.18158142367E+03 -0.54696155654E+03  0.72361732196E+03  0.00000000000E+00 0. -1.
        -13    1    3    3    0    0 -0.67366958754E+02 -0.46201116777E+01 -0.12685697729E+03  0.14370923857E+03  0.00000000000E+00 0.  1.
          1    1    5    5  502    0 -0.19253090442E+01  0.74078042458E+02 -0.21842556283E+02  0.77255164580E+02  0.00000000000E+00 0. -1.
          1    1    6    6  503    0 -0.31357711334E+00  0.46027441838E+01 -0.28652150230E+01  0.54307496495E+01  0.00000000000E+00 0. -1.
         -1    1    5    5    0  502  0.21632144848E+03  0.44419658969E+03 -0.17603014742E+03  0.52449231850E+03  0.00000000000E+00 0.  1.
         -1    1    6    6    0  503  0.29087241145E+03 -0.33667584098E+03  0.23008083634E+02  0.44551852212E+03  0.00000000000E+00 0.  1.
<mgrwt>
<rscale>  0 0.17208588E+04</rscale>
<asrwt>0</asrwt>
<pdfrwt beam="1">  1        1 0.21319782E+00 0.17208588E+04</pdfrwt>
<pdfrwt beam="2">  1       -1 0.82190383E-01 0.17208588E+04</pdfrwt>
<totfact> 0.10995271E+01</totfact>
</mgrwt>
</event>
<event>
12    1  0.4247462E-008  0.1167887E+04  0.7818608E-02  0.9141439E-01
         -2   -1    0    0    0  501 -0.00000000000E+00  0.00000000000E+00  0.10922684857E+04  0.10922684857E+04  0.00000000000E+00 0.  1.
          2   -1    0    0  501    0  0.00000000000E+00 -0.00000000000E+00 -0.31218508913E+03  0.31218508913E+03  0.00000000000E+00 0. -1.
         23    2    1    2    0    0 -0.10985635456E+03 -0.11770869748E+03 -0.29759303168E+02  0.19050240938E+03  0.97374512868E+02 0.  0.
        254    2    1    2    0    0  0.10985635456E+03  0.11770869748E+03  0.80984269978E+03  0.12139511655E+04  0.88989239671E+03 0.  0.
         23    2    4    4    0    0 -0.16692224187E+02 -0.96375561239E+02 -0.16012664274E+03  0.20841336277E+03  0.90712231336E+02 0.  0.
         23    2    4    4    0    0  0.12654857875E+03  0.21408425872E+03  0.96996934252E+03  0.10055378027E+04  0.91755842618E+02 0.  0.
         11    1    3    3    0    0 -0.11637989004E+03 -0.12674969099E+03 -0.38507682034E+02  0.17633095175E+03  0.00000000000E+00 0. -1.
        -11    1    3    3    0    0  0.65235354748E+01  0.90409935061E+01  0.87483788659E+01  0.14171457633E+02  0.00000000000E+00 0.  1.
          1    1    5    5  502    0 -0.14211753496E+02 -0.68677158863E+01  0.81740752919E+01  0.17775122104E+02  0.00000000000E+00 0. -1.
          3    1    6    6  503    0  0.44044470225E+02  0.55428180934E+02  0.14438365392E+03  0.16080683480E+03  0.00000000000E+00 0. -1.
         -1    1    5    5    0  502 -0.24804706905E+01 -0.89507845352E+02 -0.16830071803E+03  0.19063824067E+03  0.00000000000E+00 0.  1.
         -3    1    6    6    0  503  0.82504108523E+02  0.15865607778E+03  0.82558568860E+03  0.84473096792E+03  0.00000000000E+00 0.  1.
<mgrwt>
<rscale>  0 0.11678869E+04</rscale>
<asrwt>0</asrwt>
<pdfrwt beam="1">  1        2 0.48028476E-01 0.11678869E+04</pdfrwt>
<pdfrwt beam="2">  1       -2 0.16804130E+00 0.11678869E+04</pdfrwt>
<totfact> 0.22829388E+01</totfact>
</mgrwt>
</event>
<event>
12    1  0.4247462E-008  0.1312917E+04  0.7818608E-02  0.9019384E-01
          2   -1    0    0  501    0  0.00000000000E+00  0.00000000000E+00  0.54548269472E+03  0.54548269472E+03  0.00000000000E+00 0. -1.
         -2   -1    0    0    0  501 -0.00000000000E+00 -0.00000000000E+00 -0.79001158678E+03  0.79001158678E+03  0.00000000000E+00 0.  1.
         23    2    1    2    0    0 -0.11532877101E+03 -0.17227492326E+03  0.21118870625E+03  0.30961425082E+03  0.90999670666E+02 0.  0.
        254    2    1    2    0    0  0.11532877101E+03  0.17227492326E+03 -0.45571759830E+03  0.10258800307E+04  0.89541718396E+03 0.  0.
         23    2    4    4    0    0 -0.12166516794E+02  0.29229300048E+03  0.18282339896E+03  0.35750146020E+03  0.93806591303E+02 0.  0.
         23    2    4    4    0    0  0.12749528781E+03 -0.12001807723E+03 -0.63854099726E+03  0.66837857048E+03  0.91301265140E+02 0.  0.
         11    1    3    3    0    0 -0.14903257464E+00 -0.12136619715E+02  0.59638658013E+02  0.60861229682E+02  0.00000000000E+00 0. -1.
        -11    1    3    3    0    0 -0.11517973844E+03 -0.16013830354E+03  0.15155004823E+03  0.24875302114E+03  0.00000000000E+00 0.  1.
          4    1    5    5  502    0 -0.37338577575E+02  0.25468647493E+03  0.13142036211E+03  0.28901674945E+03  0.00000000000E+00 0.  1.
          3    1    6    6  503    0 -0.14556222983E+02 -0.10822198554E+02 -0.66974290165E+02  0.69387024379E+02  0.00000000000E+00 0. -1.
         -4    1    5    5    0  502  0.25172060781E+02  0.37606525556E+02  0.51403036849E+02  0.68484710744E+02  0.00000000000E+00 0. -1.
         -3    1    6    6    0  503  0.14205151079E+03 -0.10919587867E+03 -0.57156670710E+03  0.59899154610E+03  0.00000000000E+00 0.  1.
<mgrwt>
<rscale>  0 0.13129168E+04</rscale>
<asrwt>0</asrwt>
<pdfrwt beam="1">  1        2 0.83920415E-01 0.13129168E+04</pdfrwt>
<pdfrwt beam="2">  1       -2 0.12154024E+00 0.13129168E+04</pdfrwt>
<totfact> 0.27996539E+01</totfact>
</mgrwt>
</event>
<event>
12    1  0.4247462E-008  0.1224237E+04  0.7818608E-02  0.9091903E-01
          1   -1    0    0  501    0  0.00000000000E+00  0.00000000000E+00  0.10236067535E+04  0.10236067535E+04  0.00000000000E+00 0.  1.
         -1   -1    0    0    0  501 -0.00000000000E+00 -0.00000000000E+00 -0.36604784873E+03  0.36604784873E+03  0.00000000000E+00 0. -1.
         23    2    1    2    0    0  0.21097253837E+03  0.21947119622E+02  0.32677978681E+03  0.40010380693E+03  0.91142411908E+02 0.  0.
        254    2    1    2    0    0 -0.21097253837E+03 -0.21947119622E+02  0.33077911799E+03  0.98955079533E+03  0.90818768084E+03 0.  0.
         23    2    4    4    0    0  0.20441669581E+03  0.12262883729E+03  0.45707213644E+03  0.52282302513E+03  0.87206424271E+02 0.  0.
         23    2    4    4    0    0 -0.41538923418E+03 -0.14457595691E+03 -0.12629301845E+03  0.46672777020E+03  0.91839325899E+02 0.  0.
         11    1    3    3    0    0  0.37022157574E+02  0.41526512758E+02  0.72158267148E+02  0.91114800834E+02  0.00000000000E+00 0. -1.
        -11    1    3    3    0    0  0.17395038080E+03 -0.19579393136E+02  0.25462151966E+03  0.30898900610E+03  0.00000000000E+00 0.  1.
          4    1    5    5  502    0 -0.51605148655E+01  0.19587214518E+02  0.38872904705E+02  0.43833692595E+02  0.00000000000E+00 0.  1.
          3    1    6    6  503    0 -0.40918777740E+03 -0.12609474913E+03 -0.12866588264E+03  0.44708995995E+03  0.00000000000E+00 0. -1.
         -4    1    5    5    0  502  0.20957721067E+03  0.10304162277E+03  0.41819923173E+03  0.47898933253E+03  0.00000000000E+00 0. -1.
         -3    1    6    6    0  503 -0.62014567806E+01 -0.18481207779E+02  0.23728641899E+01  0.19637810256E+02  0.00000000000E+00 0.  1.
<mgrwt>
<rscale>  0 0.12242370E+04</rscale>
<asrwt>0</asrwt>
<pdfrwt beam="1">  1        1 0.15747796E+00 0.12242370E+04</pdfrwt>
<pdfrwt beam="2">  1       -1 0.56315054E-01 0.12242370E+04</pdfrwt>
<totfact> 0.45717812E+01</totfact>
</mgrwt>
</event>
<event>
12    1  0.4247462E-008  0.2757775E+04  0.7818608E-02  0.8316499E-01
         -1   -1    0    0    0  501 -0.00000000000E+00  0.00000000000E+00  0.15151818058E+04  0.15151818058E+04  0.00000000000E+00 0.  1.
          1   -1    0    0  501    0  0.00000000000E+00 -0.00000000000E+00 -0.12548536091E+04  0.12548536091E+04  0.00000000000E+00 0. -1.
         23    2    1    2    0    0  0.26799903877E+03  0.29224989389E+03  0.12850068589E+04  0.13476854403E+04  0.88203930889E+02 0.  0.
        254    2    1    2    0    0 -0.26799903877E+03 -0.29224989389E+03 -0.10246786621E+04  0.14223499746E+04  0.90326054069E+03 0.  0.
         23    2    4    4    0    0 -0.23320233593E+03 -0.52141993929E+03 -0.28939380508E+03  0.64694802986E+03  0.92362851535E+02 0.  0.
         23    2    4    4    0    0 -0.34796702836E+02  0.22917004540E+03 -0.73528485706E+03  0.77540194475E+03  0.82913416672E+02 0.  0.
         11    1    3    3    0    0  0.25813705136E+03  0.25980919558E+03  0.12270198726E+04  0.12805129141E+04  0.00000000000E+00 0.  1.
        -11    1    3    3    0    0  0.98619874030E+01  0.32440698308E+02  0.57986986272E+02  0.67172526223E+02  0.00000000000E+00 0. -1.
          4    1    5    5  502    0 -0.11405863549E+03 -0.36223102101E+03 -0.19188171039E+03  0.42548710403E+03  0.00000000000E+00 0. -1.
          1    1    6    6  503    0 -0.15734747844E+02  0.88941391036E+00 -0.30620096179E+02  0.34437822766E+02  0.00000000000E+00 0. -1.
         -4    1    5    5    0  502 -0.11914370044E+03 -0.15918891828E+03 -0.97512094684E+02  0.22146092583E+03  0.00000000000E+00 0.  1.
         -1    1    6    6    0  503 -0.19061954992E+02  0.22828063149E+03 -0.70466476088E+03  0.74096412198E+03  0.00000000000E+00 0.  1.
<mgrwt>
<rscale>  0 0.27577754E+04</rscale>
<asrwt>0</asrwt>
<pdfrwt beam="1">  1        1 0.19305440E+00 0.27577754E+04</pdfrwt>
<pdfrwt beam="2">  1       -1 0.23310489E+00 0.27577754E+04</pdfrwt>
<totfact> 0.76244303E-01</totfact>
</mgrwt>
</event>
<event>
12    1  0.4247462E-008  0.1440016E+04  0.7818608E-02  0.8925352E-01
         -3   -1    0    0    0  501 -0.00000000000E+00  0.00000000000E+00  0.19944893750E+04  0.19944893750E+04  0.00000000000E+00 0.  1.
          3   -1    0    0  501    0  0.00000000000E+00 -0.00000000000E+00 -0.25992178570E+03  0.25992178570E+03  0.00000000000E+00 0. -1.
         23    2    1    2    0    0  0.37949829607E+03  0.12517927405E+03  0.27512066278E+03  0.49359189146E+03  0.90844751427E+02 0.  0.
        254    2    1    2    0    0 -0.37949829607E+03 -0.12517927405E+03  0.14594469265E+04  0.17608192693E+04  0.90045008756E+03 0.  0.
         23    2    4    4    0    0 -0.23047514657E+03  0.35658969593E+03  0.43235937157E+03  0.61301989740E+03  0.92648604921E+02 0.  0.
         23    2    4    4    0    0 -0.14902314950E+03 -0.48176896998E+03  0.10270875550E+04  0.11477993719E+04  0.90693510896E+02 0.  0.
         11    1    3    3    0    0  0.25550870803E+03  0.12801298751E+03  0.19122280325E+03  0.34385779813E+03  0.00000000000E+00 0. -1.
        -11    1    3    3    0    0  0.12398958804E+03 -0.28337134609E+01  0.83897859522E+02  0.14973409334E+03  0.00000000000E+00 0.  1.
          2    1    5    5  502    0 -0.48713637636E+02  0.52094932502E+02  0.12416755690E+03  0.14319386394E+03  0.00000000000E+00 0. -1.
          1    1    6    6  503    0 -0.10872029263E+02 -0.17839296042E+03  0.33973548888E+03  0.38387817306E+03  0.00000000000E+00 0. -1.
         -2    1    5    5    0  502 -0.18176150893E+03  0.30449476343E+03  0.30819181467E+03  0.46982603345E+03  0.00000000000E+00 0.  1.
         -1    1    6    6    0  503 -0.13815112024E+03 -0.30337600956E+03  0.68735206609E+03  0.76392119879E+03  0.00000000000E+00 0.  1.
<mgrwt>
<rscale>  0 0.14400156E+04</rscale>
<asrwt>0</asrwt>
<pdfrwt beam="1">  1        3 0.39987968E-01 0.14400156E+04</pdfrwt>
<pdfrwt beam="2">  1       -3 0.30684451E+00 0.14400156E+04</pdfrwt>
<totfact> 0.55337565E-01</totfact>
</mgrwt>
</event>
<event>
12    1  0.4247462E-008  0.2028830E+04  0.7818608E-02  0.8593259E-01
          1   -1    0    0  501    0  0.00000000000E+00  0.00000000000E+00  0.17478922426E+04  0.17478922426E+04  0.00000000000E+00 0. -1.
         -1   -1    0    0    0  501 -0.00000000000E+00 -0.00000000000E+00 -0.58873042224E+03  0.58873042224E+03  0.00000000000E+00 0.  1.
         23    2    1    2    0    0  0.49509005850E+03  0.27668889544E+03  0.11409594058E+04  0.12773565655E+04  0.90446219658E+02 0.  0.
        254    2    1    2    0    0 -0.49509005850E+03 -0.27668889544E+03  0.18202414531E+02  0.10592660994E+04  0.89445091008E+03 0.  0.
         23    2    4    4    0    0 -0.73326548496E+03 -0.10632002905E+03 -0.36682248717E+02  0.74742490331E+03  0.91193084711E+02 0.  0.
         23    2    4    4    0    0  0.23817542647E+03 -0.17036886639E+03  0.54884663248E+02  0.31184119608E+03  0.92084314104E+02 0.  0.
         13    1    3    3    0    0  0.12373826600E+03  0.95607756162E+02  0.24380372649E+03  0.28964160365E+03  0.00000000000E+00 0.  1.
        -13    1    3    3    0    0  0.37135179250E+03  0.18108113928E+03  0.89715567935E+03  0.98771496181E+03  0.00000000000E+00 0. -1.
          3    1    5    5  502    0 -0.62973193542E+03 -0.11399549511E+03 -0.53724568570E+02  0.64221772995E+03  0.00000000000E+00 0. -1.
          3    1    6    6  503    0  0.24604968204E+03 -0.16185230827E+03  0.48126775950E+02  0.29841716152E+03  0.00000000000E+00 0. -1.
         -3    1    5    5    0  502 -0.10353354954E+03  0.76754660594E+01  0.17042319853E+02  0.10520717336E+03  0.00000000000E+00 0.  1.
         -3    1    6    6    0  503 -0.78742555767E+01 -0.85165581225E+01  0.67578872975E+01  0.13424034560E+02  0.00000000000E+00 0.  1.
<mgrwt>
<rscale>  0 0.20288296E+04</rscale>
<asrwt>0</asrwt>
<pdfrwt beam="1">  1        1 0.26890650E+00 0.20288296E+04</pdfrwt>
<pdfrwt beam="2">  1       -1 0.90573912E-01 0.20288296E+04</pdfrwt>
<totfact> 0.48717691E+00</totfact>
</mgrwt>
</event>
<event>
12    1  0.4247462E-008  0.1935578E+04  0.7818608E-02  0.8637347E-01
          3   -1    0    0  501    0  0.00000000000E+00  0.00000000000E+00  0.13420965156E+04  0.13420965156E+04  0.00000000000E+00 0. -1.
         -3   -1    0    0    0  501 -0.00000000000E+00 -0.00000000000E+00 -0.69787490552E+03  0.69787490552E+03  0.00000000000E+00 0.  1.
         23    2    1    2    0    0  0.16250346730E+03  0.11183850191E+03 -0.50947315626E+03  0.55380518376E+03  0.90675560220E+02 0.  0.
        254    2    1    2    0    0 -0.16250346730E+03 -0.11183850191E+03  0.11536947664E+04  0.14861662374E+04  0.91584018466E+03 0.  0.
         23    2    4    4    0    0 -0.37153109689E+03 -0.33061072517E+03  0.32976034170E+03  0.60376804302E+03  0.91951939941E+02 0.  0.
         23    2    4    4    0    0  0.20902762959E+03  0.21877222326E+03  0.82393442466E+03  0.88239819437E+03  0.90580360388E+02 0.  0.
         11    1    3    3    0    0  0.15815564719E+03  0.80187479739E+02 -0.36437315313E+03  0.40522960821E+03  0.00000000000E+00 0.  1.
        -11    1    3    3    0    0  0.43478201104E+01  0.31651022169E+02 -0.14510000313E+03  0.14857557556E+03  0.00000000000E+00 0. -1.
          2    1    5    5  502    0 -0.29054829472E+03 -0.22519546304E+03  0.27894404415E+03  0.46145540186E+03  0.00000000000E+00 0. -1.
          1    1    6    6  503    0 -0.56390574095E+01 -0.28776741214E+01  0.28895172069E+02  0.29580583931E+02  0.00000000000E+00 0. -1.
         -2    1    5    5    0  502 -0.80982802173E+02 -0.10541526213E+03  0.50816297551E+02  0.14231264116E+03  0.00000000000E+00 0.  1.
         -1    1    6    6    0  503  0.21466668700E+03  0.22164989738E+03  0.79503925259E+03  0.85281761044E+03  0.00000000000E+00 0.  1.
<mgrwt>
<rscale>  0 0.19355779E+04</rscale>
<asrwt>0</asrwt>
<pdfrwt beam="1">  1        3 0.20647639E+00 0.19355779E+04</pdfrwt>
<pdfrwt beam="2">  1       -3 0.10736537E+00 0.19355779E+04</pdfrwt>
<totfact> 0.24198677E-01</totfact>
</mgrwt>
</event>
<event>
12    1  0.4247462E-008  0.1565117E+04  0.7818608E-02  0.8842269E-01
         -1   -1    0    0    0  501 -0.00000000000E+00  0.00000000000E+00  0.25390857276E+04  0.25390857276E+04  0.00000000000E+00 0.  1.
          1   -1    0    0  501    0  0.00000000000E+00 -0.00000000000E+00 -0.24118841800E+03  0.24118841800E+03  0.00000000000E+00 0. -1.
         23    2    1    2    0    0  0.48864506860E+02 -0.26630529771E+03  0.14497415843E+04  0.14775912357E+04  0.90658407231E+02 0.  0.
        254    2    1    2    0    0 -0.48864506860E+02  0.26630529771E+03  0.84815572526E+03  0.13026829099E+04  0.95095130153E+03 0.  0.
         23    2    4    4    0    0 -0.78795396610E+02 -0.33692495092E+03  0.19051244453E+03  0.40513355719E+03  0.90061482094E+02 0.  0.
         23    2    4    4    0    0  0.29930889750E+02  0.60323024863E+03  0.65764328073E+03  0.89754935273E+03  0.91200684582E+02 0.  0.
         11    1    3    3    0    0  0.39301149022E+02 -0.22507081079E+03  0.13506374051E+04  0.13698258467E+04  0.00000000000E+00 0.  1.
        -11    1    3    3    0    0  0.95633578377E+01 -0.41234486917E+02  0.99104179212E+02  0.10776538898E+03  0.00000000000E+00 0. -1.
          2    1    5    5  502    0 -0.38836010158E+01 -0.20745492391E+03  0.10038439189E+03  0.23049870704E+03  0.00000000000E+00 0. -1.
          3    1    6    6  503    0 -0.32914736324E+02  0.21743762616E+03  0.23276997753E+03  0.32022548864E+03  0.00000000000E+00 0. -1.
         -2    1    5    5    0  502 -0.74911795594E+02 -0.12947002702E+03  0.90128052643E+02  0.17463485015E+03  0.00000000000E+00 0.  1.
         -3    1    6    6    0  503  0.62845626074E+02  0.38579262247E+03  0.42487330320E+03  0.57732386409E+03  0.00000000000E+00 0.  1.
<mgrwt>
<rscale>  0 0.15651173E+04</rscale>
<asrwt>0</asrwt>
<pdfrwt beam="1">  1        1 0.37105912E-01 0.15651173E+04</pdfrwt>
<pdfrwt beam="2">  1       -1 0.39062855E+00 0.15651173E+04</pdfrwt>
<totfact> 0.93464254E-01</totfact>
</mgrwt>
</event>
<event>
12    1  0.4247462E-008  0.2277303E+04  0.7818608E-02  0.8486924E-01
          4   -1    0    0  501    0  0.00000000000E+00  0.00000000000E+00  0.16177157492E+04  0.16177157492E+04  0.00000000000E+00 0. -1.
         -4   -1    0    0    0  501 -0.00000000000E+00 -0.00000000000E+00 -0.80145531083E+03  0.80145531083E+03  0.00000000000E+00 0.  1.
         23    2    1    2    0    0 -0.11130941847E+03  0.21666450214E+03 -0.63199255677E+03  0.68401128369E+03  0.95517282569E+02 0.  0.
        254    2    1    2    0    0  0.11130941847E+03 -0.21666450214E+03  0.14482529951E+04  0.17351597763E+04  0.92412630001E+03 0.  0.
         23    2    4    4    0    0  0.14159790018E+03 -0.43812025906E+03  0.14152395126E+04  0.14909125182E+04  0.88982762243E+02 0.  0.
         23    2    4    4    0    0 -0.30288481710E+02  0.22145575692E+03  0.33013482461E+02  0.24424725813E+03  0.92772779863E+02 0.  0.
         11    1    3    3    0    0 -0.77187664230E+02  0.13037983606E+03 -0.50153692861E+03  0.52392378064E+03  0.00000000000E+00 0.  1.
        -11    1    3    3    0    0 -0.34121754236E+02  0.86284666080E+02 -0.13045562816E+03  0.16008750305E+03  0.00000000000E+00 0. -1.
          3    1    6    6  502    0 -0.36885249013E+02  0.40266489178E+02  0.31276599771E+02  0.62929622903E+02  0.00000000000E+00 0. -1.
          3    1    5    5  503    0  0.10700371894E+03 -0.35969348080E+03  0.10295134743E+04  0.10957769800E+04  0.00000000000E+00 0. -1.
         -3    1    5    5    0  503  0.34594181234E+02 -0.78426778261E+02  0.38572603833E+03  0.39513553823E+03  0.00000000000E+00 0.  1.
         -3    1    6    6    0  502  0.65967673028E+01  0.18118926774E+03  0.17368826903E+01  0.18131763523E+03  0.00000000000E+00 0.  1.
<mgrwt>
<rscale>  0 0.22773027E+04</rscale>
<asrwt>0</asrwt>
<pdfrwt beam="1">  1        4 0.24887935E+00 0.22773027E+04</pdfrwt>
<pdfrwt beam="2">  1       -4 0.12330082E+00 0.22773027E+04</pdfrwt>
<totfact> 0.57599667E-02</totfact>
</mgrwt>
</event>
<event>
12    1  0.4247462E-008  0.1316327E+04  0.7818608E-02  0.9016717E-01
          2   -1    0    0  501    0  0.00000000000E+00  0.00000000000E+00  0.55743570936E+03  0.55743570936E+03  0.00000000000E+00 0. -1.
         -2   -1    0    0    0  501 -0.00000000000E+00 -0.00000000000E+00 -0.77709231998E+03  0.77709231998E+03  0.00000000000E+00 0.  1.
         23    2    1    2    0    0  0.26687912808E+03  0.81612353301E+02 -0.22441339590E+03  0.36947062488E+03  0.90896232986E+02 0.  0.
        254    2    1    2    0    0 -0.26687912808E+03 -0.81612353301E+02  0.47567852830E+01  0.96505740447E+03  0.92381173499E+03 0.  0.
         23    2    4    4    0    0  0.13180872512E+02 -0.45094343771E+03  0.12808988246E+03  0.47785081567E+03  0.91709675790E+02 0.  0.
         23    2    4    4    0    0 -0.28006000059E+03  0.36933108441E+03 -0.12333309717E+03  0.48720658880E+03  0.85557895448E+02 0.  0.
         11    1    3    3    0    0  0.23315403309E+02  0.38988945658E+02 -0.25273030520E+02  0.51985305488E+02  0.00000000000E+00 0. -1.
        -11    1    3    3    0    0  0.24356372477E+03  0.42623407642E+02 -0.19914036538E+03  0.31748531939E+03  0.00000000000E+00 0.  1.
          1    1    5    5  502    0 -0.35310113599E+02 -0.25998480125E+03  0.88481309270E+02  0.27688958647E+03  0.00000000000E+00 0. -1.
          3    1    6    6  503    0 -0.15758288657E+03  0.22888839231E+03 -0.11479205046E+03  0.30066505804E+03  0.00000000000E+00 0. -1.
         -1    1    5    5    0  502  0.48490986111E+02 -0.19095863645E+03  0.39608573187E+02  0.20096122920E+03  0.00000000000E+00 0.  1.
         -3    1    6    6    0  503 -0.12247711402E+03  0.14044269209E+03 -0.85410467139E+01  0.18654153076E+03  0.00000000000E+00 0.  1.
<mgrwt>
<rscale>  0 0.13163267E+04</rscale>
<asrwt>0</asrwt>
<pdfrwt beam="1">  1        2 0.85759341E-01 0.13163267E+04</pdfrwt>
<pdfrwt beam="2">  1       -2 0.11955266E+00 0.13163267E+04</pdfrwt>
<totfact> 0.28423534E+01</totfact>
</mgrwt>
</event>
<event>
12    1  0.4247462E-008  0.1669515E+04  0.7818608E-02  0.8778944E-01
          1   -1    0    0  501    0  0.00000000000E+00  0.00000000000E+00  0.85741474351E+03  0.85741474351E+03  0.00000000000E+00 0. -1.
         -1   -1    0    0    0  501 -0.00000000000E+00 -0.00000000000E+00 -0.81269927015E+03  0.81269927015E+03  0.00000000000E+00 0.  1.
         23    2    1    2    0    0  0.95398605682E+01  0.25993417845E+03 -0.51887712234E+03  0.58784431637E+03  0.93116519128E+02 0.  0.
        254    2    1    2    0    0 -0.95398605682E+01 -0.25993417845E+03  0.56359259570E+03  0.10822696973E+04  0.88657447385E+03 0.  0.
         23    2    4    4    0    0 -0.21985716406E+01 -0.53179216127E+03  0.58388364389E+03  0.79487354595E+03  0.89978374915E+02 0.  0.
         23    2    4    4    0    0 -0.73412889277E+01  0.27185798282E+03 -0.20291048181E+02  0.28739615134E+03  0.90687175634E+02 0.  0.
         11    1    3    3    0    0 -0.23961777169E+02  0.12902072640E+03 -0.17787467873E+03  0.22104279210E+03  0.00000000000E+00 0. -1.
        -11    1    3    3    0    0  0.33501637737E+02  0.13091345205E+03 -0.34100244361E+03  0.36680152427E+03  0.00000000000E+00 0.  1.
          1    1    5    5  502    0  0.40220054933E+02 -0.36351497878E+03  0.38953645535E+03  0.53432147876E+03  0.00000000000E+00 0. -1.
          1    1    6    6  503    0 -0.17559327441E+02  0.27415838736E+03 -0.25113243215E+02  0.27586559468E+03  0.00000000000E+00 0. -1.
         -1    1    5    5    0  502 -0.42418626574E+02 -0.16827718249E+03  0.19434718854E+03  0.26055206719E+03  0.00000000000E+00 0.  1.
         -1    1    6    6    0  503  0.10218038514E+02 -0.23004045414E+01  0.48221950341E+01  0.11530556668E+02  0.00000000000E+00 0.  1.
<mgrwt>
<rscale>  0 0.16695153E+04</rscale>
<asrwt>0</asrwt>
<pdfrwt beam="1">  1        1 0.13190996E+00 0.16695153E+04</pdfrwt>
<pdfrwt beam="2">  1       -1 0.12503066E+00 0.16695153E+04</pdfrwt>
<totfact> 0.10535976E+01</totfact>
</mgrwt>
</event>
<event>
12    1  0.4247462E-008  0.1848411E+04  0.7818608E-02  0.8680970E-01
         -1   -1    0    0    0  501 -0.00000000000E+00  0.00000000000E+00  0.59258602647E+03  0.59258602647E+03  0.00000000000E+00 0.  1.
          1   -1    0    0  501    0  0.00000000000E+00 -0.00000000000E+00 -0.14414036623E+04  0.14414036623E+04  0.00000000000E+00 0. -1.
         23    2    1    2    0    0  0.47633918817E+03 -0.33291358465E+03 -0.76304864226E+03  0.96333399949E+03  0.89658725681E+02 0.  0.
        254    2    1    2    0    0 -0.47633918817E+03  0.33291358465E+03 -0.85768993573E+02  0.10706556893E+04  0.89510714872E+03 0.  0.
         23    2    4    4    0    0 -0.14764983540E+03  0.26185412414E+03 -0.46150639075E+03  0.55827157748E+03  0.91164408041E+02 0.  0.
         23    2    4    4    0    0 -0.32868935277E+03  0.71059460507E+02  0.37573739718E+03  0.51238411180E+03  0.90954652593E+02 0.  0.
         11    1    3    3    0    0  0.46354232076E+03 -0.33156742102E+03 -0.76027355282E+03  0.95017067569E+03  0.00000000000E+00 0. -1.
        -11    1    3    3    0    0  0.12796867416E+02 -0.13461636291E+01 -0.27750894345E+01  0.13163323803E+02  0.00000000000E+00 0.  1.
          2    1    5    5  502    0 -0.47602456918E+02  0.17564791630E+03 -0.26104824192E+03  0.31822062946E+03  0.00000000000E+00 0. -1.
          4    1    6    6  503    0 -0.14258625581E+03  0.15513247224E+02  0.98923111794E+02  0.17423341595E+03  0.00000000000E+00 0. -1.
         -2    1    5    5    0  502 -0.10004737848E+03  0.86206207842E+02 -0.20045814884E+03  0.24005094803E+03  0.00000000000E+00 0.  1.
         -4    1    6    6    0  503 -0.18610309696E+03  0.55546213283E+02  0.27681428539E+03  0.33815069585E+03  0.00000000000E+00 0.  1.
<mgrwt>
<rscale>  0 0.18484109E+04</rscale>
<asrwt>0</asrwt>
<pdfrwt beam="1">  1        1 0.22175441E+00 0.18484109E+04</pdfrwt>
<pdfrwt beam="2">  1       -1 0.91167082E-01 0.18484109E+04</pdfrwt>
<totfact> 0.79275351E+00</totfact>
</mgrwt>
</event>
<event>
12    1  0.4247462E-008  0.1627300E+04  0.7818608E-02  0.8803950E-01
         -2   -1    0    0    0  501 -0.00000000000E+00  0.00000000000E+00  0.63616044726E+03  0.63616044726E+03  0.00000000000E+00 0.  1.
          2   -1    0    0  501    0  0.00000000000E+00 -0.00000000000E+00 -0.10406593769E+04  0.10406593769E+04  0.00000000000E+00 0. -1.
         23    2    1    2    0    0 -0.28951238725E+03  0.43746388520E+03  0.63899166533E+02  0.53595901663E+03  0.89313441322E+02 0.  0.
        254    2    1    2    0    0  0.28951238725E+03 -0.43746388520E+03 -0.46839809612E+03  0.11408608075E+04  0.89831761219E+03 0.  0.
         23    2    4    4    0    0  0.12012518798E+03 -0.48584144976E+03 -0.68082718169E+03  0.84993419254E+03  0.91599700995E+02 0.  0.
         23    2    4    4    0    0  0.16938719927E+03  0.48377564558E+02  0.21242908557E+03  0.29092661495E+03  0.92085649587E+02 0.  0.
         11    1    3    3    0    0 -0.18034260583E+03  0.19583893071E+03  0.46401147686E+02  0.27023953961E+03  0.00000000000E+00 0.  1.
        -11    1    3    3    0    0 -0.10916978141E+03  0.24162495449E+03  0.17498018847E+02  0.26571947703E+03  0.00000000000E+00 0. -1.
          2    1    5    5  502    0 -0.55227423594E+01 -0.38364230123E+02 -0.25045122060E+02  0.46147296509E+02  0.00000000000E+00 0.  1.
          1    1    6    6  503    0  0.17262847831E+03  0.44011778638E+02  0.16384394322E+03  0.24203814970E+03  0.00000000000E+00 0. -1.
         -2    1    5    5    0  502  0.12564793034E+03 -0.44747721964E+03 -0.65578205963E+03  0.80378689603E+03  0.00000000000E+00 0. -1.
         -1    1    6    6    0  503 -0.32412790412E+01  0.43657859202E+01  0.48585142352E+02  0.48888465244E+02  0.00000000000E+00 0.  1.
<mgrwt>
<rscale>  0 0.16273000E+04</rscale>
<asrwt>0</asrwt>
<pdfrwt beam="1">  1        2 0.16010144E+00 0.16273000E+04</pdfrwt>
<pdfrwt beam="2">  1       -2 0.97870839E-01 0.16273000E+04</pdfrwt>
<totfact> 0.19737736E+01</totfact>
</mgrwt>
</event>
<event>
12    1  0.4247462E-008  0.1283896E+04  0.7818608E-02  0.9042434E-01
         -1   -1    0    0    0  501 -0.00000000000E+00  0.00000000000E+00  0.48227599453E+03  0.48227599453E+03  0.00000000000E+00 0.  1.
          1   -1    0    0  501    0  0.00000000000E+00 -0.00000000000E+00 -0.85448476169E+03  0.85448476169E+03  0.00000000000E+00 0. -1.
         23    2    1    2    0    0 -0.71333962945E+02  0.30824196451E+03 -0.11863028705E+03  0.34905261439E+03  0.87538218224E+02 0.  0.
        254    2    1    2    0    0  0.71333962945E+02 -0.30824196451E+03 -0.25357848011E+03  0.98770814183E+03  0.90064625959E+03 0.  0.
         23    2    4    4    0    0  0.43315914151E+03 -0.49716622462E+01  0.19744811587E+01  0.44301646941E+03  0.92780031741E+02 0.  0.
         23    2    4    4    0    0 -0.36182517857E+03 -0.30327030226E+03 -0.25555296126E+03  0.54469167243E+03  0.92148607800E+02 0.  0.
         11    1    3    3    0    0 -0.75530676018E+02  0.19634188904E+03 -0.10827043750E+03  0.23659566363E+03  0.00000000000E+00 0. -1.
        -11    1    3    3    0    0  0.41967130739E+01  0.11190007547E+03 -0.10359849546E+02  0.11245695075E+03  0.00000000000E+00 0.  1.
          1    1    5    5  502    0  0.34097034575E+03 -0.26921271884E+02 -0.29147298957E+02  0.34327117065E+03  0.00000000000E+00 0.  1.
          3    1    6    6  503    0 -0.13457254310E+03 -0.79799034002E+02 -0.12504949132E+03  0.20028736971E+03  0.00000000000E+00 0. -1.
         -1    1    5    5    0  502  0.92188795760E+02  0.21949609638E+02  0.31121780116E+02  0.99745298759E+02  0.00000000000E+00 0. -1.
         -3    1    6    6    0  503 -0.22725263547E+03 -0.22347126826E+03 -0.13050346994E+03  0.34440430272E+03  0.00000000000E+00 0.  1.
<mgrwt>
<rscale>  0 0.12838964E+04</rscale>
<asrwt>0</asrwt>
<pdfrwt beam="1">  1        1 0.13145919E+00 0.12838964E+04</pdfrwt>
<pdfrwt beam="2">  1       -1 0.74196309E-01 0.12838964E+04</pdfrwt>
<totfact> 0.35725895E+01</totfact>
</mgrwt>
</event>
<event>
12    1  0.4247462E-008  0.1782775E+04  0.7818608E-02  0.8715514E-01
          1   -1    0    0  501    0  0.00000000000E+00  0.00000000000E+00  0.64284298104E+03  0.64284298104E+03  0.00000000000E+00 0. -1.
         -1   -1    0    0    0  501 -0.00000000000E+00 -0.00000000000E+00 -0.12360270382E+04  0.12360270382E+04  0.00000000000E+00 0.  1.
         23    2    1    2    0    0 -0.89282856392E+02  0.32403924655E+03  0.38007091903E+03  0.51550598554E+03  0.91212147675E+02 0.  0.
        254    2    1    2    0    0  0.89282856392E+02 -0.32403924655E+03 -0.97325497615E+03  0.13633640337E+04  0.89362373397E+03 0.  0.
         23    2    4    4    0    0 -0.78326841594E+02 -0.39700905143E+03 -0.48752385815E+02  0.41683898302E+03  0.87330759795E+02 0.  0.
         23    2    4    4    0    0  0.16760969799E+03  0.72969804886E+02 -0.92450259034E+03  0.94652505064E+03  0.88244142399E+02 0.  0.
         11    1    3    3    0    0 -0.66825064363E+01 -0.52102210936E+01  0.60469182136E+01  0.10409971950E+02  0.00000000000E+00 0.  1.
        -11    1    3    3    0    0 -0.82600349956E+02  0.32924946764E+03  0.37402400082E+03  0.50509601359E+03  0.00000000000E+00 0. -1.
          1    1    6    6  502    0  0.18154613431E+02 -0.36147162821E+01 -0.23047318694E+02  0.29560701305E+02  0.00000000000E+00 0. -1.
          1    1    5    5  503    0 -0.95685439869E+02 -0.29901886743E+03 -0.28167078611E+02  0.31521638726E+03  0.00000000000E+00 0. -1.
         -1    1    5    5    0  503  0.17358598275E+02 -0.97990184005E+02 -0.20585307205E+02  0.10162259576E+03  0.00000000000E+00 0.  1.
         -1    1    6    6    0  502  0.14945508455E+03  0.76584521169E+02 -0.90145527164E+03  0.91696434934E+03  0.00000000000E+00 0.  1.
<mgrwt>
<rscale>  0 0.17827746E+04</rscale>
<asrwt>0</asrwt>
<pdfrwt beam="1">  1        1 0.98898922E-01 0.17827746E+04</pdfrwt>
<pdfrwt beam="2">  1       -1 0.19015800E+00 0.17827746E+04</pdfrwt>
<totfact> 0.51557564E+00</totfact>
</mgrwt>
</event>
<event>
12    1  0.4247462E-008  0.1074719E+04  0.7818608E-02  0.9230189E-01
         -2   -1    0    0    0  501 -0.00000000000E+00  0.00000000000E+00  0.40197501683E+03  0.40197501683E+03  0.00000000000E+00 0.  1.
          2   -1    0    0  501    0  0.00000000000E+00 -0.00000000000E+00 -0.71834135328E+03  0.71834135328E+03  0.00000000000E+00 0. -1.
         23    2    1    2    0    0  0.93439325499E+02 -0.63289522114E+02 -0.13754896934E+03  0.20034036659E+03  0.92087308359E+02 0.  0.
        254    2    1    2    0    0 -0.93439325499E+02  0.63289522114E+02 -0.17881736711E+03  0.91997600351E+03  0.89534558976E+03 0.  0.
         23    2    4    4    0    0  0.38056196598E+03  0.11725811817E+03 -0.14223852808E+03  0.43256628522E+03  0.91131311881E+02 0.  0.
         23    2    4    4    0    0 -0.47400129148E+03 -0.53968596060E+02 -0.36578839029E+02  0.48740971829E+03  0.92953689198E+02 0.  0.
         11    1    3    3    0    0  0.53548643276E+02  0.16786815137E+02 -0.49836844354E+02  0.75053083977E+02  0.00000000000E+00 0.  1.
        -11    1    3    3    0    0  0.39890682223E+02 -0.80076337251E+02 -0.87712124988E+02  0.12528728262E+03  0.00000000000E+00 0. -1.
          4    1    5    5  502    0  0.96520581232E+02  0.61896416281E+01 -0.16381238602E+01  0.96732712744E+02  0.00000000000E+00 0. -1.
          3    1    6    6  503    0 -0.16765013610E+03  0.24743448472E+02 -0.20473753129E+02  0.17069850891E+03  0.00000000000E+00 0. -1.
         -4    1    5    5    0  502  0.28404138475E+03  0.11106847655E+03 -0.14060040422E+03  0.33583357247E+03  0.00000000000E+00 0.  1.
         -3    1    6    6    0  503 -0.30635115539E+03 -0.78712044532E+02 -0.16105085900E+02  0.31671120939E+03  0.00000000000E+00 0.  1.
<mgrwt>
<rscale>  0 0.10747191E+04</rscale>
<asrwt>0</asrwt>
<pdfrwt beam="1">  1        2 0.11051405E+00 0.10747191E+04</pdfrwt>
<pdfrwt beam="2">  1       -2 0.61842311E-01 0.10747191E+04</pdfrwt>
<totfact> 0.95790467E+01</totfact>
</mgrwt>
</event>
<event>
12    1  0.4247462E-008  0.1028914E+04  0.7818608E-02  0.9277388E-01
          1   -1    0    0  501    0  0.00000000000E+00  0.00000000000E+00  0.13328094190E+03  0.13328094190E+03  0.00000000000E+00 0. -1.
         -1   -1    0    0    0  501 -0.00000000000E+00 -0.00000000000E+00 -0.19857766820E+04  0.19857766820E+04  0.00000000000E+00 0.  1.
         23    2    1    2    0    0  0.44688283213E+02  0.10030078020E+03 -0.16329955799E+03  0.21762689507E+03  0.92937778410E+02 0.  0.
        254    2    1    2    0    0 -0.44688283213E+02 -0.10030078020E+03 -0.16891961821E+04  0.19014307288E+04  0.86602412536E+03 0.  0.
         23    2    4    4    0    0  0.38128267374E+03 -0.91749920541E+02 -0.10793558822E+04  0.11519915425E+04  0.90999277042E+02 0.  0.
         23    2    4    4    0    0 -0.42597095695E+03 -0.85508596550E+01 -0.60984029992E+03  0.74943918630E+03  0.90716752559E+02 0.  0.
         11    1    3    3    0    0  0.36701080695E+02  0.11668696608E+03 -0.12336727950E+03  0.17373054720E+03  0.00000000000E+00 0.  1.
        -11    1    3    3    0    0  0.79872025176E+01 -0.16386185885E+02 -0.39932278486E+02  0.43896347877E+02  0.00000000000E+00 0. -1.
          2    1    5    5  502    0  0.87614294892E+02 -0.59859761884E+02 -0.32383778504E+03  0.34077905860E+03  0.00000000000E+00 0. -1.
          2    1    6    6  503    0 -0.73960165718E+02  0.32780310448E+02 -0.12402155595E+03  0.14807430974E+03  0.00000000000E+00 0. -1.
         -2    1    5    5    0  502  0.29366837884E+03 -0.31890158656E+02 -0.75551809714E+03  0.81121248391E+03  0.00000000000E+00 0.  1.
         -2    1    6    6    0  503 -0.35201079123E+03 -0.41331170103E+02 -0.48581874397E+03  0.60136487656E+03  0.00000000000E+00 0.  1.
<mgrwt>
<rscale>  0 0.10289144E+04</rscale>
<asrwt>0</asrwt>
<pdfrwt beam="1">  1        1 0.20504760E-01 0.10289144E+04</pdfrwt>
<pdfrwt beam="2">  1       -1 0.30550411E+00 0.10289144E+04</pdfrwt>
<totfact> 0.78229020E+00</totfact>
</mgrwt>
</event>
<event>
12    1  0.4247462E-008  0.2506605E+04  0.7818608E-02  0.8400636E-01
         -2   -1    0    0    0  501 -0.00000000000E+00  0.00000000000E+00  0.95495110017E+03  0.95495110017E+03  0.00000000000E+00 0.  1.
          2   -1    0    0  501    0  0.00000000000E+00 -0.00000000000E+00 -0.16448668374E+04  0.16448668374E+04  0.00000000000E+00 0. -1.
         23    2    1    2    0    0  0.74302649660E+03 -0.55659001950E+03  0.29359273099E+03  0.97802552101E+03  0.91958705913E+02 0.  0.
        254    2    1    2    0    0 -0.74302649660E+03  0.55659001950E+03 -0.98350846827E+03  0.16217924166E+04  0.89500888875E+03 0.  0.
         23    2    4    4    0    0  0.11632615305E+03 -0.12243773347E+03 -0.11994915330E+03  0.22395819692E+03  0.85127563870E+02 0.  0.
         23    2    4    4    0    0 -0.85935264965E+03  0.67902775297E+03 -0.86355931497E+03  0.13978342197E+04  0.92952404378E+02 0.  0.
         11    1    3    3    0    0  0.29149603568E+03 -0.27279890423E+03  0.11198535688E+03  0.41464430675E+03  0.00000000000E+00 0. -1.
        -11    1    3    3    0    0  0.45153046092E+03 -0.28379111528E+03  0.18160737412E+03  0.56338121426E+03  0.00000000000E+00 0.  1.
          4    1    5    5  502    0  0.14649508536E+02 -0.36039061709E+02  0.72983565240E+01  0.39581410752E+02  0.00000000000E+00 0. -1.
          1    1    6    6  503    0 -0.11640558809E+03  0.10277136563E+03 -0.84527444650E+02  0.17679678569E+03  0.00000000000E+00 0. -1.
         -4    1    5    5    0  502  0.10167664452E+03 -0.86398671761E+02 -0.12724750983E+03  0.18437678617E+03  0.00000000000E+00 0.  1.
         -1    1    6    6    0  503 -0.74294706156E+03  0.57625638734E+03 -0.77903187032E+03  0.12210374340E+04  0.00000000000E+00 0.  1.
<mgrwt>
<rscale>  0 0.25066052E+04</rscale>
<asrwt>0</asrwt>
<pdfrwt beam="1">  1        2 0.25305644E+00 0.25066052E+04</pdfrwt>
<pdfrwt beam="2">  1       -2 0.14691555E+00 0.25066052E+04</pdfrwt>
<totfact> 0.29706262E+00</totfact>
</mgrwt>
</event>
<event>
12    1  0.4247462E-008  0.1485597E+04  0.7818608E-02  0.8894087E-01
         -2   -1    0    0    0  501 -0.00000000000E+00  0.00000000000E+00  0.34231293829E+03  0.34231293829E+03  0.00000000000E+00 0.  1.
          2   -1    0    0  501    0  0.00000000000E+00 -0.00000000000E+00 -0.16118286491E+04  0.16118286491E+04  0.00000000000E+00 0. -1.
         23    2    1    2    0    0  0.23845691603E+03 -0.13340687264E+03 -0.88698960026E+03  0.93264806389E+03  0.91775626567E+02 0.  0.
        254    2    1    2    0    0 -0.23845691603E+03  0.13340687264E+03 -0.38252611054E+03  0.10214935235E+04  0.90689784366E+03 0.  0.
         23    2    4    4    0    0  0.20223841707E+03 -0.55595295374E+02 -0.47268678441E+03  0.52520998986E+03  0.91768856881E+02 0.  0.
         23    2    4    4    0    0 -0.44069533310E+03  0.18900216802E+03  0.90160673865E+02  0.49628353363E+03  0.90742506665E+02 0.  0.
         13    1    3    3    0    0  0.14503881936E+03 -0.11931447988E+03 -0.67335576071E+03  0.69905663913E+03  0.00000000000E+00 0. -1.
        -13    1    3    3    0    0  0.93418096670E+02 -0.14092392767E+02 -0.21363383955E+03  0.23359142475E+03  0.00000000000E+00 0.  1.
          2    1    5    5  502    0  0.28442347954E+02 -0.46519288595E+02 -0.10027406760E+03  0.11413982653E+03  0.00000000000E+00 0. -1.
          3    1    6    6  503    0 -0.18774618444E+02  0.33249530597E+02  0.96303719567E+01  0.39379711104E+02  0.00000000000E+00 0. -1.
         -2    1    5    5    0  502  0.17379606911E+03 -0.90760067788E+01 -0.37241271681E+03  0.41107016333E+03  0.00000000000E+00 0.  1.
         -3    1    6    6    0  503 -0.42192071465E+03  0.15575263742E+03  0.80530301908E+02  0.45690382253E+03  0.00000000000E+00 0.  1.
<mgrwt>
<rscale>  0 0.14855973E+04</rscale>
<asrwt>0</asrwt>
<pdfrwt beam="1">  1        2 0.24797364E+00 0.14855973E+04</pdfrwt>
<pdfrwt beam="2">  1       -2 0.52663530E-01 0.14855973E+04</pdfrwt>
<totfact> 0.36131072E+01</totfact>
</mgrwt>
</event>
<event>
12    1  0.4247462E-008  0.3424286E+04  0.7818608E-02  0.8131971E-01
          1   -1    0    0  501    0  0.00000000000E+00  0.00000000000E+00  0.30741679973E+04  0.30741679973E+04  0.00000000000E+00 0. -1.
         -1   -1    0    0    0  501 -0.00000000000E+00 -0.00000000000E+00 -0.95356980394E+03  0.95356980394E+03  0.00000000000E+00 0.  1.
         23    2    1    2    0    0  0.44229200310E+03 -0.10847502931E+04 -0.28176795316E+03  0.12087583601E+04  0.96944206895E+02 0.  0.
        254    2    1    2    0    0 -0.44229200310E+03  0.10847502931E+04  0.24023661466E+04  0.28189794412E+04  0.89608960121E+03 0.  0.
         23    2    4    4    0    0 -0.57425131463E+03  0.96670929417E+03  0.14076122658E+04  0.18039184406E+04  0.91967482314E+02 0.  0.
         23    2    4    4    0    0  0.13195931153E+03  0.11804099893E+03  0.99475388078E+03  0.10150610006E+04  0.97296527562E+02 0.  0.
         11    1    3    3    0    0  0.43934864756E+02 -0.15951214754E+03 -0.68548443761E+02  0.17909016359E+03  0.00000000000E+00 0.  1.
        -11    1    3    3    0    0  0.39835713834E+03 -0.92523814556E+03 -0.21321950940E+03  0.10296681965E+04  0.00000000000E+00 0. -1.
          3    1    6    6  502    0  0.67904134197E+02  0.39562032541E+02  0.21807098522E+03  0.23179965585E+03  0.00000000000E+00 0. -1.
          3    1    5    5  503    0 -0.55277264885E+03  0.94858779737E+03  0.13876460906E+04  0.17694456995E+04  0.00000000000E+00 0. -1.
         -3    1    5    5    0  503 -0.21478665773E+02  0.18121496805E+02  0.19966175177E+02  0.34472741131E+02  0.00000000000E+00 0.  1.
         -3    1    6    6    0  502  0.64055177333E+02  0.78478966388E+02  0.77668289556E+03  0.78326134474E+03  0.00000000000E+00 0.  1.
<mgrwt>
<rscale>  0 0.34242861E+04</rscale>
<asrwt>0</asrwt>
<pdfrwt beam="1">  1        1 0.47294892E+00 0.34242861E+04</pdfrwt>
<pdfrwt beam="2">  1       -1 0.14670305E+00 0.34242861E+04</pdfrwt>
<totfact> 0.16020882E-01</totfact>
</mgrwt>
</event>
<event>
12    1  0.4247462E-008  0.1591434E+04  0.7818608E-02  0.8825828E-01
          2   -1    0    0  501    0  0.00000000000E+00  0.00000000000E+00  0.12191271761E+04  0.12191271761E+04  0.00000000000E+00 0. -1.
         -2   -1    0    0    0  501 -0.00000000000E+00 -0.00000000000E+00 -0.51935971774E+03  0.51935971774E+03  0.00000000000E+00 0.  1.
         23    2    1    2    0    0  0.16076399700E+03 -0.17574126712E+03  0.75833257885E+03  0.80095226512E+03  0.98621372714E+02 0.  0.
        254    2    1    2    0    0 -0.16076399700E+03  0.17574126712E+03 -0.58565120522E+02  0.93753462869E+03  0.90488189890E+03 0.  0.
         23    2    4    4    0    0  0.60481885132E+02  0.16831136155E+03 -0.44112569317E+03  0.48431624779E+03  0.89350869276E+02 0.  0.
         23    2    4    4    0    0 -0.22124588213E+03  0.74299055626E+01  0.38256057264E+03  0.45321838091E+03  0.10024652211E+03 0.  0.
         11    1    3    3    0    0  0.36162726427E+02 -0.10685923643E+02  0.47505021580E+02  0.60651948213E+02  0.00000000000E+00 0.  1.
        -11    1    3    3    0    0  0.12460127057E+03 -0.16505534347E+03  0.71082755727E+03  0.74030031691E+03  0.00000000000E+00 0. -1.
          1    1    5    5  502    0  0.64830306310E+01  0.69985796013E+02 -0.81602095439E+02  0.10769839047E+03  0.00000000000E+00 0. -1.
          3    1    6    6  503    0 -0.19115190318E+03 -0.18598767015E+02  0.25270135026E+03  0.31740027827E+03  0.00000000000E+00 0. -1.
         -1    1    5    5    0  502  0.53998854501E+02  0.98325565541E+02 -0.35952359773E+03  0.37661785732E+03  0.00000000000E+00 0.  1.
         -3    1    6    6    0  503 -0.30093978947E+02  0.26028672577E+02  0.12985922239E+03  0.13581810264E+03  0.00000000000E+00 0.  1.
<mgrwt>
<rscale>  0 0.15914340E+04</rscale>
<asrwt>0</asrwt>
<pdfrwt beam="1">  1        2 0.18755803E+00 0.15914340E+04</pdfrwt>
<pdfrwt beam="2">  1       -2 0.79901495E-01 0.15914340E+04</pdfrwt>
<totfact> 0.24542026E+01</totfact>
</mgrwt>
</event>
<event>
12    1  0.4247462E-008  0.2442147E+04  0.7818608E-02  0.8423891E-01
         -3   -1    0    0    0  501 -0.00000000000E+00  0.00000000000E+00  0.18481382015E+04  0.18481382015E+04  0.00000000000E+00 0.  1.
          3   -1    0    0  501    0  0.00000000000E+00 -0.00000000000E+00 -0.80676901415E+03  0.80676901415E+03  0.00000000000E+00 0. -1.
         23    2    1    2    0    0  0.65093626486E+03 -0.65744878894E+03 -0.85865596666E+02  0.93362390352E+03  0.91234650927E+02 0.  0.
        254    2    1    2    0    0 -0.65093626486E+03  0.65744878894E+03  0.11272347840E+04  0.17212833121E+04  0.91444029402E+03 0.  0.
         23    2    4    4    0    0 -0.83412132708E+02 -0.92456197421E+02  0.63895427242E+03  0.65770659400E+03  0.93859838173E+02 0.  0.
         23    2    4    4    0    0 -0.56752413215E+03  0.74990498637E+03  0.48828051155E+03  0.10635767181E+04  0.91304151972E+02 0.  0.
         13    1    3    3    0    0  0.60498439960E+03 -0.57964448437E+03 -0.92923038079E+02  0.84298786648E+03  0.00000000000E+00 0. -1.
        -13    1    3    3    0    0  0.45951865266E+02 -0.77804304570E+02  0.70574414134E+01  0.90636037040E+02  0.00000000000E+00 0.  1.
          2    1    5    5  502    0 -0.60968775574E+02 -0.85830270667E+01  0.36992712564E+03  0.37501591730E+03  0.00000000000E+00 0. -1.
          1    1    6    6  503    0 -0.33166136001E+03  0.47611811683E+03  0.25764229479E+03  0.63487579176E+03  0.00000000000E+00 0. -1.
         -2    1    5    5    0  502 -0.22443357134E+02 -0.83873170355E+02  0.26902714679E+03  0.28269067670E+03  0.00000000000E+00 0.  1.
         -1    1    6    6    0  503 -0.23586277214E+03  0.27378686954E+03  0.23063821676E+03  0.42870092634E+03  0.00000000000E+00 0.  1.
<mgrwt>
<rscale>  0 0.24421471E+04</rscale>
<asrwt>0</asrwt>
<pdfrwt beam="1">  1        3 0.12411831E+00 0.24421471E+04</pdfrwt>
<pdfrwt beam="2">  1       -3 0.28432895E+00 0.24421471E+04</pdfrwt>
<totfact> 0.56683110E-02</totfact>
</mgrwt>
</event>
<event>
12    1  0.4247462E-008  0.1521934E+04  0.7818608E-02  0.8869997E-01
         -2   -1    0    0    0  501 -0.00000000000E+00  0.00000000000E+00  0.66126163093E+03  0.66126163093E+03  0.00000000000E+00 0.  1.
          2   -1    0    0  501    0  0.00000000000E+00 -0.00000000000E+00 -0.87570580077E+03  0.87570580077E+03  0.00000000000E+00 0. -1.
         23    2    1    2    0    0 -0.47079449166E+03 -0.13844211970E+03 -0.95128427100E+02  0.50805971542E+03  0.90893250063E+02 0.  0.
        254    2    1    2    0    0  0.47079449166E+03  0.13844211970E+03 -0.11931574274E+03  0.10289077163E+04  0.89643804486E+03 0.  0.
         23    2    4    4    0    0  0.21756247361E+03  0.47814553743E+02 -0.49933590962E+03  0.55448992630E+03  0.92212072200E+02 0.  0.
         23    2    4    4    0    0  0.25323201805E+03  0.90627565954E+02  0.38002016688E+03  0.47441778998E+03  0.91198144390E+02 0.  0.
         13    1    3    3    0    0 -0.36149822048E+03 -0.82617235542E+02 -0.38230866240E+02  0.37278434805E+03  0.00000000000E+00 0.  1.
        -13    1    3    3    0    0 -0.10929627118E+03 -0.55824884156E+02 -0.56897560860E+02  0.13527536737E+03  0.00000000000E+00 0. -1.
          2    1    5    5  502    0  0.75677580232E+02 -0.26852101284E+02 -0.18298619667E+03  0.19983012702E+03  0.00000000000E+00 0. -1.
          3    1    6    6  503    0  0.25394996544E+02 -0.17904050790E+02  0.32888093350E+02  0.45244751832E+02  0.00000000000E+00 0. -1.
         -2    1    5    5    0  502  0.14188489338E+03  0.74666655028E+02 -0.31634971295E+03  0.35465979928E+03  0.00000000000E+00 0.  1.
         -3    1    6    6    0  503  0.22783702151E+03  0.10853161674E+03  0.34713207353E+03  0.42917303815E+03  0.00000000000E+00 0.  1.
<mgrwt>
<rscale>  0 0.15219338E+04</rscale>
<asrwt>0</asrwt>
<pdfrwt beam="1">  1        2 0.13472397E+00 0.15219338E+04</pdfrwt>
<pdfrwt beam="2">  1       -2 0.10173256E+00 0.15219338E+04</pdfrwt>
<totfact> 0.23303567E+01</totfact>
</mgrwt>
</event>
<event>
12    1  0.4247462E-008  0.1987804E+04  0.7818608E-02  0.8612344E-01
         -2   -1    0    0    0  501 -0.00000000000E+00  0.00000000000E+00  0.11942849945E+04  0.11942849945E+04  0.00000000000E+00 0.  1.
          2   -1    0    0  501    0  0.00000000000E+00 -0.00000000000E+00 -0.82714042570E+03  0.82714042570E+03  0.00000000000E+00 0. -1.
         23    2    1    2    0    0 -0.19123278457E+03 -0.66093545692E+03  0.53219588563E+03  0.87475571716E+03  0.92517284411E+02 0.  0.
        254    2    1    2    0    0  0.19123278457E+03  0.66093545692E+03 -0.16505131680E+03  0.11466697031E+04  0.90233243023E+03 0.  0.
         23    2    4    4    0    0  0.13722097660E+02  0.24056961674E+03 -0.50737945131E+03  0.56915247388E+03  0.91861822618E+02 0.  0.
         23    2    4    4    0    0  0.17751068691E+03  0.42036584018E+03  0.34232813451E+03  0.57751722918E+03  0.90111679429E+02 0.  0.
         11    1    3    3    0    0 -0.96521953925E+02 -0.36235165117E+03  0.34673458800E+03  0.51072505442E+03  0.00000000000E+00 0. -1.
        -11    1    3    3    0    0 -0.94710830647E+02 -0.29858380574E+03  0.18546129762E+03  0.36403066273E+03  0.00000000000E+00 0.  1.
          4    1    5    5  502    0  0.84710840869E+01  0.19241300366E+03 -0.30238789596E+03  0.35851494093E+03  0.00000000000E+00 0. -1.
          1    1    6    6  503    0  0.99366989737E+02  0.30272753650E+03  0.27579120836E+03  0.42140070078E+03  0.00000000000E+00 0. -1.
         -4    1    5    5    0  502  0.52510135732E+01  0.48156613080E+02 -0.20499155535E+03  0.21063753296E+03  0.00000000000E+00 0.  1.
         -1    1    6    6    0  503  0.78143697174E+02  0.11763830368E+03  0.66536926143E+02  0.15611652840E+03  0.00000000000E+00 0.  1.
<mgrwt>
<rscale>  0 0.19878042E+04</rscale>
<asrwt>0</asrwt>
<pdfrwt beam="1">  1        2 0.12725237E+00 0.19878042E+04</pdfrwt>
<pdfrwt beam="2">  1       -2 0.18373615E+00 0.19878042E+04</pdfrwt>
<totfact> 0.52327370E+00</totfact>
</mgrwt>
</event>
<event>
12    1  0.4247462E-008  0.1942741E+04  0.7818608E-02  0.8633869E-01
         -2   -1    0    0    0  501 -0.00000000000E+00  0.00000000000E+00  0.40923508344E+03  0.40923508344E+03  0.00000000000E+00 0.  1.
          2   -1    0    0  501    0  0.00000000000E+00 -0.00000000000E+00 -0.23056682048E+04  0.23056682048E+04  0.00000000000E+00 0. -1.
         23    2    1    2    0    0  0.49640113899E+03  0.43948207516E+03 -0.23989540313E+03  0.71181391261E+03  0.97829732441E+02 0.  0.
        254    2    1    2    0    0 -0.49640113899E+03 -0.43948207516E+03 -0.16565377182E+04  0.20030893756E+04  0.91032480449E+03 0.  0.
         23    2    4    4    0    0  0.14623717457E+03 -0.24480561594E+03 -0.10566508215E+04  0.10984664708E+04  0.93821789238E+02 0.  0.
         23    2    4    4    0    0 -0.64263831356E+03 -0.19467645922E+03 -0.59988689672E+03  0.90462290480E+03  0.87151507135E+02 0.  0.
         13    1    3    3    0    0  0.11093882917E+03  0.12299881422E+03 -0.20331626253E+02  0.16688171602E+03  0.00000000000E+00 0. -1.
        -13    1    3    3    0    0  0.38546230983E+03  0.31648326094E+03 -0.21956377688E+03  0.54493219658E+03  0.00000000000E+00 0.  1.
          2    1    5    5  502    0  0.52840104502E+02 -0.16909838818E+03 -0.70116019308E+03  0.72319565671E+03  0.00000000000E+00 0. -1.
          4    1    6    6  503    0 -0.59660568530E+03 -0.18793389885E+03 -0.52581820714E+03  0.81715499205E+03  0.00000000000E+00 0. -1.
         -2    1    5    5    0  502  0.93397070065E+02 -0.75707227762E+02 -0.35549062840E+03  0.37527081410E+03  0.00000000000E+00 0.  1.
         -4    1    6    6    0  503 -0.46032628266E+02 -0.67425603690E+01 -0.74068689572E+02  0.87467912747E+02  0.00000000000E+00 0.  1.
<mgrwt>
<rscale>  0 0.19427407E+04</rscale>
<asrwt>0</asrwt>
<pdfrwt beam="1">  1        2 0.35471819E+00 0.19427407E+04</pdfrwt>
<pdfrwt beam="2">  1       -2 0.62959242E-01 0.19427407E+04</pdfrwt>
<totfact> 0.98217218E+00</totfact>
</mgrwt>
</event>
<event>
12    1  0.4247462E-008  0.2344850E+04  0.7818608E-02  0.8460445E-01
          2   -1    0    0  501    0  0.00000000000E+00  0.00000000000E+00  0.72262247909E+03  0.72262247909E+03  0.00000000000E+00 0.  1.
         -2   -1    0    0    0  501 -0.00000000000E+00 -0.00000000000E+00 -0.19022102354E+04  0.19022102354E+04  0.00000000000E+00 0. -1.
         23    2    1    2    0    0  0.59752538499E+03 -0.94391701293E+02  0.38762773921E+03  0.72439539861E+03  0.92450258798E+02 0.  0.
        254    2    1    2    0    0 -0.59752538499E+03  0.94391701293E+02 -0.15672154955E+04  0.19004373159E+04  0.88856693794E+03 0.  0.
         23    2    4    4    0    0  0.21832320979E+03  0.54388307917E+01 -0.47906947446E+03  0.53438204973E+03  0.91444020560E+02 0.  0.
         23    2    4    4    0    0 -0.81584859478E+03  0.88952870501E+02 -0.10881460210E+04  0.13660552661E+04  0.92323801102E+02 0.  0.
         13    1    3    3    0    0  0.24103344385E+03 -0.58713741991E+02  0.11112761307E+03  0.27183408715E+03  0.00000000000E+00 0. -1.
        -13    1    3    3    0    0  0.35649194114E+03 -0.35677959302E+02  0.27650012613E+03  0.45256131146E+03  0.00000000000E+00 0.  1.
          2    1    5    5  502    0  0.19606196882E+03  0.10497130289E+02 -0.47080111008E+03  0.51010211783E+03  0.00000000000E+00 0. -1.
          4    1    6    6  503    0 -0.72360411412E+03  0.10811982717E+03 -0.96203119584E+03  0.12086342841E+04  0.00000000000E+00 0. -1.
         -2    1    5    5    0  502  0.22261240972E+02 -0.50582994969E+01 -0.82683643808E+01  0.24279931897E+02  0.00000000000E+00 0.  1.
         -4    1    6    6    0  503 -0.92244480653E+02 -0.19166956672E+02 -0.12611482521E+03  0.15742098201E+03  0.00000000000E+00 0.  1.
<mgrwt>
<rscale>  0 0.23448496E+04</rscale>
<asrwt>0</asrwt>
<pdfrwt beam="1">  1        2 0.11117269E+00 0.23448496E+04</pdfrwt>
<pdfrwt beam="2">  1       -2 0.29264772E+00 0.23448496E+04</pdfrwt>
<totfact> 0.12531338E+00</totfact>
</mgrwt>
</event>
<event>
12    1  0.4247462E-008  0.1189609E+04  0.7818608E-02  0.9122000E-01
          2   -1    0    0  501    0  0.00000000000E+00  0.00000000000E+00  0.28485212439E+03  0.28485212439E+03  0.00000000000E+00 0. -1.
         -2   -1    0    0    0  501 -0.00000000000E+00 -0.00000000000E+00 -0.12420217141E+04  0.12420217141E+04  0.00000000000E+00 0.  1.
         23    2    1    2    0    0  0.16510139651E+03  0.17960558515E+03 -0.16180313968E+03  0.30366457287E+03  0.80717281072E+02 0.  0.
        254    2    1    2    0    0 -0.16510139651E+03 -0.17960558515E+03 -0.79536644999E+03  0.12232092656E+04  0.89672542079E+03 0.  0.
         23    2    4    4    0    0  0.30960088170E+03 -0.12095484561E+03 -0.75114882974E+02  0.35313276974E+03  0.92616018042E+02 0.  0.
         23    2    4    4    0    0 -0.47470227821E+03 -0.58650739537E+02 -0.72025156702E+03  0.87007649584E+03  0.97409581826E+02 0.  0.
         13    1    3    3    0    0  0.23184680806E+01  0.22419662439E+02 -0.41890941687E+02  0.47569607457E+02  0.00000000000E+00 0. -1.
        -13    1    3    3    0    0  0.16278292843E+03  0.15718592271E+03 -0.11991219800E+03  0.25609496542E+03  0.00000000000E+00 0.  1.
          1    1    5    5  502    0  0.62805729234E+02 -0.47341040141E+02 -0.52584832033E+02  0.94609187007E+02  0.00000000000E+00 0. -1.
          3    1    6    6  503    0 -0.38124903531E+03 -0.23633160668E+02 -0.50852767988E+03  0.63601081313E+03  0.00000000000E+00 0. -1.
         -1    1    5    5    0  502  0.24679515247E+03 -0.73613805467E+02 -0.22530050941E+02  0.25852358274E+03  0.00000000000E+00 0.  1.
         -3    1    6    6    0  503 -0.93453242893E+02 -0.35017578869E+02 -0.21172388714E+03  0.23406568271E+03  0.00000000000E+00 0.  1.
<mgrwt>
<rscale>  0 0.11896092E+04</rscale>
<asrwt>0</asrwt>
<pdfrwt beam="1">  1        2 0.43823403E-01 0.11896092E+04</pdfrwt>
<pdfrwt beam="2">  1       -2 0.19108027E+00 0.11896092E+04</pdfrwt>
<totfact> 0.17494493E+01</totfact>
</mgrwt>
</event>
<event>
12    1  0.4247462E-008  0.1275308E+04  0.7818608E-02  0.9049378E-01
         -2   -1    0    0    0  501 -0.00000000000E+00  0.00000000000E+00  0.27840029945E+03  0.27840029945E+03  0.00000000000E+00 0.  1.
          2   -1    0    0  501    0  0.00000000000E+00 -0.00000000000E+00 -0.14604973900E+04  0.14604973900E+04  0.00000000000E+00 0. -1.
         23    2    1    2    0    0 -0.21201469053E+02 -0.46889091091E+02 -0.77614643875E+03  0.78323640085E+03  0.91694471371E+02 0.  0.
        254    2    1    2    0    0  0.21201469053E+02  0.46889091091E+02 -0.40595065184E+03  0.95566128864E+03  0.86362287934E+03 0.  0.
         23    2    4    4    0    0  0.15370977672E+02  0.39811193480E+03 -0.42861537350E+03  0.59156774180E+03  0.86671074558E+02 0.  0.
         23    2    4    4    0    0  0.58304913810E+01 -0.35122284371E+03  0.22664721651E+02  0.36409354684E+03  0.93053429118E+02 0.  0.
         11    1    3    3    0    0 -0.16365811284E+01 -0.54307476288E+02 -0.73565086872E+03  0.73765451332E+03  0.00000000000E+00 0. -1.
        -11    1    3    3    0    0 -0.19564887924E+02  0.74183851977E+01 -0.40495570027E+02  0.45581887524E+02  0.00000000000E+00 0.  1.
          4    1    5    5  502    0 -0.18217961408E+02  0.17391911124E+02 -0.32658324558E+02  0.41242439954E+02  0.00000000000E+00 0. -1.
          3    1    6    6  503    0  0.78262086061E+01 -0.44807574832E+02  0.35046883506E+02  0.57421706235E+02  0.00000000000E+00 0. -1.
         -4    1    5    5    0  502  0.33588939080E+02  0.38072002367E+03 -0.39595704894E+03  0.55032530185E+03  0.00000000000E+00 0.  1.
         -3    1    6    6    0  503 -0.19957172251E+01 -0.30641526887E+03 -0.12382161855E+02  0.30667184060E+03  0.00000000000E+00 0.  1.
<mgrwt>
<rscale>  0 0.12753085E+04</rscale>
<asrwt>0</asrwt>
<pdfrwt beam="1">  1        2 0.22469191E+00 0.12753085E+04</pdfrwt>
<pdfrwt beam="2">  1       -2 0.42830815E-01 0.12753085E+04</pdfrwt>
<totfact> 0.67786614E+01</totfact>
</mgrwt>
</event>
<event>
12    1  0.4247462E-008  0.2949912E+04  0.7818608E-02  0.8258180E-01
          1   -1    0    0  501    0  0.00000000000E+00  0.00000000000E+00  0.69148569832E+03  0.69148569832E+03  0.00000000000E+00 0. -1.
         -1   -1    0    0    0  501 -0.00000000000E+00 -0.00000000000E+00 -0.31461167679E+04  0.31461167679E+04  0.00000000000E+00 0.  1.
         23    2    1    2    0    0  0.10609044728E+04  0.58027596301E+03 -0.18552789181E+04  0.22164363945E+04  0.91060051736E+02 0.  0.
        254    2    1    2    0    0 -0.10609044728E+04 -0.58027596301E+03 -0.59935215145E+03  0.16211660718E+04  0.89817478098E+03 0.  0.
         23    2    4    4    0    0 -0.11475681044E+04 -0.34984194577E+03 -0.33549447726E+03  0.12490669091E+04  0.91157325939E+02 0.  0.
         23    2    4    4    0    0  0.86663631587E+02 -0.23043401724E+03 -0.26385767418E+03  0.37209916262E+03  0.90700017963E+02 0.  0.
         13    1    3    3    0    0  0.93495676258E+03  0.48063822982E+03 -0.15812890266E+04  0.18988502420E+04  0.00000000000E+00 0.  1.
        -13    1    3    3    0    0  0.12594771019E+03  0.99637733195E+02 -0.27398989154E+03  0.31758615248E+03  0.00000000000E+00 0. -1.
          4    1    5    5  502    0 -0.29450919492E+03 -0.59839482158E+02 -0.11234477404E+03  0.32083917743E+03  0.00000000000E+00 0. -1.
          3    1    6    6  503    0  0.86089844021E+02 -0.22597986067E+03 -0.21664788246E+03  0.32467624436E+03  0.00000000000E+00 0. -1.
         -4    1    5    5    0  502 -0.85305890943E+03 -0.29000246361E+03 -0.22314970323E+03  0.92822773171E+03  0.00000000000E+00 0.  1.
         -3    1    6    6    0  503  0.57378756610E+00 -0.44541565683E+01 -0.47209791718E+02  0.47422918267E+02  0.00000000000E+00 0.  1.
<mgrwt>
<rscale>  0 0.29499117E+04</rscale>
<asrwt>0</asrwt>
<pdfrwt beam="1">  1        1 0.10638241E+00 0.29499117E+04</pdfrwt>
<pdfrwt beam="2">  1       -1 0.48401797E+00 0.29499117E+04</pdfrwt>
<totfact> 0.44936714E-02</totfact>
</mgrwt>
</event>
<event>
12    1  0.4247462E-008  0.1564067E+04  0.7818608E-02  0.8842932E-01
          1   -1    0    0  501    0  0.00000000000E+00  0.00000000000E+00  0.39644472219E+03  0.39644472219E+03  0.00000000000E+00 0. -1.
         -1   -1    0    0    0  501 -0.00000000000E+00 -0.00000000000E+00 -0.15426527171E+04  0.15426527171E+04  0.00000000000E+00 0.  1.
         23    2    1    2    0    0  0.18689693799E+03 -0.44345606821E+03 -0.16863740724E+03  0.52343491451E+03  0.11815999639E+03 0.  0.
        254    2    1    2    0    0 -0.18689693799E+03  0.44345606821E+03 -0.97757058771E+03  0.14156625248E+04  0.90380992490E+03 0.  0.
         23    2    4    4    0    0 -0.11717981579E+03  0.71217541203E+03 -0.63310174800E+03  0.96382524270E+03  0.84949093089E+02 0.  0.
         23    2    4    4    0    0 -0.69717122201E+02 -0.26871934382E+03 -0.34446883971E+03  0.45183728211E+03  0.91801879639E+02 0.  0.
         13    1    3    3    0    0  0.12202654686E+02 -0.72958552427E+02  0.13422955306E+02  0.75179989910E+02  0.00000000000E+00 0.  1.
        -13    1    3    3    0    0  0.17469428330E+03 -0.37049751578E+03 -0.18206036255E+03  0.44825492460E+03  0.00000000000E+00 0. -1.
          2    1    6    6  502    0 -0.62627385327E+02 -0.25282278225E+03 -0.34738741499E+03  0.43418839772E+03  0.00000000000E+00 0. -1.
          2    1    5    5  503    0 -0.12875454304E+03  0.67921856046E+03 -0.60985025032E+03  0.92186382566E+03  0.00000000000E+00 0. -1.
         -2    1    5    5    0  503  0.11574727256E+02  0.32956851567E+02 -0.23251497682E+02  0.41961417048E+02  0.00000000000E+00 0.  1.
         -2    1    6    6    0  502 -0.70897368744E+01 -0.15896561569E+02  0.29185752840E+01  0.17648884394E+02  0.00000000000E+00 0.  1.
<mgrwt>
<rscale>  0 0.15640672E+04</rscale>
<asrwt>0</asrwt>
<pdfrwt beam="1">  1        1 0.60991496E-01 0.15640672E+04</pdfrwt>
<pdfrwt beam="2">  1       -1 0.23733119E+00 0.15640672E+04</pdfrwt>
<totfact> 0.49336577E+00</totfact>
</mgrwt>
</event>
<event>
12    1  0.4247462E-008  0.2350170E+04  0.7818608E-02  0.8458398E-01
         -2   -1    0    0    0  501 -0.00000000000E+00  0.00000000000E+00  0.75568346011E+03  0.75568346011E+03  0.00000000000E+00 0. -1.
          2   -1    0    0  501    0  0.00000000000E+00 -0.00000000000E+00 -0.18272522456E+04  0.18272522456E+04  0.00000000000E+00 0.  1.
         23    2    1    2    0    0 -0.51730838522E+03 -0.12023963621E+03 -0.13793553133E+04  0.14814689756E+04  0.10031804393E+03 0.  0.
        254    2    1    2    0    0  0.51730838522E+03  0.12023963621E+03  0.30778652778E+03  0.11014667301E+04  0.91456594911E+03 0.  0.
         23    2    4    4    0    0  0.46965803260E+03  0.36242563606E+03 -0.10748261718E+03  0.60978283920E+03  0.91387027132E+02 0.  0.
         23    2    4    4    0    0  0.47650352623E+02 -0.24218599985E+03  0.41526914495E+03  0.49168389089E+03  0.91542182541E+02 0.  0.
         11    1    3    3    0    0 -0.62589960372E+02  0.18168187192E+02 -0.16617605066E+03  0.17849948453E+03  0.00000000000E+00 0. -1.
        -11    1    3    3    0    0 -0.45471842485E+03 -0.13840782340E+03 -0.12131792626E+04  0.13029694911E+04  0.00000000000E+00 0.  1.
          4    1    5    5  502    0  0.16234689492E+03  0.10485979998E+03 -0.75656529655E+02  0.20754759074E+03  0.00000000000E+00 0. -1.
          1    1    6    6  503    0  0.40608550268E+02 -0.24953529358E+03  0.40306597560E+03  0.47579312499E+03  0.00000000000E+00 0. -1.
         -4    1    5    5    0  502  0.30731113768E+03  0.25756583608E+03 -0.31826087523E+02  0.40223524846E+03  0.00000000000E+00 0.  1.
         -1    1    6    6    0  503  0.70418023545E+01  0.73492937339E+01  0.12203169354E+02  0.15890765906E+02  0.00000000000E+00 0.  1.
<mgrwt>
<rscale>  0 0.23501696E+04</rscale>
<asrwt>0</asrwt>
<pdfrwt beam="1">  1        2 0.28111573E+00 0.23501696E+04</pdfrwt>
<pdfrwt beam="2">  1       -2 0.11625900E+00 0.23501696E+04</pdfrwt>
<totfact> 0.43202975E+00</totfact>
</mgrwt>
</event>
<event>
12    1  0.4247462E-008  0.1818438E+04  0.7818608E-02  0.8696555E-01
          1   -1    0    0  501    0  0.00000000000E+00  0.00000000000E+00  0.21743788793E+04  0.21743788793E+04  0.00000000000E+00 0.  1.
         -1   -1    0    0    0  501 -0.00000000000E+00 -0.00000000000E+00 -0.38019113809E+03  0.38019113809E+03  0.00000000000E+00 0. -1.
         23    2    1    2    0    0 -0.50712286767E+03  0.28767695632E+03  0.12064768911E+04  0.13431034891E+04  0.91699834622E+02 0.  0.
        254    2    1    2    0    0  0.50712286767E+03 -0.28767695632E+03  0.58771085014E+03  0.12114665283E+04  0.88448599291E+03 0.  0.
         23    2    4    4    0    0  0.35500620225E+03 -0.58040294858E+03  0.25331181359E+03  0.73186062999E+03  0.92499299830E+02 0.  0.
         23    2    4    4    0    0  0.15211666542E+03  0.29272599226E+03  0.33439903655E+03  0.47960589829E+03  0.96804522562E+02 0.  0.
         11    1    3    3    0    0 -0.12533279041E+03  0.82168625185E+02  0.22776009163E+03  0.27264381646E+03  0.00000000000E+00 0. -1.
        -11    1    3    3    0    0 -0.38179007726E+03  0.20550833113E+03  0.97871679946E+03  0.10704596727E+04  0.00000000000E+00 0.  1.
          4    1    5    5  502    0  0.17484581475E+03 -0.36367609112E+03  0.17096032873E+03  0.43824512797E+03  0.00000000000E+00 0.  1.
          3    1    6    6  503    0  0.26878620629E+02  0.95569335086E+02  0.15924673616E+03  0.18765788295E+03  0.00000000000E+00 0. -1.
         -4    1    5    5    0  502  0.18016038750E+03 -0.21672685745E+03  0.82351484852E+02  0.29361550201E+03  0.00000000000E+00 0. -1.
         -3    1    6    6    0  503  0.12523804479E+03  0.19715665717E+03  0.17515230039E+03  0.29194801534E+03  0.00000000000E+00 0.  1.
<mgrwt>
<rscale>  0 0.18184384E+04</rscale>
<asrwt>0</asrwt>
<pdfrwt beam="1">  1        1 0.33451982E+00 0.18184384E+04</pdfrwt>
<pdfrwt beam="2">  1       -1 0.58490946E-01 0.18184384E+04</pdfrwt>
<totfact> 0.63309202E+00</totfact>
</mgrwt>
</event>
<event>
12    1  0.4247462E-008  0.1279378E+04  0.7818608E-02  0.9046081E-01
         -2   -1    0    0    0  501 -0.00000000000E+00  0.00000000000E+00  0.31727952019E+03  0.31727952019E+03  0.00000000000E+00 0.  1.
          2   -1    0    0  501    0  0.00000000000E+00 -0.00000000000E+00 -0.12897198650E+04  0.12897198650E+04  0.00000000000E+00 0. -1.
         23    2    1    2    0    0  0.20160635764E+03  0.15426831368E+02 -0.55345060384E+03  0.59527578439E+03  0.84632015359E+02 0.  0.
        254    2    1    2    0    0 -0.20160635764E+03 -0.15426831368E+02 -0.41898974096E+03  0.10117236008E+04  0.89841478772E+03 0.  0.
         23    2    4    4    0    0  0.12897041393E+03 -0.28387178351E+03 -0.47220240335E+03  0.57361244288E+03  0.94018975464E+02 0.  0.
         23    2    4    4    0    0 -0.33057677157E+03  0.26844495215E+03  0.53212662393E+02  0.43811115790E+03  0.88125507125E+02 0.  0.
         13    1    3    3    0    0  0.13657189628E+03  0.14412146372E+02 -0.46893076206E+03  0.48862629117E+03  0.00000000000E+00 0. -1.
        -13    1    3    3    0    0  0.65034461356E+02  0.10146849963E+01 -0.84519841783E+02  0.10664949322E+03  0.00000000000E+00 0.  1.
          3    1    6    6  502    0 -0.38878032238E+02  0.22476344019E+01  0.13494875316E+02  0.41214862742E+02  0.00000000000E+00 0. -1.
          3    1    5    5  503    0  0.16521066274E+02 -0.13819204225E+03 -0.16900924602E+03  0.21893860193E+03  0.00000000000E+00 0. -1.
         -3    1    5    5    0  503  0.11244934766E+03 -0.14567974126E+03 -0.30319315733E+03  0.35467384095E+03  0.00000000000E+00 0.  1.
         -3    1    6    6    0  502 -0.29169873933E+03  0.26619731774E+03  0.39717787077E+02  0.39689629516E+03  0.00000000000E+00 0.  1.
<mgrwt>
<rscale>  0 0.12793775E+04</rscale>
<asrwt>0</asrwt>
<pdfrwt beam="1">  1        2 0.19841844E+00 0.12793775E+04</pdfrwt>
<pdfrwt beam="2">  1       -2 0.48812235E-01 0.12793775E+04</pdfrwt>
<totfact> 0.65367891E+01</totfact>
</mgrwt>
</event>
<event>
12    1  0.4247462E-008  0.2569059E+04  0.7818608E-02  0.8378788E-01
         -1   -1    0    0    0  501 -0.00000000000E+00  0.00000000000E+00  0.56336042107E+03  0.56336042107E+03  0.00000000000E+00 0.  1.
          1   -1    0    0  501    0  0.00000000000E+00 -0.00000000000E+00 -0.29288809620E+04  0.29288809620E+04  0.00000000000E+00 0. -1.
         23    2    1    2    0    0 -0.10503064014E+04  0.36595983789E+03 -0.11825742314E+04  0.16257774986E+04  0.87180975038E+02 0.  0.
        254    2    1    2    0    0  0.10503064014E+04 -0.36595983789E+03 -0.11829463095E+04  0.18664638845E+04  0.92046473108E+03 0.  0.
         23    2    4    4    0    0  0.86111334201E+03 -0.34321656251E+02 -0.11946512193E+04  0.14760300131E+04  0.93695783198E+02 0.  0.
         23    2    4    4    0    0  0.18919305936E+03 -0.33163818163E+03  0.11704909793E+02  0.39043387142E+03  0.80769460877E+02 0.  0.
         13    1    3    3    0    0 -0.38218528811E+03  0.16502654963E+03 -0.39930349830E+03  0.57683848717E+03  0.00000000000E+00 0. -1.
        -13    1    3    3    0    0 -0.66812111326E+03  0.20093328825E+03 -0.78327073314E+03  0.10489390114E+04  0.00000000000E+00 0.  1.
          1    1    5    5  502    0  0.33968100587E+03 -0.17801100074E+02 -0.55061721881E+03  0.64720892034E+03  0.00000000000E+00 0. -1.
          1    1    6    6  503    0  0.19384875026E+03 -0.29288560191E+03  0.10879097154E+02  0.35139389371E+03  0.00000000000E+00 0. -1.
         -1    1    5    5    0  502  0.52143233614E+03 -0.16520556177E+02 -0.64403400049E+03  0.82882109272E+03  0.00000000000E+00 0.  1.
         -1    1    6    6    0  503 -0.46556908964E+01 -0.38752579721E+02  0.82581263900E+00  0.39039977705E+02  0.00000000000E+00 0.  1.
<mgrwt>
<rscale>  0 0.25690587E+04</rscale>
<asrwt>0</asrwt>
<pdfrwt beam="1">  1        1 0.45059707E+00 0.25690587E+04</pdfrwt>
<pdfrwt beam="2">  1       -1 0.86670834E-01 0.25690587E+04</pdfrwt>
<totfact> 0.78010261E-01</totfact>
</mgrwt>
</event>
<event>
12    1  0.4247462E-008  0.1634799E+04  0.7818608E-02  0.8799450E-01
         -2   -1    0    0    0  501 -0.00000000000E+00  0.00000000000E+00  0.67618960019E+03  0.67618960019E+03  0.00000000000E+00 0.  1.
          2   -1    0    0  501    0  0.00000000000E+00 -0.00000000000E+00 -0.98809849795E+03  0.98809849795E+03  0.00000000000E+00 0. -1.
         23    2    1    2    0    0 -0.24108596012E+03  0.51125064600E+03 -0.14231236609E+03  0.58983180568E+03  0.90272289509E+02 0.  0.
        254    2    1    2    0    0  0.24108596012E+03 -0.51125064600E+03 -0.16959653167E+03  0.10744562925E+04  0.89788288638E+03 0.  0.
         23    2    4    4    0    0  0.37328231976E+03  0.83822935900E+02 -0.22858752132E+03  0.45518567812E+03  0.92605463332E+02 0.  0.
         23    2    4    4    0    0 -0.13219635964E+03 -0.59507358190E+03  0.58990989652E+02  0.61927061434E+03  0.91802568333E+02 0.  0.
         13    1    3    3    0    0 -0.18496575226E+03  0.45985636749E+03 -0.13278992730E+03  0.51314069515E+03  0.00000000000E+00 0. -1.
        -13    1    3    3    0    0 -0.56120207859E+02  0.51394278505E+02 -0.95224387822E+01  0.76691110525E+02  0.00000000000E+00 0.  1.
          4    1    5    5  502    0  0.67526723098E+02  0.13823169144E+02 -0.87130923908E+02  0.11109786784E+03  0.00000000000E+00 0. -1.
          3    1    6    6  503    0 -0.10967082034E+03 -0.54110449637E+03  0.78416072473E+02  0.55764759951E+03  0.00000000000E+00 0. -1.
         -4    1    5    5    0  502  0.30575559666E+03  0.69999766756E+02 -0.14145659741E+03  0.34408781028E+03  0.00000000000E+00 0.  1.
         -3    1    6    6    0  503 -0.22525539299E+02 -0.53969085529E+02 -0.19425082821E+02  0.61623014825E+02  0.00000000000E+00 0.  1.
<mgrwt>
<rscale>  0 0.16347990E+04</rscale>
<asrwt>0</asrwt>
<pdfrwt beam="1">  1        2 0.15201515E+00 0.16347990E+04</pdfrwt>
<pdfrwt beam="2">  1       -2 0.10402917E+00 0.16347990E+04</pdfrwt>
<totfact> 0.18433412E+01</totfact>
</mgrwt>
</event>
<event>
12    1  0.4247462E-008  0.2997663E+04  0.7818608E-02  0.8244399E-01
         -2   -1    0    0    0  501 -0.00000000000E+00  0.00000000000E+00  0.47117777221E+03  0.47117777221E+03  0.00000000000E+00 0.  1.
          2   -1    0    0  501    0  0.00000000000E+00 -0.00000000000E+00 -0.47678308859E+04  0.47678308859E+04  0.00000000000E+00 0. -1.
         23    2    1    2    0    0  0.22542333919E+03 -0.12113765839E+04 -0.29763718527E+04  0.32224618523E+04  0.84982785216E+02 0.  0.
        254    2    1    2    0    0 -0.22542333919E+03  0.12113765839E+04 -0.13202812610E+04  0.20165468059E+04  0.89725665346E+03 0.  0.
         23    2    4    4    0    0 -0.52100261425E+03  0.49139787978E+03 -0.47695171956E+03  0.86523273966E+03  0.90714666287E+02 0.  0.
         23    2    4    4    0    0  0.29557927506E+03  0.71997870414E+03 -0.84332954146E+03  0.11513140662E+04  0.92644057121E+02 0.  0.
         11    1    3    3    0    0  0.11703292499E+03 -0.53041555207E+03 -0.12126397465E+04  0.13287334263E+04  0.00000000000E+00 0. -1.
        -11    1    3    3    0    0  0.10839041420E+03 -0.68096103185E+03 -0.17637321062E+04  0.18937284259E+04  0.00000000000E+00 0.  1.
          2    1    5    5  502    0 -0.67871528529E+02  0.35195956947E+02 -0.29887125836E+02  0.82088611031E+02  0.00000000000E+00 0. -1.
          1    1    6    6  503    0  0.24833277520E+02  0.11899027522E+03 -0.17062902189E+03  0.20949854506E+03  0.00000000000E+00 0. -1.
         -2    1    5    5    0  502 -0.45313108572E+03  0.45620192283E+03 -0.44706459373E+03  0.78314412863E+03  0.00000000000E+00 0.  1.
         -1    1    6    6    0  503  0.27074599754E+03  0.60098842891E+03 -0.67270051957E+03  0.94181552116E+03  0.00000000000E+00 0.  1.
<mgrwt>
<rscale>  0 0.29976630E+04</rscale>
<asrwt>0</asrwt>
<pdfrwt beam="1">  1        2 0.73351248E+00 0.29976630E+04</pdfrwt>
<pdfrwt beam="2">  1       -2 0.72488885E-01 0.29976630E+04</pdfrwt>
<totfact> 0.95283967E-02</totfact>
</mgrwt>
</event>
<event>
12    1  0.4247462E-008  0.1253630E+04  0.7818608E-02  0.9067168E-01
          2   -1    0    0  501    0  0.00000000000E+00  0.00000000000E+00  0.97254888376E+03  0.97254888376E+03  0.00000000000E+00 0. -1.
         -2   -1    0    0    0  501 -0.00000000000E+00 -0.00000000000E+00 -0.40398669358E+03  0.40398669358E+03  0.00000000000E+00 0.  1.
         23    2    1    2    0    0  0.16012555903E+03 -0.23688104296E+03  0.20905421034E+03  0.36690008583E+03  0.95703641288E+02 0.  0.
        254    2    1    2    0    0 -0.16012555903E+03  0.23688104296E+03  0.35950797985E+03  0.10096354915E+04  0.89909121616E+03 0.  0.
         23    2    4    4    0    0 -0.37728218462E+03  0.40668963113E+03  0.43292774024E+03  0.71016649190E+03  0.95769071462E+02 0.  0.
         23    2    4    4    0    0  0.21715662559E+03 -0.16980858817E+03 -0.73419760395E+02  0.29946899961E+03  0.91100295585E+02 0.  0.
         13    1    3    3    0    0  0.16921157202E+03 -0.19589085826E+03  0.17100952156E+03  0.31024190710E+03  0.00000000000E+00 0. -1.
        -13    1    3    3    0    0 -0.90860129854E+01 -0.40990184702E+02  0.38044688776E+02  0.56658178738E+02  0.00000000000E+00 0.  1.
          4    1    5    5  502    0 -0.36404168268E+03  0.38835876328E+03  0.43502622911E+03  0.68745668646E+03  0.00000000000E+00 0. -1.
          3    1    6    6  503    0  0.20602280743E+03 -0.12842480227E+03 -0.81040860188E+02  0.25594129803E+03  0.00000000000E+00 0. -1.
         -4    1    5    5    0  502 -0.13240501943E+02  0.18330867849E+02 -0.20984888655E+01  0.22709805444E+02  0.00000000000E+00 0.  1.
         -3    1    6    6    0  503  0.11133818161E+02 -0.41383785901E+02  0.76210997938E+01  0.43527701575E+02  0.00000000000E+00 0.  1.
<mgrwt>
<rscale>  0 0.12536296E+04</rscale>
<asrwt>0</asrwt>
<pdfrwt beam="1">  1        2 0.14962290E+00 0.12536296E+04</pdfrwt>
<pdfrwt beam="2">  1       -2 0.62151799E-01 0.12536296E+04</pdfrwt>
<totfact> 0.62016479E+01</totfact>
</mgrwt>
</event>
<event>
12    1  0.4247462E-008  0.1823325E+04  0.7818608E-02  0.8693993E-01
         -2   -1    0    0    0  501 -0.00000000000E+00  0.00000000000E+00  0.50821502147E+03  0.50821502147E+03  0.00000000000E+00 0.  1.
          2   -1    0    0  501    0  0.00000000000E+00 -0.00000000000E+00 -0.16353873181E+04  0.16353873181E+04  0.00000000000E+00 0. -1.
         23    2    1    2    0    0 -0.12214246138E+03  0.61213627477E+03 -0.88238788361E+02  0.63673970833E+03  0.89564349092E+02 0.  0.
        254    2    1    2    0    0  0.12214246138E+03 -0.61213627477E+03 -0.10389335083E+04  0.15068626312E+04  0.89533376741E+03 0.  0.
         23    2    4    4    0    0  0.49977979450E+03 -0.39568152347E+03 -0.58729838530E+03  0.87169187947E+03  0.92647872860E+02 0.  0.
         23    2    4    4    0    0 -0.37763733312E+03 -0.21645475130E+03 -0.45163512296E+03  0.63517075177E+03  0.10002492130E+03 0.  0.
         13    1    3    3    0    0 -0.95059647433E+02  0.25809181734E+03 -0.26256934294E+02  0.27629178299E+03  0.00000000000E+00 0. -1.
        -13    1    3    3    0    0 -0.27082813947E+02  0.35404445743E+03 -0.61981854067E+02  0.36044792534E+03  0.00000000000E+00 0.  1.
          1    1    5    5  502    0  0.43103771035E+03 -0.30429640421E+03 -0.50882367678E+03  0.73300159850E+03  0.00000000000E+00 0. -1.
          3    1    6    6  503    0 -0.36525086106E+03 -0.19112967496E+03 -0.39040853682E+03  0.56776541791E+03  0.00000000000E+00 0. -1.
         -1    1    5    5    0  502  0.68742084148E+02 -0.91385119265E+02 -0.78474708520E+02  0.13869028096E+03  0.00000000000E+00 0.  1.
         -3    1    6    6    0  503 -0.12386472064E+02 -0.25325076337E+02 -0.61226586143E+02  0.67405333857E+02  0.00000000000E+00 0.  1.
<mgrwt>
<rscale>  0 0.18233249E+04</rscale>
<asrwt>0</asrwt>
<pdfrwt beam="1">  1        2 0.25159805E+00 0.18233249E+04</pdfrwt>
<pdfrwt beam="2">  1       -2 0.78186927E-01 0.18233249E+04</pdfrwt>
<totfact> 0.14611112E+01</totfact>
</mgrwt>
</event>
<event>
12    1  0.4247462E-008  0.1155736E+04  0.7818608E-02  0.9152508E-01
         -2   -1    0    0    0  501 -0.00000000000E+00  0.00000000000E+00  0.35119828764E+03  0.35119828764E+03  0.00000000000E+00 0.  1.
          2   -1    0    0  501    0  0.00000000000E+00 -0.00000000000E+00 -0.95083394605E+03  0.95083394605E+03  0.00000000000E+00 0. -1.
         23    2    1    2    0    0  0.30644470503E+02 -0.33942190279E+02 -0.35444049282E+03  0.36869278222E+03  0.90637458319E+02 0.  0.
        254    2    1    2    0    0 -0.30644470503E+02  0.33942190279E+02 -0.24519516559E+03  0.93333945147E+03  0.89939463340E+03 0.  0.
         23    2    4    4    0    0  0.28768107491E+02  0.65803293405E+02 -0.57368649321E+03  0.58531439038E+03  0.91208912179E+02 0.  0.
         23    2    4    4    0    0 -0.59412577994E+02 -0.31861103126E+02  0.32849132762E+03  0.34802506110E+03  0.93112332764E+02 0.  0.
         11    1    3    3    0    0  0.19069126958E+01 -0.26972920153E+02 -0.32773335286E+03  0.32884696336E+03  0.00000000000E+00 0. -1.
        -11    1    3    3    0    0  0.28737557807E+02 -0.69692701260E+01 -0.26707139967E+02  0.39845818852E+02  0.00000000000E+00 0.  1.
          4    1    5    5  502    0 -0.62051118848E+01 -0.10653369445E+02 -0.26780251139E+03  0.26808614810E+03  0.00000000000E+00 0. -1.
          1    1    6    6  503    0 -0.59587680228E+02  0.11996948166E+02  0.11500158943E+03  0.13007683872E+03  0.00000000000E+00 0. -1.
         -4    1    5    5    0  502  0.34973219376E+02  0.76456662850E+02 -0.30588398182E+03  0.31722824228E+03  0.00000000000E+00 0.  1.
         -1    1    6    6    0  503  0.17510223387E+00 -0.43858051292E+02  0.21348973819E+03  0.21794822237E+03  0.00000000000E+00 0.  1.
<mgrwt>
<rscale>  0 0.11557357E+04</rscale>
<asrwt>0</asrwt>
<pdfrwt beam="1">  1        2 0.14628214E+00 0.11557357E+04</pdfrwt>
<pdfrwt beam="2">  1       -2 0.54030507E-01 0.11557357E+04</pdfrwt>
<totfact> 0.86558790E+01</totfact>
</mgrwt>
</event>
<event>
12    1  0.4247462E-008  0.3101799E+04  0.7818608E-02  0.8215244E-01
          1   -1    0    0  501    0  0.00000000000E+00  0.00000000000E+00  0.30604413755E+04  0.30604413755E+04  0.00000000000E+00 0. -1.
         -1   -1    0    0    0  501 -0.00000000000E+00 -0.00000000000E+00 -0.78592894087E+03  0.78592894087E+03  0.00000000000E+00 0.  1.
         23    2    1    2    0    0 -0.37204069565E+03  0.84406075336E+03 -0.29118879328E+03  0.97155669160E+03  0.90987125822E+02 0.  0.
        254    2    1    2    0    0  0.37204069565E+03 -0.84406075336E+03  0.25657012279E+04  0.28748136248E+04  0.91152495945E+03 0.  0.
         23    2    4    4    0    0  0.31431636547E+03 -0.71680551010E+03  0.25879530889E+04  0.27055415937E+04  0.99243175435E+02 0.  0.
         23    2    4    4    0    0  0.57724330177E+02 -0.12725524327E+03 -0.22251860960E+02  0.16927203112E+03  0.92907911241E+02 0.  0.
         11    1    3    3    0    0 -0.10016829266E+03  0.17540458587E+03 -0.97017070287E+02  0.22408205534E+03  0.00000000000E+00 0. -1.
        -11    1    3    3    0    0 -0.27187240298E+03  0.66865616750E+03 -0.19417172300E+03  0.74747463626E+03  0.00000000000E+00 0.  1.
          2    1    5    5  502    0  0.88964106875E+02 -0.16871398614E+03  0.50092001782E+03  0.53600362469E+03  0.00000000000E+00 0. -1.
          2    1    6    6  503    0 -0.18320024511E+02 -0.16268899189E+02 -0.24590236115E+02  0.34712823151E+02  0.00000000000E+00 0.  1.
         -2    1    5    5    0  502  0.22535225859E+03 -0.54809152395E+03  0.20870330711E+04  0.21695379690E+04  0.00000000000E+00 0.  1.
         -2    1    6    6    0  503  0.76044354689E+02 -0.11098634408E+03  0.23383751550E+01  0.13455920797E+03  0.00000000000E+00 0. -1.
<mgrwt>
<rscale>  0 0.31017991E+04</rscale>
<asrwt>0</asrwt>
<pdfrwt beam="1">  1        1 0.47083713E+00 0.31017991E+04</pdfrwt>
<pdfrwt beam="2">  1       -1 0.12091215E+00 0.31017991E+04</pdfrwt>
<totfact> 0.27649052E-01</totfact>
</mgrwt>
</event>
<event>
12    1  0.4247462E-008  0.1700953E+04  0.7818608E-02  0.8760821E-01
         -2   -1    0    0    0  501 -0.00000000000E+00  0.00000000000E+00  0.39860811613E+03  0.39860811613E+03  0.00000000000E+00 0.  1.
          2   -1    0    0  501    0  0.00000000000E+00 -0.00000000000E+00 -0.18145897950E+04  0.18145897950E+04  0.00000000000E+00 0. -1.
         23    2    1    2    0    0  0.18216783080E+03  0.30418381146E+03  0.16513340765E+03  0.40156499271E+03  0.90953236956E+02 0.  0.
        254    2    1    2    0    0 -0.18216783080E+03 -0.30418381146E+03 -0.15811150865E+04  0.18116329184E+04  0.81017035528E+03 0.  0.
         23    2    4    4    0    0 -0.85778782147E+02 -0.40820503055E+03 -0.30611344791E+03  0.52557165495E+03  0.92362194996E+02 0.  0.
         23    2    4    4    0    0 -0.96389048657E+02  0.10402121909E+03 -0.12750016386E+04  0.12860612635E+04  0.90626332997E+02 0.  0.
         13    1    3    3    0    0  0.99169203151E+02  0.22034103712E+03  0.74689861266E+02  0.25290962589E+03  0.00000000000E+00 0. -1.
        -13    1    3    3    0    0  0.82998627653E+02  0.83842774340E+02  0.90443546379E+02  0.14865536682E+03  0.00000000000E+00 0.  1.
          2    1    5    5  502    0 -0.69963629714E+02 -0.37107518529E+03 -0.23787322452E+03  0.44629068281E+03  0.00000000000E+00 0. -1.
          1    1    6    6  503    0 -0.11317168674E+03  0.94798312799E+02 -0.11754548316E+04  0.11846892470E+04  0.00000000000E+00 0. -1.
         -2    1    5    5    0  502 -0.15815152433E+02 -0.37129845263E+02 -0.68240223387E+02  0.79280972142E+02  0.00000000000E+00 0.  1.
         -1    1    6    6    0  503  0.16782638084E+02  0.92229062961E+01 -0.99546806980E+02  0.10137201646E+03  0.00000000000E+00 0.  1.
<mgrwt>
<rscale>  0 0.17009529E+04</rscale>
<asrwt>0</asrwt>
<pdfrwt beam="1">  1        2 0.27916765E+00 0.17009529E+04</pdfrwt>
<pdfrwt beam="2">  1       -2 0.61324327E-01 0.17009529E+04</pdfrwt>
<totfact> 0.19924441E+01</totfact>
</mgrwt>
</event>
<event>
12    1  0.4940236E-008  0.1546109E+04  0.7818608E-02  0.8854357E-01
          1   -1    0    0  501    0  0.00000000000E+00  0.00000000000E+00  0.15220980722E+04  0.15220980722E+04  0.00000000000E+00 0. -1.
         -1   -1    0    0    0  501 -0.00000000000E+00 -0.00000000000E+00 -0.39262444829E+03  0.39262444829E+03  0.00000000000E+00 0.  1.
         23    2    1    2    0    0  0.16579259223E+02  0.34837268836E+03 -0.55808878956E+02  0.36480619168E+03  0.91271708039E+02 0.  0.
        254    2    1    2    0    0 -0.16579259223E+02 -0.34837268836E+03  0.11852825029E+04  0.15499163289E+04  0.93579250527E+03 0.  0.
         23    2    4    4    0    0 -0.17713745802E+03 -0.56606984975E+03  0.41662146117E+03  0.73057330964E+03  0.91384708863E+02 0.  0.
         23    2    4    4    0    0  0.16055819880E+03  0.21769716140E+03  0.76866104174E+03  0.81934301922E+03  0.85511383894E+02 0.  0.
         11    1    3    3    0    0 -0.23999567575E+01  0.25345017965E+03 -0.78579168258E+02  0.26536284412E+03  0.00000000000E+00 0.  1.
        -11    1    3    3    0    0  0.18979215981E+02  0.94922508707E+02  0.22770289301E+02  0.99443347557E+02  0.00000000000E+00 0. -1.
          2    1    5    5  502    0 -0.32037508058E+00 -0.55494904641E+02  0.67006705873E+02  0.87003940791E+02  0.00000000000E+00 0. -1.
          4    1    6    6  503    0  0.38540048667E+01  0.46797855282E+02  0.80798415550E+02  0.93452001412E+02  0.00000000000E+00 0. -1.
         -2    1    5    5    0  502 -0.17681708294E+03 -0.51057494511E+03  0.34961475530E+03  0.64356936885E+03  0.00000000000E+00 0.  1.
         -4    1    6    6    0  503  0.15670419393E+03  0.17089930611E+03  0.68786262619E+03  0.72589101781E+03  0.00000000000E+00 0.  1.
<mgrwt>
<rscale>  0 0.15461086E+04</rscale>
<asrwt>0</asrwt>
<pdfrwt beam="1">  1        1 0.23416893E+00 0.15461086E+04</pdfrwt>
<pdfrwt beam="2">  1       -1 0.60403762E-01 0.15461086E+04</pdfrwt>
<totfact> 0.16914075E+01</totfact>
</mgrwt>
</event>
<event>
12    1  0.4247462E-008  0.1800491E+04  0.7818608E-02  0.8706038E-01
          2   -1    0    0  501    0  0.00000000000E+00  0.00000000000E+00  0.70874415284E+03  0.70874415284E+03  0.00000000000E+00 0. -1.
         -2   -1    0    0    0  501 -0.00000000000E+00 -0.00000000000E+00 -0.11434906617E+04  0.11434906617E+04  0.00000000000E+00 0.  1.
         23    2    1    2    0    0 -0.21689607415E+03 -0.25944193852E+03 -0.77321709412E+03  0.84826496308E+03  0.85643134642E+02 0.  0.
        254    2    1    2    0    0  0.21689607415E+03  0.25944193852E+03  0.33847058525E+03  0.10039698515E+04  0.88263191600E+03 0.  0.
         23    2    4    4    0    0 -0.19870023037E+01  0.52000945842E+03  0.20945359435E+02  0.52853561147E+03  0.92181340217E+02 0.  0.
         23    2    4    4    0    0  0.21888307646E+03 -0.26056751991E+03  0.31752522581E+03  0.47543424000E+03  0.97006257242E+02 0.  0.
         11    1    3    3    0    0 -0.11207727648E+02 -0.43605885745E+02 -0.58243129686E+02  0.73616225020E+02  0.00000000000E+00 0. -1.
        -11    1    3    3    0    0 -0.20568834650E+03 -0.21583605277E+03 -0.71497396443E+03  0.77464873806E+03  0.00000000000E+00 0.  1.
          1    1    5    5  502    0 -0.99695901236E+00  0.52400066361E+03  0.21015212268E+02  0.52442285280E+03  0.00000000000E+00 0. -1.
          3    1    6    6  503    0  0.71934331196E+02 -0.15986859286E+03  0.14605212613E+03  0.22817479820E+03  0.00000000000E+00 0. -1.
         -1    1    5    5    0  502 -0.99004329136E+00 -0.39912051819E+01 -0.69852832254E-01  0.41127586777E+01  0.00000000000E+00 0.  1.
         -3    1    6    6    0  503  0.14694874526E+03 -0.10069892705E+03  0.17147309968E+03  0.24725944179E+03  0.00000000000E+00 0.  1.
<mgrwt>
<rscale>  0 0.18004914E+04</rscale>
<asrwt>0</asrwt>
<pdfrwt beam="1">  1        2 0.10903756E+00 0.18004914E+04</pdfrwt>
<pdfrwt beam="2">  1       -2 0.17592164E+00 0.18004914E+04</pdfrwt>
<totfact> 0.73650909E+00</totfact>
</mgrwt>
</event>
<event>
12    1  0.4247462E-008  0.1666737E+04  0.7818608E-02  0.8780566E-01
          1   -1    0    0  501    0  0.00000000000E+00  0.00000000000E+00  0.57009379859E+03  0.57009379859E+03  0.00000000000E+00 0. -1.
         -1   -1    0    0    0  501 -0.00000000000E+00 -0.00000000000E+00 -0.12182255253E+04  0.12182255253E+04  0.00000000000E+00 0.  1.
         23    2    1    2    0    0  0.54589214675E+03  0.18071915474E+03 -0.15714636378E+03  0.60298440662E+03  0.90761039055E+02 0.  0.
        254    2    1    2    0    0 -0.54589214675E+03 -0.18071915474E+03 -0.49098536295E+03  0.11853349173E+04  0.91284970875E+03 0.  0.
         23    2    4    4    0    0 -0.48871911893E+03 -0.42924123326E+03 -0.38900320262E+02  0.65836842603E+03  0.94028378419E+02 0.  0.
         23    2    4    4    0    0 -0.57173027824E+02  0.24852207852E+03 -0.45208504269E+03  0.52696649127E+03  0.90999002589E+02 0.  0.
         11    1    3    3    0    0  0.13791818786E+03  0.17189221455E+02 -0.94562962447E+01  0.13930655913E+03  0.00000000000E+00 0.  1.
        -11    1    3    3    0    0  0.40797395889E+03  0.16352993328E+03 -0.14769006754E+03  0.46367784749E+03  0.00000000000E+00 0. -1.
          1    1    5    5  502    0 -0.31596468402E+03 -0.30187367978E+03  0.14361645013E+02  0.43722723719E+03  0.00000000000E+00 0. -1.
          3    1    6    6  503    0 -0.30125109406E+02  0.14209998972E+02 -0.76831976242E+02  0.83741261400E+02  0.00000000000E+00 0. -1.
         -1    1    5    5    0  502 -0.17275443490E+03 -0.12736755347E+03 -0.53261965276E+02  0.22114118884E+03  0.00000000000E+00 0.  1.
         -3    1    6    6    0  503 -0.27047918417E+02  0.23431207955E+03 -0.37525306645E+03  0.44322522987E+03  0.00000000000E+00 0.  1.
<mgrwt>
<rscale>  0 0.16667367E+04</rscale>
<asrwt>0</asrwt>
<pdfrwt beam="1">  1        1 0.87706740E-01 0.16667367E+04</pdfrwt>
<pdfrwt beam="2">  1       -1 0.18741931E+00 0.16667367E+04</pdfrwt>
<totfact> 0.64801859E+00</totfact>
</mgrwt>
</event>
<event>
12    1  0.4247462E-008  0.2200682E+04  0.7818608E-02  0.8518144E-01
         -1   -1    0    0    0  501 -0.00000000000E+00  0.00000000000E+00  0.55596159256E+03  0.55596159256E+03  0.00000000000E+00 0.  1.
          1   -1    0    0  501    0  0.00000000000E+00 -0.00000000000E+00 -0.21777579962E+04  0.21777579962E+04  0.00000000000E+00 0. -1.
         23    2    1    2    0    0 -0.32342613898E+03  0.17869203015E+03 -0.17173571066E+04  0.17587684410E+04  0.86114391042E+02 0.  0.
        254    2    1    2    0    0  0.32342613898E+03 -0.17869203015E+03  0.95560702973E+02  0.97495114778E+03  0.89714133981E+03 0.  0.
         23    2    4    4    0    0  0.85922330025E+02 -0.51717223861E+03  0.13668804396E+03  0.54927290909E+03  0.90373315273E+02 0.  0.
         23    2    4    4    0    0  0.23750380895E+03  0.33848020846E+03 -0.41127340990E+02  0.42567823868E+03  0.92377453555E+02 0.  0.
         11    1    3    3    0    0 -0.26249843535E+03  0.16947961065E+03 -0.15286207000E+04  0.15602275512E+04  0.00000000000E+00 0. -1.
        -11    1    3    3    0    0 -0.60927703627E+02  0.92124194971E+01 -0.18873640660E+03  0.19854088979E+03  0.00000000000E+00 0.  1.
          4    1    5    5  502    0  0.22139508361E+02 -0.15490764245E+03  0.84239944390E+02  0.17771579488E+03  0.00000000000E+00 0. -1.
          1    1    6    6  503    0  0.14901601655E+03  0.20504563950E+03 -0.70053836681E+02  0.26297723761E+03  0.00000000000E+00 0. -1.
         -4    1    5    5    0  502  0.63782821664E+02 -0.36226459616E+03  0.52448099573E+02  0.37155711421E+03  0.00000000000E+00 0.  1.
         -1    1    6    6    0  503  0.88487792398E+02  0.13343456896E+03  0.28926495690E+02  0.16270100107E+03  0.00000000000E+00 0.  1.
<mgrwt>
<rscale>  0 0.22006815E+04</rscale>
<asrwt>0</asrwt>
<pdfrwt beam="1">  1        1 0.33503969E+00 0.22006815E+04</pdfrwt>
<pdfrwt beam="2">  1       -1 0.85532553E-01 0.22006815E+04</pdfrwt>
<totfact> 0.27773928E+00</totfact>
</mgrwt>
</event>
<event>
12    1  0.4247462E-008  0.1967467E+04  0.7818608E-02  0.8621984E-01
          2   -1    0    0  501    0  0.00000000000E+00  0.00000000000E+00  0.64866016552E+03  0.64866016552E+03  0.00000000000E+00 0.  1.
         -2   -1    0    0    0  501 -0.00000000000E+00 -0.00000000000E+00 -0.14918934472E+04  0.14918934472E+04  0.00000000000E+00 0. -1.
         23    2    1    2    0    0  0.14891118164E+03 -0.69934696337E+03 -0.70013646058E+03  0.10039604781E+04  0.80528646281E+02 0.  0.
        254    2    1    2    0    0 -0.14891118164E+03  0.69934696337E+03 -0.14309682110E+03  0.11365931347E+04  0.87184089050E+03 0.  0.
         23    2    4    4    0    0 -0.42949104971E+03  0.36427390807E+03  0.16454049954E+03  0.59429059673E+03  0.94602830261E+02 0.  0.
         23    2    4    4    0    0  0.28057986807E+03  0.33507305529E+03 -0.30763732064E+03  0.54230253792E+03  0.91936428199E+02 0.  0.
         11    1    3    3    0    0 -0.55105598578E+00 -0.10040181026E+03 -0.12411382656E+03  0.15964043695E+03  0.00000000000E+00 0.  1.
        -11    1    3    3    0    0  0.14946223762E+03 -0.59894515311E+03 -0.57602263402E+03  0.84432004110E+03  0.00000000000E+00 0. -1.
          1    1    5    5  502    0 -0.24071878288E+02  0.53872869861E+02  0.30333056463E+02  0.66346331819E+02  0.00000000000E+00 0. -1.
          3    1    6    6  503    0  0.87481197029E+02  0.48426999573E+02 -0.84470423522E+02  0.13089456280E+03  0.00000000000E+00 0. -1.
         -1    1    5    5    0  502 -0.40541917142E+03  0.31040103821E+03  0.13420744308E+03  0.52794426492E+03  0.00000000000E+00 0.  1.
         -3    1    6    6    0  503  0.19309867105E+03  0.28664605572E+03 -0.22316689711E+03  0.41140797512E+03  0.00000000000E+00 0.  1.
<mgrwt>
<rscale>  0 0.19674673E+04</rscale>
<asrwt>0</asrwt>
<pdfrwt beam="1">  1        2 0.99793873E-01 0.19674673E+04</pdfrwt>
<pdfrwt beam="2">  1       -2 0.22952207E+00 0.19674673E+04</pdfrwt>
<totfact> 0.36131807E+00</totfact>
</mgrwt>
</event>
<event>
12    1  0.4247462E-008  0.1160110E+04  0.7818608E-02  0.9148507E-01
         -1   -1    0    0    0  501 -0.00000000000E+00  0.00000000000E+00  0.13004484510E+03  0.13004484510E+03  0.00000000000E+00 0.  1.
          1   -1    0    0  501    0  0.00000000000E+00 -0.00000000000E+00 -0.25872888888E+04  0.25872888888E+04  0.00000000000E+00 0. -1.
         23    2    1    2    0    0  0.17979887593E+03  0.25169975371E+01 -0.65756456448E+03  0.68774995009E+03  0.90966292238E+02 0.  0.
        254    2    1    2    0    0 -0.17979887593E+03 -0.25169975371E+01 -0.17996794792E+04  0.20295837838E+04  0.92088551760E+03 0.  0.
         23    2    4    4    0    0 -0.11218235257E+03 -0.45111677342E+03 -0.87301182897E+03  0.99379042297E+03  0.96842799278E+02 0.  0.
         23    2    4    4    0    0 -0.67616523354E+02  0.44859977589E+03 -0.92666765023E+03  0.10357933608E+04  0.91330165841E+02 0.  0.
         11    1    3    3    0    0  0.15423696839E+03 -0.14555381287E+02 -0.62074747535E+03  0.63978772237E+03  0.00000000000E+00 0. -1.
        -11    1    3    3    0    0  0.25561907536E+02  0.17072378824E+02 -0.36817089137E+02  0.47962227723E+02  0.00000000000E+00 0.  1.
          2    1    5    5  502    0 -0.12634328878E+03 -0.36818887917E+03 -0.74583705994E+03  0.84130767104E+03  0.00000000000E+00 0. -1.
          3    1    6    6  503    0 -0.71275043688E+02  0.45185354884E+03 -0.91132931277E+03  0.10196925408E+04  0.00000000000E+00 0. -1.
         -2    1    5    5    0  502  0.14160936203E+02 -0.82927894255E+02 -0.12717476902E+03  0.15248275193E+03  0.00000000000E+00 0.  1.
         -3    1    6    6    0  503  0.36585203346E+01 -0.32537729513E+01 -0.15338337461E+02  0.16100820027E+02  0.00000000000E+00 0.  1.
<mgrwt>
<rscale>  0 0.11601096E+04</rscale>
<asrwt>0</asrwt>
<pdfrwt beam="1">  1        1 0.39804442E+00 0.11601096E+04</pdfrwt>
<pdfrwt beam="2">  1       -1 0.20006901E-01 0.11601096E+04</pdfrwt>
<totfact> 0.24095850E+01</totfact>
</mgrwt>
</event>
<event>
12    1  0.4247462E-008  0.1481804E+04  0.7818608E-02  0.8896644E-01
          1   -1    0    0  501    0  0.00000000000E+00  0.00000000000E+00  0.39028112457E+03  0.39028112457E+03  0.00000000000E+00 0. -1.
         -1   -1    0    0    0  501 -0.00000000000E+00 -0.00000000000E+00 -0.14065128288E+04  0.14065128288E+04  0.00000000000E+00 0.  1.
         23    2    1    2    0    0  0.26457796986E+03 -0.89988946700E+02 -0.77017697300E+03  0.82401250942E+03  0.87889324018E+02 0.  0.
        254    2    1    2    0    0 -0.26457796986E+03  0.89988946700E+02 -0.24605473122E+03  0.97278144395E+03  0.89869977983E+03 0.  0.
         23    2    4    4    0    0  0.13099908238E+03  0.12674549568E+03 -0.46688410742E+03  0.50885547268E+03  0.87908714327E+02 0.  0.
         23    2    4    4    0    0 -0.39557705223E+03 -0.36756548982E+02  0.22082937620E+03  0.46392597127E+03  0.92894807603E+02 0.  0.
         13    1    3    3    0    0  0.23180950490E+03 -0.43489685454E+02 -0.60757741648E+03  0.65174942756E+03  0.00000000000E+00 0.  1.
        -13    1    3    3    0    0  0.32768464954E+02 -0.46499261246E+02 -0.16259955651E+03  0.17226308186E+03  0.00000000000E+00 0. -1.
          4    1    5    5  502    0  0.11109113264E+03  0.48135442554E+02 -0.26826934596E+03  0.29432414540E+03  0.00000000000E+00 0. -1.
          3    1    6    6  503    0 -0.29756643824E+03  0.12939806756E+02  0.15390619816E+03  0.33526160174E+03  0.00000000000E+00 0. -1.
         -4    1    5    5    0  502  0.19907949732E+02  0.78610053128E+02 -0.19861476146E+03  0.21453132728E+03  0.00000000000E+00 0.  1.
         -3    1    6    6    0  503 -0.98010613991E+02 -0.49696355738E+02  0.66923178035E+02  0.12866436953E+03  0.00000000000E+00 0.  1.
<mgrwt>
<rscale>  0 0.14818035E+04</rscale>
<asrwt>0</asrwt>
<pdfrwt beam="1">  1        1 0.60043251E-01 0.14818035E+04</pdfrwt>
<pdfrwt beam="2">  1       -1 0.21638659E+00 0.14818035E+04</pdfrwt>
<totfact> 0.69897718E+00</totfact>
</mgrwt>
</event>
<event>
12    1  0.4247462E-008  0.2349849E+04  0.7818608E-02  0.8458522E-01
         -1   -1    0    0    0  501 -0.00000000000E+00  0.00000000000E+00  0.11527048354E+04  0.11527048354E+04  0.00000000000E+00 0.  1.
          1   -1    0    0  501    0  0.00000000000E+00 -0.00000000000E+00 -0.11975719847E+04  0.11975719847E+04  0.00000000000E+00 0. -1.
         23    2    1    2    0    0 -0.34688417024E+03 -0.16201416733E+03 -0.93706431955E+03  0.10163849333E+04  0.91496315095E+02 0.  0.
        254    2    1    2    0    0  0.34688417024E+03  0.16201416733E+03  0.89219717029E+03  0.13338918868E+04  0.91469916207E+03 0.  0.
         23    2    4    4    0    0  0.50628129515E+03  0.21969507598E+03  0.97528834494E+03  0.11241982729E+04  0.89709111590E+02 0.  0.
         23    2    4    4    0    0 -0.15939712492E+03 -0.57680908654E+02 -0.83091174650E+02  0.20969361396E+03  0.91283830865E+02 0.  0.
         13    1    3    3    0    0 -0.33009043253E+03 -0.17285995709E+03 -0.90348423149E+03  0.97730446380E+03  0.00000000000E+00 0. -1.
        -13    1    3    3    0    0 -0.16793737708E+02  0.10845789760E+02 -0.33580088056E+02  0.39080469490E+02  0.00000000000E+00 0.  1.
          2    1    5    5  502    0  0.17571811412E+03  0.48731524104E+02  0.25557523143E+03  0.31395909923E+03  0.00000000000E+00 0. -1.
          1    1    6    6  503    0 -0.27820385002E+01 -0.17468502916E+02  0.12680261526E+02  0.21764130231E+02  0.00000000000E+00 0. -1.
         -2    1    5    5    0  502  0.33056318103E+03  0.17096355188E+03  0.71971311351E+03  0.81023917363E+03  0.00000000000E+00 0.  1.
         -1    1    6    6    0  503 -0.15661508642E+03 -0.40212405738E+02 -0.95771436176E+02  0.18792948373E+03  0.00000000000E+00 0.  1.
<mgrwt>
<rscale>  0 0.23498485E+04</rscale>
<asrwt>0</asrwt>
<pdfrwt beam="1">  1        1 0.18424184E+00 0.23498485E+04</pdfrwt>
<pdfrwt beam="2">  1       -1 0.17733920E+00 0.23498485E+04</pdfrwt>
<totfact> 0.21005805E+00</totfact>
</mgrwt>
</event>
