<event>
12    5  0.5095719E-008  0.1781007E+04  0.7818608E-02  0.8716465E-01
         -2   -1    0    0    0  501 -0.00000000000E+00  0.00000000000E+00  0.49385261274E+03  0.49385261274E+03  0.00000000000E+00 0.  1.
          1   -1    0    0  501    0  0.00000000000E+00 -0.00000000000E+00 -0.16057356827E+04  0.16057356827E+04  0.00000000000E+00 0. -1.
        -24    2    1    2    0    0 -0.31790000445E+03  0.53351660661E+03 -0.17190293610E+03  0.64943284163E+03  0.80697050676E+02 0.  0.
        254    2    1    2    0    0  0.31790000445E+03 -0.53351660661E+03 -0.93998013389E+03  0.14501554538E+04  0.91306506111E+03 0.  0.
         23    2    4    4    0    0  0.42718912806E+02 -0.68156316047E+03 -0.88220862159E+03  0.11194748983E+04  0.92621534985E+02 0.  0.
         23    2    4    4    0    0  0.27518109165E+03  0.14804655387E+03 -0.57771512295E+02  0.33068055551E+03  0.91485883318E+02 0.  0.
          3    1    3    3  502    0 -0.12273820853E+03  0.16949748664E+03 -0.23674557025E+02  0.21060520046E+03  0.00000000000E+00 0. -1.
         -4    1    3    3    0  502 -0.19516179592E+03  0.36401911997E+03 -0.14822837908E+03  0.43882764117E+03  0.00000000000E+00 0.  1.
         13    1    5    5    0    0 -0.13214544710E+02 -0.47081055112E+03 -0.61222030919E+03  0.77243181332E+03  0.00000000000E+00 0.  1.
        -13    1    5    5    0    0  0.55933457516E+02 -0.21075260935E+03 -0.26998831240E+03  0.34704308501E+03  0.00000000000E+00 0. -1.
          3    1    6    6  503    0  0.11875539700E+03  0.94184079525E+02 -0.65372339206E+02  0.16506673767E+03  0.00000000000E+00 0. -1.
         -3    1    6    6    0  503  0.15642569465E+03  0.53862474340E+02  0.76008269109E+01  0.16561381784E+03  0.00000000000E+00 0.  1.
<mgrwt>
<rscale>  0 0.17810073E+04</rscale>
<asrwt>0</asrwt>
<pdfrwt beam="1">  1        1 0.24703626E+00 0.17810073E+04</pdfrwt>
<pdfrwt beam="2">  1       -2 0.75977324E-01 0.17810073E+04</pdfrwt>
<totfact> 0.71167636E+00</totfact>
</mgrwt>
</event>
<event>
12    5  0.5095719E-008  0.1280735E+04  0.7818608E-02  0.9044983E-01
         -2   -1    0    0    0  501 -0.00000000000E+00  0.00000000000E+00  0.24700388106E+03  0.24700388106E+03  0.00000000000E+00 0.  1.
          1   -1    0    0  501    0  0.00000000000E+00 -0.00000000000E+00 -0.16601792617E+04  0.16601792617E+04  0.00000000000E+00 0. -1.
        -24    2    1    2    0    0  0.13510018892E+03 -0.18463077926E+03 -0.29303033031E+02  0.24367395588E+03  0.78598621720E+02 0.  0.
        254    2    1    2    0    0 -0.13510018892E+03  0.18463077926E+03 -0.13838723476E+04  0.16635091868E+04  0.89432631328E+03 0.  0.
         23    2    4    4    0    0  0.24121207763E+02 -0.63158134738E+02  0.99049550198E+02  0.14887612928E+03  0.88218511819E+02 0.  0.
         23    2    4    4    0    0 -0.15922139668E+03  0.24778891399E+03 -0.14829218978E+04  0.15146330575E+04  0.91132568866E+02 0.  0.
          3    1    3    3  502    0  0.31640207915E+02 -0.17221541571E+02  0.19432271812E+02  0.40930397491E+02  0.00000000000E+00 0. -1.
         -4    1    3    3    0  502  0.10345998100E+03 -0.16740923769E+03 -0.48735304843E+02  0.20274355839E+03  0.00000000000E+00 0.  1.
         13    1    5    5    0    0  0.21616780460E+02  0.16484594730E+02  0.90047549815E+01  0.28637609418E+02  0.00000000000E+00 0. -1.
        -13    1    5    5    0    0  0.25044273034E+01 -0.79642729468E+02  0.90044795216E+02  0.12023851986E+03  0.00000000000E+00 0.  1.
          2    1    6    6  503    0 -0.16054363680E+03  0.18562803318E+03 -0.12225678445E+04  0.12469579626E+04  0.00000000000E+00 0. -1.
         -2    1    6    6    0  503  0.13222401123E+01  0.62160880812E+02 -0.26035405326E+03  0.26767509497E+03  0.00000000000E+00 0.  1.
<mgrwt>
<rscale>  0 0.12807353E+04</rscale>
<asrwt>0</asrwt>
<pdfrwt beam="1">  1        1 0.25541219E+00 0.12807353E+04</pdfrwt>
<pdfrwt beam="2">  1       -2 0.38000598E-01 0.12807353E+04</pdfrwt>
<totfact> 0.28647088E+01</totfact>
</mgrwt>
</event>
<event>
12    5  0.5095719E-008  0.3354567E+04  0.7818608E-02  0.8149148E-01
          1   -1    0    0  501    0  0.00000000000E+00  0.00000000000E+00  0.33710588372E+04  0.33710588372E+04  0.00000000000E+00 0. -1.
         -2   -1    0    0    0  501 -0.00000000000E+00 -0.00000000000E+00 -0.83453894518E+03  0.83453894518E+03  0.00000000000E+00 0.  1.
        -24    2    1    2    0    0  0.13502590335E+04 -0.69970425370E+03  0.15888074128E+04  0.22007464310E+04  0.78678830075E+02 0.  0.
        254    2    1    2    0    0 -0.13502590335E+04  0.69970425370E+03  0.94771247918E+03  0.20048513514E+04  0.89915766007E+03 0.  0.
         23    2    4    4    0    0 -0.53519899011E+02 -0.15516385145E+03  0.21303077327E+03  0.28423597265E+03  0.92020527061E+02 0.  0.
         23    2    4    4    0    0 -0.12967391345E+04  0.85486810515E+03  0.73468170591E+03  0.17206153787E+04  0.91805295769E+02 0.  0.
          3    1    3    3  502    0  0.21382515967E+03 -0.86207187927E+02  0.26704269454E+03  0.35279551990E+03  0.00000000000E+00 0. -1.
         -4    1    3    3    0  502  0.11364338738E+04 -0.61349706577E+03  0.13217647183E+04  0.18479509111E+04  0.00000000000E+00 0.  1.
         13    1    5    5    0    0  0.11824041832E+02  0.66744295647E+01  0.13572994362E+02  0.19198493462E+02  0.00000000000E+00 0. -1.
        -13    1    5    5    0    0 -0.65343940843E+02 -0.16183828102E+03  0.19945777890E+03  0.26503747919E+03  0.00000000000E+00 0.  1.
          2    1    6    6  503    0 -0.16331343837E+03  0.99856438082E+02  0.58802952806E+02  0.20025077937E+03  0.00000000000E+00 0. -1.
         -2    1    6    6    0  503 -0.11334256961E+04  0.75501166707E+03  0.67587875311E+03  0.15203645994E+04  0.00000000000E+00 0.  1.
<mgrwt>
<rscale>  0 0.33545670E+04</rscale>
<asrwt>0</asrwt>
<pdfrwt beam="1">  1        1 0.51862443E+00 0.33545670E+04</pdfrwt>
<pdfrwt beam="2">  1       -2 0.12839061E+00 0.33545670E+04</pdfrwt>
<totfact> 0.10256491E-01</totfact>
</mgrwt>
</event>
<event>
12    5  0.5095719E-008  0.1372674E+04  0.7818608E-02  0.8973839E-01
          1   -1    0    0  501    0  0.00000000000E+00  0.00000000000E+00  0.28078318297E+04  0.28078318297E+04  0.00000000000E+00 0. -1.
         -2   -1    0    0    0  501 -0.00000000000E+00 -0.00000000000E+00 -0.16776601936E+03  0.16776601936E+03  0.00000000000E+00 0.  1.
        -24    2    1    2    0    0  0.55903982095E+02  0.33821229088E+03  0.32039171391E+03  0.47598487295E+03  0.79987124068E+02 0.  0.
        254    2    1    2    0    0 -0.55903982095E+02 -0.33821229088E+03  0.23196740965E+04  0.24996129761E+04  0.86583157012E+03 0.  0.
         23    2    4    4    0    0 -0.37368690319E+03  0.83285933190E+02  0.10328776192E+04  0.11057402925E+04  0.96161166320E+02 0.  0.
         23    2    4    4    0    0  0.31778292109E+03 -0.42149822407E+03  0.12867964772E+04  0.13938726836E+04  0.91592284193E+02 0.  0.
          1    1    3    3  502    0 -0.17092082444E+02  0.93033241292E+02  0.10733568626E+03  0.14306737159E+03  0.00000000000E+00 0. -1.
         -2    1    3    3    0  502  0.72996064539E+02  0.24517904959E+03  0.21305602765E+03  0.33291750136E+03  0.00000000000E+00 0.  1.
         13    1    5    5    0    0 -0.35964602995E+03  0.78350053123E+02  0.10246004931E+04  0.10887103233E+04  0.00000000000E+00 0.  1.
        -13    1    5    5    0    0 -0.14040873239E+02  0.49358800674E+01  0.82771261357E+01  0.17029969184E+02  0.00000000000E+00 0. -1.
          4    1    6    6  503    0  0.42370738079E+02 -0.11770695215E+03  0.27351141716E+03  0.30076353061E+03  0.00000000000E+00 0. -1.
         -4    1    6    6    0  503  0.27541218301E+03 -0.30379127192E+03  0.10132850601E+04  0.10931091530E+04  0.00000000000E+00 0.  1.
<mgrwt>
<rscale>  0 0.13726744E+04</rscale>
<asrwt>0</asrwt>
<pdfrwt beam="1">  1        1 0.43197409E+00 0.13726744E+04</pdfrwt>
<pdfrwt beam="2">  1       -2 0.25810159E-01 0.13726744E+04</pdfrwt>
<totfact> 0.96173305E+00</totfact>
</mgrwt>
</event>
<event>
12    5  0.5095719E-008  0.1996326E+04  0.7818608E-02  0.8608340E-01
          1   -1    0    0  501    0  0.00000000000E+00  0.00000000000E+00  0.11808319817E+04  0.11808319817E+04  0.00000000000E+00 0. -1.
         -2   -1    0    0    0  501 -0.00000000000E+00 -0.00000000000E+00 -0.84375217770E+03  0.84375217770E+03  0.00000000000E+00 0.  1.
        -24    2    1    2    0    0 -0.68767566973E+03  0.18432265375E+03  0.49638302576E+03  0.87127652240E+03  0.76511455287E+02 0.  0.
        254    2    1    2    0    0  0.68767566973E+03 -0.18432265375E+03 -0.15930322178E+03  0.11533076370E+04  0.89323475169E+03 0.  0.
         23    2    4    4    0    0  0.71318439917E+03 -0.31908515878E+03 -0.38122715699E+03  0.87426651449E+03  0.92522793718E+02 0.  0.
         23    2    4    4    0    0 -0.25508729440E+02  0.13476250503E+03  0.22192393520E+03  0.27904112249E+03  0.99005489679E+02 0.  0.
          1    1    3    3  502    0 -0.61674404817E+03  0.14163456008E+03  0.44875824261E+03  0.77576899260E+03  0.00000000000E+00 0. -1.
         -2    1    3    3    0  502 -0.70931621561E+02  0.42688093671E+02  0.47624783149E+02  0.95507529800E+02  0.00000000000E+00 0.  1.
         13    1    5    5    0    0  0.18853649560E+03 -0.49145627617E+02 -0.68750473235E+02  0.20661057682E+03  0.00000000000E+00 0. -1.
        -13    1    5    5    0    0  0.52464790357E+03 -0.26993953117E+03 -0.31247668375E+03  0.66765593767E+03  0.00000000000E+00 0.  1.
          1    1    6    6  503    0 -0.66853123311E+01  0.15207471145E+02 -0.85789747136E+01  0.18696507341E+02  0.00000000000E+00 0. -1.
         -1    1    6    6    0  503 -0.18823417109E+02  0.11955503389E+03  0.23050290992E+03  0.26034461515E+03  0.00000000000E+00 0.  1.
<mgrwt>
<rscale>  0 0.19963262E+04</rscale>
<asrwt>0</asrwt>
<pdfrwt beam="1">  1        1 0.18166646E+00 0.19963262E+04</pdfrwt>
<pdfrwt beam="2">  1       -2 0.12980803E+00 0.19963262E+04</pdfrwt>
<totfact> 0.39164040E+00</totfact>
</mgrwt>
</event>
<event>
12    5  0.5095719E-008  0.2440965E+04  0.7818608E-02  0.8424324E-01
         -2   -1    0    0    0  501 -0.00000000000E+00  0.00000000000E+00  0.77886994209E+03  0.77886994209E+03  0.00000000000E+00 0.  1.
          1   -1    0    0  501    0  0.00000000000E+00 -0.00000000000E+00 -0.19124853769E+04  0.19124853769E+04  0.00000000000E+00 0. -1.
        -24    2    1    2    0    0 -0.85217017189E+03 -0.62836341264E+03 -0.54468625118E+03  0.11934014590E+04  0.80556501720E+02 0.  0.
        254    2    1    2    0    0  0.85217017189E+03  0.62836341264E+03 -0.58892918366E+03  0.14979538600E+04  0.88090499094E+03 0.  0.
         23    2    4    4    0    0  0.66882380111E+03  0.83144280837E+02 -0.61225511904E+03  0.91512194031E+03  0.91397956624E+02 0.  0.
         23    2    4    4    0    0  0.18334637079E+03  0.54521913180E+03  0.23325935377E+02  0.58283191968E+03  0.90934888627E+02 0.  0.
          1    1    3    3  502    0 -0.52066130768E+03 -0.40954235991E+03 -0.30302224842E+03  0.72844740710E+03  0.00000000000E+00 0. -1.
         -2    1    3    3    0  502 -0.33150886421E+03 -0.21882105273E+03 -0.24166400276E+03  0.46495405192E+03  0.00000000000E+00 0.  1.
         13    1    5    5    0    0  0.57298979026E+03  0.44598361830E+02 -0.49161444806E+03  0.75630091839E+03  0.00000000000E+00 0. -1.
        -13    1    5    5    0    0  0.95834010849E+02  0.38545919007E+02 -0.12064067098E+03  0.15882102191E+03  0.00000000000E+00 0.  1.
          3    1    6    6  503    0  0.17914434614E+03  0.46141337830E+03  0.42393127258E+02  0.49678182300E+03  0.00000000000E+00 0. -1.
         -3    1    6    6    0  503  0.42020246451E+01  0.83805753507E+02 -0.19067191881E+02  0.86050096677E+02  0.00000000000E+00 0.  1.
<mgrwt>
<rscale>  0 0.24409649E+04</rscale>
<asrwt>0</asrwt>
<pdfrwt beam="1">  1        1 0.29422852E+00 0.24409649E+04</pdfrwt>
<pdfrwt beam="2">  1       -2 0.11982614E+00 0.24409649E+04</pdfrwt>
<totfact> 0.14285493E+00</totfact>
</mgrwt>
</event>
<event>
12    5  0.5095719E-008  0.1652080E+04  0.7818608E-02  0.8789177E-01
         -2   -1    0    0    0  501 -0.00000000000E+00  0.00000000000E+00  0.11094428098E+04  0.11094428098E+04  0.00000000000E+00 0.  1.
          1   -1    0    0  501    0  0.00000000000E+00 -0.00000000000E+00 -0.61503128636E+03  0.61503128636E+03  0.00000000000E+00 0. -1.
        -24    2    1    2    0    0  0.26219144577E+03  0.26642229222E+03 -0.30223317825E+03  0.48706665557E+03  0.78510132522E+02 0.  0.
        254    2    1    2    0    0 -0.26219144577E+03 -0.26642229222E+03  0.79664470171E+03  0.12374074406E+04  0.86994781528E+03 0.  0.
         23    2    4    4    0    0 -0.24133961108E+03  0.27844911410E+03  0.43197829656E+03  0.57452068153E+03  0.87692917614E+02 0.  0.
         23    2    4    4    0    0 -0.20851834694E+02 -0.54487140632E+03  0.36466640516E+03  0.66288675909E+03  0.95486228792E+02 0.  0.
          3    1    3    3  502    0  0.26491870143E+03  0.25552182360E+03 -0.30152961551E+03  0.47580818586E+03  0.00000000000E+00 0. -1.
         -4    1    3    3    0  502 -0.27272556597E+01  0.10900468623E+02 -0.70356273156E+00  0.11258469707E+02  0.00000000000E+00 0.  1.
         13    1    5    5    0    0 -0.72362323596E+01  0.35073953758E+02  0.75077888936E+02  0.83181937330E+02  0.00000000000E+00 0.  1.
        -13    1    5    5    0    0 -0.23410337872E+03  0.24337516034E+03  0.35690040762E+03  0.49133874420E+03  0.00000000000E+00 0. -1.
          2    1    6    6  503    0 -0.11971978085E+02 -0.52216863175E+03  0.32153159182E+03  0.61334001401E+03  0.00000000000E+00 0. -1.
         -2    1    6    6    0  503 -0.88798566098E+01 -0.22702774564E+02  0.43134813331E+02  0.49546745074E+02  0.00000000000E+00 0.  1.
<mgrwt>
<rscale>  0 0.16520799E+04</rscale>
<asrwt>0</asrwt>
<pdfrwt beam="1">  1        1 0.94620198E-01 0.16520799E+04</pdfrwt>
<pdfrwt beam="2">  1       -2 0.17068351E+00 0.16520799E+04</pdfrwt>
<totfact> 0.58183966E+00</totfact>
</mgrwt>
</event>
<event>
12    5  0.5095719E-008  0.2796413E+04  0.7818608E-02  0.8304383E-01
         -2   -1    0    0    0  501 -0.00000000000E+00  0.00000000000E+00  0.45948645198E+04  0.45948645198E+04  0.00000000000E+00 0.  1.
          1   -1    0    0  501    0  0.00000000000E+00 -0.00000000000E+00 -0.42547091017E+03  0.42547091017E+03  0.00000000000E+00 0. -1.
        -24    2    1    2    0    0  0.11926145955E+04  0.20911527894E+03  0.22859447493E+04  0.25880623412E+04  0.80402188297E+02 0.  0.
        254    2    1    2    0    0 -0.11926145955E+04 -0.20911527894E+03  0.18834488603E+04  0.24322730888E+04  0.95000736607E+03 0.  0.
         23    2    4    4    0    0 -0.11654311768E+04 -0.44198268528E+03  0.13335771493E+04  0.18276307273E+04  0.90705791771E+02 0.  0.
         23    2    4    4    0    0 -0.27183418722E+02  0.23286740633E+03  0.54987171108E+03  0.60464236142E+03  0.90924800769E+02 0.  0.
          1    1    3    3  502    0  0.94189899182E+03  0.14013451039E+03  0.17475511135E+04  0.19901623768E+04  0.00000000000E+00 0. -1.
         -2    1    3    3    0  502  0.25071560366E+03  0.68980768559E+02  0.53839363587E+03  0.59789996445E+03  0.00000000000E+00 0.  1.
         13    1    5    5    0    0 -0.32669042328E+03 -0.85519833895E+02  0.33415140054E+03  0.47507623928E+03  0.00000000000E+00 0. -1.
        -13    1    5    5    0    0 -0.83874075348E+03 -0.35646285138E+03  0.99942574871E+03  0.13525544881E+04  0.00000000000E+00 0.  1.
          2    1    6    6  503    0 -0.58016502043E+02  0.10992007029E+03  0.28964483908E+03  0.31518640384E+03  0.00000000000E+00 0. -1.
         -2    1    6    6    0  503  0.30833083321E+02  0.12294733605E+03  0.26022687200E+03  0.28945595758E+03  0.00000000000E+00 0.  1.
<mgrwt>
<rscale>  0 0.27964128E+04</rscale>
<asrwt>0</asrwt>
<pdfrwt beam="1">  1        1 0.65457066E-01 0.27964128E+04</pdfrwt>
<pdfrwt beam="2">  1       -2 0.70690220E+00 0.27964128E+04</pdfrwt>
<totfact> 0.89389341E-03</totfact>
</mgrwt>
</event>
<event>
12    5  0.5095719E-008  0.1113208E+04  0.7818608E-02  0.9192413E-01
          1   -1    0    0  501    0  0.00000000000E+00  0.00000000000E+00  0.27709293609E+03  0.27709293609E+03  0.00000000000E+00 0. -1.
         -2   -1    0    0    0  501 -0.00000000000E+00 -0.00000000000E+00 -0.11180649404E+04  0.11180649404E+04  0.00000000000E+00 0.  1.
        -24    2    1    2    0    0 -0.16951282579E+03  0.10769925167E+03 -0.47800587868E+03  0.52486078385E+03  0.81581219991E+02 0.  0.
        254    2    1    2    0    0  0.16951282579E+03 -0.10769925167E+03 -0.36296612566E+03  0.87029709266E+03  0.76507443703E+03 0.  0.
         23    2    4    4    0    0 -0.17596903901E+03 -0.15111089194E+03 -0.43651621678E+03  0.50259246646E+03  0.90846989404E+02 0.  0.
         23    2    4    4    0    0  0.34548186480E+03  0.43411640268E+02  0.73550091117E+02  0.36770462620E+03  0.92492090495E+02 0.  0.
          3    1    3    3  502    0  0.33829257541E+01 -0.76820759367E+01 -0.12517249495E+02  0.15071164928E+02  0.00000000000E+00 0. -1.
         -4    1    3    3    0  502 -0.17289575154E+03  0.11538132761E+03 -0.46548862918E+03  0.50978961892E+03  0.00000000000E+00 0.  1.
         13    1    5    5    0    0 -0.29111555200E+02  0.84841404652E+01 -0.76572195080E+02  0.82357539698E+02  0.00000000000E+00 0. -1.
        -13    1    5    5    0    0 -0.14685748381E+03 -0.15959503240E+03 -0.35994402170E+03  0.42023492677E+03  0.00000000000E+00 0.  1.
          1    1    6    6  503    0  0.14761601639E+03 -0.21432587135E+02  0.78708729456E+01  0.14937133168E+03  0.00000000000E+00 0. -1.
         -1    1    6    6    0  503  0.19786584841E+03  0.64844227403E+02  0.65679218172E+02  0.21833329452E+03  0.00000000000E+00 0.  1.
<mgrwt>
<rscale>  0 0.11132078E+04</rscale>
<asrwt>0</asrwt>
<pdfrwt beam="1">  1        1 0.42629683E-01 0.11132078E+04</pdfrwt>
<pdfrwt beam="2">  1       -2 0.17200999E+00 0.11132078E+04</pdfrwt>
<totfact> 0.17403010E+01</totfact>
</mgrwt>
</event>
<event>
12    5  0.5095719E-008  0.1330182E+04  0.7818608E-02  0.9005967E-01
         -2   -1    0    0    0  501 -0.00000000000E+00  0.00000000000E+00  0.26301685216E+03  0.26301685216E+03  0.00000000000E+00 0.  1.
          1   -1    0    0  501    0  0.00000000000E+00 -0.00000000000E+00 -0.16818159228E+04  0.16818159228E+04  0.00000000000E+00 0. -1.
        -24    2    1    2    0    0  0.59513939056E+02 -0.20488404791E+02 -0.92060628152E+03  0.92620550959E+03  0.79868872280E+02 0.  0.
        254    2    1    2    0    0 -0.59513939056E+02  0.20488404791E+02 -0.49819278917E+03  0.10186272654E+04  0.88625265416E+03 0.  0.
         23    2    4    4    0    0  0.14618142046E+03 -0.35640346037E+03 -0.62900868025E+02  0.40051800092E+03  0.89809329163E+02 0.  0.
         23    2    4    4    0    0 -0.20569535952E+03  0.37689186517E+03 -0.43529192114E+03  0.61810926450E+03  0.90674954080E+02 0.  0.
          3    1    3    3  502    0  0.47195039134E+02 -0.15171870213E+02 -0.90148193583E+03  0.90284397212E+03  0.00000000000E+00 0. -1.
         -4    1    3    3    0  502  0.12318899922E+02 -0.53165345778E+01 -0.19124345690E+02  0.23361537476E+02  0.00000000000E+00 0.  1.
         13    1    5    5    0    0  0.11451698683E+03 -0.34069163238E+03 -0.49975795888E+02  0.36288084659E+03  0.00000000000E+00 0. -1.
        -13    1    5    5    0    0  0.31664433631E+02 -0.15711827994E+02 -0.12925072137E+02  0.37637154326E+02  0.00000000000E+00 0.  1.
          4    1    6    6  503    0 -0.59099990768E+02  0.17222236019E+03 -0.13753087686E+03  0.22818433853E+03  0.00000000000E+00 0. -1.
         -4    1    6    6    0  503 -0.14659536875E+03  0.20466950497E+03 -0.29776104428E+03  0.38992492597E+03  0.00000000000E+00 0.  1.
<mgrwt>
<rscale>  0 0.13301818E+04</rscale>
<asrwt>0</asrwt>
<pdfrwt beam="1">  1        1 0.25874090E+00 0.13301818E+04</pdfrwt>
<pdfrwt beam="2">  1       -2 0.40464132E-01 0.13301818E+04</pdfrwt>
<totfact> 0.24400588E+01</totfact>
</mgrwt>
</event>
<event>
12    5  0.5095719E-008  0.1660609E+04  0.7818608E-02  0.8784155E-01
         -2   -1    0    0    0  501 -0.00000000000E+00  0.00000000000E+00  0.36753649546E+03  0.36753649546E+03  0.00000000000E+00 0.  1.
          1   -1    0    0  501    0  0.00000000000E+00 -0.00000000000E+00 -0.18757482020E+04  0.18757482020E+04  0.00000000000E+00 0. -1.
        -24    2    1    2    0    0  0.35318264053E+03  0.36748616267E+03 -0.15503200043E+03  0.53835335444E+03  0.77494230393E+02 0.  0.
        254    2    1    2    0    0 -0.35318264053E+03 -0.36748616267E+03 -0.13531797062E+04  0.17049313431E+04  0.90327820195E+03 0.  0.
         23    2    4    4    0    0 -0.65142354611E+03 -0.24310449527E+03 -0.90797687689E+03  0.11471426746E+04  0.89787943849E+02 0.  0.
         23    2    4    4    0    0  0.29824090557E+03 -0.12438166740E+03 -0.44520282926E+03  0.55778866848E+03  0.92218233340E+02 0.  0.
          3    1    3    3  502    0  0.54514549603E+02  0.85080406861E+02 -0.63478984365E+01  0.10124627186E+03  0.00000000000E+00 0. -1.
         -4    1    3    3    0  502  0.29866809093E+03  0.28240575581E+03 -0.14868410200E+03  0.43710708258E+03  0.00000000000E+00 0.  1.
         13    1    5    5    0    0 -0.27651941702E+03 -0.15071790284E+03 -0.41354040355E+03  0.51980240437E+03  0.00000000000E+00 0. -1.
        -13    1    5    5    0    0 -0.37490412909E+03 -0.92386592431E+02 -0.49443647334E+03  0.62734027022E+03  0.00000000000E+00 0.  1.
          1    1    6    6  503    0  0.54544728324E+02  0.38678402185E+01 -0.11848587624E+03  0.13049517403E+03  0.00000000000E+00 0. -1.
         -1    1    6    6    0  503  0.24369617725E+03 -0.12824950762E+03 -0.32671695302E+03  0.42729349445E+03  0.00000000000E+00 0.  1.
<mgrwt>
<rscale>  0 0.16606094E+04</rscale>
<asrwt>0</asrwt>
<pdfrwt beam="1">  1        1 0.28857664E+00 0.16606094E+04</pdfrwt>
<pdfrwt beam="2">  1       -2 0.56544077E-01 0.16606094E+04</pdfrwt>
<totfact> 0.89015471E+00</totfact>
</mgrwt>
</event>
<event>
12    5  0.5095719E-008  0.1811652E+04  0.7818608E-02  0.8700128E-01
          3   -1    0    0  501    0  0.00000000000E+00  0.00000000000E+00  0.11464319913E+04  0.11464319913E+04  0.00000000000E+00 0. -1.
         -4   -1    0    0    0  501 -0.00000000000E+00 -0.00000000000E+00 -0.71571671525E+03  0.71571671525E+03  0.00000000000E+00 0.  1.
        -24    2    1    2    0    0 -0.30510278986E+03 -0.54775917326E+03 -0.11551138922E+03  0.64273557338E+03  0.81475836732E+02 0.  0.
        254    2    1    2    0    0  0.30510278986E+03  0.54775917326E+03  0.54622666525E+03  0.12194131332E+04  0.89189517054E+03 0.  0.
         23    2    4    4    0    0 -0.17848221159E+03  0.56339680305E+03  0.28704528454E+03  0.66302504919E+03  0.89080654075E+02 0.  0.
         23    2    4    4    0    0  0.48358500146E+03 -0.15637629791E+02  0.25918138071E+03  0.55638808398E+03  0.91069878590E+02 0.  0.
          3    1    3    3  502    0 -0.11090348157E+03 -0.12541199005E+03 -0.30883035620E+02  0.17023957049E+03  0.00000000000E+00 0. -1.
         -4    1    3    3    0  502 -0.19419930829E+03 -0.42234718321E+03 -0.84628353596E+02  0.47249600288E+03  0.00000000000E+00 0.  1.
         13    1    5    5    0    0 -0.73660825564E+02  0.37158091670E+03  0.19154679714E+03  0.42448612507E+03  0.00000000000E+00 0. -1.
        -13    1    5    5    0    0 -0.10482138603E+03  0.19181588635E+03  0.95498487396E+02  0.23853892412E+03  0.00000000000E+00 0.  1.
          3    1    6    6  503    0  0.36380989681E+03 -0.49156115849E+02  0.17922969693E+03  0.40853059739E+03  0.00000000000E+00 0. -1.
         -3    1    6    6    0  503  0.11977510465E+03  0.33518486058E+02  0.79951683783E+02  0.14785748659E+03  0.00000000000E+00 0.  1.
<mgrwt>
<rscale>  0 0.18116518E+04</rscale>
<asrwt>0</asrwt>
<pdfrwt beam="1">  1        3 0.17637415E+00 0.18116518E+04</pdfrwt>
<pdfrwt beam="2">  1       -4 0.11011026E+00 0.18116518E+04</pdfrwt>
<totfact> 0.29687478E-01</totfact>
</mgrwt>
</event>
<event>
12    5  0.5095719E-008  0.1651385E+04  0.7818608E-02  0.8789588E-01
          1   -1    0    0  501    0  0.00000000000E+00  0.00000000000E+00  0.14376286559E+04  0.14376286559E+04  0.00000000000E+00 0. -1.
         -2   -1    0    0    0  501 -0.00000000000E+00 -0.00000000000E+00 -0.47423088815E+03  0.47423088815E+03  0.00000000000E+00 0.  1.
        -24    2    1    2    0    0  0.50597007995E+03 -0.27162018203E+03  0.23454875118E+03  0.62501400324E+03  0.76460071162E+02 0.  0.
        254    2    1    2    0    0 -0.50597007995E+03  0.27162018203E+03  0.72884901660E+03  0.12868455408E+04  0.89160939425E+03 0.  0.
         23    2    4    4    0    0 -0.30875540257E+03  0.59208820912E+03  0.45675690338E+03  0.81449924208E+03  0.94253915404E+02 0.  0.
         23    2    4    4    0    0 -0.19721467737E+03 -0.32046802709E+03  0.27209211322E+03  0.47234629877E+03  0.86507355302E+02 0.  0.
          3    1    3    3  502    0  0.24644316323E+03 -0.97110821020E+02  0.83727187797E+02  0.27780386289E+03  0.00000000000E+00 0. -1.
         -4    1    3    3    0  502  0.25952691672E+03 -0.17450936101E+03  0.15082156338E+03  0.34721014035E+03  0.00000000000E+00 0.  1.
         13    1    5    5    0    0 -0.20545308923E+03  0.47600082155E+03  0.36486918298E+03  0.63396945879E+03  0.00000000000E+00 0.  1.
        -13    1    5    5    0    0 -0.10330231334E+03  0.11608738757E+03  0.91887720395E+02  0.18052978329E+03  0.00000000000E+00 0. -1.
          1    1    6    6  503    0 -0.19336923430E+02 -0.68755544323E+02  0.20020807935E+02  0.74175968031E+02  0.00000000000E+00 0. -1.
         -1    1    6    6    0  503 -0.17787775394E+03 -0.25171248277E+03  0.25207130529E+03  0.39817033074E+03  0.00000000000E+00 0.  1.
<mgrwt>
<rscale>  0 0.16513848E+04</rscale>
<asrwt>0</asrwt>
<pdfrwt beam="1">  1        1 0.22117364E+00 0.16513848E+04</pdfrwt>
<pdfrwt beam="2">  1       -2 0.72958599E-01 0.16513848E+04</pdfrwt>
<totfact> 0.10288058E+01</totfact>
</mgrwt>
</event>
<event>
12    5  0.5095719E-008  0.1136183E+04  0.7818608E-02  0.9170626E-01
         -2   -1    0    0    0  501 -0.00000000000E+00  0.00000000000E+00  0.11538176615E+04  0.11538176615E+04  0.00000000000E+00 0.  1.
          1   -1    0    0  501    0  0.00000000000E+00 -0.00000000000E+00 -0.27970450415E+03  0.27970450415E+03  0.00000000000E+00 0. -1.
        -24    2    1    2    0    0 -0.29516383739E+02 -0.78224159577E+02 -0.65781701900E+02  0.13254074857E+03  0.79054295746E+02 0.  0.
        254    2    1    2    0    0  0.29516383739E+02  0.78224159577E+02  0.93989485926E+03  0.13009814171E+04  0.89563389009E+03 0.  0.
         23    2    4    4    0    0  0.33991783924E+03  0.23232496287E+03  0.17471203644E+03  0.45628513180E+03  0.90292856944E+02 0.  0.
         23    2    4    4    0    0 -0.31040145550E+03 -0.15410080329E+03  0.76518282282E+03  0.84469628529E+03  0.88943470193E+02 0.  0.
          1    1    3    3  502    0 -0.25162704200E+02 -0.65577267463E+02 -0.84281107480E+02  0.10971255520E+03  0.00000000000E+00 0. -1.
         -2    1    3    3    0  502 -0.43536795394E+01 -0.12646892115E+02  0.18499405580E+02  0.22828193369E+02  0.00000000000E+00 0.  1.
         13    1    5    5    0    0  0.23616214224E+03  0.20558475054E+03  0.11456102063E+03  0.33340946977E+03  0.00000000000E+00 0. -1.
        -13    1    5    5    0    0  0.10375569700E+03  0.26740212323E+02  0.60151015815E+02  0.12287566203E+03  0.00000000000E+00 0.  1.
          4    1    6    6  503    0 -0.22008150813E+03 -0.14769707887E+03  0.60875202662E+03  0.66394979271E+03  0.00000000000E+00 0. -1.
         -4    1    6    6    0  503 -0.90319947369E+02 -0.64037244237E+01  0.15643079620E+03  0.18074649258E+03  0.00000000000E+00 0.  1.
<mgrwt>
<rscale>  0 0.11361831E+04</rscale>
<asrwt>0</asrwt>
<pdfrwt beam="1">  1        1 0.43031463E-01 0.11361831E+04</pdfrwt>
<pdfrwt beam="2">  1       -2 0.17751041E+00 0.11361831E+04</pdfrwt>
<totfact> 0.15705606E+01</totfact>
</mgrwt>
</event>
<event>
12    5  0.5095719E-008  0.1471401E+04  0.7818608E-02  0.8903697E-01
          1   -1    0    0  501    0  0.00000000000E+00  0.00000000000E+00  0.12125975846E+04  0.12125975846E+04  0.00000000000E+00 0. -1.
         -2   -1    0    0    0  501 -0.00000000000E+00 -0.00000000000E+00 -0.44636035514E+03  0.44636035514E+03  0.00000000000E+00 0.  1.
        -24    2    1    2    0    0 -0.34293443844E+02  0.17833958589E+03 -0.23135868986E+03  0.30561052752E+03  0.83005439409E+02 0.  0.
        254    2    1    2    0    0  0.34293443844E+02 -0.17833958589E+03  0.99759591929E+03  0.13533474122E+04  0.89630940624E+03 0.  0.
         23    2    4    4    0    0 -0.30883056630E+03 -0.13667492097E+02  0.88792877293E+03  0.94470991353E+03  0.92174811652E+02 0.  0.
         23    2    4    4    0    0  0.34312401014E+03 -0.16467209379E+03  0.10966714636E+03  0.40863749866E+03  0.10053227100E+03 0.  0.
          3    1    3    3  502    0 -0.76691913335E+01  0.13540554930E+03 -0.11161310423E+03  0.17564442580E+03  0.00000000000E+00 0. -1.
         -4    1    3    3    0  502 -0.26624252511E+02  0.42934036586E+02 -0.11974558563E+03  0.12996610172E+03  0.00000000000E+00 0.  1.
         13    1    5    5    0    0 -0.29244063031E+03 -0.44245572618E+01  0.87300162751E+03  0.92069155563E+03  0.00000000000E+00 0.  1.
        -13    1    5    5    0    0 -0.16389935986E+02 -0.92429348348E+01  0.14927145418E+02  0.24018357902E+02  0.00000000000E+00 0. -1.
          1    1    6    6  503    0  0.16168183617E+03 -0.23742553826E+02  0.35593968070E+02  0.16724728869E+03  0.00000000000E+00 0. -1.
         -1    1    6    6    0  503  0.18144217397E+03 -0.14092953997E+03  0.74073178290E+02  0.24139020997E+03  0.00000000000E+00 0.  1.
<mgrwt>
<rscale>  0 0.14714014E+04</rscale>
<asrwt>0</asrwt>
<pdfrwt beam="1">  1        1 0.18655347E+00 0.14714014E+04</pdfrwt>
<pdfrwt beam="2">  1       -2 0.68670824E-01 0.14714014E+04</pdfrwt>
<totfact> 0.17244071E+01</totfact>
</mgrwt>
</event>
<event>
12    5  0.5095719E-008  0.2088639E+04  0.7818608E-02  0.8566264E-01
          1   -1    0    0  501    0  0.00000000000E+00  0.00000000000E+00  0.15747844542E+04  0.15747844542E+04  0.00000000000E+00 0. -1.
         -2   -1    0    0    0  501 -0.00000000000E+00 -0.00000000000E+00 -0.69254152747E+03  0.69254152747E+03  0.00000000000E+00 0.  1.
        -24    2    1    2    0    0 -0.81487713149E+03 -0.98696675300E+02  0.56807096885E+03  0.10019803856E+04  0.86569593021E+02 0.  0.
        254    2    1    2    0    0  0.81487713149E+03  0.98696675300E+02  0.31417195792E+03  0.12653455961E+04  0.91029098929E+03 0.  0.
         23    2    4    4    0    0  0.54588401403E+03 -0.37799306929E+03  0.13280607131E+03  0.68212096789E+03  0.82361672271E+02 0.  0.
         23    2    4    4    0    0  0.26899311746E+03  0.47668974459E+03  0.18136588661E+03  0.58322462816E+03  0.87561248455E+02 0.  0.
          1    1    3    3  502    0 -0.77670472678E+03 -0.11042795148E+03  0.52968730332E+03  0.94659030439E+03  0.00000000000E+00 0. -1.
         -2    1    3    3    0  502 -0.38172404707E+02  0.11731276180E+02  0.38383665530E+02  0.55390081255E+02  0.00000000000E+00 0.  1.
         13    1    5    5    0    0  0.47943240966E+03 -0.32155122132E+03  0.87521901852E+02  0.58387559177E+03  0.00000000000E+00 0. -1.
        -13    1    5    5    0    0  0.66451604368E+02 -0.56441847971E+02  0.45284169457E+02  0.98245376120E+02  0.00000000000E+00 0.  1.
          4    1    6    6  503    0  0.10351547251E+03  0.21833630863E+03  0.12216878875E+03  0.27076079786E+03  0.00000000000E+00 0. -1.
         -4    1    6    6    0  503  0.16547764495E+03  0.25835343596E+03  0.59197097864E+02  0.31246383030E+03  0.00000000000E+00 0.  1.
<mgrwt>
<rscale>  0 0.20886394E+04</rscale>
<asrwt>0</asrwt>
<pdfrwt beam="1">  1        1 0.24227453E+00 0.20886394E+04</pdfrwt>
<pdfrwt beam="2">  1       -2 0.10654485E+00 0.20886394E+04</pdfrwt>
<totfact> 0.33310217E+00</totfact>
</mgrwt>
</event>
<event>
12    5  0.5095719E-008  0.2135908E+04  0.7818608E-02  0.8545589E-01
         -2   -1    0    0    0  501 -0.00000000000E+00  0.00000000000E+00  0.15510512812E+04  0.15510512812E+04  0.00000000000E+00 0.  1.
          1   -1    0    0  501    0  0.00000000000E+00 -0.00000000000E+00 -0.73532403084E+03  0.73532403084E+03  0.00000000000E+00 0. -1.
        -24    2    1    2    0    0  0.81922632571E+02  0.86087959483E+03  0.49951638826E+03  0.10018430754E+04  0.79673904021E+02 0.  0.
        254    2    1    2    0    0 -0.81922632571E+02 -0.86087959483E+03  0.31621086215E+03  0.12845322367E+04  0.89566107615E+03 0.  0.
         23    2    4    4    0    0 -0.19894344523E+03 -0.77836621509E+02  0.42054184616E+03  0.48036084202E+03  0.90851858159E+02 0.  0.
         23    2    4    4    0    0  0.11702081266E+03 -0.78304297332E+03 -0.10433098401E+03  0.80417139471E+03  0.94638835453E+02 0.  0.
          1    1    3    3  502    0  0.48835694005E+01  0.40344370425E+03  0.25732428936E+03  0.47854619594E+03  0.00000000000E+00 0. -1.
         -2    1    3    3    0  502  0.77039063171E+02  0.45743589058E+03  0.24219209889E+03  0.52329687942E+03  0.00000000000E+00 0.  1.
         13    1    5    5    0    0 -0.81054642075E+02 -0.80475685729E+02  0.20868920702E+03  0.23790203051E+03  0.00000000000E+00 0.  1.
        -13    1    5    5    0    0 -0.11788880315E+03  0.26390642194E+01  0.21185263915E+03  0.24245881151E+03  0.00000000000E+00 0. -1.
          1    1    6    6  503    0  0.92704988644E+02 -0.35859627886E+03 -0.75875806420E+02  0.37807756365E+03  0.00000000000E+00 0. -1.
         -1    1    6    6    0  503  0.24315824012E+02 -0.42444669446E+03 -0.28455177589E+02  0.42609383106E+03  0.00000000000E+00 0.  1.
<mgrwt>
<rscale>  0 0.21359076E+04</rscale>
<asrwt>0</asrwt>
<pdfrwt beam="1">  1        1 0.11312677E+00 0.21359076E+04</pdfrwt>
<pdfrwt beam="2">  1       -2 0.23862327E+00 0.21359076E+04</pdfrwt>
<totfact> 0.15324036E+00</totfact>
</mgrwt>
</event>
<event>
12    5  0.5095719E-008  0.1374142E+04  0.7818608E-02  0.8972751E-01
          1   -1    0    0  501    0  0.00000000000E+00  0.00000000000E+00  0.20800993557E+04  0.20800993557E+04  0.00000000000E+00 0. -1.
         -2   -1    0    0    0  501 -0.00000000000E+00 -0.00000000000E+00 -0.22694436605E+03  0.22694436605E+03  0.00000000000E+00 0.  1.
        -24    2    1    2    0    0  0.90720295431E+02  0.37410875497E+03  0.47939035071E+03  0.61992659284E+03  0.79412465077E+02 0.  0.
        254    2    1    2    0    0 -0.90720295431E+02 -0.37410875497E+03  0.13737646390E+04  0.16871171290E+04  0.90052617448E+03 0.  0.
         23    2    4    4    0    0 -0.35927676586E+03 -0.45202541472E+03  0.51326165718E+03  0.77765114687E+03  0.88865108268E+02 0.  0.
         23    2    4    4    0    0  0.26855647043E+03  0.77916659749E+02  0.86050298181E+03  0.90946598208E+03  0.92029382164E+02 0.  0.
          1    1    3    3  502    0  0.26185199076E+02  0.18525815159E+03  0.17659920666E+03  0.25728102763E+03  0.00000000000E+00 0. -1.
         -2    1    3    3    0  502  0.64535096355E+02  0.18885060338E+03  0.30279114404E+03  0.36264556521E+03  0.00000000000E+00 0.  1.
         13    1    5    5    0    0 -0.80623334631E+02 -0.12313917018E+03  0.18164629359E+03  0.23379211556E+03  0.00000000000E+00 0.  1.
        -13    1    5    5    0    0 -0.27865343123E+03 -0.32888624453E+03  0.33161536359E+03  0.54385903132E+03  0.00000000000E+00 0. -1.
          1    1    6    6  503    0  0.16450512520E+03  0.92711933464E+02  0.57669733050E+03  0.60682555140E+03  0.00000000000E+00 0. -1.
         -1    1    6    6    0  503  0.10405134522E+03 -0.14795273715E+02  0.28380565131E+03  0.30264043068E+03  0.00000000000E+00 0.  1.
<mgrwt>
<rscale>  0 0.13741424E+04</rscale>
<asrwt>0</asrwt>
<pdfrwt beam="1">  1        1 0.32001527E+00 0.13741424E+04</pdfrwt>
<pdfrwt beam="2">  1       -2 0.34914519E-01 0.13741424E+04</pdfrwt>
<totfact> 0.17379765E+01</totfact>
</mgrwt>
</event>
<event>
12    5  0.5095719E-008  0.1785520E+04  0.7818608E-02  0.8714038E-01
          1   -1    0    0  501    0  0.00000000000E+00  0.00000000000E+00  0.47207340933E+03  0.47207340933E+03  0.00000000000E+00 0. -1.
         -2   -1    0    0    0  501 -0.00000000000E+00 -0.00000000000E+00 -0.16883398503E+04  0.16883398503E+04  0.00000000000E+00 0.  1.
        -24    2    1    2    0    0  0.70678971734E+02 -0.56445097448E+03 -0.16627485726E+03  0.59817668792E+03  0.81040743958E+02 0.  0.
        254    2    1    2    0    0 -0.70678971734E+02  0.56445097448E+03 -0.10499915837E+04  0.15622365717E+04  0.10072240865E+04 0.  0.
         23    2    4    4    0    0 -0.95556197021E+02  0.97081927243E+02  0.17972868997E+03  0.24309763321E+03  0.90764364636E+02 0.  0.
         23    2    4    4    0    0  0.24877225287E+02  0.46736904724E+03 -0.12297202736E+04  0.13191389384E+04  0.94142896116E+02 0.  0.
          3    1    3    3  502    0  0.34309609601E+02 -0.31497941759E+03 -0.50833765544E+02  0.32089446012E+03  0.00000000000E+00 0. -1.
         -4    1    3    3    0  502  0.36369362132E+02 -0.24947155689E+03 -0.11544109171E+03  0.27728222780E+03  0.00000000000E+00 0.  1.
         13    1    5    5    0    0  0.17832648769E+02  0.96230738841E+01  0.18250355891E+02  0.27270540941E+02  0.00000000000E+00 0.  1.
        -13    1    5    5    0    0 -0.11338884579E+03  0.87458853358E+02  0.16147833408E+03  0.21582709227E+03  0.00000000000E+00 0. -1.
          1    1    6    6  503    0  0.33115799525E+02  0.30768559893E+03 -0.68972689348E+03  0.75596975572E+03  0.00000000000E+00 0. -1.
         -1    1    6    6    0  503 -0.82385742375E+01  0.15968344830E+03 -0.53999338016E+03  0.56316918273E+03  0.00000000000E+00 0.  1.
<mgrwt>
<rscale>  0 0.17855199E+04</rscale>
<asrwt>0</asrwt>
<pdfrwt beam="1">  1        1 0.72626676E-01 0.17855199E+04</pdfrwt>
<pdfrwt beam="2">  1       -2 0.25974460E+00 0.17855199E+04</pdfrwt>
<totfact> 0.22208008E+00</totfact>
</mgrwt>
</event>
<event>
12    5  0.5095719E-008  0.2242504E+04  0.7818608E-02  0.8500942E-01
          1   -1    0    0  501    0  0.00000000000E+00  0.00000000000E+00  0.76189536318E+03  0.76189536318E+03  0.00000000000E+00 0. -1.
         -2   -1    0    0    0  501 -0.00000000000E+00 -0.00000000000E+00 -0.16501029101E+04  0.16501029101E+04  0.00000000000E+00 0.  1.
        -24    2    1    2    0    0  0.80868247874E+03 -0.45823508895E+03 -0.53287902012E+03  0.10730958440E+04  0.60231986290E+02 0.  0.
        254    2    1    2    0    0 -0.80868247874E+03  0.45823508895E+03 -0.35532852679E+03  0.13389024293E+04  0.89579830595E+03 0.  0.
         23    2    4    4    0    0 -0.79264162386E+03  0.21993209152E+03  0.82410552875E+02  0.83169970618E+03  0.91005677101E+02 0.  0.
         23    2    4    4    0    0 -0.16040854881E+02  0.23830299742E+03 -0.43773907967E+03  0.50720272308E+03  0.92700986123E+02 0.  0.
          1    1    3    3  502    0  0.40292992269E+03 -0.21509060464E+03 -0.22973313076E+03  0.51126686003E+03  0.00000000000E+00 0. -1.
         -2    1    3    3    0  502  0.40575255605E+03 -0.24314448431E+03 -0.30314588936E+03  0.56182898397E+03  0.00000000000E+00 0.  1.
         13    1    5    5    0    0 -0.52441393273E+03  0.10055836685E+03  0.57401895603E+02  0.53704463092E+03  0.00000000000E+00 0.  1.
        -13    1    5    5    0    0 -0.26822769113E+03  0.11937372467E+03  0.25008657272E+02  0.29465507525E+03  0.00000000000E+00 0. -1.
          1    1    6    6  503    0  0.15279075315E+02 -0.50761716183E+00 -0.28774589082E+02  0.32583504944E+02  0.00000000000E+00 0. -1.
         -1    1    6    6    0  503 -0.31319930196E+02  0.23881061459E+03 -0.40896449058E+03  0.47461921814E+03  0.00000000000E+00 0.  1.
<mgrwt>
<rscale>  0 0.22425037E+04</rscale>
<asrwt>0</asrwt>
<pdfrwt beam="1">  1        1 0.11721467E+00 0.22425037E+04</pdfrwt>
<pdfrwt beam="2">  1       -2 0.25386199E+00 0.22425037E+04</pdfrwt>
<totfact> 0.11572456E+00</totfact>
</mgrwt>
</event>
<event>
12    5  0.5095719E-008  0.2490938E+04  0.7818608E-02  0.8406221E-01
         -2   -1    0    0    0  501 -0.00000000000E+00  0.00000000000E+00  0.14130280012E+04  0.14130280012E+04  0.00000000000E+00 0.  1.
          1   -1    0    0  501    0  0.00000000000E+00 -0.00000000000E+00 -0.10977795181E+04  0.10977795181E+04  0.00000000000E+00 0. -1.
        -24    2    1    2    0    0  0.14403066999E+03  0.45022753433E+03 -0.84255950289E+03  0.96986247390E+03  0.85305543869E+02 0.  0.
        254    2    1    2    0    0 -0.14403066999E+03 -0.45022753433E+03  0.11578079859E+04  0.15409450454E+04  0.90030141296E+03 0.  0.
         23    2    4    4    0    0 -0.40050214564E+03  0.78210636580E+02  0.41623414556E+03  0.58998128568E+03  0.91149224818E+02 0.  0.
         23    2    4    4    0    0  0.25647147565E+03 -0.52843817091E+03  0.74157384038E+03  0.95096375975E+03  0.96828680303E+02 0.  0.
          1    1    3    3  502    0  0.83054923298E+02  0.13130178765E+03 -0.25755655326E+03  0.30078839381E+03  0.00000000000E+00 0. -1.
         -2    1    3    3    0  502  0.60975746695E+02  0.31892574668E+03 -0.58500294963E+03  0.66907408009E+03  0.00000000000E+00 0.  1.
         13    1    5    5    0    0 -0.13386730509E+03 -0.14495500071E+02  0.15557305132E+03  0.20575118272E+03  0.00000000000E+00 0. -1.
        -13    1    5    5    0    0 -0.26663484056E+03  0.92706136651E+02  0.26066109424E+03  0.38423010296E+03  0.00000000000E+00 0.  1.
          2    1    6    6  503    0  0.17408941822E+03 -0.27831995101E+03  0.35839350134E+03  0.48601957005E+03  0.00000000000E+00 0. -1.
         -2    1    6    6    0  503  0.82382057425E+02 -0.25011821990E+03  0.38318033904E+03  0.46494418970E+03  0.00000000000E+00 0.  1.
<mgrwt>
<rscale>  0 0.24909381E+04</rscale>
<asrwt>0</asrwt>
<pdfrwt beam="1">  1        1 0.16888916E+00 0.24909381E+04</pdfrwt>
<pdfrwt beam="2">  1       -2 0.21738892E+00 0.24909381E+04</pdfrwt>
<totfact> 0.10192587E+00</totfact>
</mgrwt>
</event>
<event>
12    5  0.5095719E-008  0.2681905E+04  0.7818608E-02  0.8340900E-01
          1   -1    0    0  501    0  0.00000000000E+00  0.00000000000E+00  0.10198508650E+04  0.10198508650E+04  0.00000000000E+00 0. -1.
         -2   -1    0    0    0  501 -0.00000000000E+00 -0.00000000000E+00 -0.17631529935E+04  0.17631529935E+04  0.00000000000E+00 0.  1.
        -24    2    1    2    0    0  0.73122309954E+03  0.27299792463E+03  0.60024930395E+03  0.98812430161E+03  0.82917551684E+02 0.  0.
        254    2    1    2    0    0 -0.73122309954E+03 -0.27299792463E+03 -0.13435514324E+04  0.17948795569E+04  0.89846930050E+03 0.  0.
         23    2    4    4    0    0 -0.49834353667E+03 -0.20236359112E+02 -0.12095360667E+03  0.52156841792E+03  0.92994886073E+02 0.  0.
         23    2    4    4    0    0 -0.23287956287E+03 -0.25276156552E+03 -0.12225978257E+04  0.12733111389E+04  0.91948427044E+02 0.  0.
          1    1    3    3  502    0  0.68250821371E+03  0.27491832655E+03  0.56998357501E+03  0.93074100793E+03  0.00000000000E+00 0. -1.
         -2    1    3    3    0  502  0.48714885833E+02 -0.19204019229E+01  0.30265728935E+02  0.57383293677E+02  0.00000000000E+00 0.  1.
         13    1    5    5    0    0 -0.16861152972E+03  0.34571627193E+02 -0.56495357870E+02  0.18115399753E+03  0.00000000000E+00 0.  1.
        -13    1    5    5    0    0 -0.32973200695E+03 -0.54807986305E+02 -0.64458248801E+02  0.34041442039E+03  0.00000000000E+00 0. -1.
          1    1    6    6  503    0 -0.22773460632E+03 -0.26040173638E+03 -0.11766462584E+04  0.12264454870E+04  0.00000000000E+00 0. -1.
         -1    1    6    6    0  503 -0.51449565536E+01  0.76401708626E+01 -0.45951567368E+02  0.46865651946E+02  0.00000000000E+00 0.  1.
<mgrwt>
<rscale>  0 0.26819046E+04</rscale>
<asrwt>0</asrwt>
<pdfrwt beam="1">  1        1 0.15690013E+00 0.26819046E+04</pdfrwt>
<pdfrwt beam="2">  1       -2 0.27125430E+00 0.26819046E+04</pdfrwt>
<totfact> 0.53341049E-01</totfact>
</mgrwt>
</event>
<event>
12    5  0.5095719E-008  0.1295391E+04  0.7818608E-02  0.9033228E-01
         -2   -1    0    0    0  501 -0.00000000000E+00  0.00000000000E+00  0.63328218922E+03  0.63328218922E+03  0.00000000000E+00 0.  1.
          1   -1    0    0  501    0  0.00000000000E+00 -0.00000000000E+00 -0.66243643125E+03  0.66243643125E+03  0.00000000000E+00 0. -1.
        -24    2    1    2    0    0  0.95293299845E+02  0.12586112777E+03  0.28152192097E+03  0.33369183288E+03  0.84698352202E+02 0.  0.
        254    2    1    2    0    0 -0.95293299845E+02 -0.12586112777E+03 -0.31067616301E+03  0.96202678759E+03  0.89669059620E+03 0.  0.
         23    2    4    4    0    0  0.38064344695E+03 -0.38943065107E+02 -0.28642255689E+02  0.39445750794E+03  0.91489620902E+02 0.  0.
         23    2    4    4    0    0 -0.47593674679E+03 -0.86918062663E+02 -0.28203390732E+03  0.56756927965E+03  0.92310485663E+02 0.  0.
          3    1    3    3  502    0 -0.45553840813E+01 -0.67646437143E+01  0.38673127817E+02  0.39523698510E+02  0.00000000000E+00 0. -1.
         -4    1    3    3    0  502  0.99848683927E+02  0.13262577148E+03  0.24284879316E+03  0.29416813437E+03  0.00000000000E+00 0.  1.
         13    1    5    5    0    0  0.16187341136E+03  0.27728519551E+02 -0.21598077051E+02  0.16564525056E+03  0.00000000000E+00 0. -1.
        -13    1    5    5    0    0  0.21877003559E+03 -0.66671584658E+02 -0.70441786372E+01  0.22881225737E+03  0.00000000000E+00 0.  1.
          3    1    6    6  503    0 -0.15853146516E+03 -0.73775790691E+02 -0.99466025042E+02  0.20116804636E+03  0.00000000000E+00 0. -1.
         -3    1    6    6    0  503 -0.31740528164E+03 -0.13142271973E+02 -0.18256788228E+03  0.36640123330E+03  0.00000000000E+00 0.  1.
<mgrwt>
<rscale>  0 0.12953906E+04</rscale>
<asrwt>0</asrwt>
<pdfrwt beam="1">  1        1 0.10191330E+00 0.12953906E+04</pdfrwt>
<pdfrwt beam="2">  1       -2 0.97428029E-01 0.12953906E+04</pdfrwt>
<totfact> 0.22382415E+01</totfact>
</mgrwt>
</event>
<event>
12    5  0.5095719E-008  0.2850377E+04  0.7818608E-02  0.8287797E-01
         -2   -1    0    0    0  501 -0.00000000000E+00  0.00000000000E+00  0.12832023229E+04  0.12832023229E+04  0.00000000000E+00 0.  1.
          1   -1    0    0  501    0  0.00000000000E+00 -0.00000000000E+00 -0.15828851047E+04  0.15828851047E+04  0.00000000000E+00 0. -1.
        -24    2    1    2    0    0 -0.63359834855E+03  0.45142206109E+03 -0.11380021132E+04  0.13808287097E+04  0.80064794784E+02 0.  0.
        254    2    1    2    0    0  0.63359834855E+03 -0.45142206109E+03  0.83831933147E+03  0.14852587179E+04  0.94762092265E+03 0.  0.
         23    2    4    4    0    0  0.72955261707E+03 -0.14309004341E+03  0.21869908440E+03  0.78054218408E+03  0.93247144805E+02 0.  0.
         23    2    4    4    0    0 -0.95954268521E+02 -0.30833201768E+03  0.61962024707E+03  0.70471653382E+03  0.91762125554E+02 0.  0.
          1    1    3    3  502    0 -0.54456136397E+03  0.40874064287E+03 -0.95482656733E+03  0.11727360172E+04  0.00000000000E+00 0. -1.
         -2    1    3    3    0  502 -0.89036984576E+02  0.42681418221E+02 -0.18317554589E+03  0.20809269255E+03  0.00000000000E+00 0.  1.
         13    1    5    5    0    0  0.51250579994E+03 -0.13737355189E+03  0.17785008342E+03  0.55961088258E+03  0.00000000000E+00 0. -1.
        -13    1    5    5    0    0  0.21704681712E+03 -0.57164915245E+01  0.40849000985E+02  0.22093130150E+03  0.00000000000E+00 0.  1.
          4    1    6    6  503    0  0.36961101304E+01 -0.12063856118E+03  0.18441928139E+03  0.22040370918E+03  0.00000000000E+00 0. -1.
         -4    1    6    6    0  503 -0.99650378651E+02 -0.18769345650E+03  0.43520096568E+03  0.48431282463E+03  0.00000000000E+00 0.  1.
<mgrwt>
<rscale>  0 0.28503767E+04</rscale>
<asrwt>0</asrwt>
<pdfrwt beam="1">  1        1 0.24352078E+00 0.28503767E+04</pdfrwt>
<pdfrwt beam="2">  1       -2 0.19741574E+00 0.28503767E+04</pdfrwt>
<totfact> 0.60050794E-01</totfact>
</mgrwt>
</event>
<event>
12    5  0.5095719E-008  0.1711615E+04  0.7818608E-02  0.8754767E-01
          1   -1    0    0  501    0  0.00000000000E+00  0.00000000000E+00  0.14040579288E+04  0.14040579288E+04  0.00000000000E+00 0. -1.
         -2   -1    0    0    0  501 -0.00000000000E+00 -0.00000000000E+00 -0.52163563125E+03  0.52163563125E+03  0.00000000000E+00 0.  1.
        -24    2    1    2    0    0 -0.65434330918E+03  0.18379345666E+03  0.53384269512E+03  0.86802448615E+03  0.80828735203E+02 0.  0.
        254    2    1    2    0    0  0.65434330918E+03 -0.18379345666E+03  0.34857960244E+03  0.10576690739E+04  0.73158111628E+03 0.  0.
         23    2    4    4    0    0 -0.10291138010E+03  0.10920034690E+03  0.17004979780E+02  0.17617077078E+03  0.90727632071E+02 0.  0.
         23    2    4    4    0    0  0.75725468928E+03 -0.29299380357E+03  0.33157462266E+03  0.88149830314E+03  0.88416597318E+02 0.  0.
          3    1    3    3  502    0 -0.18361414952E+03  0.75625394652E+02  0.19264342702E+03  0.27666739271E+03  0.00000000000E+00 0. -1.
         -4    1    3    3    0  502 -0.47072915966E+03  0.10816806201E+03  0.34119926811E+03  0.59135709343E+03  0.00000000000E+00 0.  1.
         13    1    5    5    0    0 -0.10851796041E+02  0.76766718637E+02  0.11835263713E+02  0.78428081928E+02  0.00000000000E+00 0.  1.
        -13    1    5    5    0    0 -0.92059584057E+02  0.32433628267E+02  0.51697160663E+01  0.97742688849E+02  0.00000000000E+00 0. -1.
          4    1    6    6  503    0  0.44052774265E+03 -0.13025491576E+03  0.21127871167E+03  0.50563794273E+03  0.00000000000E+00 0. -1.
         -4    1    6    6    0  503  0.31672694662E+03 -0.16273888780E+03  0.12029591099E+03  0.37586036040E+03  0.00000000000E+00 0.  1.
<mgrwt>
<rscale>  0 0.17116152E+04</rscale>
<asrwt>0</asrwt>
<pdfrwt beam="1">  1        1 0.21600891E+00 0.17116152E+04</pdfrwt>
<pdfrwt beam="2">  1       -2 0.80251636E-01 0.17116152E+04</pdfrwt>
<totfact> 0.87385323E+00</totfact>
</mgrwt>
</event>
<event>
12    5  0.5095719E-008  0.1102871E+04  0.7818608E-02  0.9202398E-01
          3   -1    0    0  501    0  0.00000000000E+00  0.00000000000E+00  0.10079996615E+04  0.10079996615E+04  0.00000000000E+00 0. -1.
         -4   -1    0    0    0  501 -0.00000000000E+00 -0.00000000000E+00 -0.30166792684E+03  0.30166792684E+03  0.00000000000E+00 0.  1.
        -24    2    1    2    0    0  0.15693138609E+03 -0.69717979659E+01  0.22955564632E+03  0.29497246526E+03  0.98167686112E+02 0.  0.
        254    2    1    2    0    0 -0.15693138609E+03  0.69717979659E+01  0.47677608831E+03  0.10146951230E+04  0.88182463587E+03 0.  0.
         23    2    4    4    0    0 -0.27178931621E+03  0.33414901197E+03  0.48489823955E+03  0.65588510269E+03  0.97642053448E+02 0.  0.
         23    2    4    4    0    0  0.11485793012E+03 -0.32717721400E+03 -0.81221512438E+01  0.35881002035E+03  0.91877025923E+02 0.  0.
          1    1    3    3  502    0  0.12243872760E+03  0.10804390685E+02  0.22435918851E+03  0.25582224755E+03  0.00000000000E+00 0. -1.
         -2    1    3    3    0  502  0.34492658490E+02 -0.17776188651E+02  0.51964578102E+01  0.39150217707E+02  0.00000000000E+00 0.  1.
         13    1    5    5    0    0 -0.13606388435E+02 -0.55335639165E+01  0.12079493827E+02  0.19017578894E+02  0.00000000000E+00 0.  1.
        -13    1    5    5    0    0 -0.25818292777E+03  0.33968257588E+03  0.47281874573E+03  0.63686752380E+03  0.00000000000E+00 0. -1.
          2    1    6    6  503    0  0.78647390708E+01 -0.86809945200E+02  0.31614779047E+02  0.92721707062E+02  0.00000000000E+00 0.  1.
         -2    1    6    6    0  503  0.10699319105E+03 -0.24036726880E+03 -0.39736930290E+02  0.26608831329E+03  0.00000000000E+00 0. -1.
<mgrwt>
<rscale>  0 0.11028711E+04</rscale>
<asrwt>0</asrwt>
<pdfrwt beam="1">  1        3 0.15507687E+00 0.11028711E+04</pdfrwt>
<pdfrwt beam="2">  1       -4 0.46410451E-01 0.11028711E+04</pdfrwt>
<totfact> 0.30356010E+00</totfact>
</mgrwt>
</event>
<event>
12    5  0.5095719E-008  0.1943126E+04  0.7818608E-02  0.8633683E-01
         -4   -1    0    0    0  501 -0.00000000000E+00  0.00000000000E+00  0.18984005809E+04  0.18984005809E+04  0.00000000000E+00 0.  1.
          3   -1    0    0  501    0  0.00000000000E+00 -0.00000000000E+00 -0.49722644718E+03  0.49722644718E+03  0.00000000000E+00 0. -1.
        -24    2    1    2    0    0 -0.17526664653E+03 -0.71957362023E+03  0.75092164963E+03  0.10577827015E+04  0.80723772037E+02 0.  0.
        254    2    1    2    0    0  0.17526664653E+03  0.71957362023E+03  0.65025248414E+03  0.13378443266E+04  0.90470689002E+03 0.  0.
         23    2    4    4    0    0  0.18822386446E+03 -0.12180383507E+02  0.55608998190E+03  0.59446473646E+03  0.92604913626E+02 0.  0.
         23    2    4    4    0    0 -0.12957217925E+02  0.73175400374E+03  0.94162502234E+02  0.74337959017E+03  0.90082333271E+02 0.  0.
          1    1    3    3  502    0 -0.49896455562E+02 -0.22987108230E+03  0.18729552841E+03  0.30068253312E+03  0.00000000000E+00 0. -1.
         -2    1    3    3    0  502 -0.12537019097E+03 -0.48970253793E+03  0.56362612122E+03  0.75710016838E+03  0.00000000000E+00 0.  1.
         13    1    5    5    0    0  0.24676330889E+02  0.31779204858E+02  0.12438479903E+03  0.13073032318E+03  0.00000000000E+00 0. -1.
        -13    1    5    5    0    0  0.16354753357E+03 -0.43959588366E+02  0.43170518287E+03  0.46373441328E+03  0.00000000000E+00 0.  1.
          2    1    6    6  503    0  0.30621123941E+02  0.11610008817E+03  0.20443848868E+02  0.12179833603E+03  0.00000000000E+00 0. -1.
         -2    1    6    6    0  503 -0.43578341866E+02  0.61565391557E+03  0.73718653366E+02  0.62158125414E+03  0.00000000000E+00 0.  1.
<mgrwt>
<rscale>  0 0.19431263E+04</rscale>
<asrwt>0</asrwt>
<pdfrwt beam="1">  1        3 0.76496377E-01 0.19431263E+04</pdfrwt>
<pdfrwt beam="2">  1       -4 0.29206162E+00 0.19431263E+04</pdfrwt>
<totfact> 0.11875493E-01</totfact>
</mgrwt>
</event>
<event>
12    5  0.5095719E-008  0.1479370E+04  0.7818608E-02  0.8898289E-01
          1   -1    0    0  501    0  0.00000000000E+00  0.00000000000E+00  0.78599041349E+03  0.78599041349E+03  0.00000000000E+00 0. -1.
         -2   -1    0    0    0  501 -0.00000000000E+00 -0.00000000000E+00 -0.69610776158E+03  0.69610776158E+03  0.00000000000E+00 0.  1.
        -24    2    1    2    0    0 -0.28525042959E+03 -0.29921721772E+03 -0.18484801787E+03  0.45968588955E+03  0.79016304534E+02 0.  0.
        254    2    1    2    0    0  0.28525042959E+03  0.29921721772E+03  0.27473066978E+03  0.10224122855E+04  0.89384069592E+03 0.  0.
         23    2    4    4    0    0  0.33085359340E+03 -0.12864506968E+03 -0.16290567310E+03  0.40097207922E+03  0.90701134321E+02 0.  0.
         23    2    4    4    0    0 -0.45603163809E+02  0.42786228740E+03  0.43763634288E+03  0.62144020630E+03  0.97552938784E+02 0.  0.
          1    1    3    3  502    0 -0.34459449523E+02 -0.10618082393E+02 -0.26622433085E+01  0.36156394657E+02  0.00000000000E+00 0. -1.
         -2    1    3    3    0  502 -0.25079098006E+03 -0.28859913533E+03 -0.18218577456E+03  0.42352949489E+03  0.00000000000E+00 0.  1.
         13    1    5    5    0    0  0.21982396935E+03 -0.73945639796E+02 -0.58866669713E+02  0.23928188387E+03  0.00000000000E+00 0.  1.
        -13    1    5    5    0    0  0.11102962405E+03 -0.54699429882E+02 -0.10403900339E+03  0.16169019535E+03  0.00000000000E+00 0. -1.
          1    1    6    6  503    0  0.27854635525E+02  0.64420013781E+02  0.62466791414E+02  0.93957005728E+02  0.00000000000E+00 0. -1.
         -1    1    6    6    0  503 -0.73457799334E+02  0.36344227362E+03  0.37516955147E+03  0.52748320057E+03  0.00000000000E+00 0.  1.
<mgrwt>
<rscale>  0 0.14793702E+04</rscale>
<asrwt>0</asrwt>
<pdfrwt beam="1">  1        1 0.12092160E+00 0.14793702E+04</pdfrwt>
<pdfrwt beam="2">  1       -2 0.10709350E+00 0.14793702E+04</pdfrwt>
<totfact> 0.13531816E+01</totfact>
</mgrwt>
</event>
<event>
12    5  0.5095719E-008  0.1743782E+04  0.7818608E-02  0.8736781E-01
          1   -1    0    0  501    0  0.00000000000E+00  0.00000000000E+00  0.13171470361E+04  0.13171470361E+04  0.00000000000E+00 0. -1.
         -2   -1    0    0    0  501 -0.00000000000E+00 -0.00000000000E+00 -0.57715171011E+03  0.57715171011E+03  0.00000000000E+00 0.  1.
        -24    2    1    2    0    0  0.54196405119E+03  0.32837771543E+03  0.35936605779E+03  0.73295294821E+03  0.80740968710E+02 0.  0.
        254    2    1    2    0    0 -0.54196405119E+03 -0.32837771543E+03  0.38062926823E+03  0.11613457980E+04  0.89570556880E+03 0.  0.
         23    2    4    4    0    0 -0.13586586473E+03 -0.57849216857E+03  0.13044712341E+03  0.61509975172E+03  0.90656109882E+02 0.  0.
         23    2    4    4    0    0 -0.40609818646E+03  0.25011445314E+03  0.25018214483E+03  0.54624604631E+03  0.91217656187E+02 0.  0.
          3    1    3    3  502    0  0.54478375972E+03  0.32734449041E+03  0.35894246847E+03  0.72992017093E+03  0.00000000000E+00 0. -1.
         -4    1    3    3    0  502 -0.28197085306E+01  0.10332250220E+01  0.42358931902E+00  0.30327772841E+01  0.00000000000E+00 0.  1.
         13    1    5    5    0    0 -0.99509133005E+02 -0.53193984771E+03  0.10755633451E+03  0.55175214927E+03  0.00000000000E+00 0. -1.
        -13    1    5    5    0    0 -0.36356731721E+02 -0.46552320864E+02  0.22890788897E+02  0.63347602445E+02  0.00000000000E+00 0.  1.
          3    1    6    6  503    0 -0.22402082504E+03  0.11857509488E+03  0.18013316636E+03  0.31095552866E+03  0.00000000000E+00 0. -1.
         -3    1    6    6    0  503 -0.18207736142E+03  0.13153935826E+03  0.70048978463E+02  0.23529051765E+03  0.00000000000E+00 0.  1.
<mgrwt>
<rscale>  0 0.17437817E+04</rscale>
<asrwt>0</asrwt>
<pdfrwt beam="1">  1        1 0.20263801E+00 0.17437817E+04</pdfrwt>
<pdfrwt beam="2">  1       -2 0.88792571E-01 0.17437817E+04</pdfrwt>
<totfact> 0.79749648E+00</totfact>
</mgrwt>
</event>
<event>
12    5  0.5095719E-008  0.1333319E+04  0.7818608E-02  0.9003552E-01
         -2   -1    0    0    0  501 -0.00000000000E+00  0.00000000000E+00  0.69038710592E+03  0.69038710592E+03  0.00000000000E+00 0.  1.
          1   -1    0    0  501    0  0.00000000000E+00 -0.00000000000E+00 -0.64374753816E+03  0.64374753816E+03  0.00000000000E+00 0. -1.
        -24    2    1    2    0    0  0.31508062519E+03 -0.21682007729E+03  0.20700569717E+02  0.39314061274E+03  0.88567948563E+02 0.  0.
        254    2    1    2    0    0 -0.31508062519E+03  0.21682007729E+03  0.25938998041E+02  0.94099403134E+03  0.85936615544E+03 0.  0.
         23    2    4    4    0    0  0.27933260952E+03  0.55404632805E+02 -0.77789310671E+02  0.30938532065E+03  0.92583582264E+02 0.  0.
         23    2    4    4    0    0 -0.59441323470E+03  0.16141544448E+03  0.10372830871E+03  0.63160871069E+03  0.93744130901E+02 0.  0.
          1    1    3    3  502    0  0.11110208113E+03 -0.75870675549E+02  0.49890043901E+02  0.14348884389E+03  0.00000000000E+00 0. -1.
         -2    1    3    3    0  502  0.20397854406E+03 -0.14094940174E+03 -0.29189474184E+02  0.24965176885E+03  0.00000000000E+00 0.  1.
         13    1    5    5    0    0  0.27179550002E+02  0.24727373181E+02 -0.36951329073E+02  0.52111147013E+02  0.00000000000E+00 0.  1.
        -13    1    5    5    0    0  0.25215305952E+03  0.30677259624E+02 -0.40837981597E+02  0.25727417364E+03  0.00000000000E+00 0. -1.
          1    1    6    6  503    0 -0.13797268609E+03  0.71667187062E+02  0.50095106033E+02  0.16334677057E+03  0.00000000000E+00 0.  1.
         -1    1    6    6    0  503 -0.45644054862E+03  0.89748257422E+02  0.53633202679E+02  0.46826194012E+03  0.00000000000E+00 0. -1.
<mgrwt>
<rscale>  0 0.13333192E+04</rscale>
<asrwt>0</asrwt>
<pdfrwt beam="1">  1        1 0.99038083E-01 0.13333192E+04</pdfrwt>
<pdfrwt beam="2">  1       -2 0.10621340E+00 0.13333192E+04</pdfrwt>
<totfact> 0.18952841E+01</totfact>
</mgrwt>
</event>
<event>
12    5  0.5095719E-008  0.1328839E+04  0.7818608E-02  0.9007003E-01
          1   -1    0    0  501    0  0.00000000000E+00  0.00000000000E+00  0.33787512792E+04  0.33787512792E+04  0.00000000000E+00 0. -1.
         -2   -1    0    0    0  501 -0.00000000000E+00 -0.00000000000E+00 -0.13065581667E+03  0.13065581667E+03  0.00000000000E+00 0.  1.
        -24    2    1    2    0    0 -0.97770392228E+02  0.16775422641E+03  0.16619084566E+04  0.16751403062E+04  0.80341752462E+02 0.  0.
        254    2    1    2    0    0  0.97770392228E+02 -0.16775422641E+03  0.15861870059E+04  0.18342667897E+04  0.90046927095E+03 0.  0.
         23    2    4    4    0    0  0.12037642306E+03 -0.27554006766E+03  0.16493474998E+04  0.16793154378E+04  0.96645499527E+02 0.  0.
         23    2    4    4    0    0 -0.22606030828E+02  0.10778584125E+03 -0.63160493868E+02  0.15495135185E+03  0.88836103316E+02 0.  0.
          3    1    3    3  502    0 -0.10199733140E+03  0.15126270088E+03  0.12893713912E+04  0.13022144388E+04  0.00000000000E+00 0. -1.
         -4    1    3    3    0  502  0.42269391752E+01  0.16491525530E+02  0.37253706543E+03  0.37292586737E+03  0.00000000000E+00 0.  1.
         13    1    5    5    0    0  0.77653362619E+02 -0.86213375005E+02  0.47039812607E+03  0.48449683979E+03  0.00000000000E+00 0. -1.
        -13    1    5    5    0    0  0.42723060438E+02 -0.18932669266E+03  0.11789493737E+04  0.11948185980E+04  0.00000000000E+00 0.  1.
          1    1    6    6  503    0 -0.33899382805E+02  0.47350488697E+02  0.10320759150E+02  0.59141821107E+02  0.00000000000E+00 0. -1.
         -1    1    6    6    0  503  0.11293351976E+02  0.60435352552E+02 -0.73481253019E+02  0.95809530748E+02  0.00000000000E+00 0.  1.
<mgrwt>
<rscale>  0 0.13288394E+04</rscale>
<asrwt>0</asrwt>
<pdfrwt beam="1">  1        1 0.51980782E+00 0.13288394E+04</pdfrwt>
<pdfrwt beam="2">  1       -2 0.20100897E-01 0.13288394E+04</pdfrwt>
<totfact> 0.57519934E+00</totfact>
</mgrwt>
</event>
<event>
12    5  0.5095719E-008  0.1326395E+04  0.7818608E-02  0.9008892E-01
          1   -1    0    0  501    0  0.00000000000E+00  0.00000000000E+00  0.98058757964E+03  0.98058757964E+03  0.00000000000E+00 0. -1.
         -2   -1    0    0    0  501 -0.00000000000E+00 -0.00000000000E+00 -0.44853802310E+03  0.44853802310E+03  0.00000000000E+00 0.  1.
        -24    2    1    2    0    0 -0.36821618239E+03  0.33478317469E+02  0.99340965102E+02  0.39103181942E+03  0.79582044068E+02 0.  0.
        254    2    1    2    0    0  0.36821618239E+03 -0.33478317469E+02  0.43270859143E+03  0.10380937833E+04  0.86815783309E+03 0.  0.
         23    2    4    4    0    0 -0.51278000191E+02  0.12559138959E+03  0.54295349737E+03  0.56774512139E+03  0.95568782120E+02 0.  0.
         23    2    4    4    0    0  0.41949418258E+03 -0.15906970706E+03 -0.11024490594E+03  0.47034866192E+03  0.88291469367E+02 0.  0.
          3    1    3    3  502    0 -0.57529954455E+02 -0.23800606836E+02  0.17910084284E+02  0.64783760808E+02  0.00000000000E+00 0. -1.
         -4    1    3    3    0  502 -0.31068622794E+03  0.57278924305E+02  0.81430880818E+02  0.32624805862E+03  0.00000000000E+00 0.  1.
         13    1    5    5    0    0  0.11415634740E+02  0.85554820974E+02  0.36096125824E+03  0.37113740590E+03  0.00000000000E+00 0. -1.
        -13    1    5    5    0    0 -0.62693634931E+02  0.40036568616E+02  0.18199223913E+03  0.19660771549E+03  0.00000000000E+00 0.  1.
          2    1    6    6  503    0  0.12321378105E+03 -0.91065967161E+02 -0.40136096587E+02  0.15838419260E+03  0.00000000000E+00 0. -1.
         -2    1    6    6    0  503  0.29628040153E+03 -0.68003739897E+02 -0.70108809353E+02  0.31196446933E+03  0.00000000000E+00 0.  1.
<mgrwt>
<rscale>  0 0.13263948E+04</rscale>
<asrwt>0</asrwt>
<pdfrwt beam="1">  1        1 0.15085963E+00 0.13263948E+04</pdfrwt>
<pdfrwt beam="2">  1       -2 0.69005850E-01 0.13263948E+04</pdfrwt>
<totfact> 0.25839766E+01</totfact>
</mgrwt>
</event>
<event>
12    5  0.5095719E-008  0.1195579E+04  0.7818608E-02  0.9116735E-01
          1   -1    0    0  501    0  0.00000000000E+00  0.00000000000E+00  0.55436808493E+03  0.55436808493E+03  0.00000000000E+00 0. -1.
         -2   -1    0    0    0  501 -0.00000000000E+00 -0.00000000000E+00 -0.64461197748E+03  0.64461197748E+03  0.00000000000E+00 0.  1.
        -24    2    1    2    0    0  0.28995989103E+02  0.19939816513E+01 -0.26510675665E+03  0.27889621008E+03  0.81588971248E+02 0.  0.
        254    2    1    2    0    0 -0.28995989103E+02 -0.19939816513E+01  0.17486286410E+03  0.92008385233E+03  0.90284690326E+03 0.  0.
         23    2    4    4    0    0 -0.35132403577E+02  0.42079323415E+03  0.21930782168E+03  0.48468945230E+03  0.92340201602E+02 0.  0.
         23    2    4    4    0    0  0.61364144736E+01 -0.42278721580E+03 -0.44444957587E+02  0.43539440003E+03  0.93841589402E+02 0.  0.
          1    1    3    3  502    0  0.11522164976E+02  0.16495935713E+01  0.14833864208E+01  0.11733792224E+02  0.00000000000E+00 0. -1.
         -2    1    3    3    0  502  0.17473824127E+02  0.34438807999E+00 -0.26659014307E+03  0.26716241785E+03  0.00000000000E+00 0.  1.
         13    1    5    5    0    0 -0.25466945728E+02  0.36272750647E+02  0.42325638006E+02  0.61284071314E+02  0.00000000000E+00 0.  1.
        -13    1    5    5    0    0 -0.96654578487E+01  0.38452048350E+03  0.17698218368E+03  0.42340538098E+03  0.00000000000E+00 0. -1.
          1    1    6    6  503    0 -0.36406133310E+02 -0.30221810329E+03 -0.18723814277E+02  0.30497831024E+03  0.00000000000E+00 0. -1.
         -1    1    6    6    0  503  0.42542547783E+02 -0.12056911251E+03 -0.25721143310E+02  0.13041608979E+03  0.00000000000E+00 0.  1.
<mgrwt>
<rscale>  0 0.11955790E+04</rscale>
<asrwt>0</asrwt>
<pdfrwt beam="1">  1        1 0.85287398E-01 0.11955790E+04</pdfrwt>
<pdfrwt beam="2">  1       -2 0.99171073E-01 0.11955790E+04</pdfrwt>
<totfact> 0.27993293E+01</totfact>
</mgrwt>
</event>
<event>
12    5  0.5095719E-008  0.2240955E+04  0.7818608E-02  0.8501572E-01
         -2   -1    0    0    0  501 -0.00000000000E+00  0.00000000000E+00  0.92297697763E+03  0.92297697763E+03  0.00000000000E+00 0.  1.
          1   -1    0    0  501    0  0.00000000000E+00 -0.00000000000E+00 -0.13602397277E+04  0.13602397277E+04  0.00000000000E+00 0. -1.
        -24    2    1    2    0    0  0.35131469799E+03 -0.39830126963E+03  0.60457518198E+03  0.80863565909E+03  0.79464206260E+02 0.  0.
        254    2    1    2    0    0 -0.35131469799E+03  0.39830126963E+03 -0.10418379320E+04  0.14745810462E+04  0.89827449414E+03 0.  0.
         23    2    4    4    0    0  0.18827893998E+03  0.43762141447E+03 -0.59108734946E+03  0.76450436210E+03  0.90117719307E+02 0.  0.
         23    2    4    4    0    0 -0.53959363798E+03 -0.39320144842E+02 -0.45075058254E+03  0.71007668409E+03  0.91243858425E+02 0.  0.
          3    1    3    3  502    0  0.57940981124E+02 -0.59672017192E+02  0.14259997441E+03  0.16508379579E+03  0.00000000000E+00 0. -1.
         -4    1    3    3    0  502  0.29337371687E+03 -0.33862925244E+03  0.46197520756E+03  0.64355186330E+03  0.00000000000E+00 0.  1.
         13    1    5    5    0    0  0.11337914146E+03  0.30838302763E+03 -0.46298399261E+03  0.56772273062E+03  0.00000000000E+00 0. -1.
        -13    1    5    5    0    0  0.74899798520E+02  0.12923838684E+03 -0.12810335685E+03  0.19678163148E+03  0.00000000000E+00 0.  1.
          4    1    6    6  503    0 -0.36430222976E+03 -0.27471601087E+02 -0.35758305947E+03  0.51121076661E+03  0.00000000000E+00 0.  1.
         -4    1    6    6    0  503 -0.17529140821E+03 -0.11848543755E+02 -0.93167523066E+02  0.19886591748E+03  0.00000000000E+00 0. -1.
<mgrwt>
<rscale>  0 0.22409551E+04</rscale>
<asrwt>0</asrwt>
<pdfrwt beam="1">  1        1 0.20926765E+00 0.22409551E+04</pdfrwt>
<pdfrwt beam="2">  1       -2 0.14199646E+00 0.22409551E+04</pdfrwt>
<totfact> 0.22620222E+00</totfact>
</mgrwt>
</event>
<event>
12    5  0.5095719E-008  0.1867501E+04  0.7818608E-02  0.8671204E-01
         -2   -1    0    0    0  501 -0.00000000000E+00  0.00000000000E+00  0.26074605791E+03  0.26074605791E+03  0.00000000000E+00 0.  1.
          1   -1    0    0  501    0  0.00000000000E+00 -0.00000000000E+00 -0.33438296633E+04  0.33438296633E+04  0.00000000000E+00 0. -1.
        -24    2    1    2    0    0 -0.42246893903E+03  0.21070342342E+03 -0.14621391028E+03  0.50013149572E+03  0.76662039917E+02 0.  0.
        254    2    1    2    0    0  0.42246893903E+03 -0.21070342342E+03 -0.29368696952E+04  0.31044442255E+04  0.88853497742E+03 0.  0.
         23    2    4    4    0    0 -0.23516005972E+03 -0.16957266869E+03 -0.13559005068E+04  0.13896144738E+04  0.92233713074E+02 0.  0.
         23    2    4    4    0    0  0.65762899875E+03 -0.41130754734E+02 -0.15809691883E+04  0.17148297517E+04  0.83724930069E+02 0.  0.
          3    1    3    3  502    0 -0.65048141039E+00  0.48208973605E+01 -0.10424441925E+02  0.11503615383E+02  0.00000000000E+00 0. -1.
         -4    1    3    3    0  502 -0.42181845762E+03  0.20588252606E+03 -0.13578946836E+03  0.48862788033E+03  0.00000000000E+00 0.  1.
         13    1    5    5    0    0 -0.23899404207E+03 -0.15791048779E+03 -0.12207546003E+04  0.12539121454E+04  0.00000000000E+00 0.  1.
        -13    1    5    5    0    0  0.38339823515E+01 -0.11662180897E+02 -0.13514590656E+03  0.13570232844E+03  0.00000000000E+00 0. -1.
          4    1    6    6  503    0  0.10944750189E+03  0.46442116116E+01 -0.34499997553E+03  0.36197418069E+03  0.00000000000E+00 0. -1.
         -4    1    6    6    0  503  0.54818149686E+03 -0.45774966346E+02 -0.12359692128E+04  0.13528555710E+04  0.00000000000E+00 0.  1.
<mgrwt>
<rscale>  0 0.18675014E+04</rscale>
<asrwt>0</asrwt>
<pdfrwt beam="1">  1        1 0.51443525E+00 0.18675014E+04</pdfrwt>
<pdfrwt beam="2">  1       -2 0.40114785E-01 0.18675014E+04</pdfrwt>
<totfact> 0.16097979E+00</totfact>
</mgrwt>
</event>
<event>
12    5  0.5095719E-008  0.1011394E+04  0.7818608E-02  0.9296136E-01
          1   -1    0    0  501    0  0.00000000000E+00  0.00000000000E+00  0.12421642050E+04  0.12421642050E+04  0.00000000000E+00 0. -1.
         -2   -1    0    0    0  501 -0.00000000000E+00 -0.00000000000E+00 -0.20587403616E+03  0.20587403616E+03  0.00000000000E+00 0.  1.
        -24    2    1    2    0    0  0.19640672908E+02 -0.57287420380E+02  0.46016758726E+02  0.11044636206E+03  0.80082783678E+02 0.  0.
        254    2    1    2    0    0 -0.19640672908E+02  0.57287420380E+02  0.99027341007E+03  0.13375918791E+04  0.89713042735E+03 0.  0.
         23    2    4    4    0    0  0.20422809850E+03 -0.83713294041E+02 -0.63341051577E+02  0.24742115995E+03  0.92130938124E+02 0.  0.
         23    2    4    4    0    0 -0.22386877140E+03  0.14100071442E+03  0.10536144616E+04  0.10901707191E+04  0.91489533537E+02 0.  0.
          3    1    3    3  502    0  0.44998285296E+02 -0.59882125201E+02  0.33696618350E+02  0.82135112384E+02  0.00000000000E+00 0. -1.
         -2    1    3    3    0  502 -0.25357612387E+02  0.25947048209E+01  0.12320140376E+02  0.28311249672E+02  0.00000000000E+00 0.  1.
         13    1    5    5    0    0  0.18503876069E+02 -0.46053352067E+02 -0.11310472456E+02  0.50904139845E+02  0.00000000000E+00 0.  1.
        -13    1    5    5    0    0  0.18572422243E+03 -0.37659941974E+02 -0.52030579122E+02  0.19651702010E+03  0.00000000000E+00 0. -1.
          4    1    6    6  503    0  0.73701738710E+01  0.11136393695E+02  0.78796578854E+02  0.79920207498E+02  0.00000000000E+00 0. -1.
         -4    1    6    6    0  503 -0.23123894528E+03  0.12986432073E+03  0.97481788279E+03  0.10102505116E+04  0.00000000000E+00 0.  1.
<mgrwt>
<rscale>  0 0.10113938E+04</rscale>
<asrwt>0</asrwt>
<pdfrwt beam="1">  1        1 0.19110218E+00 0.10113938E+04</pdfrwt>
<pdfrwt beam="2">  1       -2 0.31672929E-01 0.10113938E+04</pdfrwt>
<totfact> 0.80988233E+01</totfact>
</mgrwt>
</event>
<event>
12    5  0.5095719E-008  0.1359277E+04  0.7818608E-02  0.8983835E-01
          1   -1    0    0  501    0  0.00000000000E+00  0.00000000000E+00  0.20000669565E+04  0.20000669565E+04  0.00000000000E+00 0. -1.
         -2   -1    0    0    0  501 -0.00000000000E+00 -0.00000000000E+00 -0.23094637905E+03  0.23094637905E+03  0.00000000000E+00 0.  1.
        -24    2    1    2    0    0  0.19052075424E+03  0.30393802148E+03  0.67961446290E+03  0.77259371079E+03  0.79679012721E+02 0.  0.
        254    2    1    2    0    0 -0.19052075424E+03 -0.30393802148E+03  0.10895061146E+04  0.14584196248E+04  0.90071513230E+03 0.  0.
         23    2    4    4    0    0  0.31349824948E+03 -0.65710597813E+02  0.15642657540E+03  0.36767776624E+03  0.90103447227E+02 0.  0.
         23    2    4    4    0    0 -0.50401900372E+03 -0.23822742367E+03  0.93307953917E+03  0.10907418585E+04  0.91065438385E+02 0.  0.
          1    1    3    3  502    0  0.14890841892E+03  0.23558400688E+03  0.58959582007E+03  0.65214781497E+03  0.00000000000E+00 0. -1.
         -2    1    3    3    0  502  0.41612335324E+02  0.68354014600E+02  0.90018642828E+02  0.12044589582E+03  0.00000000000E+00 0.  1.
         13    1    5    5    0    0  0.64728262386E+00  0.10441224531E+02  0.23301629880E+01  0.10717639855E+02  0.00000000000E+00 0.  1.
        -13    1    5    5    0    0  0.31285096685E+03 -0.76151822344E+02  0.15409641242E+03  0.35696012638E+03  0.00000000000E+00 0. -1.
          3    1    6    6  503    0 -0.43898162279E+03 -0.17067443476E+03  0.77015925985E+03  0.90276237923E+03  0.00000000000E+00 0. -1.
         -3    1    6    6    0  503 -0.65037380930E+02 -0.67552988908E+02  0.16292027932E+03  0.18797947932E+03  0.00000000000E+00 0.  1.
<mgrwt>
<rscale>  0 0.13592766E+04</rscale>
<asrwt>0</asrwt>
<pdfrwt beam="1">  1        1 0.30770260E+00 0.13592766E+04</pdfrwt>
<pdfrwt beam="2">  1       -2 0.35530213E-01 0.13592766E+04</pdfrwt>
<totfact> 0.19063657E+01</totfact>
</mgrwt>
</event>
<event>
12    5  0.5095719E-008  0.1716315E+04  0.7818608E-02  0.8752114E-01
         -2   -1    0    0    0  501 -0.00000000000E+00  0.00000000000E+00  0.71950935048E+03  0.71950935048E+03  0.00000000000E+00 0.  1.
          1   -1    0    0  501    0  0.00000000000E+00 -0.00000000000E+00 -0.10235228642E+04  0.10235228642E+04  0.00000000000E+00 0. -1.
        -24    2    1    2    0    0  0.24391036024E+02  0.12033717511E+03 -0.74004001942E+03  0.75454400326E+03  0.81249394773E+02 0.  0.
        254    2    1    2    0    0 -0.24391036024E+02 -0.12033717511E+03  0.43602650568E+03  0.98848821145E+03  0.87858629181E+03 0.  0.
         23    2    4    4    0    0 -0.11045221252E+03  0.35859022880E+03  0.24389316077E+03  0.45661872623E+03  0.90720140119E+02 0.  0.
         23    2    4    4    0    0  0.86061176497E+02 -0.47892740391E+03  0.19213334491E+03  0.53186948522E+03  0.95874620033E+02 0.  0.
          3    1    3    3  502    0 -0.48437694587E+00  0.10625178906E+03 -0.67748864008E+03  0.68577003050E+03  0.00000000000E+00 0. -1.
         -4    1    3    3    0  502  0.24875412970E+02  0.14085386044E+02 -0.62551379348E+02  0.68773972757E+02  0.00000000000E+00 0.  1.
         13    1    5    5    0    0 -0.87935474206E+02  0.28070118339E+03  0.14266552704E+03  0.32692392783E+03  0.00000000000E+00 0. -1.
        -13    1    5    5    0    0 -0.22516738316E+02  0.77889045411E+02  0.10122763374E+03  0.12969479840E+03  0.00000000000E+00 0.  1.
          3    1    6    6  503    0  0.78263953894E+02 -0.23697203623E+03  0.62519648045E+02  0.25727358750E+03  0.00000000000E+00 0. -1.
         -3    1    6    6    0  503  0.77972226033E+01 -0.24195536768E+03  0.12961369686E+03  0.27459589772E+03  0.00000000000E+00 0.  1.
<mgrwt>
<rscale>  0 0.17163150E+04</rscale>
<asrwt>0</asrwt>
<pdfrwt beam="1">  1        1 0.15746505E+00 0.17163150E+04</pdfrwt>
<pdfrwt beam="2">  1       -2 0.11069375E+00 0.17163150E+04</pdfrwt>
<totfact> 0.78200733E+00</totfact>
</mgrwt>
</event>
<event>
12    5  0.5095719E-008  0.2554753E+04  0.7818608E-02  0.8383735E-01
         -2   -1    0    0    0  501 -0.00000000000E+00  0.00000000000E+00  0.14102246157E+04  0.14102246157E+04  0.00000000000E+00 0.  1.
          1   -1    0    0  501    0  0.00000000000E+00 -0.00000000000E+00 -0.11570435829E+04  0.11570435829E+04  0.00000000000E+00 0. -1.
        -24    2    1    2    0    0 -0.96203964763E+03  0.39563633801E+03 -0.25387476607E+03  0.10735763774E+04  0.77880971351E+02 0.  0.
        254    2    1    2    0    0  0.96203964763E+03 -0.39563633801E+03  0.50705579879E+03  0.14936918212E+04  0.94443701647E+03 0.  0.
         23    2    4    4    0    0  0.68328357241E+03 -0.23940257411E+03 -0.16147243619E+03  0.74723217030E+03  0.89958523045E+02 0.  0.
         23    2    4    4    0    0  0.27875607522E+03 -0.15623376390E+03  0.66852823498E+03  0.74645965091E+03  0.90322040560E+02 0.  0.
          3    1    3    3  502    0 -0.49868108631E+03  0.17144346780E+03 -0.15256672626E+03  0.54895563978E+03  0.00000000000E+00 0. -1.
         -4    1    3    3    0  502 -0.46335856132E+03  0.22419287021E+03 -0.10130803981E+03  0.52462073762E+03  0.00000000000E+00 0.  1.
         13    1    5    5    0    0  0.62605773109E+01  0.63620851951E+01 -0.48158414183E+01  0.10142153857E+02  0.00000000000E+00 0. -1.
        -13    1    5    5    0    0  0.67702299510E+03 -0.24576465931E+03 -0.15665659477E+03  0.73709001644E+03  0.00000000000E+00 0.  1.
          2    1    6    6  503    0  0.46354189726E+00 -0.15959832444E+02  0.12882694524E+02  0.20515724236E+02  0.00000000000E+00 0. -1.
         -2    1    6    6    0  503  0.27829253333E+03 -0.14027393145E+03  0.65564554045E+03  0.72594392667E+03  0.00000000000E+00 0.  1.
<mgrwt>
<rscale>  0 0.25547535E+04</rscale>
<asrwt>0</asrwt>
<pdfrwt beam="1">  1        1 0.17800670E+00 0.25547535E+04</pdfrwt>
<pdfrwt beam="2">  1       -2 0.21695763E+00 0.25547535E+04</pdfrwt>
<totfact> 0.92133442E-01</totfact>
</mgrwt>
</event>
<event>
12    5  0.5095719E-008  0.1334150E+04  0.7818608E-02  0.9002913E-01
          3   -1    0    0  501    0  0.00000000000E+00  0.00000000000E+00  0.79843228298E+03  0.79843228298E+03  0.00000000000E+00 0. -1.
         -4   -1    0    0    0  501 -0.00000000000E+00 -0.00000000000E+00 -0.55732886806E+03  0.55732886806E+03  0.00000000000E+00 0.  1.
        -24    2    1    2    0    0  0.30037644062E+03 -0.20019862218E+03  0.52688278245E+02  0.37395410436E+03  0.82219967772E+02 0.  0.
        254    2    1    2    0    0 -0.30037644062E+03  0.20019862218E+03  0.18841513668E+03  0.98180704668E+03  0.89338643306E+03 0.  0.
         23    2    4    4    0    0 -0.15141484213E+03 -0.34559146301E+03  0.11262045958E+03  0.40429236768E+03  0.91700801150E+02 0.  0.
         23    2    4    4    0    0 -0.14896159850E+03  0.54579008519E+03  0.75794677098E+02  0.57751467900E+03  0.87761019074E+02 0.  0.
          3    1    3    3  502    0  0.27778574404E+03 -0.15152173397E+03  0.48614802342E+02  0.32013614989E+03  0.00000000000E+00 0. -1.
         -4    1    3    3    0  502  0.22590696580E+02 -0.48676888209E+02  0.40734759027E+01  0.53817954473E+02  0.00000000000E+00 0.  1.
         13    1    5    5    0    0 -0.70979772273E+02 -0.13190401408E+03  0.19410731287E+00  0.14978930096E+03  0.00000000000E+00 0. -1.
        -13    1    5    5    0    0 -0.80435069853E+02 -0.21368744892E+03  0.11242635226E+03  0.25450306673E+03  0.00000000000E+00 0.  1.
          1    1    6    6  503    0  0.13990388030E+01  0.11853567537E+03  0.17127030248E+01  0.11855630307E+03  0.00000000000E+00 0. -1.
         -1    1    6    6    0  503 -0.15036063730E+03  0.42725440981E+03  0.74081974073E+02  0.45895837593E+03  0.00000000000E+00 0.  1.
<mgrwt>
<rscale>  0 0.13341505E+04</rscale>
<asrwt>0</asrwt>
<pdfrwt beam="1">  1        3 0.12283574E+00 0.13341505E+04</pdfrwt>
<pdfrwt beam="2">  1       -4 0.85742902E-01 0.13341505E+04</pdfrwt>
<totfact> 0.14181366E+00</totfact>
</mgrwt>
</event>
<event>
12    5  0.5095719E-008  0.2346625E+04  0.7818608E-02  0.8459761E-01
         -2   -1    0    0    0  501 -0.00000000000E+00  0.00000000000E+00  0.24303056021E+04  0.24303056021E+04  0.00000000000E+00 0.  1.
          1   -1    0    0  501    0  0.00000000000E+00 -0.00000000000E+00 -0.56645640191E+03  0.56645640191E+03  0.00000000000E+00 0. -1.
        -24    2    1    2    0    0  0.27288550669E+03  0.94671791665E+03  0.60154493858E+03  0.11570061750E+04  0.77882361892E+02 0.  0.
        254    2    1    2    0    0 -0.27288550669E+03 -0.94671791665E+03  0.12623042616E+04  0.18397558291E+04  0.90584112747E+03 0.  0.
         23    2    4    4    0    0  0.14976048309E+03 -0.75028132419E+03  0.43294192988E+03  0.88386722001E+03  0.91827448114E+02 0.  0.
         23    2    4    4    0    0 -0.42264598978E+03 -0.19643659246E+03  0.82936233176E+03  0.95588860908E+03  0.93081620531E+02 0.  0.
          1    1    3    3  502    0  0.17290993543E+03  0.60674399307E+03  0.34095688327E+03  0.71713856063E+03  0.00000000000E+00 0. -1.
         -4    1    3    3    0  502  0.99975571269E+02  0.33997392358E+03  0.26058805531E+03  0.43986761433E+03  0.00000000000E+00 0.  1.
         13    1    5    5    0    0  0.16045677258E+02 -0.44673719612E+02  0.53862523867E+02  0.71793986238E+02  0.00000000000E+00 0.  1.
        -13    1    5    5    0    0  0.13371480583E+03 -0.70560760458E+03  0.37907940601E+03  0.81207323377E+03  0.00000000000E+00 0. -1.
          1    1    6    6  503    0 -0.23217942141E+03 -0.13722810043E+03  0.55074079538E+03  0.61323263039E+03  0.00000000000E+00 0. -1.
         -1    1    6    6    0  503 -0.19046656838E+03 -0.59208492031E+02  0.27862153638E+03  0.34265597869E+03  0.00000000000E+00 0.  1.
<mgrwt>
<rscale>  0 0.23466250E+04</rscale>
<asrwt>0</asrwt>
<pdfrwt beam="1">  1        1 0.87147140E-01 0.23466250E+04</pdfrwt>
<pdfrwt beam="2">  1       -2 0.37389316E+00 0.23466250E+04</pdfrwt>
<totfact> 0.32193704E-01</totfact>
</mgrwt>
</event>
<event>
12    5  0.5095719E-008  0.3393376E+04  0.7818608E-02  0.8139534E-01
         -2   -1    0    0    0  501 -0.00000000000E+00  0.00000000000E+00  0.13513792392E+04  0.13513792392E+04  0.00000000000E+00 0.  1.
          1   -1    0    0  501    0  0.00000000000E+00 -0.00000000000E+00 -0.21302314192E+04  0.21302314192E+04  0.00000000000E+00 0. -1.
        -24    2    1    2    0    0 -0.70002759142E+03  0.13599042364E+04 -0.74818538871E+03  0.17047401553E+04  0.83543165808E+02 0.  0.
        254    2    1    2    0    0  0.70002759142E+03 -0.13599042364E+04 -0.30666791297E+02  0.17768705031E+04  0.90385295928E+03 0.  0.
         23    2    4    4    0    0  0.65575730397E+03 -0.10009472473E+04 -0.38818746169E+03  0.12606480302E+04  0.81430443392E+02 0.  0.
         23    2    4    4    0    0  0.44270287450E+02 -0.35895698903E+03  0.35752067040E+03  0.51622247288E+03  0.88626369790E+02 0.  0.
          3    1    3    3  502    0 -0.38479226299E+03  0.83666288341E+03 -0.44658918638E+03  0.10234802233E+04  0.00000000000E+00 0. -1.
         -4    1    3    3    0  502 -0.31523532843E+03  0.52324135295E+03 -0.30159620234E+03  0.68125993203E+03  0.00000000000E+00 0.  1.
         13    1    5    5    0    0  0.37202182819E+03 -0.56453306474E+03 -0.17681765282E+03  0.69882923821E+03  0.00000000000E+00 0.  1.
        -13    1    5    5    0    0  0.28373547577E+03 -0.43641418259E+03 -0.21136980887E+03  0.56181879203E+03  0.00000000000E+00 0. -1.
          1    1    6    6  503    0  0.19985447099E+02 -0.34594571462E+02  0.12068588672E+02  0.41735516085E+02  0.00000000000E+00 0. -1.
         -1    1    6    6    0  503  0.24284840351E+02 -0.32436241756E+03  0.34545208173E+03  0.47448695679E+03  0.00000000000E+00 0.  1.
<mgrwt>
<rscale>  0 0.33933762E+04</rscale>
<asrwt>0</asrwt>
<pdfrwt beam="1">  1        1 0.32772791E+00 0.33933762E+04</pdfrwt>
<pdfrwt beam="2">  1       -2 0.20790450E+00 0.33933762E+04</pdfrwt>
<totfact> 0.20785065E-01</totfact>
</mgrwt>
</event>
<event>
12    5  0.5095719E-008  0.1574393E+04  0.7818608E-02  0.8836436E-01
         -2   -1    0    0    0  501 -0.00000000000E+00  0.00000000000E+00  0.31105321692E+03  0.31105321692E+03  0.00000000000E+00 0.  1.
          1   -1    0    0  501    0  0.00000000000E+00 -0.00000000000E+00 -0.19921940853E+04  0.19921940853E+04  0.00000000000E+00 0. -1.
        -24    2    1    2    0    0  0.16715627202E+03  0.43281831520E+03 -0.92219144597E+03  0.10354191724E+04  0.79892967572E+02 0.  0.
        254    2    1    2    0    0 -0.16715627202E+03 -0.43281831520E+03 -0.75894942239E+03  0.12678281298E+04  0.90338863606E+03 0.  0.
         23    2    4    4    0    0  0.17507105312E+03 -0.39352014507E+03 -0.12481105626E+02  0.44054289814E+03  0.91729433047E+02 0.  0.
         23    2    4    4    0    0 -0.34222732514E+03 -0.39298170125E+02 -0.74646831676E+03  0.82728523167E+03  0.92314778695E+02 0.  0.
          3    1    3    3  502    0  0.16366876350E+03  0.33422458214E+03 -0.72970742469E+03  0.81912542452E+03  0.00000000000E+00 0. -1.
         -4    1    3    3    0  502  0.34875085161E+01  0.98593733061E+02 -0.19248402128E+03  0.21629374785E+03  0.00000000000E+00 0.  1.
         13    1    5    5    0    0  0.13949119776E+03 -0.20432430156E+03  0.29132562540E+01  0.24741604945E+03  0.00000000000E+00 0.  1.
        -13    1    5    5    0    0  0.35579855357E+02 -0.18919584351E+03 -0.15394361880E+02  0.19312684870E+03  0.00000000000E+00 0. -1.
          1    1    6    6  503    0 -0.77969365806E+02 -0.11162886387E+02 -0.27521833154E+03  0.28626729128E+03  0.00000000000E+00 0. -1.
         -1    1    6    6    0  503 -0.26425795933E+03 -0.28135283738E+02 -0.47124998522E+03  0.54101794039E+03  0.00000000000E+00 0.  1.
<mgrwt>
<rscale>  0 0.15743931E+04</rscale>
<asrwt>0</asrwt>
<pdfrwt beam="1">  1        1 0.30649140E+00 0.15743931E+04</pdfrwt>
<pdfrwt beam="2">  1       -2 0.47854341E-01 0.15743931E+04</pdfrwt>
<totfact> 0.10540796E+01</totfact>
</mgrwt>
</event>
<event>
12    5  0.5095719E-008  0.1175513E+04  0.7818608E-02  0.9134564E-01
         -2   -1    0    0    0  501 -0.00000000000E+00  0.00000000000E+00  0.82451881652E+03  0.82451881652E+03  0.00000000000E+00 0.  1.
          1   -1    0    0  501    0  0.00000000000E+00 -0.00000000000E+00 -0.41898124094E+03  0.41898124094E+03  0.00000000000E+00 0. -1.
        -24    2    1    2    0    0  0.12785723611E+03 -0.15515891525E+03 -0.16521252762E+02  0.21922179956E+03  0.85810744092E+02 0.  0.
        254    2    1    2    0    0 -0.12785723611E+03  0.15515891525E+03  0.42205882834E+03  0.10242782579E+04  0.91136739750E+03 0.  0.
         23    2    4    4    0    0  0.35050316101E+03 -0.10978959952E+03  0.17858095430E+03  0.41886128690E+03  0.92991388781E+02 0.  0.
         23    2    4    4    0    0 -0.47836039711E+03  0.26494851477E+03  0.24347787405E+03  0.60541697100E+03  0.90674409955E+02 0.  0.
          3    1    3    3  502    0  0.33249533481E+02 -0.98736989437E+02 -0.29561976986E+02  0.10829789953E+03  0.00000000000E+00 0. -1.
         -4    1    3    3    0  502  0.94607702624E+02 -0.56421925816E+02  0.13040724224E+02  0.11092390003E+03  0.00000000000E+00 0.  1.
         13    1    5    5    0    0  0.24610178248E+03 -0.92170962606E+02  0.16923217985E+03  0.31257175878E+03  0.00000000000E+00 0. -1.
        -13    1    5    5    0    0  0.10440137853E+03 -0.17618636915E+02  0.93487744455E+01  0.10628952813E+03  0.00000000000E+00 0.  1.
          1    1    6    6  503    0 -0.42391461364E+03  0.26472396587E+03  0.22242258298E+03  0.54704129934E+03  0.00000000000E+00 0. -1.
         -1    1    6    6    0  503 -0.54445783473E+02  0.22454890348E+00  0.21055291067E+02  0.58375671663E+02  0.00000000000E+00 0.  1.
<mgrwt>
<rscale>  0 0.11755134E+04</rscale>
<asrwt>0</asrwt>
<pdfrwt beam="1">  1        1 0.64458652E-01 0.11755134E+04</pdfrwt>
<pdfrwt beam="2">  1       -2 0.12684905E+00 0.11755134E+04</pdfrwt>
<totfact> 0.22560253E+01</totfact>
</mgrwt>
</event>
<event>
12    5  0.5095719E-008  0.1609039E+04  0.7818608E-02  0.8815014E-01
          1   -1    0    0  501    0  0.00000000000E+00  0.00000000000E+00  0.14350687162E+04  0.14350687162E+04  0.00000000000E+00 0. -1.
         -2   -1    0    0    0  501 -0.00000000000E+00 -0.00000000000E+00 -0.45102506788E+03  0.45102506788E+03  0.00000000000E+00 0.  1.
        -24    2    1    2    0    0  0.50607358010E+03  0.13476545851E+03  0.52164126883E+03  0.74344622432E+03  0.79564299932E+02 0.  0.
        254    2    1    2    0    0 -0.50607358010E+03 -0.13476545851E+03  0.46240237944E+03  0.11426475597E+04  0.90418763979E+03 0.  0.
         23    2    4    4    0    0 -0.27750296490E+03 -0.44290415918E+03  0.52121575531E+03  0.74390617443E+03  0.92512393893E+02 0.  0.
         23    2    4    4    0    0 -0.22857061520E+03  0.30813870068E+03 -0.58813375866E+02  0.39874138530E+03  0.91332875679E+02 0.  0.
          1    1    3    3  502    0  0.48180384762E+03  0.12219350663E+03  0.51408764036E+03  0.71508901727E+03  0.00000000000E+00 0. -1.
         -2    1    3    3    0  502  0.24269732473E+02  0.12571951877E+02  0.75536284654E+01  0.28357207043E+02  0.00000000000E+00 0.  1.
         13    1    5    5    0    0 -0.91871613330E+02 -0.15972751843E+03  0.12470762239E+03  0.22249778553E+03  0.00000000000E+00 0. -1.
        -13    1    5    5    0    0 -0.18563135157E+03 -0.28317664075E+03  0.39650813292E+03  0.52140838890E+03  0.00000000000E+00 0.  1.
          3    1    6    6  503    0 -0.96937952989E+02  0.88557151332E+02  0.15372269886E+02  0.13219547066E+03  0.00000000000E+00 0. -1.
         -3    1    6    6    0  503 -0.13163266221E+03  0.21958154934E+03 -0.74185645753E+02  0.26654591464E+03  0.00000000000E+00 0.  1.
<mgrwt>
<rscale>  0 0.16090394E+04</rscale>
<asrwt>0</asrwt>
<pdfrwt beam="1">  1        1 0.22077980E+00 0.16090394E+04</pdfrwt>
<pdfrwt beam="2">  1       -2 0.69388473E-01 0.16090394E+04</pdfrwt>
<totfact> 0.11572950E+01</totfact>
</mgrwt>
</event>
<event>
12    5  0.5095719E-008  0.1174242E+04  0.7818608E-02  0.9135706E-01
         -2   -1    0    0    0  501 -0.00000000000E+00  0.00000000000E+00  0.23765531784E+03  0.23765531784E+03  0.00000000000E+00 0.  1.
          1   -1    0    0  501    0  0.00000000000E+00 -0.00000000000E+00 -0.14504671981E+04  0.14504671981E+04  0.00000000000E+00 0. -1.
        -24    2    1    2    0    0  0.11101987014E+02  0.19196368999E+03 -0.76163885542E+02  0.22165811323E+03  0.79737502546E+02 0.  0.
        254    2    1    2    0    0 -0.11101987014E+02 -0.19196368999E+03 -0.11366479947E+04  0.14664644027E+04  0.90640822376E+03 0.  0.
         23    2    4    4    0    0  0.33194762455E+03 -0.37320726961E+03 -0.48391338642E+03  0.70157775346E+03  0.92554238466E+02 0.  0.
         23    2    4    4    0    0 -0.34304961157E+03  0.18124357962E+03 -0.65273460829E+03  0.76488664923E+03  0.91961112274E+02 0.  0.
          3    1    3    3  502    0 -0.70033622000E+01  0.38864400417E+01 -0.24499237103E+02  0.25775261724E+02  0.00000000000E+00 0. -1.
         -4    1    3    3    0  502  0.18105349214E+02  0.18807724995E+03 -0.51664648439E+02  0.19588285151E+03  0.00000000000E+00 0.  1.
         13    1    5    5    0    0  0.33802337220E+03 -0.36748546225E+03 -0.47887775262E+03  0.69183037449E+03  0.00000000000E+00 0.  1.
        -13    1    5    5    0    0 -0.60757476470E+01 -0.57218073607E+01 -0.50356337982E+01  0.97473789652E+01  0.00000000000E+00 0. -1.
          4    1    6    6  503    0 -0.14390375424E+03  0.10240960237E+03 -0.22068731150E+03  0.28266394641E+03  0.00000000000E+00 0. -1.
         -4    1    6    6    0  503 -0.19914585733E+03  0.78833977250E+02 -0.43204729679E+03  0.48222270282E+03  0.00000000000E+00 0.  1.
<mgrwt>
<rscale>  0 0.11742423E+04</rscale>
<asrwt>0</asrwt>
<pdfrwt beam="1">  1        1 0.22314880E+00 0.11742423E+04</pdfrwt>
<pdfrwt beam="2">  1       -2 0.36562356E-01 0.11742423E+04</pdfrwt>
<totfact> 0.43389912E+01</totfact>
</mgrwt>
</event>
<event>
12    5  0.5095719E-008  0.1751068E+04  0.7818608E-02  0.8732763E-01
         -2   -1    0    0    0  501 -0.00000000000E+00  0.00000000000E+00  0.44176787347E+03  0.44176787347E+03  0.00000000000E+00 0.  1.
          1   -1    0    0  501    0  0.00000000000E+00 -0.00000000000E+00 -0.17352098097E+04  0.17352098097E+04  0.00000000000E+00 0. -1.
        -24    2    1    2    0    0 -0.32583964613E+03  0.46093503863E+03 -0.94305113304E+03  0.11017154302E+04  0.76150277925E+02 0.  0.
        254    2    1    2    0    0  0.32583964613E+03 -0.46093503863E+03 -0.35039080317E+03  0.10752622529E+04  0.84544817274E+03 0.  0.
         23    2    4    4    0    0 -0.18235734199E+03 -0.27206737999E+03 -0.39732870384E+03  0.52358130162E+03  0.94828376971E+02 0.  0.
         23    2    4    4    0    0  0.50819698812E+03 -0.18886765864E+03  0.46937900677E+02  0.55168095130E+03  0.90628551184E+02 0.  0.
          1    1    3    3  502    0 -0.28055518887E+03  0.40841818244E+03 -0.77427576695E+03  0.91924947051E+03  0.00000000000E+00 0. -1.
         -2    1    3    3    0  502 -0.45284457259E+02  0.52516856194E+02 -0.16877536609E+03  0.18246595971E+03  0.00000000000E+00 0.  1.
         13    1    5    5    0    0 -0.37874192702E+02 -0.95365739696E+02 -0.68791348800E+02  0.12353674939E+03  0.00000000000E+00 0. -1.
        -13    1    5    5    0    0 -0.14448314929E+03 -0.17670164029E+03 -0.32853735504E+03  0.40004455223E+03  0.00000000000E+00 0.  1.
          3    1    6    6  503    0  0.12026242526E+03 -0.70246776665E+01 -0.17822552772E+01  0.12048059371E+03  0.00000000000E+00 0. -1.
         -3    1    6    6    0  503  0.38793456286E+03 -0.18184298097E+03  0.48720155955E+02  0.43120035759E+03  0.00000000000E+00 0.  1.
<mgrwt>
<rscale>  0 0.17510682E+04</rscale>
<asrwt>0</asrwt>
<pdfrwt beam="1">  1        1 0.26695536E+00 0.17510682E+04</pdfrwt>
<pdfrwt beam="2">  1       -2 0.67964287E-01 0.17510682E+04</pdfrwt>
<totfact> 0.74357558E+00</totfact>
</mgrwt>
</event>
<event>
12    5  0.5095719E-008  0.1300620E+04  0.7818608E-02  0.9029073E-01
          1   -1    0    0  501    0  0.00000000000E+00  0.00000000000E+00  0.88839288214E+03  0.88839288214E+03  0.00000000000E+00 0. -1.
         -2   -1    0    0    0  501 -0.00000000000E+00 -0.00000000000E+00 -0.47603192655E+03  0.47603192655E+03  0.00000000000E+00 0.  1.
        -24    2    1    2    0    0  0.35408786360E+02  0.42810677466E+02  0.46203392541E+03  0.47230715746E+03  0.80697995630E+02 0.  0.
        254    2    1    2    0    0 -0.35408786360E+02 -0.42810677466E+02 -0.49672969822E+02  0.89211765123E+03  0.88899941701E+03 0.  0.
         23    2    4    4    0    0 -0.41176514569E+03 -0.96719782454E+02  0.14309431222E+03  0.45633322518E+03  0.94121085243E+02 0.  0.
         23    2    4    4    0    0  0.37635635933E+03  0.53909104988E+02 -0.19276728205E+03  0.43578442606E+03  0.90545790401E+02 0.  0.
          3    1    3    3  502    0  0.43531553008E+02  0.51728794239E+02  0.45074093049E+03  0.45578311803E+03  0.00000000000E+00 0. -1.
         -4    1    3    3    0  502 -0.81227666481E+01 -0.89181167732E+01  0.11292994923E+02  0.16524039431E+02  0.00000000000E+00 0.  1.
         13    1    5    5    0    0 -0.75087491664E+02  0.45092316259E+01 -0.37848966316E+01  0.75317926264E+02  0.00000000000E+00 0. -1.
        -13    1    5    5    0    0 -0.33667765402E+03 -0.10122901408E+03  0.14687920886E+03  0.38101529891E+03  0.00000000000E+00 0.  1.
          4    1    6    6  503    0  0.32224886804E+03  0.23642673294E+02 -0.18746873842E+03  0.37356102157E+03  0.00000000000E+00 0.  1.
         -4    1    6    6    0  503  0.54107491289E+02  0.30266431694E+02 -0.52985436234E+01  0.62223404484E+02  0.00000000000E+00 0. -1.
<mgrwt>
<rscale>  0 0.13006204E+04</rscale>
<asrwt>0</asrwt>
<pdfrwt beam="1">  1        1 0.13667583E+00 0.13006204E+04</pdfrwt>
<pdfrwt beam="2">  1       -2 0.73235681E-01 0.13006204E+04</pdfrwt>
<totfact> 0.26963608E+01</totfact>
</mgrwt>
</event>
<event>
12    5  0.5095719E-008  0.2089313E+04  0.7818608E-02  0.8565966E-01
          1   -1    0    0  501    0  0.00000000000E+00  0.00000000000E+00  0.30528255608E+04  0.30528255608E+04  0.00000000000E+00 0. -1.
         -2   -1    0    0    0  501 -0.00000000000E+00 -0.00000000000E+00 -0.35747430385E+03  0.35747430385E+03  0.00000000000E+00 0.  1.
        -24    2    1    2    0    0 -0.67886580286E+03 -0.18599845792E+03  0.18711989426E+04  0.20008085689E+04  0.79970257175E+02 0.  0.
        254    2    1    2    0    0  0.67886580286E+03  0.18599845792E+03  0.82415231441E+03  0.14094912958E+04  0.90110180939E+03 0.  0.
         23    2    4    4    0    0  0.55268137392E+03 -0.29833179199E+03  0.44499458340E+03  0.77494645027E+03  0.89795669947E+02 0.  0.
         23    2    4    4    0    0  0.12618442894E+03  0.48433024992E+03  0.37915773100E+03  0.63454484551E+03  0.91587525831E+02 0.  0.
          1    1    3    3  502    0 -0.59479536274E+03 -0.14371996976E+03  0.16732825054E+04  0.17816597027E+04  0.00000000000E+00 0. -1.
         -2    1    3    3    0  502 -0.84070440120E+02 -0.42278488167E+02  0.19791643716E+03  0.21914886621E+03  0.00000000000E+00 0.  1.
         13    1    5    5    0    0 -0.25382688104E+01 -0.43223427747E+01  0.87384638617E+01  0.10074036246E+02  0.00000000000E+00 0.  1.
        -13    1    5    5    0    0  0.55521964273E+03 -0.29400944922E+03  0.43625611954E+03  0.76487241403E+03  0.00000000000E+00 0. -1.
          2    1    6    6  503    0  0.13224578920E+03  0.48286616860E+03  0.37960928850E+03  0.62829284371E+03  0.00000000000E+00 0. -1.
         -2    1    6    6    0  503 -0.60613602618E+01  0.14640813172E+01 -0.45155749465E+00  0.62520017992E+01  0.00000000000E+00 0.  1.
<mgrwt>
<rscale>  0 0.20893125E+04</rscale>
<asrwt>0</asrwt>
<pdfrwt beam="1">  1        1 0.46966545E+00 0.20893125E+04</pdfrwt>
<pdfrwt beam="2">  1       -2 0.54996049E-01 0.20893125E+04</pdfrwt>
<totfact> 0.13773898E+00</totfact>
</mgrwt>
</event>
<event>
12    5  0.5095719E-008  0.1729586E+04  0.7818608E-02  0.8744668E-01
         -2   -1    0    0    0  501 -0.00000000000E+00  0.00000000000E+00  0.48685894178E+03  0.48685894178E+03  0.00000000000E+00 0.  1.
          1   -1    0    0  501    0  0.00000000000E+00 -0.00000000000E+00 -0.15361067621E+04  0.15361067621E+04  0.00000000000E+00 0. -1.
        -24    2    1    2    0    0 -0.32052188247E+03  0.53927027016E+03 -0.56872111944E+03  0.85057118064E+03  0.80504162706E+02 0.  0.
        254    2    1    2    0    0  0.32052188247E+03 -0.53927027016E+03 -0.48052670088E+03  0.11723945232E+04  0.86605791173E+03 0.  0.
         23    2    4    4    0    0  0.45749942827E+03 -0.67901991778E+03 -0.48573299235E+03  0.95633902553E+03  0.90961619816E+02 0.  0.
         23    2    4    4    0    0 -0.13697754580E+03  0.13974964763E+03  0.52062914678E+01  0.21605549772E+03  0.91433366773E+02 0.  0.
          3    1    3    3  502    0 -0.21586688990E+03  0.31947575233E+03 -0.30456071178E+03  0.49134559898E+03  0.00000000000E+00 0. -1.
         -2    1    3    3    0  502 -0.10465499257E+03  0.21979451783E+03 -0.26416040767E+03  0.35922558165E+03  0.00000000000E+00 0.  1.
         13    1    5    5    0    0  0.15205741010E+03 -0.26828518279E+03 -0.14008858334E+03  0.33870814348E+03  0.00000000000E+00 0. -1.
        -13    1    5    5    0    0  0.30544201817E+03 -0.41073473499E+03 -0.34564440900E+03  0.61763088205E+03  0.00000000000E+00 0.  1.
          4    1    6    6  503    0 -0.12698990886E+03  0.12725411612E+03  0.34143303089E+02  0.18299128987E+03  0.00000000000E+00 0.  1.
         -4    1    6    6    0  503 -0.99876369380E+01  0.12495531504E+02 -0.28937011621E+02  0.33064207850E+02  0.00000000000E+00 0. -1.
<mgrwt>
<rscale>  0 0.17295864E+04</rscale>
<asrwt>0</asrwt>
<pdfrwt beam="1">  1        1 0.23632412E+00 0.17295864E+04</pdfrwt>
<pdfrwt beam="2">  1       -2 0.74901376E-01 0.17295864E+04</pdfrwt>
<totfact> 0.82387908E+00</totfact>
</mgrwt>
</event>
<event>
12    5  0.5095719E-008  0.2615352E+04  0.7818608E-02  0.8363005E-01
          1   -1    0    0  501    0  0.00000000000E+00  0.00000000000E+00  0.24430859393E+04  0.24430859393E+04  0.00000000000E+00 0. -1.
         -2   -1    0    0    0  501 -0.00000000000E+00 -0.00000000000E+00 -0.69994117775E+03  0.69994117775E+03  0.00000000000E+00 0.  1.
        -24    2    1    2    0    0 -0.16752267031E+03  0.16511836798E+03  0.21180931986E+04  0.21326273326E+04  0.80328208924E+02 0.  0.
        254    2    1    2    0    0  0.16752267031E+03 -0.16511836798E+03 -0.37494843703E+03  0.10103997845E+04  0.90829151354E+03 0.  0.
         23    2    4    4    0    0 -0.17726428802E+03 -0.15537493803E+03 -0.55596019763E+03  0.61039603698E+03  0.89036966655E+02 0.  0.
         23    2    4    4    0    0  0.34478695833E+03 -0.97434299558E+01  0.18101176060E+03  0.40000374752E+03  0.90910722669E+02 0.  0.
          3    1    3    3  502    0 -0.27666146707E+02  0.76745410352E+02  0.81550349214E+03  0.81957380349E+03  0.00000000000E+00 0. -1.
         -4    1    3    3    0  502 -0.13985652360E+03  0.88372957630E+02  0.13025897065E+04  0.13130535291E+04  0.00000000000E+00 0.  1.
         13    1    5    5    0    0 -0.16175429659E+03 -0.12240877773E+03 -0.52413965098E+03  0.56202378514E+03  0.00000000000E+00 0. -1.
        -13    1    5    5    0    0 -0.15509991423E+02 -0.32966160296E+02 -0.31820546655E+02  0.48372251840E+02  0.00000000000E+00 0.  1.
          1    1    6    6  503    0  0.31533210950E+03 -0.24201277856E+02  0.13590207346E+03  0.34422291427E+03  0.00000000000E+00 0. -1.
         -1    1    6    6    0  503  0.29454848824E+02  0.14457847901E+02  0.45109687138E+02  0.55780833257E+02  0.00000000000E+00 0.  1.
<mgrwt>
<rscale>  0 0.26153519E+04</rscale>
<asrwt>0</asrwt>
<pdfrwt beam="1">  1        1 0.37585937E+00 0.26153519E+04</pdfrwt>
<pdfrwt beam="2">  1       -2 0.10768326E+00 0.26153519E+04</pdfrwt>
<totfact> 0.79342276E-01</totfact>
</mgrwt>
</event>
<event>
12    5  0.5095719E-008  0.1576652E+04  0.7818608E-02  0.8835021E-01
          1   -1    0    0  501    0  0.00000000000E+00  0.00000000000E+00  0.13284306266E+04  0.13284306266E+04  0.00000000000E+00 0. -1.
         -2   -1    0    0    0  501 -0.00000000000E+00 -0.00000000000E+00 -0.46781372748E+03  0.46781372748E+03  0.00000000000E+00 0.  1.
        -24    2    1    2    0    0  0.50191021472E+03  0.15916560882E+03  0.32199606824E+03  0.62175336199E+03  0.75154643961E+02 0.  0.
        254    2    1    2    0    0 -0.50191021472E+03 -0.15916560882E+03  0.53862083091E+03  0.11744909921E+04  0.90114878707E+03 0.  0.
         23    2    4    4    0    0 -0.59464292610E+03  0.11836553335E+03  0.60417598589E+03  0.86086051159E+03  0.91878122792E+02 0.  0.
         23    2    4    4    0    0  0.92732711378E+02 -0.27753114218E+03 -0.65555154977E+02  0.31363048055E+03  0.91889658541E+02 0.  0.
          3    1    3    3  502    0  0.34254849337E+03  0.93400017095E+02  0.17823335909E+03  0.39727844617E+03  0.00000000000E+00 0. -1.
         -4    1    3    3    0  502  0.15936172135E+03  0.65765591728E+02  0.14376270915E+03  0.22447491581E+03  0.00000000000E+00 0.  1.
         13    1    5    5    0    0 -0.48412082545E+03  0.74052345243E+02  0.44235489383E+03  0.65995043417E+03  0.00000000000E+00 0.  1.
        -13    1    5    5    0    0 -0.11052210064E+03  0.44313188109E+02  0.16182109206E+03  0.20091007742E+03  0.00000000000E+00 0. -1.
          3    1    6    6  503    0  0.11589561751E+02 -0.79854204753E+02  0.20525759214E+02  0.83260547377E+02  0.00000000000E+00 0. -1.
         -3    1    6    6    0  503  0.81143149627E+02 -0.19767693742E+03 -0.86080914191E+02  0.23036993317E+03  0.00000000000E+00 0.  1.
<mgrwt>
<rscale>  0 0.15766523E+04</rscale>
<asrwt>0</asrwt>
<pdfrwt beam="1">  1        1 0.20437394E+00 0.15766523E+04</pdfrwt>
<pdfrwt beam="2">  1       -2 0.71971344E-01 0.15766523E+04</pdfrwt>
<totfact> 0.12734114E+01</totfact>
</mgrwt>
</event>
<event>
12    5  0.5095719E-008  0.2123187E+04  0.7818608E-02  0.8551097E-01
          1   -1    0    0  501    0  0.00000000000E+00  0.00000000000E+00  0.26676609461E+04  0.26676609461E+04  0.00000000000E+00 0. -1.
         -2   -1    0    0    0  501 -0.00000000000E+00 -0.00000000000E+00 -0.42246042259E+03  0.42246042259E+03  0.00000000000E+00 0.  1.
        -24    2    1    2    0    0 -0.62479527730E+03  0.46238275952E+03  0.36181644618E+03  0.86121467949E+03  0.81318070569E+02 0.  0.
        254    2    1    2    0    0  0.62479527730E+03 -0.46238275952E+03  0.18833840773E+04  0.22289066892E+04  0.90372700060E+03 0.  0.
         23    2    4    4    0    0 -0.44805094847E+02 -0.22117666623E+03  0.12426077442E+04  0.12662037971E+04  0.90947433223E+02 0.  0.
         23    2    4    4    0    0  0.66960037215E+03 -0.24120609329E+03  0.64077633311E+03  0.96270289209E+03  0.98272638888E+02 0.  0.
          3    1    3    3  502    0 -0.52956676998E+02  0.30643143802E+02  0.67771194481E+01  0.61557625432E+02  0.00000000000E+00 0. -1.
         -4    1    3    3    0  502 -0.57183860030E+03  0.43173961572E+03  0.35503932673E+03  0.79965705406E+03  0.00000000000E+00 0.  1.
         13    1    5    5    0    0 -0.62881869637E+02 -0.18188153977E+03  0.86627844018E+03  0.88739695738E+03  0.00000000000E+00 0. -1.
        -13    1    5    5    0    0  0.18076774790E+02 -0.39295126463E+02  0.37632930405E+03  0.37880683975E+03  0.00000000000E+00 0.  1.
          3    1    6    6  503    0  0.45180212612E+03 -0.18474211014E+03  0.49145637117E+03  0.69266454593E+03  0.00000000000E+00 0. -1.
         -3    1    6    6    0  503  0.21779824603E+03 -0.56463983148E+02  0.14931996194E+03  0.27003834616E+03  0.00000000000E+00 0.  1.
<mgrwt>
<rscale>  0 0.21231874E+04</rscale>
<asrwt>0</asrwt>
<pdfrwt beam="1">  1        1 0.41040936E+00 0.21231874E+04</pdfrwt>
<pdfrwt beam="2">  1       -2 0.64993913E-01 0.21231874E+04</pdfrwt>
<totfact> 0.18222644E+00</totfact>
</mgrwt>
</event>
<event>
12    5  0.5095719E-008  0.1345263E+04  0.7818608E-02  0.8994422E-01
         -2   -1    0    0    0  501 -0.00000000000E+00  0.00000000000E+00  0.10438800483E+04  0.10438800483E+04  0.00000000000E+00 0.  1.
          1   -1    0    0  501    0  0.00000000000E+00 -0.00000000000E+00 -0.43341458888E+03  0.43341458888E+03  0.00000000000E+00 0. -1.
        -24    2    1    2    0    0 -0.14568647590E+03  0.29821576262E+03  0.58407135461E+00  0.34084868911E+03  0.77590575411E+02 0.  0.
        254    2    1    2    0    0  0.14568647590E+03 -0.29821576262E+03  0.60988138807E+03  0.11364459481E+04  0.89966487930E+03 0.  0.
         23    2    4    4    0    0  0.20156266260E+03 -0.49745235199E+03  0.68070828217E+02  0.54883079778E+03  0.92169721102E+02 0.  0.
         23    2    4    4    0    0 -0.55876186697E+02  0.19923658936E+03  0.54181055986E+03  0.58761515029E+03  0.94422006438E+02 0.  0.
          3    1    3    3  502    0 -0.87773442185E+02  0.18685375687E+03 -0.37193970227E+02  0.20976628669E+03  0.00000000000E+00 0. -1.
         -4    1    3    3    0  502 -0.57913033716E+02  0.11136200575E+03  0.37778041582E+02  0.13108240242E+03  0.00000000000E+00 0.  1.
         13    1    5    5    0    0  0.84525769725E+02 -0.10385304830E+03  0.20209969879E+02  0.13541973369E+03  0.00000000000E+00 0.  1.
        -13    1    5    5    0    0  0.11703689287E+03 -0.39359930369E+03  0.47860858339E+02  0.41341106410E+03  0.00000000000E+00 0. -1.
          1    1    6    6  503    0 -0.67885868259E+02  0.69514682055E+02  0.22898416490E+03  0.24874591435E+03  0.00000000000E+00 0. -1.
         -1    1    6    6    0  503  0.12009681562E+02  0.12972190731E+03  0.31282639496E+03  0.33886923595E+03  0.00000000000E+00 0.  1.
<mgrwt>
<rscale>  0 0.13452626E+04</rscale>
<asrwt>0</asrwt>
<pdfrwt beam="1">  1        1 0.66679168E-01 0.13452626E+04</pdfrwt>
<pdfrwt beam="2">  1       -2 0.16059693E+00 0.13452626E+04</pdfrwt>
<totfact> 0.11484590E+01</totfact>
</mgrwt>
</event>
<event>
12    5  0.5095719E-008  0.1431718E+04  0.7818608E-02  0.8931174E-01
          1   -1    0    0  501    0  0.00000000000E+00  0.00000000000E+00  0.23400496873E+04  0.23400496873E+04  0.00000000000E+00 0. -1.
         -2   -1    0    0    0  501 -0.00000000000E+00 -0.00000000000E+00 -0.21899289051E+03  0.21899289051E+03  0.00000000000E+00 0.  1.
        -24    2    1    2    0    0  0.16808176377E+03 -0.21604465442E+03  0.11647792560E+04  0.11992651635E+04  0.81236969168E+02 0.  0.
        254    2    1    2    0    0 -0.16808176377E+03  0.21604465442E+03  0.95627754075E+03  0.13597774143E+04  0.92714675722E+03 0.  0.
         23    2    4    4    0    0  0.26019521439E+03  0.23367997472E+03  0.82740106391E+03  0.90307149332E+03  0.92939342080E+02 0.  0.
         23    2    4    4    0    0 -0.42827697816E+03 -0.17635320292E+02  0.12887647684E+03  0.45670592097E+03  0.90768813043E+02 0.  0.
          1    1    3    3  502    0  0.11020994414E+03 -0.76045748033E+02  0.56522377311E+03  0.58086754193E+03  0.00000000000E+00 0. -1.
         -2    1    3    3    0  502  0.57871819629E+02 -0.13999890639E+03  0.59955548289E+03  0.61839762157E+03  0.00000000000E+00 0.  1.
         13    1    5    5    0    0  0.35210281887E+02  0.27643593845E+02  0.45804103960E+02  0.64046453225E+02  0.00000000000E+00 0. -1.
        -13    1    5    5    0    0  0.22498493250E+03  0.20603638087E+03  0.78159695995E+03  0.83902504009E+03  0.00000000000E+00 0.  1.
          3    1    6    6  503    0 -0.67919465227E+02  0.29693654106E+02  0.30656676204E+02  0.80215950077E+02  0.00000000000E+00 0. -1.
         -3    1    6    6    0  503 -0.36035751293E+03 -0.47328974398E+02  0.98219800639E+02  0.37648997089E+03  0.00000000000E+00 0.  1.
<mgrwt>
<rscale>  0 0.14317182E+04</rscale>
<asrwt>0</asrwt>
<pdfrwt beam="1">  1        1 0.36000763E+00 0.14317182E+04</pdfrwt>
<pdfrwt beam="2">  1       -2 0.33691216E-01 0.14317182E+04</pdfrwt>
<totfact> 0.12320235E+01</totfact>
</mgrwt>
</event>
<event>
12    5  0.5095719E-008  0.3380707E+04  0.7818608E-02  0.8142658E-01
          1   -1    0    0  501    0  0.00000000000E+00  0.00000000000E+00  0.22507824370E+04  0.22507824370E+04  0.00000000000E+00 0. -1.
         -2   -1    0    0    0  501 -0.00000000000E+00 -0.00000000000E+00 -0.12694673630E+04  0.12694673630E+04  0.00000000000E+00 0.  1.
        -24    2    1    2    0    0 -0.78598606794E+03 -0.10317707414E+04  0.13723265873E+04  0.18900447777E+04  0.81633558234E+02 0.  0.
        254    2    1    2    0    0  0.78598606794E+03  0.10317707414E+04 -0.39101151328E+03  0.16302050224E+04  0.90683705797E+03 0.  0.
         23    2    4    4    0    0  0.18677856090E+03  0.94665903655E+03 -0.27614581860E+03  0.10077817641E+04  0.91203117933E+02 0.  0.
         23    2    4    4    0    0  0.59920750705E+03  0.85111704800E+02 -0.11486569468E+03  0.62242325821E+03  0.89010930551E+02 0.  0.
          1    1    3    3  502    0 -0.45425055757E+03 -0.62216716452E+03  0.86805223972E+03  0.11605818543E+04  0.00000000000E+00 0. -1.
         -2    1    3    3    0  502 -0.33173551037E+03 -0.40960357683E+03  0.50427434757E+03  0.72946292340E+03  0.00000000000E+00 0.  1.
         13    1    5    5    0    0  0.51490577132E+01  0.10033400482E+01  0.17737378162E+01  0.55376558603E+01  0.00000000000E+00 0.  1.
        -13    1    5    5    0    0  0.18162950318E+03  0.94565569650E+03 -0.27791955642E+03  0.10022441083E+04  0.00000000000E+00 0. -1.
          2    1    6    6  503    0  0.38071408057E+03  0.58849053234E+02 -0.11611197900E+03  0.40235359310E+03  0.00000000000E+00 0.  1.
         -2    1    6    6    0  503  0.21849342647E+03  0.26262651566E+02  0.12462843182E+01  0.22006966511E+03  0.00000000000E+00 0. -1.
<mgrwt>
<rscale>  0 0.33807069E+04</rscale>
<asrwt>0</asrwt>
<pdfrwt beam="1">  1        1 0.34627422E+00 0.33807069E+04</pdfrwt>
<pdfrwt beam="2">  1       -2 0.19530267E+00 0.33807069E+04</pdfrwt>
<totfact> 0.20825348E-01</totfact>
</mgrwt>
</event>
<event>
12    5  0.5095719E-008  0.1491847E+04  0.7818608E-02  0.8889893E-01
          1   -1    0    0  501    0  0.00000000000E+00  0.00000000000E+00  0.10498489548E+04  0.10498489548E+04  0.00000000000E+00 0. -1.
         -2   -1    0    0    0  501 -0.00000000000E+00 -0.00000000000E+00 -0.52998246610E+03  0.52998246610E+03  0.00000000000E+00 0.  1.
        -24    2    1    2    0    0  0.71736684607E+02  0.13093020235E+03 -0.30443695378E+03  0.34904818934E+03  0.82848716620E+02 0.  0.
        254    2    1    2    0    0 -0.71736684607E+02 -0.13093020235E+03  0.82430344253E+03  0.12307832316E+04  0.90169968840E+03 0.  0.
         23    2    4    4    0    0 -0.36375432188E+03 -0.34535589548E+03  0.31698214675E+03  0.60087919881E+03  0.94816817989E+02 0.  0.
         23    2    4    4    0    0  0.29201763727E+03  0.21442569313E+03  0.50732129577E+03  0.62990403281E+03  0.90285741131E+02 0.  0.
          3    1    3    3  502    0  0.10968243036E+02  0.65606986048E+02 -0.62850093084E+02  0.91513458979E+02  0.00000000000E+00 0. -1.
         -4    1    3    3    0  502  0.60768441571E+02  0.65323216305E+02 -0.24158686070E+03  0.25753473036E+03  0.00000000000E+00 0.  1.
         13    1    5    5    0    0 -0.26097130023E+03 -0.26612333127E+03  0.18626303065E+03  0.41667920943E+03  0.00000000000E+00 0.  1.
        -13    1    5    5    0    0 -0.10278302165E+03 -0.79232564215E+02  0.13071911610E+03  0.18419998938E+03  0.00000000000E+00 0. -1.
          1    1    6    6  503    0  0.82559445530E+02  0.55601284688E+02  0.77817557029E+02  0.12634530892E+03  0.00000000000E+00 0. -1.
         -1    1    6    6    0  503  0.20945819174E+03  0.15882440844E+03  0.42950373874E+03  0.50355872388E+03  0.00000000000E+00 0.  1.
<mgrwt>
<rscale>  0 0.14918466E+04</rscale>
<asrwt>0</asrwt>
<pdfrwt beam="1">  1        1 0.16151522E+00 0.14918466E+04</pdfrwt>
<pdfrwt beam="2">  1       -2 0.81535764E-01 0.14918466E+04</pdfrwt>
<totfact> 0.15558814E+01</totfact>
</mgrwt>
</event>
<event>
12    5  0.5095719E-008  0.1708709E+04  0.7818608E-02  0.8756413E-01
         -2   -1    0    0    0  501 -0.00000000000E+00  0.00000000000E+00  0.66352747490E+03  0.66352747490E+03  0.00000000000E+00 0.  1.
          1   -1    0    0  501    0  0.00000000000E+00 -0.00000000000E+00 -0.11000629377E+04  0.11000629377E+04  0.00000000000E+00 0. -1.
        -24    2    1    2    0    0  0.35768060796E+03  0.24643251452E+03 -0.60309861326E+03  0.74724721063E+03  0.77369599586E+02 0.  0.
        254    2    1    2    0    0 -0.35768060796E+03 -0.24643251452E+03  0.16656315050E+03  0.10163432019E+04  0.90362924891E+03 0.  0.
         23    2    4    4    0    0 -0.21606398635E+03  0.25559827305E+03  0.31228684989E+03  0.46702426468E+03  0.92598400642E+02 0.  0.
         23    2    4    4    0    0 -0.14161662161E+03 -0.50203078758E+03 -0.14572369939E+03  0.54931893725E+03  0.91791715685E+02 0.  0.
          1    1    3    3  502    0  0.35475051796E+03  0.23429906701E+03 -0.59809504440E+03  0.73379947188E+03  0.00000000000E+00 0. -1.
         -2    1    3    3    0  502  0.29300900017E+01  0.12133447514E+02 -0.50035688630E+01  0.13447738745E+02  0.00000000000E+00 0.  1.
         13    1    5    5    0    0 -0.13291054620E+03  0.85836794554E+02  0.14376435776E+03  0.21377876217E+03  0.00000000000E+00 0.  1.
        -13    1    5    5    0    0 -0.83153440151E+02  0.16976147850E+03  0.16852249213E+03  0.25324550252E+03  0.00000000000E+00 0. -1.
          3    1    6    6  503    0 -0.13327310410E+02 -0.60441007985E+02 -0.50113182529E+02  0.79637074985E+02  0.00000000000E+00 0. -1.
         -3    1    6    6    0  503 -0.12828931120E+03 -0.44158977959E+03 -0.95610516862E+02  0.46968186227E+03  0.00000000000E+00 0.  1.
<mgrwt>
<rscale>  0 0.17087094E+04</rscale>
<asrwt>0</asrwt>
<pdfrwt beam="1">  1        1 0.16924045E+00 0.17087094E+04</pdfrwt>
<pdfrwt beam="2">  1       -2 0.10208115E+00 0.17087094E+04</pdfrwt>
<totfact> 0.83137415E+00</totfact>
</mgrwt>
</event>
<event>
12    5  0.5095719E-008  0.2990512E+04  0.7818608E-02  0.8246445E-01
          1   -1    0    0  501    0  0.00000000000E+00  0.00000000000E+00  0.26755251071E+04  0.26755251071E+04  0.00000000000E+00 0. -1.
         -2   -1    0    0    0  501 -0.00000000000E+00 -0.00000000000E+00 -0.83564551712E+03  0.83564551712E+03  0.00000000000E+00 0.  1.
        -24    2    1    2    0    0  0.88210812866E+03 -0.25039804343E+03  0.20103175775E+04  0.22113452518E+04  0.88640450286E+02 0.  0.
        254    2    1    2    0    0 -0.88210812866E+03  0.25039804343E+03 -0.17043798750E+03  0.12998253724E+04  0.90536344108E+03 0.  0.
         23    2    4    4    0    0 -0.10484752945E+04  0.12491190625E+03 -0.11809064028E+03  0.10660222235E+04  0.86916938005E+02 0.  0.
         23    2    4    4    0    0  0.16636716582E+03  0.12548613717E+03 -0.52347347226E+02  0.23380314898E+03  0.92189279340E+02 0.  0.
          1    1    3    3  502    0  0.75887860047E+03 -0.20592468822E+03  0.17885976226E+04  0.19538124688E+04  0.00000000000E+00 0. -1.
         -2    1    3    3    0  502  0.12322952819E+03 -0.44473355205E+02  0.22171995487E+03  0.25753278302E+03  0.00000000000E+00 0.  1.
         13    1    5    5    0    0 -0.61728488134E+02  0.12296203819E+02 -0.27693677710E+02  0.68764399661E+02  0.00000000000E+00 0. -1.
        -13    1    5    5    0    0 -0.98674680635E+03  0.11261570244E+03 -0.90396962567E+02  0.99725782380E+03  0.00000000000E+00 0.  1.
          1    1    6    6  503    0  0.17542885472E+02  0.12529885075E+02 -0.41363537130E+02  0.46644324999E+02  0.00000000000E+00 0. -1.
         -1    1    6    6    0  503  0.14882428035E+03  0.11295625210E+03 -0.10983810096E+02  0.18715882398E+03  0.00000000000E+00 0.  1.
<mgrwt>
<rscale>  0 0.29905120E+04</rscale>
<asrwt>0</asrwt>
<pdfrwt beam="1">  1        1 0.41161924E+00 0.29905120E+04</pdfrwt>
<pdfrwt beam="2">  1       -2 0.12856085E+00 0.29905120E+04</pdfrwt>
<totfact> 0.34172122E-01</totfact>
</mgrwt>
</event>
<event>
12    5  0.5095719E-008  0.1822910E+04  0.7818608E-02  0.8694210E-01
         -2   -1    0    0    0  501 -0.00000000000E+00  0.00000000000E+00  0.48712782744E+03  0.48712782744E+03  0.00000000000E+00 0.  1.
          1   -1    0    0  501    0  0.00000000000E+00 -0.00000000000E+00 -0.17054046723E+04  0.17054046723E+04  0.00000000000E+00 0. -1.
        -24    2    1    2    0    0  0.60604906222E+02  0.27215265918E+02  0.35595602911E+03  0.37060457169E+03  0.78926728966E+02 0.  0.
        254    2    1    2    0    0 -0.60604906222E+02 -0.27215265918E+02 -0.15742328740E+04  0.18219279280E+04  0.91476696930E+03 0.  0.
         23    2    4    4    0    0 -0.25897738747E+03  0.32782725771E+03 -0.11519554464E+04  0.12286744904E+04  0.89998081953E+02 0.  0.
         23    2    4    4    0    0  0.19837248124E+03 -0.35504252362E+03 -0.42227742756E+03  0.59325343763E+03  0.90689473141E+02 0.  0.
          3    1    3    3  502    0 -0.11159564468E+02  0.17439364435E+02  0.28453849454E+02  0.35189328777E+02  0.00000000000E+00 0. -1.
         -4    1    3    3    0  502  0.71764470690E+02  0.97759014824E+01  0.32750217965E+03  0.33541524292E+03  0.00000000000E+00 0.  1.
         13    1    5    5    0    0 -0.18991052615E+03  0.29511865481E+03 -0.94562806751E+03  0.10086493298E+04  0.00000000000E+00 0.  1.
        -13    1    5    5    0    0 -0.69066861318E+02  0.32708602893E+02 -0.20632737889E+03  0.22002516064E+03  0.00000000000E+00 0. -1.
          2    1    6    6  503    0  0.10020175527E+03 -0.11528814078E+03 -0.20160877613E+03  0.25293842289E+03  0.00000000000E+00 0. -1.
         -2    1    6    6    0  503  0.98170725974E+02 -0.23975438285E+03 -0.22066865143E+03  0.34031501474E+03  0.00000000000E+00 0.  1.
<mgrwt>
<rscale>  0 0.18229098E+04</rscale>
<asrwt>0</asrwt>
<pdfrwt beam="1">  1        1 0.26236995E+00 0.18229098E+04</pdfrwt>
<pdfrwt beam="2">  1       -2 0.74942742E-01 0.18229098E+04</pdfrwt>
<totfact> 0.62487206E+00</totfact>
</mgrwt>
</event>
<event>
12    5  0.5095719E-008  0.1477968E+04  0.7818608E-02  0.8899238E-01
          1   -1    0    0  501    0  0.00000000000E+00  0.00000000000E+00  0.12822936455E+04  0.12822936455E+04  0.00000000000E+00 0. -1.
         -2   -1    0    0    0  501 -0.00000000000E+00 -0.00000000000E+00 -0.42587525686E+03  0.42587525686E+03  0.00000000000E+00 0.  1.
        -24    2    1    2    0    0  0.24644669497E+03  0.37639936918E+03  0.38479213959E+03  0.59735743043E+03  0.79739892292E+02 0.  0.
        254    2    1    2    0    0 -0.24644669497E+03 -0.37639936918E+03  0.47162624905E+03  0.11108114719E+04  0.89947670831E+03 0.  0.
         23    2    4    4    0    0 -0.37348030550E+03  0.14136538853E+03  0.26551858334E+02  0.41035625415E+03  0.90639629683E+02 0.  0.
         23    2    4    4    0    0  0.12703361053E+03 -0.51776475771E+03  0.44507439072E+03  0.70045521778E+03  0.91260157311E+02 0.  0.
          1    1    3    3  502    0  0.19048272833E+03  0.26771999420E+03  0.23470349758E+03  0.40378632575E+03  0.00000000000E+00 0. -1.
         -2    1    3    3    0  502  0.55963966641E+02  0.10867937498E+03  0.15008864201E+03  0.19357110468E+03  0.00000000000E+00 0.  1.
         13    1    5    5    0    0 -0.16462235035E+03  0.25768362531E+02  0.39663440105E+02  0.17128255960E+03  0.00000000000E+00 0.  1.
        -13    1    5    5    0    0 -0.20885795514E+03  0.11559702600E+03 -0.13111581771E+02  0.23907369454E+03  0.00000000000E+00 0. -1.
          1    1    6    6  503    0  0.80634239424E+02 -0.36462847065E+03  0.36228765586E+03  0.52029621156E+03  0.00000000000E+00 0. -1.
         -1    1    6    6    0  503  0.46399371105E+02 -0.15313628706E+03  0.82786734854E+02  0.18015900621E+03  0.00000000000E+00 0.  1.
<mgrwt>
<rscale>  0 0.14779677E+04</rscale>
<asrwt>0</asrwt>
<pdfrwt beam="1">  1        1 0.19727594E+00 0.14779677E+04</pdfrwt>
<pdfrwt beam="2">  1       -2 0.65519271E-01 0.14779677E+04</pdfrwt>
<totfact> 0.16990667E+01</totfact>
</mgrwt>
</event>
<event>
12    5  0.5095719E-008  0.1468041E+04  0.7818608E-02  0.8905988E-01
          1   -1    0    0  501    0  0.00000000000E+00  0.00000000000E+00  0.22013243395E+04  0.22013243395E+04  0.00000000000E+00 0. -1.
         -2   -1    0    0    0  501 -0.00000000000E+00 -0.00000000000E+00 -0.24475546222E+03  0.24475546222E+03  0.00000000000E+00 0.  1.
        -24    2    1    2    0    0 -0.22835208100E+03  0.37997773285E+03  0.41393175955E+03  0.61154409630E+03  0.78223588475E+02 0.  0.
        254    2    1    2    0    0  0.22835208100E+03 -0.37997773285E+03  0.15426371178E+04  0.18345357055E+04  0.88840544073E+03 0.  0.
         23    2    4    4    0    0  0.72322214674E+02 -0.12820069656E+03  0.15141569803E+04  0.15238799546E+04  0.88728989630E+02 0.  0.
         23    2    4    4    0    0  0.15602986633E+03 -0.25177703629E+03  0.28480137455E+02  0.31065575088E+03  0.89212567137E+02 0.  0.
          3    1    3    3  502    0 -0.20841505072E+03  0.37450066872E+03  0.38596064615E+03  0.57676095969E+03  0.00000000000E+00 0. -1.
         -4    1    3    3    0  502 -0.19937030281E+02  0.54770641300E+01  0.27971113403E+02  0.34783136617E+02  0.00000000000E+00 0.  1.
         13    1    5    5    0    0  0.53638054833E+02 -0.13876168159E+03  0.13830221957E+04  0.13910004453E+04  0.00000000000E+00 0. -1.
        -13    1    5    5    0    0  0.18684159841E+02  0.10560985026E+02  0.13113478465E+03  0.13287950925E+03  0.00000000000E+00 0.  1.
          2    1    6    6  503    0  0.14981342983E+03 -0.23520501234E+03  0.20811235818E+01  0.27887235908E+03  0.00000000000E+00 0. -1.
         -2    1    6    6    0  503  0.62164365033E+01 -0.16572023954E+02  0.26399013873E+02  0.31783391798E+02  0.00000000000E+00 0.  1.
<mgrwt>
<rscale>  0 0.14680411E+04</rscale>
<asrwt>0</asrwt>
<pdfrwt beam="1">  1        1 0.33866527E+00 0.14680411E+04</pdfrwt>
<pdfrwt beam="2">  1       -2 0.37654688E-01 0.14680411E+04</pdfrwt>
<totfact> 0.12334663E+01</totfact>
</mgrwt>
</event>
<event>
12    5  0.5095719E-008  0.1233680E+04  0.7818608E-02  0.9083877E-01
         -2   -1    0    0    0  501 -0.00000000000E+00  0.00000000000E+00  0.36736883253E+03  0.36736883253E+03  0.00000000000E+00 0.  1.
          1   -1    0    0  501    0  0.00000000000E+00 -0.00000000000E+00 -0.10357207270E+04  0.10357207270E+04  0.00000000000E+00 0. -1.
        -24    2    1    2    0    0 -0.51582826185E+02 -0.50276749869E+02  0.15053712793E+03  0.18546955897E+03  0.80925835700E+02 0.  0.
        254    2    1    2    0    0  0.51582826185E+02  0.50276749869E+02 -0.81888902238E+03  0.12176200005E+04  0.89823754944E+03 0.  0.
         23    2    4    4    0    0  0.33285801027E+03 -0.12884850450E+03 -0.78861140018E+03  0.87057077656E+03  0.92677636981E+02 0.  0.
         23    2    4    4    0    0 -0.28127518408E+03  0.17912525437E+03 -0.30277622207E+02  0.34704922399E+03  0.91240580494E+02 0.  0.
          3    1    3    3  502    0 -0.36423042657E+02 -0.25512284189E+02  0.15112381053E+02  0.46966996306E+02  0.00000000000E+00 0. -1.
         -4    1    3    3    0  502 -0.15159783528E+02 -0.24764465680E+02  0.13542474688E+03  0.13850256266E+03  0.00000000000E+00 0.  1.
         13    1    5    5    0    0  0.21213468056E+03 -0.99592610961E+02 -0.60581590568E+03  0.64956348607E+03  0.00000000000E+00 0. -1.
        -13    1    5    5    0    0  0.12072332971E+03 -0.29255893543E+02 -0.18279549449E+03  0.22100729049E+03  0.00000000000E+00 0.  1.
          3    1    6    6  503    0 -0.10550402937E+03  0.11784695472E+03 -0.29498280146E+02  0.16090106737E+03  0.00000000000E+00 0. -1.
         -3    1    6    6    0  503 -0.17577115471E+03  0.61278299654E+02 -0.77934206073E+00  0.18614815661E+03  0.00000000000E+00 0.  1.
<mgrwt>
<rscale>  0 0.12336799E+04</rscale>
<asrwt>0</asrwt>
<pdfrwt beam="1">  1        1 0.15934165E+00 0.12336799E+04</pdfrwt>
<pdfrwt beam="2">  1       -2 0.56518282E-01 0.12336799E+04</pdfrwt>
<totfact> 0.36088606E+01</totfact>
</mgrwt>
</event>
<event>
12    5  0.5095719E-008  0.2517928E+04  0.7818608E-02  0.8396626E-01
         -2   -1    0    0    0  501 -0.00000000000E+00  0.00000000000E+00  0.49102809752E+03  0.49102809752E+03  0.00000000000E+00 0.  1.
          1   -1    0    0  501    0  0.00000000000E+00 -0.00000000000E+00 -0.32279008470E+04  0.32279008470E+04  0.00000000000E+00 0. -1.
        -24    2    1    2    0    0  0.47620818812E+03  0.86283163858E+03 -0.48614992279E+03  0.11021720284E+04  0.84786543048E+02 0.  0.
        254    2    1    2    0    0 -0.47620818812E+03 -0.86283163858E+03 -0.22507228267E+04  0.26167569161E+04  0.90022821570E+03 0.  0.
         23    2    4    4    0    0 -0.54989112917E+03 -0.32380100537E+03 -0.17744361048E+04  0.18879868204E+04  0.92969882703E+02 0.  0.
         23    2    4    4    0    0  0.73682941052E+02 -0.53903063321E+03 -0.47628672193E+03  0.72877009569E+03  0.90959395064E+02 0.  0.
          1    1    3    3  502    0  0.51800669356E+02  0.69938035100E+02 -0.67650592186E+02  0.11023266631E+03  0.00000000000E+00 0. -1.
         -2    1    3    3    0  502  0.42440751876E+03  0.79289360348E+03 -0.41849933060E+03  0.99193936212E+03  0.00000000000E+00 0.  1.
         13    1    5    5    0    0 -0.14743964361E+03 -0.59549687847E+02 -0.54216819408E+03  0.56500527830E+03  0.00000000000E+00 0. -1.
        -13    1    5    5    0    0 -0.40245148556E+03 -0.26425131752E+03 -0.12322679107E+04  0.13229815421E+04  0.00000000000E+00 0.  1.
          4    1    6    6  503    0  0.36353136309E+02 -0.47999379396E+03 -0.42466462161E+03  0.64191559695E+03  0.00000000000E+00 0. -1.
         -4    1    6    6    0  503  0.37329804742E+02 -0.59036839249E+02 -0.51622100319E+02  0.86854498744E+02  0.00000000000E+00 0.  1.
<mgrwt>
<rscale>  0 0.25179277E+04</rscale>
<asrwt>0</asrwt>
<pdfrwt beam="1">  1        1 0.49660011E+00 0.25179277E+04</pdfrwt>
<pdfrwt beam="2">  1       -2 0.75542788E-01 0.25179277E+04</pdfrwt>
<totfact> 0.49658365E-01</totfact>
</mgrwt>
</event>
<event>
12    5  0.5095719E-008  0.2202438E+04  0.7818608E-02  0.8517414E-01
         -2   -1    0    0    0  501 -0.00000000000E+00  0.00000000000E+00  0.11021401136E+04  0.11021401136E+04  0.00000000000E+00 0.  1.
          1   -1    0    0  501    0  0.00000000000E+00 -0.00000000000E+00 -0.11002982937E+04  0.11002982937E+04  0.00000000000E+00 0. -1.
        -24    2    1    2    0    0  0.11787175626E+03  0.82615247865E+03  0.37821626252E+03  0.91971322210E+03  0.80020002319E+02 0.  0.
        254    2    1    2    0    0 -0.11787175626E+03 -0.82615247865E+03 -0.37637444265E+03  0.12827251852E+04  0.89850125803E+03 0.  0.
         23    2    4    4    0    0  0.19086237525E+03 -0.14297724175E+03 -0.45681095943E+03  0.52313649670E+03  0.90136582908E+02 0.  0.
         23    2    4    4    0    0 -0.30873413152E+03 -0.68317523690E+03  0.80436516775E+02  0.75958868847E+03  0.91977030503E+02 0.  0.
          1    1    3    3  502    0  0.13354668446E+02  0.30713363346E+03  0.11273569475E+03  0.32744274743E+03  0.00000000000E+00 0. -1.
         -2    1    3    3    0  502  0.10451708782E+03  0.51901884519E+03  0.26548056778E+03  0.59227047468E+03  0.00000000000E+00 0.  1.
         13    1    5    5    0    0  0.46975857337E+02 -0.78430744855E+02 -0.22403513253E+03  0.24197076997E+03  0.00000000000E+00 0.  1.
        -13    1    5    5    0    0  0.14388651792E+03 -0.64546496896E+02 -0.23277582689E+03  0.28116572673E+03  0.00000000000E+00 0. -1.
          1    1    6    6  503    0 -0.26691647286E+03 -0.52877173421E+03  0.35277236628E+02  0.59337040187E+03  0.00000000000E+00 0. -1.
         -1    1    6    6    0  503 -0.41817658661E+02 -0.15440350269E+03  0.45159280147E+02  0.16621828660E+03  0.00000000000E+00 0.  1.
<mgrwt>
<rscale>  0 0.22024376E+04</rscale>
<asrwt>0</asrwt>
<pdfrwt beam="1">  1        1 0.16927666E+00 0.22024376E+04</pdfrwt>
<pdfrwt beam="2">  1       -2 0.16956002E+00 0.22024376E+04</pdfrwt>
<totfact> 0.21747119E+00</totfact>
</mgrwt>
</event>
<event>
12    5  0.5095719E-008  0.1316807E+04  0.7818608E-02  0.9016342E-01
          1   -1    0    0  501    0  0.00000000000E+00  0.00000000000E+00  0.27501643073E+04  0.27501643073E+04  0.00000000000E+00 0. -1.
         -2   -1    0    0    0  501 -0.00000000000E+00 -0.00000000000E+00 -0.15762525595E+03  0.15762525595E+03  0.00000000000E+00 0.  1.
        -24    2    1    2    0    0 -0.26923640506E+03 -0.11881705660E+03  0.10537599775E+04  0.10968264221E+04  0.77539507250E+02 0.  0.
        254    2    1    2    0    0  0.26923640506E+03  0.11881705660E+03  0.15387790738E+04  0.18109631411E+04  0.90837256996E+03 0.  0.
         23    2    4    4    0    0  0.73324884248E+02 -0.38730694511E+03  0.66129811541E+03  0.77526591621E+03  0.91317221930E+02 0.  0.
         23    2    4    4    0    0  0.19591152082E+03  0.50612400172E+03  0.87748095839E+03  0.10356972249E+04  0.90294408858E+02 0.  0.
          1    1    3    3  502    0 -0.11014485236E+03 -0.86716069633E+01  0.40850681794E+03  0.42318424542E+03  0.00000000000E+00 0. -1.
         -2    1    3    3    0  502 -0.15909155271E+03 -0.11014544964E+03  0.64525315959E+03  0.67364217667E+03  0.00000000000E+00 0.  1.
         13    1    5    5    0    0  0.48559975243E+02 -0.15167313455E+03  0.34578084317E+03  0.38069305541E+03  0.00000000000E+00 0. -1.
        -13    1    5    5    0    0  0.24764909005E+02 -0.23563381056E+03  0.31551727224E+03  0.39457286080E+03  0.00000000000E+00 0.  1.
          3    1    6    6  503    0  0.40618978916E+02  0.15363450662E+03  0.19029747879E+03  0.24792457221E+03  0.00000000000E+00 0. -1.
         -3    1    6    6    0  503  0.15529254190E+03  0.35248949510E+03  0.68718347959E+03  0.78777265271E+03  0.00000000000E+00 0.  1.
<mgrwt>
<rscale>  0 0.13168073E+04</rscale>
<asrwt>0</asrwt>
<pdfrwt beam="1">  1        1 0.42310217E+00 0.13168073E+04</pdfrwt>
<pdfrwt beam="2">  1       -2 0.24250041E-01 0.13168073E+04</pdfrwt>
<totfact> 0.11892576E+01</totfact>
</mgrwt>
</event>
<event>
12    5  0.5095719E-008  0.1287107E+04  0.7818608E-02  0.9039852E-01
         -2   -1    0    0    0  501 -0.00000000000E+00  0.00000000000E+00  0.22669074470E+03  0.22669074470E+03  0.00000000000E+00 0.  1.
          1   -1    0    0  501    0  0.00000000000E+00 -0.00000000000E+00 -0.18269872188E+04  0.18269872188E+04  0.00000000000E+00 0. -1.
        -24    2    1    2    0    0  0.63728442662E+02 -0.29995947451E+03 -0.23724595617E+03  0.39612565787E+03  0.81196627725E+02 0.  0.
        254    2    1    2    0    0 -0.63728442662E+02  0.29995947451E+03 -0.13630505179E+04  0.16575523056E+04  0.89192820937E+03 0.  0.
         23    2    4    4    0    0 -0.38820500748E+03  0.16280895245E+01 -0.10073327115E+04  0.10834436198E+04  0.91788381943E+02 0.  0.
         23    2    4    4    0    0  0.32447656481E+03  0.29833138499E+03 -0.35571780644E+03  0.57410868586E+03  0.93696152402E+02 0.  0.
          1    1    3    3  502    0 -0.19121666528E+02 -0.67252311671E+02 -0.45451609825E+02  0.83392807793E+02  0.00000000000E+00 0. -1.
         -2    1    3    3    0  502  0.82850109190E+02 -0.23270716284E+03 -0.19179434634E+03  0.31273285008E+03  0.00000000000E+00 0.  1.
         13    1    5    5    0    0 -0.37893428000E+02  0.12374623774E+02 -0.49824120600E+02  0.63808198475E+02  0.00000000000E+00 0.  1.
        -13    1    5    5    0    0 -0.35031157948E+03 -0.10746534250E+02 -0.95750859089E+03  0.10196354213E+04  0.00000000000E+00 0. -1.
          3    1    6    6  503    0  0.28832344831E+03  0.23598278109E+03 -0.32960679375E+03  0.49745243220E+03  0.00000000000E+00 0. -1.
         -3    1    6    6    0  503  0.36153116502E+02  0.62348603898E+02 -0.26111012694E+02  0.76656253657E+02  0.00000000000E+00 0.  1.
<mgrwt>
<rscale>  0 0.12871070E+04</rscale>
<asrwt>0</asrwt>
<pdfrwt beam="1">  1        1 0.28107494E+00 0.12871070E+04</pdfrwt>
<pdfrwt beam="2">  1       -2 0.34875501E-01 0.12871070E+04</pdfrwt>
<totfact> 0.26020890E+01</totfact>
</mgrwt>
</event>
<event>
12    5  0.5095719E-008  0.1137237E+04  0.7818608E-02  0.9169640E-01
         -2   -1    0    0    0  501 -0.00000000000E+00  0.00000000000E+00  0.18987677132E+03  0.18987677132E+03  0.00000000000E+00 0.  1.
          1   -1    0    0  501    0  0.00000000000E+00 -0.00000000000E+00 -0.17028245898E+04  0.17028245898E+04  0.00000000000E+00 0. -1.
        -24    2    1    2    0    0  0.15283291693E+03  0.28108440469E+02 -0.89102072613E+02  0.19586131748E+03  0.79211687379E+02 0.  0.
        254    2    1    2    0    0 -0.15283291693E+03 -0.28108440469E+02 -0.14238457459E+04  0.16968400437E+04  0.90982495064E+03 0.  0.
         23    2    4    4    0    0 -0.36546586789E+03  0.27765379694E+03 -0.44380379634E+03  0.64446218538E+03  0.87822361546E+02 0.  0.
         23    2    4    4    0    0  0.21263295096E+03 -0.30576223741E+03 -0.98004194956E+03  0.10523778583E+04  0.91179033149E+02 0.  0.
          1    1    3    3  502    0 -0.91209321381E+01 -0.23860681011E+01 -0.70008884245E+01  0.11742962266E+02  0.00000000000E+00 0. -1.
         -2    1    3    3    0  502  0.16195384907E+03  0.30494508570E+02 -0.82101184189E+02  0.18411835521E+03  0.00000000000E+00 0.  1.
         13    1    5    5    0    0 -0.32486811032E+03  0.24751300406E+03 -0.42774112533E+03  0.59140886583E+03  0.00000000000E+00 0. -1.
        -13    1    5    5    0    0 -0.40597757571E+02  0.30140792879E+02 -0.16062671009E+02  0.53053319548E+02  0.00000000000E+00 0.  1.
          4    1    6    6  503    0  0.51418156101E+02 -0.99011923203E+02 -0.19432958235E+03  0.22407850029E+03  0.00000000000E+00 0. -1.
         -4    1    6    6    0  503  0.16121479486E+03 -0.20675031421E+03 -0.78571236721E+03  0.82829935802E+03  0.00000000000E+00 0.  1.
<mgrwt>
<rscale>  0 0.11372367E+04</rscale>
<asrwt>0</asrwt>
<pdfrwt beam="1">  1        1 0.26197301E+00 0.11372367E+04</pdfrwt>
<pdfrwt beam="2">  1       -2 0.29211811E-01 0.11372367E+04</pdfrwt>
<totfact> 0.44635867E+01</totfact>
</mgrwt>
</event>
<event>
12    5  0.5095719E-008  0.2638122E+04  0.7818608E-02  0.8355366E-01
         -2   -1    0    0    0  501 -0.00000000000E+00  0.00000000000E+00  0.15186186883E+04  0.15186186883E+04  0.00000000000E+00 0.  1.
          1   -1    0    0  501    0  0.00000000000E+00 -0.00000000000E+00 -0.11457262843E+04  0.11457262843E+04  0.00000000000E+00 0. -1.
        -24    2    1    2    0    0 -0.11255550274E+03 -0.37983402662E+03 -0.93918852590E+03  0.10225840534E+04  0.81611458477E+02 0.  0.
        254    2    1    2    0    0  0.11255550274E+03  0.37983402662E+03  0.13120809299E+04  0.16417609191E+04  0.90381409597E+03 0.  0.
         23    2    4    4    0    0  0.27161018967E+03 -0.14019132445E+03  0.89304673776E+03  0.94831381726E+03  0.91328624264E+02 0.  0.
         23    2    4    4    0    0 -0.15905468693E+03  0.52002535106E+03  0.41903419213E+03  0.69344710187E+03  0.97746967954E+02 0.  0.
          3    1    3    3  502    0 -0.85721373479E+02 -0.31130331316E+03 -0.83294377406E+03  0.89333825475E+03  0.00000000000E+00 0. -1.
         -4    1    3    3    0  502 -0.26834129264E+02 -0.68530713456E+02 -0.10624475183E+03  0.12924579866E+03  0.00000000000E+00 0.  1.
         13    1    5    5    0    0  0.55433367019E+02 -0.69062333849E+02  0.19653864300E+03  0.21556878793E+03  0.00000000000E+00 0.  1.
        -13    1    5    5    0    0  0.21617682265E+03 -0.71128990597E+02  0.69650809476E+03  0.73274502934E+03  0.00000000000E+00 0. -1.
          2    1    6    6  503    0 -0.78406519162E+02  0.12986860867E+03  0.87405500838E+02  0.17508043677E+03  0.00000000000E+00 0. -1.
         -2    1    6    6    0  503 -0.80648167766E+02  0.39015674240E+03  0.33162869129E+03  0.51836666510E+03  0.00000000000E+00 0.  1.
<mgrwt>
<rscale>  0 0.26381216E+04</rscale>
<asrwt>0</asrwt>
<pdfrwt beam="1">  1        1 0.17626558E+00 0.26381216E+04</pdfrwt>
<pdfrwt beam="2">  1       -2 0.23363364E+00 0.26381216E+04</pdfrwt>
<totfact> 0.73232522E-01</totfact>
</mgrwt>
</event>
<event>
12    5  0.5095719E-008  0.1397447E+04  0.7818608E-02  0.8955669E-01
         -2   -1    0    0    0  501 -0.00000000000E+00  0.00000000000E+00  0.55379252723E+03  0.55379252723E+03  0.00000000000E+00 0.  1.
          1   -1    0    0  501    0  0.00000000000E+00 -0.00000000000E+00 -0.88158396395E+03  0.88158396395E+03  0.00000000000E+00 0. -1.
        -24    2    1    2    0    0 -0.33168808639E+03  0.21678798096E+03 -0.15444940142E+03  0.43265224035E+03  0.79494201959E+02 0.  0.
        254    2    1    2    0    0  0.33168808639E+03 -0.21678798096E+03 -0.17334203531E+03  0.10027242508E+04  0.90465156091E+03 0.  0.
         23    2    4    4    0    0 -0.25854444685E+03  0.10025107459E+03 -0.14521845216E+03  0.32605968346E+03  0.91274363186E+02 0.  0.
         23    2    4    4    0    0  0.59023253324E+03 -0.31703905555E+03 -0.28123583147E+02  0.67666456736E+03  0.90530628827E+02 0.  0.
          1    1    3    3  502    0 -0.10397186193E+03  0.43008735422E+02 -0.75573592366E+02  0.13554064800E+03  0.00000000000E+00 0. -1.
         -2    1    3    3    0  502 -0.22771622445E+03  0.17377924554E+03 -0.78875809053E+02  0.29711159235E+03  0.00000000000E+00 0.  1.
         13    1    5    5    0    0 -0.70192684950E+02  0.71918768331E+02 -0.37674762867E+02  0.10732525339E+03  0.00000000000E+00 0. -1.
        -13    1    5    5    0    0 -0.18835176190E+03  0.28332306260E+02 -0.10754368929E+03  0.21873443007E+03  0.00000000000E+00 0.  1.
          2    1    6    6  503    0  0.67839177322E+02 -0.62662549333E+02  0.16909628751E+02  0.93886551823E+02  0.00000000000E+00 0. -1.
         -2    1    6    6    0  503  0.52239335592E+03 -0.25437650622E+03 -0.45033211898E+02  0.58277801554E+03  0.00000000000E+00 0.  1.
<mgrwt>
<rscale>  0 0.13974471E+04</rscale>
<asrwt>0</asrwt>
<pdfrwt beam="1">  1        1 0.13562830E+00 0.13974471E+04</pdfrwt>
<pdfrwt beam="2">  1       -2 0.85198851E-01 0.13974471E+04</pdfrwt>
<totfact> 0.19304857E+01</totfact>
</mgrwt>
</event>
<event>
12    5  0.5095719E-008  0.3785580E+04  0.7818608E-02  0.8049256E-01
         -2   -1    0    0    0  501 -0.00000000000E+00  0.00000000000E+00  0.24262424468E+04  0.24262424468E+04  0.00000000000E+00 0.  1.
          1   -1    0    0  501    0  0.00000000000E+00 -0.00000000000E+00 -0.14766265126E+04  0.14766265126E+04  0.00000000000E+00 0. -1.
        -24    2    1    2    0    0 -0.64311948379E+03  0.84641264633E+03 -0.10308035097E+04  0.14828580135E+04  0.79340874463E+02 0.  0.
        254    2    1    2    0    0  0.64311948379E+03 -0.84641264633E+03  0.19804194439E+04  0.24200109459E+04  0.89686942523E+03 0.  0.
         23    2    4    4    0    0 -0.16119931032E+03 -0.65301351806E+02  0.79798194596E+02  0.21145107901E+03  0.89968454231E+02 0.  0.
         23    2    4    4    0    0  0.80431879412E+03 -0.78111129453E+03  0.19006212493E+04  0.22085598668E+04  0.91170033809E+02 0.  0.
          1    1    3    3  502    0 -0.38639238120E+03  0.56792052550E+03 -0.64726336258E+03  0.94381282894E+03  0.00000000000E+00 0. -1.
         -2    1    3    3    0  502 -0.25672710259E+03  0.27849212083E+03 -0.38354014712E+03  0.53904518459E+03  0.00000000000E+00 0.  1.
         13    1    5    5    0    0 -0.40203061465E+02  0.21149669136E+02  0.72889937627E+01  0.46007869824E+02  0.00000000000E+00 0. -1.
        -13    1    5    5    0    0 -0.12099624886E+03 -0.86451020942E+02  0.72509200833E+02  0.16544320919E+03  0.00000000000E+00 0.  1.
          2    1    6    6  503    0  0.12958491713E+03 -0.15686442651E+03  0.29345042552E+03  0.35708801617E+03  0.00000000000E+00 0. -1.
         -2    1    6    6    0  503  0.67473387698E+03 -0.62424686802E+03  0.16071708238E+04  0.18514718507E+04  0.00000000000E+00 0.  1.
<mgrwt>
<rscale>  0 0.37855800E+04</rscale>
<asrwt>0</asrwt>
<pdfrwt beam="1">  1        1 0.22717331E+00 0.37855800E+04</pdfrwt>
<pdfrwt beam="2">  1       -2 0.37326807E+00 0.37855800E+04</pdfrwt>
<totfact> 0.52526436E-02</totfact>
</mgrwt>
</event>
<event>
12    5  0.5095719E-008  0.1313673E+04  0.7818608E-02  0.9018792E-01
         -2   -1    0    0    0  501 -0.00000000000E+00  0.00000000000E+00  0.30160797998E+03  0.30160797998E+03  0.00000000000E+00 0.  1.
          1   -1    0    0  501    0  0.00000000000E+00 -0.00000000000E+00 -0.14304466204E+04  0.14304466204E+04  0.00000000000E+00 0. -1.
        -24    2    1    2    0    0 -0.34177736131E+03  0.50985834043E+01 -0.35310490827E+03  0.49781860576E+03  0.79388460971E+02 0.  0.
        254    2    1    2    0    0  0.34177736131E+03 -0.50985834043E+01 -0.77573373212E+03  0.12342359946E+04  0.89707185159E+03 0.  0.
         23    2    4    4    0    0 -0.17159688047E+03 -0.20310021462E+03 -0.57691014940E+03  0.64215272939E+03  0.94019257710E+02 0.  0.
         23    2    4    4    0    0  0.51337424178E+03  0.19800163121E+03 -0.19882358272E+03  0.59208326519E+03  0.90961628100E+02 0.  0.
          1    1    3    3  502    0 -0.21700257261E+03  0.49553487413E+01 -0.27605602827E+03  0.35117175676E+03  0.00000000000E+00 0. -1.
         -2    1    3    3    0  502 -0.12477478871E+03  0.14323466303E+00 -0.77048880000E+02  0.14664684900E+03  0.00000000000E+00 0.  1.
         13    1    5    5    0    0 -0.74752184470E+02 -0.14804025241E+03 -0.40091636777E+03  0.43386373363E+03  0.00000000000E+00 0.  1.
        -13    1    5    5    0    0 -0.96844695999E+02 -0.55059962206E+02 -0.17599378163E+03  0.20828899576E+03  0.00000000000E+00 0. -1.
          3    1    6    6  503    0  0.56059484214E+01  0.17251932768E+02 -0.18309192255E+01  0.18232062613E+02  0.00000000000E+00 0. -1.
         -3    1    6    6    0  503  0.50776829336E+03  0.18074969844E+03 -0.19699266349E+03  0.57385120258E+03  0.00000000000E+00 0.  1.
<mgrwt>
<rscale>  0 0.13136729E+04</rscale>
<asrwt>0</asrwt>
<pdfrwt beam="1">  1        1 0.22006871E+00 0.13136729E+04</pdfrwt>
<pdfrwt beam="2">  1       -2 0.46401228E-01 0.13136729E+04</pdfrwt>
<totfact> 0.27732902E+01</totfact>
</mgrwt>
</event>
<event>
12    5  0.5095719E-008  0.9931282E+03  0.7818608E-02  0.9316114E-01
         -2   -1    0    0    0  501 -0.00000000000E+00  0.00000000000E+00  0.34631945367E+03  0.34631945367E+03  0.00000000000E+00 0.  1.
          1   -1    0    0  501    0  0.00000000000E+00 -0.00000000000E+00 -0.71198975330E+03  0.71198975330E+03  0.00000000000E+00 0. -1.
        -24    2    1    2    0    0  0.68616971778E+00  0.66348586757E+02 -0.22121560222E+02  0.10690993607E+03  0.80856448161E+02 0.  0.
        254    2    1    2    0    0 -0.68616971778E+00 -0.66348586757E+02 -0.34354873941E+03  0.95139927091E+03  0.88472155537E+03 0.  0.
         23    2    4    4    0    0  0.30506732879E+03 -0.24624887616E+03  0.60010167060E+02  0.40652565717E+03  0.89203731332E+02 0.  0.
         23    2    4    4    0    0 -0.30575349851E+03  0.17990028940E+03 -0.40355890647E+03  0.54487361373E+03  0.90433113253E+02 0.  0.
          3    1    3    3  502    0 -0.14625262078E+02  0.15285405289E+02 -0.44361408904E+02  0.49147497450E+02  0.00000000000E+00 0. -1.
         -4    1    3    3    0  502  0.15311431795E+02  0.51063181468E+02  0.22239848682E+02  0.57762438615E+02  0.00000000000E+00 0.  1.
         13    1    5    5    0    0  0.23224068980E+03 -0.21428801815E+03  0.17829691797E+02  0.31650117003E+03  0.00000000000E+00 0.  1.
        -13    1    5    5    0    0  0.72826638990E+02 -0.31960858005E+02  0.42180475264E+02  0.90024487138E+02  0.00000000000E+00 0. -1.
          3    1    6    6  503    0 -0.49841750763E+02  0.55776542400E+02 -0.45339667606E+02  0.87469470445E+02  0.00000000000E+00 0. -1.
         -3    1    6    6    0  503 -0.25591174775E+03  0.12412374700E+03 -0.35821923886E+03  0.45740414329E+03  0.00000000000E+00 0.  1.
<mgrwt>
<rscale>  0 0.99312819E+03</rscale>
<asrwt>0</asrwt>
<pdfrwt beam="1">  1        1 0.10953688E+00 0.99312819E+03</pdfrwt>
<pdfrwt beam="2">  1       -2 0.53279916E-01 0.99312819E+03</pdfrwt>
<totfact> 0.77463037E+01</totfact>
</mgrwt>
</event>
<event>
12    5  0.5095719E-008  0.1789867E+04  0.7818608E-02  0.8711707E-01
          1   -1    0    0  501    0  0.00000000000E+00  0.00000000000E+00  0.14835806798E+04  0.14835806798E+04  0.00000000000E+00 0. -1.
         -2   -1    0    0    0  501 -0.00000000000E+00 -0.00000000000E+00 -0.53984660279E+03  0.53984660279E+03  0.00000000000E+00 0.  1.
        -24    2    1    2    0    0 -0.68769969203E+02 -0.29367892532E+03 -0.31522129867E+03  0.44329778843E+03  0.78561073367E+02 0.  0.
        254    2    1    2    0    0  0.68769969203E+02  0.29367892532E+03  0.12589553756E+04  0.15801294941E+04  0.90601543058E+03 0.  0.
         23    2    4    4    0    0 -0.35631133527E+03  0.15237214718E+03  0.24395779146E+03  0.46693882113E+03  0.91331373500E+02 0.  0.
         23    2    4    4    0    0  0.42508130447E+03  0.14130677815E+03  0.10149975842E+04  0.11131906730E+04  0.91168292505E+02 0.  0.
          1    1    3    3  502    0 -0.34363921652E+02 -0.90564877145E+02 -0.54957812339E+02  0.11136982186E+03  0.00000000000E+00 0. -1.
         -2    1    3    3    0  502 -0.34406047551E+02 -0.20311404818E+03 -0.26026348633E+03  0.33192796658E+03  0.00000000000E+00 0.  1.
         13    1    5    5    0    0 -0.17734872772E+03  0.12066002190E+03  0.10933306766E+03  0.24075948952E+03  0.00000000000E+00 0.  1.
        -13    1    5    5    0    0 -0.17896260754E+03  0.31712125283E+02  0.13462472380E+03  0.22617933161E+03  0.00000000000E+00 0. -1.
          1    1    6    6  503    0  0.38638353146E+02  0.38873952255E+02  0.88210507941E+02  0.10385181851E+03  0.00000000000E+00 0. -1.
         -1    1    6    6    0  503  0.38644295132E+03  0.10243282589E+03  0.92678707624E+03  0.10093388545E+04  0.00000000000E+00 0.  1.
<mgrwt>
<rscale>  0 0.17898670E+04</rscale>
<asrwt>0</asrwt>
<pdfrwt beam="1">  1        1 0.22824318E+00 0.17898670E+04</pdfrwt>
<pdfrwt beam="2">  1       -2 0.83053324E-01 0.17898670E+04</pdfrwt>
<totfact> 0.70690449E+00</totfact>
</mgrwt>
</event>
<event>
12    5  0.5095719E-008  0.1701000E+04  0.7818608E-02  0.8760794E-01
          1   -1    0    0  501    0  0.00000000000E+00  0.00000000000E+00  0.11484133756E+04  0.11484133756E+04  0.00000000000E+00 0. -1.
         -4   -1    0    0    0  501 -0.00000000000E+00 -0.00000000000E+00 -0.62986906148E+03  0.62986906148E+03  0.00000000000E+00 0.  1.
        -24    2    1    2    0    0 -0.52338433501E+03 -0.21657186013E+03  0.42216806578E+03  0.71109753663E+03  0.81236064053E+02 0.  0.
        254    2    1    2    0    0  0.52338433501E+03  0.21657186013E+03  0.96376248366E+02  0.10671849005E+04  0.89931123523E+03 0.  0.
         23    2    4    4    0    0 -0.21220328657E+03  0.22417792031E+03  0.40511226555E+02  0.32378342239E+03  0.88930143107E+02 0.  0.
         23    2    4    4    0    0  0.73558762158E+03 -0.76060601812E+01  0.55865021811E+02  0.74340147807E+03  0.91530627518E+02 0.  0.
          3    1    3    3  502    0 -0.77159528721E+02 -0.95153163260E+01  0.82116669559E+02  0.11308086282E+03  0.00000000000E+00 0. -1.
         -4    1    3    3    0  502 -0.44622480629E+03 -0.20705654381E+03  0.34005139622E+03  0.59801667381E+03  0.00000000000E+00 0.  1.
         13    1    5    5    0    0 -0.49467766454E+02  0.73931056807E+02  0.50091413444E+02  0.10208824996E+03  0.00000000000E+00 0.  1.
        -13    1    5    5    0    0 -0.16273552011E+03  0.15024686351E+03 -0.95801868888E+01  0.22169517244E+03  0.00000000000E+00 0. -1.
          2    1    6    6  503    0  0.73731264717E+02 -0.28659873415E+02  0.65873375695E+01  0.79379347171E+02  0.00000000000E+00 0.  1.
         -2    1    6    6    0  503  0.66185635686E+03  0.21053813233E+02  0.49277684241E+02  0.66402213090E+03  0.00000000000E+00 0. -1.
<mgrwt>
<rscale>  0 0.17009998E+04</rscale>
<asrwt>0</asrwt>
<pdfrwt beam="1">  1        1 0.17667898E+00 0.17009998E+04</pdfrwt>
<pdfrwt beam="2">  1       -4 0.96902932E-01 0.17009998E+04</pdfrwt>
<totfact> 0.48127769E+00</totfact>
</mgrwt>
</event>
<event>
12    5  0.5095719E-008  0.1444411E+04  0.7818608E-02  0.8922285E-01
         -2   -1    0    0    0  501 -0.00000000000E+00  0.00000000000E+00  0.86848627934E+03  0.86848627934E+03  0.00000000000E+00 0.  1.
          1   -1    0    0  501    0  0.00000000000E+00 -0.00000000000E+00 -0.60056274980E+03  0.60056274980E+03  0.00000000000E+00 0. -1.
        -24    2    1    2    0    0 -0.10611625543E+02  0.43330012048E+03  0.76758637348E+01  0.44107788036E+03  0.81419755950E+02 0.  0.
        254    2    1    2    0    0  0.10611625543E+02 -0.43330012048E+03  0.26024766581E+03  0.10279711488E+04  0.89506102258E+03 0.  0.
         23    2    4    4    0    0 -0.26551063812E+03 -0.59593939629E+03  0.13576931231E+03  0.67249500024E+03  0.90424311842E+02 0.  0.
         23    2    4    4    0    0  0.27612226367E+03  0.16263927581E+03  0.12447835350E+03  0.35547614854E+03  0.90406820311E+02 0.  0.
          1    1    3    3  502    0 -0.48095498221E+01  0.42404456641E+03 -0.53143103969E+01  0.42410513787E+03  0.00000000000E+00 0. -1.
         -2    1    3    3    0  502 -0.58020757208E+01  0.92555540641E+01  0.12990174132E+02  0.16972742491E+02  0.00000000000E+00 0.  1.
         13    1    5    5    0    0 -0.20725011079E+03 -0.51385815239E+03  0.14088484325E+03  0.57170914656E+03  0.00000000000E+00 0.  1.
        -13    1    5    5    0    0 -0.58260527330E+02 -0.82081243899E+02 -0.51155309403E+01  0.10078585368E+03  0.00000000000E+00 0. -1.
          1    1    6    6  503    0  0.16482375762E+03  0.54387253363E+02  0.37708131163E+02  0.17761404100E+03  0.00000000000E+00 0. -1.
         -1    1    6    6    0  503  0.11129850604E+03  0.10825202245E+03  0.86770222336E+02  0.17786210753E+03  0.00000000000E+00 0.  1.
<mgrwt>
<rscale>  0 0.14444106E+04</rscale>
<asrwt>0</asrwt>
<pdfrwt beam="1">  1        1 0.92394269E-01 0.14444106E+04</pdfrwt>
<pdfrwt beam="2">  1       -2 0.13361327E+00 0.14444106E+04</pdfrwt>
<totfact> 0.11774234E+01</totfact>
</mgrwt>
</event>
<event>
12    5  0.5095719E-008  0.2749770E+04  0.7818608E-02  0.8319035E-01
          3   -1    0    0  501    0  0.00000000000E+00  0.00000000000E+00  0.14560050134E+04  0.14560050134E+04  0.00000000000E+00 0. -1.
         -4   -1    0    0    0  501 -0.00000000000E+00 -0.00000000000E+00 -0.12982841086E+04  0.12982841086E+04  0.00000000000E+00 0.  1.
        -24    2    1    2    0    0  0.32685315890E+03  0.19805867522E+03 -0.10955641816E+04  0.11629629238E+04  0.78496240602E+02 0.  0.
        254    2    1    2    0    0 -0.32685315890E+03 -0.19805867522E+03  0.12532850864E+04  0.15913261982E+04  0.90306995022E+03 0.  0.
         23    2    4    4    0    0  0.23070401111E+02  0.55660992231E+02 -0.11164023706E+03  0.15658666908E+03  0.91790266035E+02 0.  0.
         23    2    4    4    0    0 -0.34992356001E+03 -0.25371966745E+03  0.13649253235E+04  0.14347395292E+04  0.92931212846E+02 0.  0.
          1    1    3    3  502    0  0.41295027604E+02 -0.14850101770E+01 -0.13471468762E+03  0.14090965766E+03  0.00000000000E+00 0. -1.
         -2    1    3    3    0  502  0.28555813130E+03  0.19954368540E+03 -0.96084949398E+03  0.10220532661E+04  0.00000000000E+00 0.  1.
         13    1    5    5    0    0  0.42371340290E+02  0.26568933396E+02 -0.12602922106E+02  0.51575889187E+02  0.00000000000E+00 0. -1.
        -13    1    5    5    0    0 -0.19300939178E+02  0.29092058835E+02 -0.99037314951E+02  0.10501077989E+03  0.00000000000E+00 0.  1.
          3    1    6    6  503    0 -0.42865947057E+02  0.13488959803E+01  0.13806068306E+03  0.14456853442E+03  0.00000000000E+00 0. -1.
         -3    1    6    6    0  503 -0.30705761295E+03 -0.25506856343E+03  0.12268646404E+04  0.12901709947E+04  0.00000000000E+00 0.  1.
<mgrwt>
<rscale>  0 0.27497696E+04</rscale>
<asrwt>0</asrwt>
<pdfrwt beam="1">  1        3 0.22400077E+00 0.27497696E+04</pdfrwt>
<pdfrwt beam="2">  1       -4 0.19973602E+00 0.27497696E+04</pdfrwt>
<totfact> 0.27570431E-02</totfact>
</mgrwt>
</event>
<event>
12    5  0.5095719E-008  0.1690843E+04  0.7818608E-02  0.8766604E-01
         -4   -1    0    0    0  501 -0.00000000000E+00  0.00000000000E+00  0.93686688640E+03  0.93686688640E+03  0.00000000000E+00 0.  1.
          3   -1    0    0  501    0  0.00000000000E+00 -0.00000000000E+00 -0.76290167669E+03  0.76290167669E+03  0.00000000000E+00 0. -1.
        -24    2    1    2    0    0 -0.51983364417E+02  0.35298569116E+02  0.67207782336E+03  0.67966411356E+03  0.79413144054E+02 0.  0.
        254    2    1    2    0    0  0.51983364417E+02 -0.35298569116E+02 -0.49811261365E+03  0.10201044495E+04  0.88800261989E+03 0.  0.
         23    2    4    4    0    0  0.34348004582E+02  0.80847563252E+02  0.23793175621E+03  0.26932343672E+03  0.90595138100E+02 0.  0.
         23    2    4    4    0    0  0.17635359835E+02 -0.11614613237E+03 -0.73604436987E+03  0.75078101282E+03  0.90054898927E+02 0.  0.
          3    1    3    3  502    0  0.16340149238E+01  0.83440606504E+01  0.49417256673E+01  0.98343279120E+01  0.00000000000E+00 0. -1.
         -4    1    3    3    0  502 -0.53617379341E+02  0.26954508466E+02  0.66713609769E+03  0.66982978565E+03  0.00000000000E+00 0.  1.
         13    1    5    5    0    0 -0.16579535172E+02  0.49838579202E+02  0.51383718434E+02  0.73478238163E+02  0.00000000000E+00 0.  1.
        -13    1    5    5    0    0  0.50927539753E+02  0.31008984050E+02  0.18654803778E+03  0.19584519855E+03  0.00000000000E+00 0. -1.
          3    1    6    6  503    0 -0.31943000473E+02 -0.81431774730E+02 -0.44202016288E+03  0.45059218103E+03  0.00000000000E+00 0. -1.
         -3    1    6    6    0  503  0.49578360309E+02 -0.34714357639E+02 -0.29402420699E+03  0.30018883179E+03  0.00000000000E+00 0.  1.
<mgrwt>
<rscale>  0 0.16908428E+04</rscale>
<asrwt>0</asrwt>
<pdfrwt beam="1">  1        3 0.11736949E+00 0.16908428E+04</pdfrwt>
<pdfrwt beam="2">  1       -4 0.14413337E+00 0.16908428E+04</pdfrwt>
<totfact> 0.43139292E-01</totfact>
</mgrwt>
</event>
<event>
12    5  0.5095719E-008  0.1700534E+04  0.7818608E-02  0.8761060E-01
         -2   -1    0    0    0  501 -0.00000000000E+00  0.00000000000E+00  0.95554570577E+03  0.95554570577E+03  0.00000000000E+00 0.  1.
          1   -1    0    0  501    0  0.00000000000E+00 -0.00000000000E+00 -0.75658749034E+03  0.75658749034E+03  0.00000000000E+00 0. -1.
        -24    2    1    2    0    0  0.14512056085E+03 -0.37272091003E+03  0.52557109573E+03  0.66527781199E+03  0.79929572187E+02 0.  0.
        254    2    1    2    0    0 -0.14512056085E+03  0.37272091003E+03 -0.32661288029E+03  0.10468553841E+04  0.91063130174E+03 0.  0.
         23    2    4    4    0    0 -0.28594806493E+03  0.53645834333E+03 -0.46860018349E+03  0.77293356954E+03  0.91029231487E+02 0.  0.
         23    2    4    4    0    0  0.14082750408E+03 -0.16373743329E+03  0.14198730319E+03  0.27392181458E+03  0.90721735349E+02 0.  0.
          3    1    3    3  502    0  0.43668212198E+02 -0.37827658381E+02  0.67617630573E+02  0.88938115898E+02  0.00000000000E+00 0. -1.
         -4    1    3    3    0  502  0.10145234865E+03 -0.33489325165E+03  0.45795346516E+03  0.57633969610E+03  0.00000000000E+00 0.  1.
         13    1    5    5    0    0 -0.16226918443E+03  0.28479768999E+03 -0.19629834450E+03  0.38206550811E+03  0.00000000000E+00 0.  1.
        -13    1    5    5    0    0 -0.12367888050E+03  0.25166065334E+03 -0.27230183899E+03  0.39086806142E+03  0.00000000000E+00 0. -1.
          2    1    6    6  503    0  0.59263549660E+02 -0.46101592673E+02  0.99407679704E+02  0.12457693185E+03  0.00000000000E+00 0. -1.
         -2    1    6    6    0  503  0.81563954424E+02 -0.11763584062E+03  0.42579623490E+02  0.14934488273E+03  0.00000000000E+00 0.  1.
<mgrwt>
<rscale>  0 0.17005339E+04</rscale>
<asrwt>0</asrwt>
<pdfrwt beam="1">  1        1 0.11639808E+00 0.17005339E+04</pdfrwt>
<pdfrwt beam="2">  1       -2 0.14700703E+00 0.17005339E+04</pdfrwt>
<totfact> 0.63605855E+00</totfact>
</mgrwt>
</event>
<event>
12    5  0.5095719E-008  0.1743215E+04  0.7818608E-02  0.8737094E-01
         -2   -1    0    0    0  501 -0.00000000000E+00  0.00000000000E+00  0.12342803566E+04  0.12342803566E+04  0.00000000000E+00 0.  1.
          1   -1    0    0  501    0  0.00000000000E+00 -0.00000000000E+00 -0.61550023808E+03  0.61550023808E+03  0.00000000000E+00 0. -1.
        -24    2    1    2    0    0  0.19901908510E+03  0.17861902333E+02  0.87366643574E+03  0.89977412758E+03  0.79829793455E+02 0.  0.
        254    2    1    2    0    0 -0.19901908510E+03 -0.17861902333E+02 -0.25488631724E+03  0.95000646707E+03  0.89309440093E+03 0.  0.
         23    2    4    4    0    0  0.20803309014E+03 -0.31258473802E+03 -0.17562658842E+02  0.38683000933E+03  0.91334681764E+02 0.  0.
         23    2    4    4    0    0 -0.40705217524E+03  0.29472283569E+03 -0.23732365840E+03  0.56317645775E+03  0.91061410479E+02 0.  0.
          1    1    3    3  502    0  0.62729134936E+02  0.12776398190E+02  0.14572302727E+03  0.15916463614E+03  0.00000000000E+00 0. -1.
         -2    1    3    3    0  502  0.13628995017E+03  0.50855041431E+01  0.72794340847E+03  0.74060949144E+03  0.00000000000E+00 0.  1.
         13    1    5    5    0    0  0.21363163824E+03 -0.29767841092E+03 -0.28504742251E+02  0.36750977336E+03  0.00000000000E+00 0.  1.
        -13    1    5    5    0    0 -0.55985480987E+01 -0.14906327099E+02  0.10942083409E+02  0.19320235965E+02  0.00000000000E+00 0. -1.
          4    1    6    6  503    0 -0.16974426461E+03  0.14147945955E+03 -0.57577321751E+02  0.22835214214E+03  0.00000000000E+00 0. -1.
         -4    1    6    6    0  503 -0.23730791063E+03  0.15324337614E+03 -0.17974633665E+03  0.33482431560E+03  0.00000000000E+00 0.  1.
<mgrwt>
<rscale>  0 0.17432153E+04</rscale>
<asrwt>0</asrwt>
<pdfrwt beam="1">  1        1 0.94692344E-01 0.17432153E+04</pdfrwt>
<pdfrwt beam="2">  1       -2 0.18988929E+00 0.17432153E+04</pdfrwt>
<totfact> 0.42495354E+00</totfact>
</mgrwt>
</event>
<event>
12    5  0.5095719E-008  0.2004549E+04  0.7818608E-02  0.8604497E-01
         -2   -1    0    0    0  501 -0.00000000000E+00  0.00000000000E+00  0.16718519896E+04  0.16718519896E+04  0.00000000000E+00 0.  1.
          1   -1    0    0  501    0  0.00000000000E+00 -0.00000000000E+00 -0.60086289843E+03  0.60086289843E+03  0.00000000000E+00 0. -1.
        -24    2    1    2    0    0  0.44900795840E+03  0.32124335825E+03  0.10853510625E+04  0.12202356313E+04  0.78629670772E+02 0.  0.
        254    2    1    2    0    0 -0.44900795840E+03 -0.32124335825E+03 -0.14361971376E+02  0.10524792567E+04  0.89593575528E+03 0.  0.
         23    2    4    4    0    0 -0.91960786649E+02 -0.36941127760E+03  0.35465414927E+03  0.52861420068E+03  0.93444792636E+02 0.  0.
         23    2    4    4    0    0 -0.35704717175E+03  0.48167919345E+02 -0.36901612064E+03  0.52386505599E+03  0.91972106044E+02 0.  0.
          3    1    3    3  502    0  0.20597934388E+03  0.11397128405E+03  0.52216154236E+03  0.57277362021E+03  0.00000000000E+00 0. -1.
         -4    1    3    3    0  502  0.24302861451E+03  0.20727207420E+03  0.56318952015E+03  0.64746201110E+03  0.00000000000E+00 0.  1.
         13    1    5    5    0    0  0.22948451575E+01 -0.18169708976E+03  0.15557386746E+03  0.23921188720E+03  0.00000000000E+00 0. -1.
        -13    1    5    5    0    0 -0.94255631807E+02 -0.18771418783E+03  0.19908028180E+03  0.28940231348E+03  0.00000000000E+00 0.  1.
          4    1    6    6  503    0 -0.46303351735E+02 -0.13205146773E+02 -0.18884382541E+02  0.51720365304E+02  0.00000000000E+00 0. -1.
         -4    1    6    6    0  503 -0.31074382001E+03  0.61373066118E+02 -0.35013173810E+03  0.47214469069E+03  0.00000000000E+00 0.  1.
<mgrwt>
<rscale>  0 0.20045487E+04</rscale>
<asrwt>0</asrwt>
<pdfrwt beam="1">  1        1 0.92440447E-01 0.20045487E+04</pdfrwt>
<pdfrwt beam="2">  1       -2 0.25720800E+00 0.20045487E+04</pdfrwt>
<totfact> 0.16105109E+00</totfact>
</mgrwt>
</event>
<event>
12    5  0.5095719E-008  0.1425675E+04  0.7818608E-02  0.8935440E-01
         -2   -1    0    0    0  501 -0.00000000000E+00  0.00000000000E+00  0.38891642787E+03  0.38891642787E+03  0.00000000000E+00 0.  1.
          1   -1    0    0  501    0  0.00000000000E+00 -0.00000000000E+00 -0.13065466932E+04  0.13065466932E+04  0.00000000000E+00 0. -1.
        -24    2    1    2    0    0  0.10479160585E+03 -0.53109312523E+02 -0.75445258461E+03  0.76907701402E+03  0.92080787003E+02 0.  0.
        254    2    1    2    0    0 -0.10479160585E+03  0.53109312523E+02 -0.16317768069E+03  0.92638610701E+03  0.90430215308E+03 0.  0.
         23    2    4    4    0    0 -0.35422626606E+03 -0.27161918991E+03  0.45220947297E+02  0.45771218847E+03  0.90566447993E+02 0.  0.
         23    2    4    4    0    0  0.24943466021E+03  0.32472850243E+03 -0.20839862799E+03  0.46867391855E+03  0.92514884055E+02 0.  0.
          3    1    3    3  502    0  0.80931754202E+02 -0.35542632388E+01 -0.59312755568E+03  0.59863417789E+03  0.00000000000E+00 0. -1.
         -4    1    3    3    0  502  0.23859851650E+02 -0.49555049284E+02 -0.16132502893E+03  0.17044283614E+03  0.00000000000E+00 0.  1.
         13    1    5    5    0    0 -0.11933338373E+03 -0.49524477994E+02 -0.10704342658E+02  0.12964456543E+03  0.00000000000E+00 0. -1.
        -13    1    5    5    0    0 -0.23489288233E+03 -0.22209471192E+03  0.55925289955E+02  0.32806762304E+03  0.00000000000E+00 0.  1.
          1    1    6    6  503    0  0.78707887550E+00 -0.32364823086E+01  0.42646377585E+01  0.54112333253E+01  0.00000000000E+00 0. -1.
         -1    1    6    6    0  503  0.24864758133E+03  0.32796498474E+03 -0.21266326575E+03  0.46326268522E+03  0.00000000000E+00 0.  1.
<mgrwt>
<rscale>  0 0.14256752E+04</rscale>
<asrwt>0</asrwt>
<pdfrwt beam="1">  1        1 0.20100718E+00 0.14256752E+04</pdfrwt>
<pdfrwt beam="2">  1       -2 0.59833296E-01 0.14256752E+04</pdfrwt>
<totfact> 0.19899956E+01</totfact>
</mgrwt>
</event>
<event>
12    5  0.5095719E-008  0.1363271E+04  0.7818608E-02  0.8980843E-01
          3   -1    0    0  501    0  0.00000000000E+00  0.00000000000E+00  0.67314163036E+03  0.67314163036E+03  0.00000000000E+00 0. -1.
         -2   -1    0    0    0  501 -0.00000000000E+00 -0.00000000000E+00 -0.69023612096E+03  0.69023612096E+03  0.00000000000E+00 0.  1.
        -24    2    1    2    0    0  0.87779013309E+02 -0.28332132820E+03 -0.23155200672E+03  0.38440103868E+03  0.78560145951E+02 0.  0.
        254    2    1    2    0    0 -0.87779013309E+02  0.28332132820E+03  0.21445751612E+03  0.97897671264E+03  0.90797976160E+03 0.  0.
         23    2    4    4    0    0 -0.44951088519E+03  0.15073902296E+03  0.30752804950E+03  0.57195363659E+03  0.88176937087E+02 0.  0.
         23    2    4    4    0    0  0.36173187188E+03  0.13258230524E+03 -0.93070533372E+02  0.40702307605E+03  0.92615578889E+02 0.  0.
          1    1    3    3  502    0  0.92099320584E+01 -0.91059415286E+02 -0.33643543969E+02  0.97511681411E+02  0.00000000000E+00 0. -1.
         -2    1    3    3    0  502  0.78569081250E+02 -0.19226191291E+03 -0.19790846275E+03  0.28688935727E+03  0.00000000000E+00 0.  1.
         13    1    5    5    0    0 -0.25882675247E+03  0.13207972648E+03  0.18062464240E+03  0.34214266525E+03  0.00000000000E+00 0.  1.
        -13    1    5    5    0    0 -0.19068413272E+03  0.18659296481E+02  0.12690340710E+03  0.22981097134E+03  0.00000000000E+00 0. -1.
          3    1    6    6  503    0  0.43180566883E+01  0.21503867420E+02 -0.40209997239E+01  0.22298662883E+02  0.00000000000E+00 0. -1.
         -3    1    6    6    0  503  0.35741381519E+03  0.11107843782E+03 -0.89049533648E+02  0.38472441316E+03  0.00000000000E+00 0.  1.
<mgrwt>
<rscale>  0 0.13632706E+04</rscale>
<asrwt>0</asrwt>
<pdfrwt beam="1">  1        3 0.10356025E+00 0.13632706E+04</pdfrwt>
<pdfrwt beam="2">  1       -2 0.10619017E+00 0.13632706E+04</pdfrwt>
<totfact> 0.23360367E+00</totfact>
</mgrwt>
</event>
<event>
12    5  0.5095719E-008  0.3824137E+04  0.7818608E-02  0.8040995E-01
          1   -1    0    0  501    0  0.00000000000E+00  0.00000000000E+00  0.16727826406E+04  0.16727826406E+04  0.00000000000E+00 0. -1.
         -2   -1    0    0    0  501 -0.00000000000E+00 -0.00000000000E+00 -0.21855831296E+04  0.21855831296E+04  0.00000000000E+00 0.  1.
        -24    2    1    2    0    0  0.15064913649E+04 -0.28147109122E+03  0.72213380421E+03  0.16960376701E+04  0.79525714894E+02 0.  0.
        254    2    1    2    0    0 -0.15064913649E+04  0.28147109122E+03 -0.12349342932E+04  0.21623281001E+04  0.89546518437E+03 0.  0.
         23    2    4    4    0    0 -0.11775934073E+04 -0.14955159004E+03 -0.10329947977E+04  0.15762285259E+04  0.91248029331E+02 0.  0.
         23    2    4    4    0    0 -0.32889795763E+03  0.43102268126E+03 -0.20193949550E+03  0.58609957424E+03  0.93694891982E+02 0.  0.
          1    1    3    3  502    0  0.10276093318E+04 -0.16244413617E+03  0.46409173462E+03  0.11391883840E+04  0.00000000000E+00 0. -1.
         -2    1    3    3    0  502  0.47888203310E+03 -0.11902695505E+03  0.25804206959E+03  0.55684928601E+03  0.00000000000E+00 0.  1.
         13    1    5    5    0    0 -0.28549678491E+03  0.11089440065E-01 -0.22835037755E+03  0.36558488651E+03  0.00000000000E+00 0. -1.
        -13    1    5    5    0    0 -0.89209662238E+03 -0.14956267948E+03 -0.80464442014E+03  0.12106436394E+04  0.00000000000E+00 0.  1.
          2    1    6    6  503    0 -0.17170929082E+03  0.29184160945E+03 -0.14657181100E+03  0.36897005480E+03  0.00000000000E+00 0. -1.
         -2    1    6    6    0  503 -0.15718866681E+03  0.13918107181E+03 -0.55367684503E+02  0.21712951944E+03  0.00000000000E+00 0.  1.
<mgrwt>
<rscale>  0 0.38241368E+04</rscale>
<asrwt>0</asrwt>
<pdfrwt beam="1">  1        1 0.25735118E+00 0.38241368E+04</pdfrwt>
<pdfrwt beam="2">  1       -2 0.33624355E+00 0.38241368E+04</pdfrwt>
<totfact> 0.65844620E-02</totfact>
</mgrwt>
</event>
<event>
12    5  0.5095719E-008  0.2177824E+04  0.7818608E-02  0.8527715E-01
          1   -1    0    0  501    0  0.00000000000E+00  0.00000000000E+00  0.15174466574E+04  0.15174466574E+04  0.00000000000E+00 0. -1.
         -2   -1    0    0    0  501 -0.00000000000E+00 -0.00000000000E+00 -0.78139752498E+03  0.78139752498E+03  0.00000000000E+00 0.  1.
        -24    2    1    2    0    0 -0.46655755724E+03 -0.20810606611E+03 -0.48867927882E+03  0.71112396099E+03  0.76848951675E+02 0.  0.
        254    2    1    2    0    0  0.46655755724E+03  0.20810606611E+03  0.12247284112E+04  0.15877202214E+04  0.87172916156E+03 0.  0.
         23    2    4    4    0    0  0.26395967088E+03 -0.10816231570E+03  0.11586963611E+04  0.11964355975E+04  0.86643449738E+02 0.  0.
         23    2    4    4    0    0  0.20259788636E+03  0.31626838181E+03  0.66032050155E+02  0.39128462389E+03  0.87588996774E+02 0.  0.
          1    1    3    3  502    0 -0.48654108534E+02 -0.31982268570E+02 -0.27736700163E+02  0.64493505999E+02  0.00000000000E+00 0. -1.
         -2    1    3    3    0  502 -0.41790344870E+03 -0.17612379754E+03 -0.46094257866E+03  0.64663045499E+03  0.00000000000E+00 0.  1.
         13    1    5    5    0    0  0.17477429630E+03 -0.11399949488E+03  0.82424331465E+03  0.85024642382E+03  0.00000000000E+00 0.  1.
        -13    1    5    5    0    0  0.89185374582E+02  0.58371791839E+01  0.33445304641E+03  0.34618917365E+03  0.00000000000E+00 0. -1.
          4    1    6    6  503    0  0.27658525829E+02  0.10510803455E+02 -0.93746776424E+01  0.31037970636E+02  0.00000000000E+00 0. -1.
         -4    1    6    6    0  503  0.17493936053E+03  0.30575757835E+03  0.75406727797E+02  0.36024665325E+03  0.00000000000E+00 0.  1.
<mgrwt>
<rscale>  0 0.21778237E+04</rscale>
<asrwt>0</asrwt>
<pdfrwt beam="1">  1        1 0.23345333E+00 0.21778237E+04</pdfrwt>
<pdfrwt beam="2">  1       -2 0.12021500E+00 0.21778237E+04</pdfrwt>
<totfact> 0.26971838E+00</totfact>
</mgrwt>
</event>
<event>
12    5  0.5095719E-008  0.1083888E+04  0.7818608E-02  0.9221039E-01
         -2   -1    0    0    0  501 -0.00000000000E+00  0.00000000000E+00  0.16102791862E+03  0.16102791862E+03  0.00000000000E+00 0.  1.
          1   -1    0    0  501    0  0.00000000000E+00 -0.00000000000E+00 -0.18239283525E+04  0.18239283525E+04  0.00000000000E+00 0. -1.
        -24    2    1    2    0    0 -0.29474582621E+02  0.95757548784E+02 -0.61140508169E+02  0.15998502330E+03  0.10871424365E+03 0.  0.
        254    2    1    2    0    0  0.29474582621E+02 -0.95757548784E+02 -0.16017599257E+04  0.18249712478E+04  0.86881927727E+03 0.  0.
         23    2    4    4    0    0 -0.38486378308E+03  0.33575366005E+02 -0.10128545764E+04  0.10877145122E+04  0.89448478791E+02 0.  0.
         23    2    4    4    0    0  0.41433836570E+03 -0.12933291479E+03 -0.58890534927E+03  0.73725673559E+03  0.91294576104E+02 0.  0.
          1    1    3    3  502    0 -0.52979981443E+02  0.37714765135E+02 -0.71345459063E+02  0.96537332011E+02  0.00000000000E+00 0. -1.
         -2    1    3    3    0  502  0.23505398822E+02  0.58042783649E+02  0.10204950895E+02  0.63447691292E+02  0.00000000000E+00 0.  1.
         13    1    5    5    0    0 -0.13734786763E+02 -0.17099729050E+02 -0.52573979980E+02  0.56965502472E+02  0.00000000000E+00 0. -1.
        -13    1    5    5    0    0 -0.37112899632E+03  0.50675095055E+02 -0.96028059644E+03  0.10307490097E+04  0.00000000000E+00 0.  1.
          3    1    6    6  503    0  0.44665643991E+02 -0.39593380087E+02 -0.11491747871E+03  0.12949394740E+03  0.00000000000E+00 0. -1.
         -3    1    6    6    0  503  0.36967272171E+03 -0.89739534702E+02 -0.47398787056E+03  0.60776278819E+03  0.00000000000E+00 0.  1.
<mgrwt>
<rscale>  0 0.10838882E+04</rscale>
<asrwt>0</asrwt>
<pdfrwt beam="1">  1        1 0.28060437E+00 0.10838882E+04</pdfrwt>
<pdfrwt beam="2">  1       -2 0.24773525E-01 0.10838882E+04</pdfrwt>
<totfact> 0.50196133E+01</totfact>
</mgrwt>
</event>
<event>
12    5  0.5095719E-008  0.1153587E+04  0.7818608E-02  0.9154481E-01
          1   -1    0    0  501    0  0.00000000000E+00  0.00000000000E+00  0.58446813533E+03  0.58446813533E+03  0.00000000000E+00 0. -1.
         -2   -1    0    0    0  501 -0.00000000000E+00 -0.00000000000E+00 -0.56921944270E+03  0.56921944270E+03  0.00000000000E+00 0.  1.
        -24    2    1    2    0    0 -0.96848424903E+02 -0.98162735452E+02 -0.17596788345E+03  0.23696789549E+03  0.78571925341E+02 0.  0.
        254    2    1    2    0    0  0.96848424903E+02  0.98162735452E+02  0.19121657608E+03  0.91671968254E+03  0.88588693260E+03 0.  0.
         23    2    4    4    0    0  0.21991868866E+03  0.45190292686E+03  0.11859796433E+03  0.52467287979E+03  0.92928298777E+02 0.  0.
         23    2    4    4    0    0 -0.12307026376E+03 -0.35374019141E+03  0.72618611751E+02  0.39204680275E+03  0.90270814424E+02 0.  0.
          1    1    3    3  502    0 -0.10063333528E+02 -0.34384772753E+02 -0.68620922734E+01  0.36478371528E+02  0.00000000000E+00 0. -1.
         -2    1    3    3    0  502 -0.86785091375E+02 -0.63777962699E+02 -0.16910579118E+03  0.20048952397E+03  0.00000000000E+00 0.  1.
         13    1    5    5    0    0  0.22823159053E+03  0.41955113207E+03  0.10855176218E+03  0.48979209509E+03  0.00000000000E+00 0. -1.
        -13    1    5    5    0    0 -0.83129018709E+01  0.32351794786E+02  0.10046202143E+02  0.34880784695E+02  0.00000000000E+00 0.  1.
          1    1    6    6  503    0 -0.94589743275E+02 -0.26713888280E+03  0.93694681367E+02  0.29847796494E+03  0.00000000000E+00 0. -1.
         -1    1    6    6    0  503 -0.28480520482E+02 -0.86601308606E+02 -0.21076069617E+02  0.93568837813E+02  0.00000000000E+00 0.  1.
<mgrwt>
<rscale>  0 0.11535868E+04</rscale>
<asrwt>0</asrwt>
<pdfrwt beam="1">  1        1 0.89918174E-01 0.11535868E+04</pdfrwt>
<pdfrwt beam="2">  1       -2 0.87572222E-01 0.11535868E+04</pdfrwt>
<totfact> 0.34795683E+01</totfact>
</mgrwt>
</event>
<event>
12    5  0.5095719E-008  0.5815080E+04  0.7818608E-02  0.7713762E-01
         -2   -1    0    0    0  501 -0.00000000000E+00  0.00000000000E+00  0.28088583243E+04  0.28088583243E+04  0.00000000000E+00 0.  1.
          1   -1    0    0  501    0  0.00000000000E+00 -0.00000000000E+00 -0.30096881514E+04  0.30096881514E+04  0.00000000000E+00 0. -1.
        -24    2    1    2    0    0 -0.32415480444E+03  0.25515120466E+04 -0.12967663566E+04  0.28815736834E+04  0.81079271868E+02 0.  0.
        254    2    1    2    0    0  0.32415480444E+03 -0.25515120466E+04  0.10959365295E+04  0.29369727923E+04  0.89969008257E+03 0.  0.
         23    2    4    4    0    0  0.23959819063E+03 -0.19419910746E+04  0.39233285497E+03  0.19977641070E+04  0.91650048421E+02 0.  0.
         23    2    4    4    0    0  0.84556613813E+02 -0.60952097198E+03  0.70360367457E+03  0.93920868526E+03  0.91592507217E+02 0.  0.
          1    1    3    3  502    0 -0.24877603869E+03  0.20920042615E+04 -0.10323141868E+04  0.23460698898E+04  0.00000000000E+00 0. -1.
         -2    1    3    3    0  502 -0.75378765754E+02  0.45950778509E+03 -0.26445216982E+03  0.53550379365E+03  0.00000000000E+00 0.  1.
         13    1    5    5    0    0  0.35291741792E+02 -0.18934058617E+03  0.13765103094E+02  0.19309283434E+03  0.00000000000E+00 0.  1.
        -13    1    5    5    0    0  0.20430644884E+03 -0.17526504885E+04  0.37856775188E+03  0.18046712727E+04  0.00000000000E+00 0. -1.
          4    1    6    6  503    0  0.87762424054E+02 -0.58633965389E+03  0.64488442702E+03  0.87599792066E+03  0.00000000000E+00 0. -1.
         -4    1    6    6    0  503 -0.32058102402E+01 -0.23181318089E+02  0.58719247550E+02  0.63210764594E+02  0.00000000000E+00 0.  1.
<mgrwt>
<rscale>  0 0.58150796E+04</rscale>
<asrwt>0</asrwt>
<pdfrwt beam="1">  1        1 0.46302895E+00 0.58150796E+04</pdfrwt>
<pdfrwt beam="2">  1       -2 0.43213205E+00 0.58150796E+04</pdfrwt>
<totfact> 0.16001879E-03</totfact>
</mgrwt>
</event>
<event>
12    5  0.5095719E-008  0.2685680E+04  0.7818608E-02  0.8339666E-01
          1   -1    0    0  501    0  0.00000000000E+00  0.00000000000E+00  0.22139293736E+04  0.22139293736E+04  0.00000000000E+00 0. -1.
         -2   -1    0    0    0  501 -0.00000000000E+00 -0.00000000000E+00 -0.81448833195E+03  0.81448833195E+03  0.00000000000E+00 0.  1.
        -24    2    1    2    0    0 -0.71156863497E+03 -0.76288644779E+03 -0.20288399923E+02  0.10462986853E+04  0.77483321665E+02 0.  0.
        254    2    1    2    0    0  0.71156863497E+03  0.76288644779E+03  0.14197294415E+04  0.19821190202E+04  0.90820618184E+03 0.  0.
         23    2    4    4    0    0  0.15209990975E+03  0.20277806249E+03 -0.82641035336E+02  0.28145654006E+03  0.90193780549E+02 0.  0.
         23    2    4    4    0    0  0.55946872522E+03  0.56010838530E+03  0.15023704769E+04  0.17006624802E+04  0.91701493509E+02 0.  0.
          1    1    3    3  502    0 -0.39700271606E+02 -0.55117979924E+02  0.15839074038E+02  0.69749405323E+02  0.00000000000E+00 0. -1.
         -2    1    3    3    0  502 -0.67186836337E+03 -0.70776846786E+03 -0.36127473961E+02  0.97654927995E+03  0.00000000000E+00 0.  1.
         13    1    5    5    0    0  0.15644081881E+03  0.19512793279E+03 -0.93922089567E+02  0.26715164019E+03  0.00000000000E+00 0.  1.
        -13    1    5    5    0    0 -0.43409090614E+01  0.76501296972E+01  0.11281054232E+02  0.14304899875E+02  0.00000000000E+00 0. -1.
          2    1    6    6  503    0  0.39620175746E+02  0.80074064868E+02  0.16381529847E+03  0.18659331768E+03  0.00000000000E+00 0. -1.
         -2    1    6    6    0  503  0.51984854947E+03  0.48003432043E+03  0.13385551784E+04  0.15140691625E+04  0.00000000000E+00 0.  1.
<mgrwt>
<rscale>  0 0.26856803E+04</rscale>
<asrwt>0</asrwt>
<pdfrwt beam="1">  1        1 0.34060452E+00 0.26856803E+04</pdfrwt>
<pdfrwt beam="2">  1       -2 0.12530590E+00 0.26856803E+04</pdfrwt>
<totfact> 0.78053379E-01</totfact>
</mgrwt>
</event>
<event>
12    5  0.5095719E-008  0.2395450E+04  0.7818608E-02  0.8441209E-01
          1   -1    0    0  501    0  0.00000000000E+00  0.00000000000E+00  0.15503569651E+04  0.15503569651E+04  0.00000000000E+00 0. -1.
         -2   -1    0    0    0  501 -0.00000000000E+00 -0.00000000000E+00 -0.92530012370E+03  0.92530012370E+03  0.00000000000E+00 0.  1.
        -24    2    1    2    0    0 -0.47768558922E+03 -0.27457209568E+03  0.11700714413E+04  0.12957884418E+04  0.80169510069E+02 0.  0.
        254    2    1    2    0    0  0.47768558922E+03  0.27457209568E+03 -0.54501459993E+03  0.11798686469E+04  0.88964922976E+03 0.  0.
         23    2    4    4    0    0  0.29744088481E+02  0.47301744632E+03 -0.47365276154E+03  0.67622916348E+03  0.91152222682E+02 0.  0.
         23    2    4    4    0    0  0.44794150074E+03 -0.19844535064E+03 -0.71361838390E+02  0.50363948346E+03  0.92347561130E+02 0.  0.
          1    1    3    3  502    0 -0.13992728105E+03 -0.44127132375E+02  0.27306022510E+03  0.30998182902E+03  0.00000000000E+00 0. -1.
         -2    1    3    3    0  502 -0.33775830817E+03 -0.23044496331E+03  0.89701121621E+03  0.98580661281E+03  0.00000000000E+00 0.  1.
         13    1    5    5    0    0  0.54038357921E+02  0.27447386708E+03 -0.23939684685E+03  0.36819410386E+03  0.00000000000E+00 0. -1.
        -13    1    5    5    0    0 -0.24294269440E+02  0.19854357924E+03 -0.23425591469E+03  0.30803505962E+03  0.00000000000E+00 0.  1.
          1    1    6    6  503    0  0.30648543982E+03 -0.14467233202E+03 -0.64578987814E+01  0.33897656693E+03  0.00000000000E+00 0. -1.
         -1    1    6    6    0  503  0.14145606092E+03 -0.53773018623E+02 -0.64903939609E+02  0.16466291653E+03  0.00000000000E+00 0.  1.
<mgrwt>
<rscale>  0 0.23954503E+04</rscale>
<asrwt>0</asrwt>
<pdfrwt beam="1">  1        1 0.23851646E+00 0.23954503E+04</pdfrwt>
<pdfrwt beam="2">  1       -2 0.14235387E+00 0.23954503E+04</pdfrwt>
<totfact> 0.16343437E+00</totfact>
</mgrwt>
</event>
<event>
12    5  0.5095719E-008  0.1606995E+04  0.7818608E-02  0.8816262E-01
          3   -1    0    0  501    0  0.00000000000E+00  0.00000000000E+00  0.92677763454E+03  0.92677763454E+03  0.00000000000E+00 0. -1.
         -4   -1    0    0    0  501 -0.00000000000E+00 -0.00000000000E+00 -0.69661622281E+03  0.69661622281E+03  0.00000000000E+00 0.  1.
        -24    2    1    2    0    0  0.21356605225E+03  0.36083971163E+03 -0.63702156286E+02  0.43164792566E+03  0.80288298345E+02 0.  0.
        254    2    1    2    0    0 -0.21356605225E+03 -0.36083971163E+03  0.29386356801E+03  0.11917459317E+04  0.10761444201E+04 0.  0.
         23    2    4    4    0    0 -0.28821753141E+03 -0.71574551744E+03  0.24616435568E+03  0.81498575338E+03  0.90795908860E+02 0.  0.
         23    2    4    4    0    0  0.74651479157E+02  0.35490580581E+03  0.47699212332E+02  0.37676017831E+03  0.90233268624E+02 0.  0.
          3    1    3    3  502    0  0.15772613738E+03  0.31496502991E+03 -0.35357892567E+02  0.35402074098E+03  0.00000000000E+00 0. -1.
         -4    1    3    3    0  502  0.55839914874E+02  0.45874681722E+02 -0.28344263719E+02  0.77627184685E+02  0.00000000000E+00 0.  1.
         13    1    5    5    0    0 -0.21421848293E+02 -0.53794168448E+02 -0.56325008364E+01  0.58175881677E+02  0.00000000000E+00 0. -1.
        -13    1    5    5    0    0 -0.26679568311E+03 -0.66195134899E+03  0.25179685652E+03  0.75680987170E+03  0.00000000000E+00 0.  1.
          4    1    6    6  503    0  0.47887688798E+02  0.84435835004E+02 -0.13943348399E+02  0.98066599492E+02  0.00000000000E+00 0. -1.
         -4    1    6    6    0  503  0.26763790358E+02  0.27046997080E+03  0.61642560732E+02  0.27869357882E+03  0.00000000000E+00 0.  1.
<mgrwt>
<rscale>  0 0.16069951E+04</rscale>
<asrwt>0</asrwt>
<pdfrwt beam="1">  1        3 0.14258117E+00 0.16069951E+04</pdfrwt>
<pdfrwt beam="2">  1       -4 0.10717173E+00 0.16069951E+04</pdfrwt>
<totfact> 0.56534931E-01</totfact>
</mgrwt>
</event>
<event>
12    5  0.5095719E-008  0.1144216E+04  0.7818608E-02  0.9163137E-01
         -2   -1    0    0    0  501 -0.00000000000E+00  0.00000000000E+00  0.24830101813E+03  0.24830101813E+03  0.00000000000E+00 0.  1.
          1   -1    0    0  501    0  0.00000000000E+00 -0.00000000000E+00 -0.13181876860E+04  0.13181876860E+04  0.00000000000E+00 0. -1.
        -24    2    1    2    0    0 -0.14934194000E+03  0.10314070516E+03 -0.70905482354E+02  0.21063196095E+03  0.79982594629E+02 0.  0.
        254    2    1    2    0    0  0.14934194000E+03 -0.10314070516E+03 -0.99898118548E+03  0.13558567431E+04  0.89857836547E+03 0.  0.
         23    2    4    4    0    0 -0.21527845077E+03  0.28070161715E+03 -0.29176834352E+03  0.46756443995E+03  0.91375762561E+02 0.  0.
         23    2    4    4    0    0  0.36462039077E+03 -0.38384232231E+03 -0.70721284196E+03  0.88829230320E+03  0.92899162143E+02 0.  0.
          3    1    3    3  502    0 -0.10003091940E+03  0.31411412212E+02 -0.65058961864E+02  0.12339177514E+03  0.00000000000E+00 0. -1.
         -4    1    3    3    0  502 -0.49311020600E+02  0.71729292945E+02 -0.58465204905E+01  0.87240185814E+02  0.00000000000E+00 0.  1.
         13    1    5    5    0    0 -0.16583228531E+03  0.23495246089E+03 -0.18708642556E+03  0.34308065576E+03  0.00000000000E+00 0. -1.
        -13    1    5    5    0    0 -0.49446165467E+02  0.45749156262E+02 -0.10468191796E+03  0.12448378418E+03  0.00000000000E+00 0.  1.
          2    1    6    6  503    0  0.26826772363E+03 -0.27627513607E+03 -0.44130501390E+03  0.58570097973E+03  0.00000000000E+00 0.  1.
         -2    1    6    6    0  503  0.96352667142E+02 -0.10756718623E+03 -0.26590782806E+03  0.30259132347E+03  0.00000000000E+00 0. -1.
<mgrwt>
<rscale>  0 0.11442156E+04</rscale>
<asrwt>0</asrwt>
<pdfrwt beam="1">  1        1 0.20279811E+00 0.11442156E+04</pdfrwt>
<pdfrwt beam="2">  1       -2 0.38200156E-01 0.11442156E+04</pdfrwt>
<totfact> 0.49493216E+01</totfact>
</mgrwt>
</event>
<event>
12    5  0.5095719E-008  0.1744398E+04  0.7818608E-02  0.8736440E-01
          1   -1    0    0  501    0  0.00000000000E+00  0.00000000000E+00  0.14790011788E+04  0.14790011788E+04  0.00000000000E+00 0. -1.
         -2   -1    0    0    0  501 -0.00000000000E+00 -0.00000000000E+00 -0.51435454760E+03  0.51435454760E+03  0.00000000000E+00 0.  1.
        -24    2    1    2    0    0  0.16477027441E+03 -0.22457859369E+01 -0.34074896849E+03  0.38674232574E+03  0.79407053244E+02 0.  0.
        254    2    1    2    0    0 -0.16477027441E+03  0.22457859369E+01  0.13053955997E+04  0.16066134007E+04  0.92195155004E+03 0.  0.
         23    2    4    4    0    0 -0.61115969373E+02 -0.44783292514E+03  0.72882833411E+03  0.86237669375E+03  0.90627428391E+02 0.  0.
         23    2    4    4    0    0 -0.10365430504E+03  0.45007871108E+03  0.57656726563E+03  0.74423670695E+03  0.90240805936E+02 0.  0.
          1    1    3    3  502    0  0.24928804517E+02 -0.27430158747E+02 -0.10651446046E+03  0.11277938282E+03  0.00000000000E+00 0. -1.
         -2    1    3    3    0  502  0.13984146990E+03  0.25184372810E+02 -0.23423450804E+03  0.27396294292E+03  0.00000000000E+00 0.  1.
         13    1    5    5    0    0  0.73760568398E+01 -0.16349990360E+03  0.32355213231E+03  0.36259151536E+03  0.00000000000E+00 0.  1.
        -13    1    5    5    0    0 -0.68492026213E+02 -0.28433302154E+03  0.40527620180E+03  0.49978517839E+03  0.00000000000E+00 0. -1.
          1    1    6    6  503    0 -0.11992112318E+01  0.12325689929E+03  0.20238990641E+03  0.23697125469E+03  0.00000000000E+00 0. -1.
         -1    1    6    6    0  503 -0.10245509381E+03  0.32682181179E+03  0.37417735922E+03  0.50726545226E+03  0.00000000000E+00 0.  1.
<mgrwt>
<rscale>  0 0.17443979E+04</rscale>
<asrwt>0</asrwt>
<pdfrwt beam="1">  1        1 0.22753864E+00 0.17443979E+04</pdfrwt>
<pdfrwt beam="2">  1       -2 0.79131470E-01 0.17443979E+04</pdfrwt>
<totfact> 0.79731739E+00</totfact>
</mgrwt>
</event>
<event>
12    5  0.5095719E-008  0.1803991E+04  0.7818608E-02  0.8704180E-01
          1   -1    0    0  501    0  0.00000000000E+00  0.00000000000E+00  0.22486292835E+04  0.22486292835E+04  0.00000000000E+00 0. -1.
         -2   -1    0    0    0  501 -0.00000000000E+00 -0.00000000000E+00 -0.36181877531E+03  0.36181877531E+03  0.00000000000E+00 0.  1.
        -24    2    1    2    0    0 -0.41926207800E+03 -0.14982830988E+03 -0.22601843923E+02  0.45316869282E+03  0.81374494239E+02 0.  0.
        254    2    1    2    0    0  0.41926207800E+03  0.14982830988E+03  0.19094123521E+04  0.21572793660E+04  0.89987194645E+03 0.  0.
         23    2    4    4    0    0  0.29140785977E+03 -0.26603234329E+03  0.34639533536E+03  0.53230460185E+03  0.87559764599E+02 0.  0.
         23    2    4    4    0    0  0.12785421823E+03  0.41586065317E+03  0.15630170167E+04  0.16249747641E+04  0.90741420812E+02 0.  0.
          3    1    3    3  502    0 -0.95434079530E+01 -0.20817551900E+02  0.14434987884E+01  0.22946258763E+02  0.00000000000E+00 0. -1.
         -4    1    3    3    0  502 -0.40971867005E+03 -0.12901075798E+03 -0.24045342712E+02  0.43022243406E+03  0.00000000000E+00 0.  1.
         13    1    5    5    0    0  0.28556097970E+03 -0.24552928543E+03  0.34532235763E+03  0.51095717415E+03  0.00000000000E+00 0.  1.
        -13    1    5    5    0    0  0.58468800670E+01 -0.20503057859E+02  0.10729777255E+01  0.21347427697E+02  0.00000000000E+00 0. -1.
          2    1    6    6  503    0  0.62025264095E+02  0.16086754026E+03  0.46839751756E+03  0.49912096064E+03  0.00000000000E+00 0. -1.
         -2    1    6    6    0  503  0.65828954133E+02  0.25499311291E+03  0.10946194992E+04  0.11258538035E+04  0.00000000000E+00 0.  1.
<mgrwt>
<rscale>  0 0.18039915E+04</rscale>
<asrwt>0</asrwt>
<pdfrwt beam="1">  1        1 0.34594296E+00 0.18039915E+04</pdfrwt>
<pdfrwt beam="2">  1       -2 0.55664428E-01 0.18039915E+04</pdfrwt>
<totfact> 0.50715658E+00</totfact>
</mgrwt>
</event>
<event>
12    5  0.5095719E-008  0.2278264E+04  0.7818608E-02  0.8486541E-01
         -2   -1    0    0    0  501 -0.00000000000E+00  0.00000000000E+00  0.11752969796E+04  0.11752969796E+04  0.00000000000E+00 0.  1.
          1   -1    0    0  501    0  0.00000000000E+00 -0.00000000000E+00 -0.11040796149E+04  0.11040796149E+04  0.00000000000E+00 0. -1.
        -24    2    1    2    0    0 -0.39985843875E+03  0.73340096513E+03 -0.44311438069E+03  0.94898326199E+03  0.80343826588E+02 0.  0.
        254    2    1    2    0    0  0.39985843875E+03 -0.73340096513E+03  0.51433174540E+03  0.13303933326E+04  0.89869100827E+03 0.  0.
         23    2    4    4    0    0 -0.28057630682E+03 -0.23477095687E+03  0.19230803625E+03  0.42309135124E+03  0.90462392990E+02 0.  0.
         23    2    4    4    0    0  0.68043474557E+03 -0.49863000826E+03  0.32202370915E+03  0.90730198134E+03  0.88737184802E+02 0.  0.
          1    1    3    3  502    0 -0.17878857453E+03  0.28553963052E+03 -0.14057875981E+03  0.36504879495E+03  0.00000000000E+00 0. -1.
         -4    1    3    3    0  502 -0.22106986422E+03  0.44786133461E+03 -0.30253562087E+03  0.58393446704E+03  0.00000000000E+00 0.  1.
         13    1    5    5    0    0 -0.16493363368E+03 -0.81458492136E+02  0.79720209560E+02  0.20048416714E+03  0.00000000000E+00 0.  1.
        -13    1    5    5    0    0 -0.11564267314E+03 -0.15331246473E+03  0.11258782669E+03  0.22260718410E+03  0.00000000000E+00 0. -1.
          4    1    6    6  503    0  0.51648796219E+03 -0.33027999391E+03  0.24113668862E+03  0.65878038226E+03  0.00000000000E+00 0. -1.
         -4    1    6    6    0  503  0.16394678338E+03 -0.16835001436E+03  0.80887020532E+02  0.24852159907E+03  0.00000000000E+00 0.  1.
<mgrwt>
<rscale>  0 0.22782638E+04</rscale>
<asrwt>0</asrwt>
<pdfrwt beam="1">  1        1 0.16985840E+00 0.22782638E+04</pdfrwt>
<pdfrwt beam="2">  1       -2 0.18081492E+00 0.22782638E+04</pdfrwt>
<totfact> 0.17897000E+00</totfact>
</mgrwt>
</event>
<event>
12    5  0.5095719E-008  0.1674411E+04  0.7818608E-02  0.8776095E-01
         -2   -1    0    0    0  501 -0.00000000000E+00  0.00000000000E+00  0.33570327740E+03  0.33570327740E+03  0.00000000000E+00 0.  1.
          1   -1    0    0  501    0  0.00000000000E+00 -0.00000000000E+00 -0.20878955779E+04  0.20878955779E+04  0.00000000000E+00 0. -1.
        -24    2    1    2    0    0 -0.99813019542E+02  0.10706223373E+02 -0.14656085800E+04  0.14711478922E+04  0.78678770523E+02 0.  0.
        254    2    1    2    0    0  0.99813019542E+02 -0.10706223373E+02 -0.28658372052E+03  0.95245096310E+03  0.90274877245E+03 0.  0.
         23    2    4    4    0    0 -0.57947489903E+02 -0.80906292790E+02 -0.58240034536E+03  0.59753362626E+03  0.89176972595E+02 0.  0.
         23    2    4    4    0    0  0.15776050945E+03  0.70200069417E+02  0.29581662484E+03  0.35491733684E+03  0.92964575880E+02 0.  0.
          3    1    3    3  502    0 -0.26067890641E+02  0.30713331706E+02 -0.82761112183E+03  0.82859098031E+03  0.00000000000E+00 0. -1.
         -4    1    3    3    0  502 -0.73745128901E+02 -0.20007108332E+02 -0.63799745817E+03  0.64255691192E+03  0.00000000000E+00 0.  1.
         13    1    5    5    0    0 -0.12174727917E+02 -0.77595634534E+02 -0.46304543610E+03  0.46965985818E+03  0.00000000000E+00 0. -1.
        -13    1    5    5    0    0 -0.45772761986E+02 -0.33106582568E+01 -0.11935490926E+03  0.12787376808E+03  0.00000000000E+00 0.  1.
          2    1    6    6  503    0  0.96316666703E+02  0.59440453483E+02  0.10582824165E+03  0.15495058737E+03  0.00000000000E+00 0. -1.
         -2    1    6    6    0  503  0.61443842743E+02  0.10759615934E+02  0.18998838319E+03  0.19996674947E+03  0.00000000000E+00 0.  1.
<mgrwt>
<rscale>  0 0.16744114E+04</rscale>
<asrwt>0</asrwt>
<pdfrwt beam="1">  1        1 0.32121471E+00 0.16744114E+04</pdfrwt>
<pdfrwt beam="2">  1       -2 0.51646658E-01 0.16744114E+04</pdfrwt>
<totfact> 0.77044502E+00</totfact>
</mgrwt>
</event>
<event>
12    5  0.5095719E-008  0.2098194E+04  0.7818608E-02  0.8562039E-01
         -2   -1    0    0    0  501 -0.00000000000E+00  0.00000000000E+00  0.11123476485E+04  0.11123476485E+04  0.00000000000E+00 0.  1.
          1   -1    0    0  501    0  0.00000000000E+00 -0.00000000000E+00 -0.98944265675E+03  0.98944265675E+03  0.00000000000E+00 0. -1.
        -24    2    1    2    0    0  0.78536907200E+03 -0.33273444013E+03 -0.20807732021E+02  0.85679278168E+03  0.78384450881E+02 0.  0.
        254    2    1    2    0    0 -0.78536907200E+03  0.33273444013E+03  0.14371272379E+03  0.12449975236E+04  0.89546004927E+03 0.  0.
         23    2    4    4    0    0 -0.48124436991E+03  0.60242878120E+03  0.24765724180E+03  0.81557449624E+03  0.96493883324E+02 0.  0.
         23    2    4    4    0    0 -0.30412470209E+03 -0.26969434107E+03 -0.10394451801E+03  0.42942302733E+03  0.91503013905E+02 0.  0.
          3    1    3    3  502    0  0.69032007415E+02 -0.26342916747E+02  0.20212442383E+02  0.76602285460E+02  0.00000000000E+00 0. -1.
         -4    1    3    3    0  502  0.71633706458E+03 -0.30639152338E+03 -0.41020174405E+02  0.78019049622E+03  0.00000000000E+00 0.  1.
         13    1    5    5    0    0 -0.75256629485E+02  0.15863724870E+03  0.55258672417E+02  0.18407296877E+03  0.00000000000E+00 0. -1.
        -13    1    5    5    0    0 -0.40598774043E+03  0.44379153250E+03  0.19239856938E+03  0.63150152747E+03  0.00000000000E+00 0.  1.
          3    1    6    6  503    0 -0.17160305514E+03 -0.11763366097E+03 -0.13847507312E+02  0.20851148693E+03  0.00000000000E+00 0. -1.
         -3    1    6    6    0  503 -0.13252164695E+03 -0.15206068010E+03 -0.90097010699E+02  0.22091154040E+03  0.00000000000E+00 0.  1.
<mgrwt>
<rscale>  0 0.20981937E+04</rscale>
<asrwt>0</asrwt>
<pdfrwt beam="1">  1        1 0.15222195E+00 0.20981937E+04</pdfrwt>
<pdfrwt beam="2">  1       -2 0.17113041E+00 0.20981937E+04</pdfrwt>
<totfact> 0.26016708E+00</totfact>
</mgrwt>
</event>
<event>
12    5  0.5095719E-008  0.1998576E+04  0.7818608E-02  0.8607287E-01
         -4   -1    0    0    0  501 -0.00000000000E+00  0.00000000000E+00  0.76105142732E+03  0.76105142732E+03  0.00000000000E+00 0.  1.
          1   -1    0    0  501    0  0.00000000000E+00 -0.00000000000E+00 -0.13121018136E+04  0.13121018136E+04  0.00000000000E+00 0. -1.
        -24    2    1    2    0    0 -0.46387885079E+03 -0.21902611460E+03 -0.85061370959E+03  0.99658399704E+03  0.80498156033E+02 0.  0.
        254    2    1    2    0    0  0.46387885079E+03  0.21902611460E+03  0.29956332332E+03  0.10765692439E+04  0.89783468694E+03 0.  0.
         23    2    4    4    0    0  0.46059085774E+03  0.90139617286E+02 -0.22563555725E+03  0.52855830955E+03  0.90517363340E+02 0.  0.
         23    2    4    4    0    0  0.32879930520E+01  0.12888649731E+03  0.52519888057E+03  0.54801093431E+03  0.88654271687E+02 0.  0.
          1    1    3    3  502    0 -0.32509029353E+03 -0.12291353944E+03 -0.52154748653E+03  0.62674015176E+03  0.00000000000E+00 0. -1.
         -2    1    3    3    0  502 -0.13878855726E+03 -0.96112575159E+02 -0.32906622306E+03  0.36984384528E+03  0.00000000000E+00 0.  1.
         13    1    5    5    0    0  0.35486858651E+02  0.16805344259E+02 -0.48048680937E+02  0.62051691938E+02  0.00000000000E+00 0. -1.
        -13    1    5    5    0    0  0.42510399909E+03  0.73334273027E+02 -0.17758687631E+03  0.46650661762E+03  0.00000000000E+00 0.  1.
          3    1    6    6  503    0 -0.11920148188E+02 -0.10366308613E+02  0.69238612951E+02  0.71017855575E+02  0.00000000000E+00 0. -1.
         -3    1    6    6    0  503  0.15208141240E+02  0.13925280592E+03  0.45596026762E+03  0.47699307874E+03  0.00000000000E+00 0.  1.
<mgrwt>
<rscale>  0 0.19985765E+04</rscale>
<asrwt>0</asrwt>
<pdfrwt beam="1">  1        1 0.20186182E+00 0.19985765E+04</pdfrwt>
<pdfrwt beam="2">  1       -4 0.11708484E+00 0.19985765E+04</pdfrwt>
<totfact> 0.22583834E+00</totfact>
</mgrwt>
</event>
<event>
12    5  0.5095719E-008  0.1200500E+04  0.7818608E-02  0.9112419E-01
          1   -1    0    0  501    0  0.00000000000E+00  0.00000000000E+00  0.19203921785E+04  0.19203921785E+04  0.00000000000E+00 0. -1.
         -2   -1    0    0    0  501 -0.00000000000E+00 -0.00000000000E+00 -0.18761783160E+03  0.18761783160E+03  0.00000000000E+00 0.  1.
        -24    2    1    2    0    0 -0.16378709779E+02  0.31589551278E+03  0.58299259001E+03  0.66811206547E+03  0.80219292493E+02 0.  0.
        254    2    1    2    0    0  0.16378709779E+02 -0.31589551278E+03  0.11497817568E+04  0.14398979446E+04  0.80700047418E+03 0.  0.
         23    2    4    4    0    0 -0.20359988735E+03 -0.32500383062E+03  0.16558901976E+03  0.42718324051E+03  0.89361028755E+02 0.  0.
         23    2    4    4    0    0  0.21997859713E+03  0.91083178394E+01  0.98419273708E+03  0.10127147041E+04  0.92098770176E+02 0.  0.
          3    1    3    3  502    0 -0.28252256436E+02  0.25778421734E+03  0.40897090758E+03  0.48426035968E+03  0.00000000000E+00 0. -1.
         -4    1    3    3    0  502  0.11873546657E+02  0.58111295438E+02  0.17402168243E+03  0.18385170579E+03  0.00000000000E+00 0.  1.
         13    1    5    5    0    0 -0.12079408401E+03 -0.23912439842E+03  0.77499655474E+02  0.27888686820E+03  0.00000000000E+00 0.  1.
        -13    1    5    5    0    0 -0.82805803345E+02 -0.85879432196E+02  0.88089364282E+02  0.14829637231E+03  0.00000000000E+00 0. -1.
          3    1    6    6  503    0  0.11737137907E+02  0.20972149762E+02  0.49416674066E+02  0.54950879407E+02  0.00000000000E+00 0. -1.
         -3    1    6    6    0  503  0.20824145923E+03 -0.11863831922E+02  0.93477606302E+03  0.95776382467E+03  0.00000000000E+00 0.  1.
<mgrwt>
<rscale>  0 0.12004996E+04</rscale>
<asrwt>0</asrwt>
<pdfrwt beam="1">  1        1 0.29544494E+00 0.12004996E+04</pdfrwt>
<pdfrwt beam="2">  1       -2 0.28864283E-01 0.12004996E+04</pdfrwt>
<totfact> 0.32351338E+01</totfact>
</mgrwt>
</event>
<event>
12    5  0.5095719E-008  0.1337561E+04  0.7818608E-02  0.9000298E-01
         -2   -1    0    0    0  501 -0.00000000000E+00  0.00000000000E+00  0.19673637328E+04  0.19673637328E+04  0.00000000000E+00 0.  1.
          1   -1    0    0  501    0  0.00000000000E+00 -0.00000000000E+00 -0.22734334930E+03  0.22734334930E+03  0.00000000000E+00 0. -1.
        -24    2    1    2    0    0  0.31447670692E+03 -0.34273870707E+02  0.76769447653E+03  0.83403592376E+03  0.78681734969E+02 0.  0.
        254    2    1    2    0    0 -0.31447670692E+03  0.34273870707E+02  0.97232590699E+03  0.13606711584E+04  0.89774051619E+03 0.  0.
         23    2    4    4    0    0  0.11491747027E+03 -0.31179149408E+03  0.17388690874E+03  0.38625645103E+03  0.92398204416E+02 0.  0.
         23    2    4    4    0    0 -0.42939417719E+03  0.34606536478E+03  0.79843899825E+03  0.97441470734E+03  0.88535822404E+02 0.  0.
          3    1    3    3  502    0  0.23727378574E+03 -0.86297483302E+01  0.48707815399E+03  0.54186571219E+03  0.00000000000E+00 0. -1.
         -4    1    3    3    0  502  0.77202921181E+02 -0.25644122377E+02  0.28061632254E+03  0.29217021156E+03  0.00000000000E+00 0.  1.
         13    1    5    5    0    0  0.29907169497E+02 -0.53546780504E+02  0.75160293624E+02  0.97009103837E+02  0.00000000000E+00 0. -1.
        -13    1    5    5    0    0  0.85010300769E+02 -0.25824471357E+03  0.98726615117E+02  0.28924734719E+03  0.00000000000E+00 0.  1.
          3    1    6    6  503    0 -0.22547032010E+03  0.13088154749E+03  0.33949996862E+03  0.42805031645E+03  0.00000000000E+00 0. -1.
         -3    1    6    6    0  503 -0.20392385708E+03  0.21518381730E+03  0.45893902963E+03  0.54636439089E+03  0.00000000000E+00 0.  1.
<mgrwt>
<rscale>  0 0.13375606E+04</rscale>
<asrwt>0</asrwt>
<pdfrwt beam="1">  1        1 0.34975901E-01 0.13375606E+04</pdfrwt>
<pdfrwt beam="2">  1       -2 0.30267133E+00 0.13375606E+04</pdfrwt>
<totfact> 0.33120561E+00</totfact>
</mgrwt>
</event>
<event>
12    5  0.5095719E-008  0.1434222E+04  0.7818608E-02  0.8929413E-01
         -2   -1    0    0    0  501 -0.00000000000E+00  0.00000000000E+00  0.24216411541E+03  0.24216411541E+03  0.00000000000E+00 0.  1.
          1   -1    0    0  501    0  0.00000000000E+00 -0.00000000000E+00 -0.21235528912E+04  0.21235528912E+04  0.00000000000E+00 0. -1.
        -24    2    1    2    0    0  0.30745709878E+03  0.30021381540E+03 -0.66160241178E+03  0.79285275905E+03  0.78990782430E+02 0.  0.
        254    2    1    2    0    0 -0.30745709878E+03 -0.30021381540E+03 -0.12197863640E+04  0.15728642476E+04  0.89518990437E+03 0.  0.
         23    2    4    4    0    0 -0.10263186132E+03 -0.39254046316E+03 -0.12598316302E+04  0.13268211337E+04  0.93044452793E+02 0.  0.
         23    2    4    4    0    0 -0.20482523746E+03  0.92326647763E+02  0.40045266206E+02  0.24604311385E+03  0.91956526351E+02 0.  0.
          3    1    3    3  502    0  0.30888195641E+03  0.28195658257E+03 -0.62660017050E+03  0.75334942166E+03  0.00000000000E+00 0. -1.
         -4    1    3    3    0  502 -0.14248576283E+01  0.18257232830E+02 -0.35002241287E+02  0.39503337390E+02  0.00000000000E+00 0.  1.
         13    1    5    5    0    0 -0.12076292306E+02  0.12997389940E+01 -0.35726381621E+02  0.37734606147E+02  0.00000000000E+00 0.  1.
        -13    1    5    5    0    0 -0.90555569015E+02 -0.39384020215E+03 -0.12241052486E+04  0.12890865276E+04  0.00000000000E+00 0. -1.
          1    1    6    6  503    0 -0.18767258435E+03  0.45948780934E+02  0.29050449869E+02  0.19538735380E+03  0.00000000000E+00 0. -1.
         -1    1    6    6    0  503 -0.17152653113E+02  0.46377866828E+02  0.10994816337E+02  0.50655760054E+02  0.00000000000E+00 0.  1.
<mgrwt>
<rscale>  0 0.14342222E+04</rscale>
<asrwt>0</asrwt>
<pdfrwt beam="1">  1        1 0.32670045E+00 0.14342222E+04</pdfrwt>
<pdfrwt beam="2">  1       -2 0.37256017E-01 0.14342222E+04</pdfrwt>
<totfact> 0.14261185E+01</totfact>
</mgrwt>
</event>
<event>
12    5  0.5095719E-008  0.2079286E+04  0.7818608E-02  0.8570423E-01
          1   -1    0    0  501    0  0.00000000000E+00  0.00000000000E+00  0.20951679123E+04  0.20951679123E+04  0.00000000000E+00 0. -1.
         -2   -1    0    0    0  501 -0.00000000000E+00 -0.00000000000E+00 -0.51588121579E+03  0.51588121579E+03  0.00000000000E+00 0.  1.
        -24    2    1    2    0    0  0.37045349684E+03  0.23848642775E+02 -0.30639917331E+03  0.48779294406E+03  0.79100896258E+02 0.  0.
        254    2    1    2    0    0 -0.37045349684E+03 -0.23848642775E+02  0.18856858698E+04  0.21232561840E+04  0.90255253158E+03 0.  0.
         23    2    4    4    0    0  0.20258909982E+03 -0.18041072325E+02  0.12194145905E+04  0.12397186356E+04  0.92533930311E+02 0.  0.
         23    2    4    4    0    0 -0.57304259666E+03 -0.58075704498E+01  0.66627127926E+03  0.88353754837E+03  0.91157206813E+02 0.  0.
          1    1    3    3  502    0  0.19218427337E+03 -0.31255211894E+01 -0.11116360576E+03  0.22204033656E+03  0.00000000000E+00 0. -1.
         -2    1    3    3    0  502  0.17826922346E+03  0.26974163964E+02 -0.19523556755E+03  0.26575260750E+03  0.00000000000E+00 0.  1.
         13    1    5    5    0    0 -0.49045220429E+00 -0.20348729318E+02  0.10904358680E+03  0.11092707131E+03  0.00000000000E+00 0. -1.
        -13    1    5    5    0    0  0.20307955203E+03  0.23076569928E+01  0.11103710037E+04  0.11287915643E+04  0.00000000000E+00 0.  1.
          3    1    6    6  503    0 -0.19977499529E+03 -0.11518059716E+02  0.17023997384E+03  0.26272488107E+03  0.00000000000E+00 0. -1.
         -3    1    6    6    0  503 -0.37326760137E+03  0.57104892666E+01  0.49603130542E+03  0.62081266729E+03  0.00000000000E+00 0.  1.
<mgrwt>
<rscale>  0 0.20792862E+04</rscale>
<asrwt>0</asrwt>
<pdfrwt beam="1">  1        1 0.32233352E+00 0.20792862E+04</pdfrwt>
<pdfrwt beam="2">  1       -2 0.79366342E-01 0.20792862E+04</pdfrwt>
<totfact> 0.29242491E+00</totfact>
</mgrwt>
</event>
<event>
12    5  0.5279776E-008  0.1993217E+04  0.7818608E-02  0.8609799E-01
         -2   -1    0    0    0  501 -0.00000000000E+00  0.00000000000E+00  0.95567295018E+03  0.95567295018E+03  0.00000000000E+00 0.  1.
          1   -1    0    0  501    0  0.00000000000E+00 -0.00000000000E+00 -0.10392973379E+04  0.10392973379E+04  0.00000000000E+00 0. -1.
        -24    2    1    2    0    0 -0.60790501549E+02 -0.48758455886E+03 -0.65277403945E+03  0.82173844716E+03  0.87783494139E+02 0.  0.
        254    2    1    2    0    0  0.60790501549E+02  0.48758455886E+03  0.56914965169E+03  0.11732318410E+04  0.90061503401E+03 0.  0.
         23    2    4    4    0    0  0.37826535572E+03 -0.52226936097E+02  0.20747366018E+03  0.44434119017E+03  0.92636069743E+02 0.  0.
         23    2    4    4    0    0 -0.31747485417E+03  0.53981149496E+03  0.36167599151E+03  0.72889065079E+03  0.91023759849E+02 0.  0.
          1    1    3    3  502    0 -0.66320451569E+02 -0.48807902696E+03 -0.63843057940E+03  0.80635795002E+03  0.00000000000E+00 0. -1.
         -2    1    3    3    0  502  0.55299500194E+01  0.49446809899E+00 -0.14343460056E+02  0.15380497141E+02  0.00000000000E+00 0.  1.
         13    1    5    5    0    0  0.53064050862E+02 -0.23107944611E+02  0.68001530876E+02  0.89297137690E+02  0.00000000000E+00 0.  1.
        -13    1    5    5    0    0  0.32520130486E+03 -0.29118991486E+02  0.13947212931E+03  0.35504405248E+03  0.00000000000E+00 0. -1.
          3    1    6    6  503    0 -0.11790315616E+03  0.24545949257E+03  0.20204572456E+03  0.33907814960E+03  0.00000000000E+00 0. -1.
         -3    1    6    6    0  503 -0.19957169801E+03  0.29435200238E+03  0.15963026695E+03  0.38981250119E+03  0.00000000000E+00 0.  1.
<mgrwt>
<rscale>  0 0.19932169E+04</rscale>
<asrwt>0</asrwt>
<pdfrwt beam="1">  1        1 0.15989190E+00 0.19932169E+04</pdfrwt>
<pdfrwt beam="2">  1       -2 0.14702661E+00 0.19932169E+04</pdfrwt>
<totfact> 0.36258614E+00</totfact>
</mgrwt>
</event>
<event>
12    5  0.5095719E-008  0.1508108E+04  0.7818608E-02  0.8879079E-01
         -2   -1    0    0    0  501 -0.00000000000E+00  0.00000000000E+00  0.36880004301E+03  0.36880004301E+03  0.00000000000E+00 0.  1.
          1   -1    0    0  501    0  0.00000000000E+00 -0.00000000000E+00 -0.15417499144E+04  0.15417499144E+04  0.00000000000E+00 0. -1.
        -24    2    1    2    0    0  0.36020493510E+02 -0.30126642804E+03 -0.85496948231E+03  0.91059847744E+03  0.78471872835E+02 0.  0.
        254    2    1    2    0    0 -0.36020493510E+02  0.30126642804E+03 -0.31798038909E+03  0.99995147996E+03  0.89818288662E+03 0.  0.
         23    2    4    4    0    0 -0.25125613069E+03  0.54665321022E+03 -0.21341590976E+03  0.64465738387E+03  0.89874448994E+02 0.  0.
         23    2    4    4    0    0  0.21523563718E+03 -0.24538678218E+03 -0.10456447933E+03  0.35529409609E+03  0.93590127678E+02 0.  0.
          3    1    3    3  502    0  0.42777979463E+02 -0.15747165682E+03 -0.54358529668E+03  0.56754933970E+03  0.00000000000E+00 0. -1.
         -4    1    3    3    0  502 -0.67574859523E+01 -0.14379477122E+03 -0.31138418563E+03  0.34304913775E+03  0.00000000000E+00 0.  1.
         13    1    5    5    0    0 -0.11778839835E+03  0.17874109319E+03 -0.45827863385E+02  0.21891248992E+03  0.00000000000E+00 0. -1.
        -13    1    5    5    0    0 -0.13346773234E+03  0.36791211703E+03 -0.16758804638E+03  0.42574489395E+03  0.00000000000E+00 0.  1.
          3    1    6    6  503    0 -0.73598083160E+01  0.60432431830E+00  0.21395372576E+00  0.73876763956E+01  0.00000000000E+00 0. -1.
         -3    1    6    6    0  503  0.22259544550E+03 -0.24599110650E+03 -0.10477843305E+03  0.34790641970E+03  0.00000000000E+00 0.  1.
<mgrwt>
<rscale>  0 0.15081080E+04</rscale>
<asrwt>0</asrwt>
<pdfrwt beam="1">  1        1 0.23719229E+00 0.15081080E+04</pdfrwt>
<pdfrwt beam="2">  1       -2 0.56738469E-01 0.15081080E+04</pdfrwt>
<totfact> 0.15126099E+01</totfact>
</mgrwt>
</event>
<event>
12    5  0.5095719E-008  0.1248945E+04  0.7818608E-02  0.9071062E-01
          1   -1    0    0  501    0  0.00000000000E+00  0.00000000000E+00  0.12608836774E+04  0.12608836774E+04  0.00000000000E+00 0. -1.
         -2   -1    0    0    0  501 -0.00000000000E+00 -0.00000000000E+00 -0.30927969174E+03  0.30927969174E+03  0.00000000000E+00 0.  1.
        -24    2    1    2    0    0  0.19118210604E+03 -0.21680895277E+03  0.33797115903E+03  0.45124510944E+03  0.76425943160E+02 0.  0.
        254    2    1    2    0    0 -0.19118210604E+03  0.21680895277E+03  0.61363282660E+03  0.11189182597E+04  0.88987420811E+03 0.  0.
         23    2    4    4    0    0 -0.12865994733E+03  0.37239656011E+03  0.77152259849E+03  0.87111219700E+03  0.91415314638E+02 0.  0.
         23    2    4    4    0    0 -0.62522158716E+02 -0.15558760734E+03 -0.15788977189E+03  0.24780606267E+03  0.91444741444E+02 0.  0.
          3    1    3    3  502    0  0.16212008229E+03 -0.15840406410E+03  0.29918983191E+03  0.37535226671E+03  0.00000000000E+00 0. -1.
         -4    1    3    3    0  502  0.29062023752E+02 -0.58404888666E+02  0.38781327118E+02  0.75892842730E+02  0.00000000000E+00 0.  1.
         13    1    5    5    0    0  0.50525162360E+01  0.91721166365E+02  0.14416143382E+03  0.17094098186E+03  0.00000000000E+00 0.  1.
        -13    1    5    5    0    0 -0.13371246356E+03  0.28067539375E+03  0.62736116467E+03  0.70017121513E+03  0.00000000000E+00 0. -1.
          2    1    6    6  503    0  0.12447957015E+02 -0.14485429293E+02 -0.53851263040E+02  0.57137884338E+02  0.00000000000E+00 0. -1.
         -2    1    6    6    0  503 -0.74970115731E+02 -0.14110217805E+03 -0.10403850885E+03  0.19066817833E+03  0.00000000000E+00 0.  1.
<mgrwt>
<rscale>  0 0.12489447E+04</rscale>
<asrwt>0</asrwt>
<pdfrwt beam="1">  1        1 0.19398210E+00 0.12489447E+04</pdfrwt>
<pdfrwt beam="2">  1       -2 0.47581492E-01 0.12489447E+04</pdfrwt>
<totfact> 0.34937614E+01</totfact>
</mgrwt>
</event>
<event>
12    5  0.5095719E-008  0.1221411E+04  0.7818608E-02  0.9094319E-01
         -2   -1    0    0    0  501 -0.00000000000E+00  0.00000000000E+00  0.39799618526E+03  0.39799618526E+03  0.00000000000E+00 0.  1.
          1   -1    0    0  501    0  0.00000000000E+00 -0.00000000000E+00 -0.93709704351E+03  0.93709704351E+03  0.00000000000E+00 0. -1.
        -24    2    1    2    0    0 -0.14667340843E+03 -0.66381199273E+02 -0.38483467335E+03  0.42477684052E+03  0.80112958185E+02 0.  0.
        254    2    1    2    0    0  0.14667340843E+03  0.66381199273E+02 -0.15426618489E+03  0.91031638825E+03  0.88258615362E+03 0.  0.
         23    2    4    4    0    0  0.42826612992E+03 -0.55355566148E+02  0.15028042228E+03  0.46605694274E+03  0.90270437113E+02 0.  0.
         23    2    4    4    0    0 -0.28159272149E+03  0.12173676542E+03 -0.30454660718E+03  0.44425944550E+03  0.10248667293E+03 0.  0.
          1    1    3    3  502    0 -0.11237354522E+03 -0.80363914185E+02 -0.33743417307E+03  0.36462034162E+03  0.00000000000E+00 0. -1.
         -2    1    3    3    0  502 -0.34299863210E+02  0.13982714913E+02 -0.47400500282E+02  0.60156498897E+02  0.00000000000E+00 0.  1.
         13    1    5    5    0    0  0.18748701482E+02  0.16990288062E+02  0.82514528657E+01  0.26613345713E+02  0.00000000000E+00 0. -1.
        -13    1    5    5    0    0  0.40951742844E+03 -0.72345854210E+02  0.14202896942E+03  0.43944359703E+03  0.00000000000E+00 0.  1.
          4    1    6    6  503    0 -0.25711573234E+03  0.12294322295E+03 -0.30786536645E+03  0.41952904518E+03  0.00000000000E+00 0.  1.
         -4    1    6    6    0  503 -0.24476989145E+02 -0.12064575341E+01  0.33187592694E+01  0.24730400329E+02  0.00000000000E+00 0. -1.
<mgrwt>
<rscale>  0 0.12214107E+04</rscale>
<asrwt>0</asrwt>
<pdfrwt beam="1">  1        1 0.14416877E+00 0.12214107E+04</pdfrwt>
<pdfrwt beam="2">  1       -2 0.61230183E-01 0.12214107E+04</pdfrwt>
<totfact> 0.36480002E+01</totfact>
</mgrwt>
</event>
<event>
12    5  0.5095719E-008  0.1580638E+04  0.7818608E-02  0.8832532E-01
          1   -1    0    0  501    0  0.00000000000E+00  0.00000000000E+00  0.12870397396E+04  0.12870397396E+04  0.00000000000E+00 0. -1.
         -2   -1    0    0    0  501 -0.00000000000E+00 -0.00000000000E+00 -0.48530299465E+03  0.48530299465E+03  0.00000000000E+00 0.  1.
        -24    2    1    2    0    0  0.91936415134E+02  0.55678244435E+02  0.85004015601E+03  0.86068311251E+03  0.81576847207E+02 0.  0.
        254    2    1    2    0    0 -0.91936415134E+02 -0.55678244435E+02 -0.48303411078E+02  0.91165962171E+03  0.90401198831E+03 0.  0.
         23    2    4    4    0    0 -0.46648164736E+03 -0.16370621878E+03 -0.88728888513E+02  0.51045639141E+03  0.91038774590E+02 0.  0.
         23    2    4    4    0    0  0.37454523223E+03  0.10802797435E+03  0.40425477435E+02  0.40120323030E+03  0.85881537909E+02 0.  0.
          1    1    3    3  502    0  0.51961663341E+02  0.44516341037E+02  0.73864468202E+03  0.74180704051E+03  0.00000000000E+00 0. -1.
         -4    1    3    3    0  502  0.39974751793E+02  0.11161903398E+02  0.11139547399E+03  0.11887607200E+03  0.00000000000E+00 0.  1.
         13    1    5    5    0    0 -0.69420717920E+02 -0.60033554158E+02 -0.25383541799E+02  0.95223883010E+02  0.00000000000E+00 0. -1.
        -13    1    5    5    0    0 -0.39706092944E+03 -0.10367266463E+03 -0.63345346714E+02  0.41523250840E+03  0.00000000000E+00 0.  1.
          3    1    6    6  503    0  0.72917126979E+01  0.75471994241E+01  0.16687130059E+02  0.19712676197E+02  0.00000000000E+00 0. -1.
         -3    1    6    6    0  503  0.36725351953E+03  0.10048077492E+03  0.23738347376E+02  0.38149055411E+03  0.00000000000E+00 0.  1.
<mgrwt>
<rscale>  0 0.15806381E+04</rscale>
<asrwt>0</asrwt>
<pdfrwt beam="1">  1        1 0.19800611E+00 0.15806381E+04</pdfrwt>
<pdfrwt beam="2">  1       -2 0.74662000E-01 0.15806381E+04</pdfrwt>
<totfact> 0.12565464E+01</totfact>
</mgrwt>
</event>
<event>
12    5  0.5095719E-008  0.3622099E+04  0.7818608E-02  0.8085448E-01
         -2   -1    0    0    0  501 -0.00000000000E+00  0.00000000000E+00  0.14199942087E+04  0.14199942087E+04  0.00000000000E+00 0.  1.
          1   -1    0    0  501    0  0.00000000000E+00 -0.00000000000E+00 -0.23097989399E+04  0.23097989399E+04  0.00000000000E+00 0. -1.
        -24    2    1    2    0    0 -0.14715938895E+04  0.84553536766E+03 -0.39896359600E+03  0.17452698740E+04  0.79223409409E+02 0.  0.
        254    2    1    2    0    0  0.14715938895E+04 -0.84553536766E+03 -0.49084113524E+03  0.19845232746E+04  0.90381910461E+03 0.  0.
         23    2    4    4    0    0  0.15151845807E+04 -0.57496409096E+03 -0.49496967099E+03  0.16970170427E+04  0.92216313297E+02 0.  0.
         23    2    4    4    0    0 -0.43590691221E+02 -0.27057127670E+03  0.41285357551E+01  0.28750623192E+03  0.86797606258E+02 0.  0.
          1    1    3    3  502    0 -0.10040615944E+04  0.55226468505E+03 -0.30034198993E+03  0.11846270631E+04  0.00000000000E+00 0. -1.
         -2    1    3    3    0  502 -0.46753229508E+03  0.29327068261E+03 -0.98621606063E+02  0.56064281089E+03  0.00000000000E+00 0.  1.
         13    1    5    5    0    0  0.58926444088E+03 -0.18344857959E+03 -0.21382587858E+03  0.65315194939E+03  0.00000000000E+00 0. -1.
        -13    1    5    5    0    0  0.92592013981E+03 -0.39151551137E+03 -0.28114379241E+03  0.10438650933E+04  0.00000000000E+00 0.  1.
          2    1    6    6  503    0 -0.53207327379E+02 -0.27248873960E+03  0.31633675046E+01  0.27765291245E+03  0.00000000000E+00 0. -1.
         -2    1    6    6    0  503  0.96166361580E+01  0.19174629019E+01  0.96516825053E+00  0.98533194776E+01  0.00000000000E+00 0.  1.
<mgrwt>
<rscale>  0 0.36220995E+04</rscale>
<asrwt>0</asrwt>
<pdfrwt beam="1">  1        1 0.35535368E+00 0.36220995E+04</pdfrwt>
<pdfrwt beam="2">  1       -2 0.21846065E+00 0.36220995E+04</pdfrwt>
<totfact> 0.13159709E-01</totfact>
</mgrwt>
</event>
<event>
12    5  0.5095719E-008  0.2377763E+04  0.7818608E-02  0.8447876E-01
          1   -1    0    0  501    0  0.00000000000E+00  0.00000000000E+00  0.22003257953E+04  0.22003257953E+04  0.00000000000E+00 0. -1.
         -2   -1    0    0    0  501 -0.00000000000E+00 -0.00000000000E+00 -0.64237733501E+03  0.64237733501E+03  0.00000000000E+00 0.  1.
        -24    2    1    2    0    0 -0.58632320455E+03  0.25841771143E+03 -0.27990771765E+03  0.70376328673E+03  0.79873772749E+02 0.  0.
        254    2    1    2    0    0  0.58632320455E+03 -0.25841771143E+03  0.18378561780E+04  0.21389398436E+04  0.88701392884E+03 0.  0.
         23    2    4    4    0    0  0.23621205089E+03 -0.10427619397E+03  0.15045517610E+02  0.27416177865E+03  0.90932148652E+02 0.  0.
         23    2    4    4    0    0  0.35011115366E+03 -0.15414151746E+03  0.18228106603E+04  0.18647780650E+04  0.91766555746E+02 0.  0.
          3    1    3    3  502    0 -0.32199348227E+03  0.10912916855E+03 -0.17644275135E+03  0.38304180262E+03  0.00000000000E+00 0. -1.
         -4    1    3    3    0  502 -0.26432972227E+03  0.14928854288E+03 -0.10346496630E+03  0.32072148410E+03  0.00000000000E+00 0.  1.
         13    1    5    5    0    0  0.76579993129E+02 -0.21799127352E+02  0.45820835133E+02  0.91865370152E+02  0.00000000000E+00 0.  1.
        -13    1    5    5    0    0  0.15963205776E+03 -0.82477066618E+02 -0.30775317523E+02  0.18229640850E+03  0.00000000000E+00 0. -1.
          3    1    6    6  503    0  0.25352138254E+03 -0.12239889636E+03  0.11296685327E+04  0.11642188690E+04  0.00000000000E+00 0. -1.
         -3    1    6    6    0  503  0.96589771117E+02 -0.31742621095E+02  0.69314212764E+03  0.70055919592E+03  0.00000000000E+00 0.  1.
<mgrwt>
<rscale>  0 0.23777632E+04</rscale>
<asrwt>0</asrwt>
<pdfrwt beam="1">  1        1 0.33851166E+00 0.23777632E+04</pdfrwt>
<pdfrwt beam="2">  1       -2 0.98827283E-01 0.23777632E+04</pdfrwt>
<totfact> 0.14590963E+00</totfact>
</mgrwt>
</event>
<event>
12    5  0.5095719E-008  0.1670091E+04  0.7818608E-02  0.8778609E-01
          1   -1    0    0  501    0  0.00000000000E+00  0.00000000000E+00  0.29202196345E+03  0.29202196345E+03  0.00000000000E+00 0. -1.
         -2   -1    0    0    0  501 -0.00000000000E+00 -0.00000000000E+00 -0.23878369595E+04  0.23878369595E+04  0.00000000000E+00 0.  1.
        -24    2    1    2    0    0 -0.48705954186E+03 -0.37773232022E+02 -0.23863728131E+03  0.54949989543E+03  0.79677905804E+02 0.  0.
        254    2    1    2    0    0  0.48705954186E+03  0.37773232022E+02 -0.18571777147E+04  0.21303590275E+04  0.92231594786E+03 0.  0.
         23    2    4    4    0    0  0.34426991976E+03  0.41289970233E+03 -0.61796969630E+03  0.82449956327E+03  0.94366532530E+02 0.  0.
         23    2    4    4    0    0  0.14278962209E+03 -0.37512647031E+03 -0.12392080184E+04  0.13058594642E+04  0.92323791700E+02 0.  0.
          3    1    3    3  502    0 -0.44185435357E+03 -0.57242360962E+02 -0.21962019796E+03  0.49673432437E+03  0.00000000000E+00 0. -1.
         -4    1    3    3    0  502 -0.45205188287E+02  0.19469128940E+02 -0.19017083350E+02  0.52765571056E+02  0.00000000000E+00 0.  1.
         13    1    5    5    0    0  0.13585895659E+02  0.54239872303E+02 -0.87258194388E+02  0.10363654180E+03  0.00000000000E+00 0.  1.
        -13    1    5    5    0    0  0.33068402410E+03  0.35865983003E+03 -0.53071150191E+03  0.72086302147E+03  0.00000000000E+00 0. -1.
          3    1    6    6  503    0  0.84550783511E+02 -0.19966861609E+03 -0.81020443793E+03  0.83871784438E+03  0.00000000000E+00 0. -1.
         -3    1    6    6    0  503  0.58238838582E+02 -0.17545785422E+03 -0.42900358049E+03  0.46714161985E+03  0.00000000000E+00 0.  1.
<mgrwt>
<rscale>  0 0.16700908E+04</rscale>
<asrwt>0</asrwt>
<pdfrwt beam="1">  1        1 0.44926456E-01 0.16700908E+04</pdfrwt>
<pdfrwt beam="2">  1       -2 0.36735953E+00 0.16700908E+04</pdfrwt>
<totfact> 0.91879608E-01</totfact>
</mgrwt>
</event>
<event>
12    5  0.5095719E-008  0.1267959E+04  0.7818608E-02  0.9055367E-01
          1   -1    0    0  501    0  0.00000000000E+00  0.00000000000E+00  0.49637240258E+03  0.49637240258E+03  0.00000000000E+00 0. -1.
         -2   -1    0    0    0  501 -0.00000000000E+00 -0.00000000000E+00 -0.80973442387E+03  0.80973442387E+03  0.00000000000E+00 0.  1.
        -24    2    1    2    0    0  0.20537129138E+03  0.20671890052E+03  0.19621565955E+02  0.30288336409E+03  0.80269889959E+02 0.  0.
        254    2    1    2    0    0 -0.20537129138E+03 -0.20671890052E+03 -0.33298358724E+03  0.10032234624E+04  0.90037168709E+03 0.  0.
         23    2    4    4    0    0 -0.33740191394E+03  0.19836971560E+03  0.71891937901E+02  0.40828401529E+03  0.91306028360E+02 0.  0.
         23    2    4    4    0    0  0.13203062255E+03 -0.40508861612E+03 -0.40487552514E+03  0.59493944707E+03  0.92194807979E+02 0.  0.
          1    1    3    3  502    0  0.21191830145E+03  0.19834018769E+03  0.24290910734E+02  0.29127005491E+03  0.00000000000E+00 0. -1.
         -2    1    3    3    0  502 -0.65470100638E+01  0.83787128297E+01 -0.46693447795E+01  0.11613309181E+02  0.00000000000E+00 0.  1.
         13    1    5    5    0    0 -0.61453363807E+02  0.81691098880E+02  0.14805096563E+02  0.10329154101E+03  0.00000000000E+00 0. -1.
        -13    1    5    5    0    0 -0.27594855013E+03  0.11667861672E+03  0.57086841337E+02  0.30499247429E+03  0.00000000000E+00 0.  1.
          1    1    6    6  503    0  0.10948148886E+02 -0.12338430559E+03 -0.16111824921E+03  0.20323050720E+03  0.00000000000E+00 0. -1.
         -1    1    6    6    0  503  0.12108247366E+03 -0.28170431053E+03 -0.24375727593E+03  0.39170893986E+03  0.00000000000E+00 0.  1.
<mgrwt>
<rscale>  0 0.12679587E+04</rscale>
<asrwt>0</asrwt>
<pdfrwt beam="1">  1        1 0.76364985E-01 0.12679587E+04</pdfrwt>
<pdfrwt beam="2">  1       -2 0.12457453E+00 0.12679587E+04</pdfrwt>
<totfact> 0.18638564E+01</totfact>
</mgrwt>
</event>
<event>
12    5  0.5095719E-008  0.1727841E+04  0.7818608E-02  0.8745643E-01
         -2   -1    0    0    0  501 -0.00000000000E+00  0.00000000000E+00  0.49712208277E+03  0.49712208277E+03  0.00000000000E+00 0.  1.
          1   -1    0    0  501    0  0.00000000000E+00 -0.00000000000E+00 -0.15013596386E+04  0.15013596386E+04  0.00000000000E+00 0. -1.
        -24    2    1    2    0    0 -0.89513245899E+01  0.61620910640E+03 -0.50079664983E+03  0.79810726165E+03  0.79900735940E+02 0.  0.
        254    2    1    2    0    0  0.89513245899E+01 -0.61620910640E+03 -0.50344090595E+03  0.12003744597E+04  0.89869478058E+03 0.  0.
         23    2    4    4    0    0  0.16915908545E+03 -0.67777121080E+03 -0.48582822505E+02  0.70609974348E+03  0.90708030106E+02 0.  0.
         23    2    4    4    0    0 -0.16020776086E+03  0.61562104402E+02 -0.45485808344E+03  0.49427471619E+03  0.89191925942E+02 0.  0.
          1    1    3    3  502    0 -0.29823984620E+00  0.55481612653E+03 -0.41792240938E+03  0.69460792068E+03  0.00000000000E+00 0. -1.
         -2    1    3    3    0  502 -0.86530847437E+01  0.61392979868E+02 -0.82874240447E+02  0.10349934098E+03  0.00000000000E+00 0.  1.
         13    1    5    5    0    0  0.49848050805E+02 -0.93674237137E+02  0.12386300363E+02  0.10683216421E+03  0.00000000000E+00 0.  1.
        -13    1    5    5    0    0  0.11931103465E+03 -0.58409697366E+03 -0.60969122868E+02  0.59926757928E+03  0.00000000000E+00 0. -1.
          3    1    6    6  503    0 -0.15963900662E+03  0.74492419008E+02 -0.44291789894E+03  0.47666549920E+03  0.00000000000E+00 0. -1.
         -3    1    6    6    0  503 -0.56875424887E+00 -0.12930314606E+02 -0.11940184503E+02  0.17609216995E+02  0.00000000000E+00 0.  1.
<mgrwt>
<rscale>  0 0.17278415E+04</rscale>
<asrwt>0</asrwt>
<pdfrwt beam="1">  1        1 0.23097841E+00 0.17278415E+04</pdfrwt>
<pdfrwt beam="2">  1       -2 0.76480320E-01 0.17278415E+04</pdfrwt>
<totfact> 0.83142478E+00</totfact>
</mgrwt>
</event>
<event>
12    5  0.5095719E-008  0.2725026E+04  0.7818608E-02  0.8326930E-01
          1   -1    0    0  501    0  0.00000000000E+00  0.00000000000E+00  0.16988436104E+04  0.16988436104E+04  0.00000000000E+00 0. -1.
         -2   -1    0    0    0  501 -0.00000000000E+00 -0.00000000000E+00 -0.10927679303E+04  0.10927679303E+04  0.00000000000E+00 0.  1.
        -24    2    1    2    0    0  0.14036794280E+03 -0.11551603268E+04 -0.52053520592E+02  0.11675201196E+04  0.79341796361E+02 0.  0.
        254    2    1    2    0    0 -0.14036794280E+03  0.11551603268E+04  0.65812920068E+03  0.16240914212E+04  0.92219323331E+03 0.  0.
         23    2    4    4    0    0 -0.39903168175E+03  0.10477016609E+04  0.30792640529E+03  0.11660607789E+04  0.89297344040E+02 0.  0.
         23    2    4    4    0    0  0.25866373895E+03  0.10745866590E+03  0.35020279539E+03  0.45803064230E+03  0.93251148330E+02 0.  0.
          1    1    3    3  502    0  0.61027711626E+02 -0.30735266714E+03 -0.40240586883E+02  0.31592617558E+03  0.00000000000E+00 0. -1.
         -2    1    3    3    0  502  0.79340231171E+02 -0.84780765965E+03 -0.11812933709E+02  0.85159394399E+03  0.00000000000E+00 0.  1.
         13    1    5    5    0    0 -0.57502247692E+02  0.98228769387E+02  0.51662829139E+02  0.12499779014E+03  0.00000000000E+00 0.  1.
        -13    1    5    5    0    0 -0.34152943406E+03  0.94947289150E+03  0.25626357615E+03  0.10410629887E+04  0.00000000000E+00 0. -1.
          1    1    6    6  503    0  0.13583421795E+03  0.61251240752E+01  0.16267376545E+03  0.21201699432E+03  0.00000000000E+00 0. -1.
         -1    1    6    6    0  503  0.12282952100E+03  0.10133354183E+03  0.18752902994E+03  0.24601364799E+03  0.00000000000E+00 0.  1.
<mgrwt>
<rscale>  0 0.27250261E+04</rscale>
<asrwt>0</asrwt>
<pdfrwt beam="1">  1        1 0.26136055E+00 0.27250261E+04</pdfrwt>
<pdfrwt beam="2">  1       -2 0.16811814E+00 0.27250261E+04</pdfrwt>
<totfact> 0.80350356E-01</totfact>
</mgrwt>
</event>
<event>
12    5  0.5095719E-008  0.4248055E+04  0.7818608E-02  0.7956294E-01
         -2   -1    0    0    0  501 -0.00000000000E+00  0.00000000000E+00  0.21800097697E+04  0.21800097697E+04  0.00000000000E+00 0.  1.
          1   -1    0    0  501    0  0.00000000000E+00 -0.00000000000E+00 -0.20694830728E+04  0.20694830728E+04  0.00000000000E+00 0. -1.
        -24    2    1    2    0    0 -0.54864563715E+03  0.51242141635E+02  0.20034119050E+04  0.20799297253E+04  0.93864842689E+02 0.  0.
        254    2    1    2    0    0  0.54864563715E+03 -0.51242141635E+02 -0.18928852081E+04  0.21695631173E+04  0.90573280638E+03 0.  0.
         23    2    4    4    0    0  0.36946571263E+03 -0.16340500752E+03 -0.19784748783E+03  0.45891591450E+03  0.90851961218E+02 0.  0.
         23    2    4    4    0    0  0.17917992453E+03  0.11216286588E+03 -0.16950377203E+04  0.17106472028E+04  0.92059900960E+02 0.  0.
          1    1    3    3  502    0 -0.15983832589E+03  0.81804057282E+01  0.75024641853E+03  0.76712769340E+03  0.00000000000E+00 0. -1.
         -4    1    3    3    0  502 -0.38880731126E+03  0.43061735907E+02  0.12531654865E+04  0.13128020319E+04  0.00000000000E+00 0.  1.
         13    1    5    5    0    0  0.62637862644E+02 -0.68674381684E+02 -0.43154446357E+02  0.10247916265E+03  0.00000000000E+00 0. -1.
        -13    1    5    5    0    0  0.30682784998E+03 -0.94730625834E+02 -0.15469304147E+03  0.35643675186E+03  0.00000000000E+00 0.  1.
          3    1    6    6  503    0  0.13235720768E+03  0.90304875336E+02 -0.91683569568E+03  0.93073148319E+03  0.00000000000E+00 0. -1.
         -3    1    6    6    0  503  0.46822716841E+02  0.21857990547E+02 -0.77820202458E+03  0.77991571957E+03  0.00000000000E+00 0.  1.
<mgrwt>
<rscale>  0 0.42480552E+04</rscale>
<asrwt>0</asrwt>
<pdfrwt beam="1">  1        1 0.31838201E+00 0.42480552E+04</pdfrwt>
<pdfrwt beam="2">  1       -2 0.33538612E+00 0.42480552E+04</pdfrwt>
<totfact> 0.34621878E-02</totfact>
</mgrwt>
</event>
<event>
12    5  0.5095719E-008  0.1832284E+04  0.7818608E-02  0.8689317E-01
         -2   -1    0    0    0  501 -0.00000000000E+00  0.00000000000E+00  0.28490358616E+03  0.28490358616E+03  0.00000000000E+00 0.  1.
          1   -1    0    0  501    0  0.00000000000E+00 -0.00000000000E+00 -0.29459664863E+04  0.29459664863E+04  0.00000000000E+00 0. -1.
        -24    2    1    2    0    0  0.66954578476E+03 -0.34928453687E+02 -0.13228671720E+04  0.14852417402E+04  0.80336276482E+02 0.  0.
        254    2    1    2    0    0 -0.66954578476E+03  0.34928453687E+02 -0.13381957281E+04  0.17456283323E+04  0.89829778626E+03 0.  0.
         23    2    4    4    0    0 -0.77214549144E+03 -0.16827189848E+03 -0.69095162667E+03  0.10532944246E+04  0.86550000861E+02 0.  0.
         23    2    4    4    0    0  0.10259970668E+03  0.20320035217E+03 -0.64724410147E+03  0.69233390769E+03  0.92651119335E+02 0.  0.
          3    1    3    3  502    0  0.51176858971E+03 -0.13676964610E+02 -0.10745323596E+04  0.11902579303E+04  0.00000000000E+00 0. -1.
         -4    1    3    3    0  502  0.15777719505E+03 -0.21251489077E+02 -0.24833481244E+03  0.29498380995E+03  0.00000000000E+00 0.  1.
         13    1    5    5    0    0 -0.57208534729E+03 -0.85374497976E+02 -0.49956007504E+03  0.76428444840E+03  0.00000000000E+00 0. -1.
        -13    1    5    5    0    0 -0.20006014415E+03 -0.82897400509E+02 -0.19139155163E+03  0.28900997617E+03  0.00000000000E+00 0.  1.
          4    1    6    6  503    0  0.99966964963E+02  0.10850798440E+03 -0.33531516873E+03  0.36633814863E+03  0.00000000000E+00 0. -1.
         -4    1    6    6    0  503  0.26327417220E+01  0.94692367768E+02 -0.31192893274E+03  0.32599575906E+03  0.00000000000E+00 0.  1.
<mgrwt>
<rscale>  0 0.18322843E+04</rscale>
<asrwt>0</asrwt>
<pdfrwt beam="1">  1        1 0.45322564E+00 0.18322843E+04</pdfrwt>
<pdfrwt beam="2">  1       -2 0.43831319E-01 0.18322843E+04</pdfrwt>
<totfact> 0.26769576E+00</totfact>
</mgrwt>
</event>
<event>
12    5  0.5095719E-008  0.3065330E+04  0.7818608E-02  0.8225318E-01
         -2   -1    0    0    0  501 -0.00000000000E+00  0.00000000000E+00  0.22390758972E+04  0.22390758972E+04  0.00000000000E+00 0.  1.
          1   -1    0    0  501    0  0.00000000000E+00 -0.00000000000E+00 -0.10491211842E+04  0.10491211842E+04  0.00000000000E+00 0. -1.
        -24    2    1    2    0    0  0.11606815870E+04 -0.43864995941E+03 -0.14820730366E+03  0.12519067847E+04  0.75562288226E+02 0.  0.
        254    2    1    2    0    0 -0.11606815870E+04  0.43864995941E+03  0.13381620167E+04  0.20362902967E+04  0.90344067666E+03 0.  0.
         23    2    4    4    0    0 -0.90373907480E+03 -0.26262738213E+02  0.49224340749E+03  0.10337871754E+04  0.94753918526E+02 0.  0.
         23    2    4    4    0    0 -0.25694251223E+03  0.46491269762E+03  0.84591860918E+03  0.10025031213E+04  0.85269829682E+02 0.  0.
          1    1    3    3  502    0  0.11374790761E+04 -0.42227974900E+03 -0.15355385142E+03  0.12230117008E+04  0.00000000000E+00 0. -1.
         -2    1    3    3    0  502  0.23202510935E+02 -0.16370210410E+02  0.53465477593E+01  0.28895083933E+02  0.00000000000E+00 0.  1.
         13    1    5    5    0    0 -0.75256904160E+03  0.29768960452E+01  0.37876018681E+03  0.84251308797E+03  0.00000000000E+00 0. -1.
        -13    1    5    5    0    0 -0.15117003320E+03 -0.29239634258E+02  0.11348322068E+03  0.19127408744E+03  0.00000000000E+00 0.  1.
          2    1    6    6  503    0 -0.12286870520E+03  0.30090663795E+03  0.48000049594E+03  0.57969129680E+03  0.00000000000E+00 0. -1.
         -2    1    6    6    0  503 -0.13407380703E+03  0.16400605967E+03  0.36591811324E+03  0.42281182450E+03  0.00000000000E+00 0.  1.
<mgrwt>
<rscale>  0 0.30653300E+04</rscale>
<asrwt>0</asrwt>
<pdfrwt beam="1">  1        1 0.16140326E+00 0.30653300E+04</pdfrwt>
<pdfrwt beam="2">  1       -2 0.34447321E+00 0.30653300E+04</pdfrwt>
<totfact> 0.17347220E-01</totfact>
</mgrwt>
</event>
<event>
12    5  0.5095719E-008  0.1350888E+04  0.7818608E-02  0.8990156E-01
          1   -1    0    0  501    0  0.00000000000E+00  0.00000000000E+00  0.22744708393E+04  0.22744708393E+04  0.00000000000E+00 0. -1.
         -2   -1    0    0    0  501 -0.00000000000E+00 -0.00000000000E+00 -0.20058491826E+03  0.20058491826E+03  0.00000000000E+00 0.  1.
        -24    2    1    2    0    0 -0.17608548473E+03 -0.14913778575E+02  0.11811956344E+04  0.11959066896E+04  0.61165061114E+02 0.  0.
        254    2    1    2    0    0  0.17608548473E+03  0.14913778575E+02  0.89269028665E+03  0.12791490680E+04  0.89894264088E+03 0.  0.
         23    2    4    4    0    0  0.40264833191E+03 -0.59402388215E+02  0.93158902816E+03  0.10208777480E+04  0.93160807447E+02 0.  0.
         23    2    4    4    0    0 -0.22656284718E+03  0.74316166790E+02 -0.38898741517E+02  0.25827132001E+03  0.91309070095E+02 0.  0.
          1    1    3    3  502    0 -0.10879501231E+03  0.93962517936E+01  0.85575289370E+03  0.86269209995E+03  0.00000000000E+00 0. -1.
         -2    1    3    3    0  502 -0.67290472419E+02 -0.24310030368E+02  0.32544274070E+03  0.33321458961E+03  0.00000000000E+00 0.  1.
         13    1    5    5    0    0  0.16572405800E+03  0.53980358223E+01  0.29276396289E+03  0.33645852665E+03  0.00000000000E+00 0. -1.
        -13    1    5    5    0    0  0.23692427391E+03 -0.64800424037E+02  0.63882506527E+03  0.68441922134E+03  0.00000000000E+00 0.  1.
          3    1    6    6  503    0 -0.13267644567E+03  0.65939863432E+01  0.86557141955E+01  0.13312190383E+03  0.00000000000E+00 0. -1.
         -3    1    6    6    0  503 -0.93886401513E+02  0.67722180447E+02 -0.47554455713E+02  0.12514941619E+03  0.00000000000E+00 0.  1.
<mgrwt>
<rscale>  0 0.13508879E+04</rscale>
<asrwt>0</asrwt>
<pdfrwt beam="1">  1        1 0.34991857E+00 0.13508879E+04</pdfrwt>
<pdfrwt beam="2">  1       -2 0.30859220E-01 0.13508879E+04</pdfrwt>
<totfact> 0.16234993E+01</totfact>
</mgrwt>
</event>
<event>
12    5  0.5095719E-008  0.1778269E+04  0.7818608E-02  0.8717942E-01
         -2   -1    0    0    0  501 -0.00000000000E+00  0.00000000000E+00  0.76013306251E+03  0.76013306251E+03  0.00000000000E+00 0.  1.
          1   -1    0    0  501    0  0.00000000000E+00 -0.00000000000E+00 -0.10400286695E+04  0.10400286695E+04  0.00000000000E+00 0. -1.
        -24    2    1    2    0    0  0.25553152067E+03  0.46886994795E+03  0.27676875179E+03  0.60805770311E+03  0.89430655815E+02 0.  0.
        254    2    1    2    0    0 -0.25553152067E+03 -0.46886994795E+03 -0.55666435876E+03  0.11921040289E+04  0.90890121641E+03 0.  0.
         23    2    4    4    0    0 -0.56438526151E+03 -0.25757261762E+03 -0.50255941939E+03  0.80364816685E+03  0.91706211914E+02 0.  0.
         23    2    4    4    0    0  0.30885374085E+03 -0.21129733033E+03 -0.54104939371E+02  0.38845586202E+03  0.89069732422E+02 0.  0.
          3    1    3    3  502    0  0.18356592544E+03  0.35544816734E+03  0.16283539869E+03  0.43192038122E+03  0.00000000000E+00 0. -1.
         -4    1    3    3    0  502  0.71965595225E+02  0.11342178061E+03  0.11393335310E+03  0.17613732189E+03  0.00000000000E+00 0.  1.
         13    1    5    5    0    0 -0.47374547058E+03 -0.23822355485E+03 -0.45859751076E+03  0.70106840597E+03  0.00000000000E+00 0.  1.
        -13    1    5    5    0    0 -0.90639790935E+02 -0.19349062764E+02 -0.43961908625E+02  0.10257976087E+03  0.00000000000E+00 0. -1.
          3    1    6    6  503    0  0.23459779650E+03 -0.19876970060E+03 -0.28002481139E+02  0.30875501445E+03  0.00000000000E+00 0. -1.
         -3    1    6    6    0  503  0.74255944342E+02 -0.12527629731E+02 -0.26102458232E+02  0.79700847565E+02  0.00000000000E+00 0.  1.
<mgrwt>
<rscale>  0 0.17782690E+04</rscale>
<asrwt>0</asrwt>
<pdfrwt beam="1">  1        1 0.16000441E+00 0.17782690E+04</pdfrwt>
<pdfrwt beam="2">  1       -2 0.11694355E+00 0.17782690E+04</pdfrwt>
<totfact> 0.66072169E+00</totfact>
</mgrwt>
</event>
<event>
12    5  0.5095719E-008  0.1923404E+04  0.7818608E-02  0.8643293E-01
          1   -1    0    0  501    0  0.00000000000E+00  0.00000000000E+00  0.10089792061E+04  0.10089792061E+04  0.00000000000E+00 0. -1.
         -2   -1    0    0    0  501 -0.00000000000E+00 -0.00000000000E+00 -0.91664046302E+03  0.91664046302E+03  0.00000000000E+00 0.  1.
        -24    2    1    2    0    0  0.38195609020E+03 -0.44812501465E+03  0.49177856631E+03  0.77115673122E+03  0.78294713870E+02 0.  0.
        254    2    1    2    0    0 -0.38195609020E+03  0.44812501465E+03 -0.39943982319E+03  0.11544629379E+04  0.90913476402E+03 0.  0.
         23    2    4    4    0    0 -0.53232133445E+02  0.32563894931E+03  0.24092237860E+03  0.41864062735E+03  0.91334533538E+02 0.  0.
         23    2    4    4    0    0 -0.32872395676E+03  0.12248606534E+03 -0.64036220179E+03  0.73582231060E+03  0.91150684856E+02 0.  0.
          1    1    3    3  502    0  0.35187791059E+03 -0.37177194719E+03  0.42709802869E+03  0.66666721142E+03  0.00000000000E+00 0. -1.
         -2    1    3    3    0  502  0.30078179612E+02 -0.76353067460E+02  0.64680537627E+02  0.10448951980E+03  0.00000000000E+00 0.  1.
         13    1    5    5    0    0 -0.17779422384E+02  0.16184414952E+03  0.17368633554E+03  0.23806843501E+03  0.00000000000E+00 0.  1.
        -13    1    5    5    0    0 -0.35452711061E+02  0.16379479979E+03  0.67236043061E+02  0.18057219234E+03  0.00000000000E+00 0. -1.
          1    1    6    6  503    0 -0.90615379432E+02  0.78739940210E+02 -0.19811564824E+03  0.23164830077E+03  0.00000000000E+00 0. -1.
         -1    1    6    6    0  503 -0.23810857732E+03  0.43746125135E+02 -0.44224655355E+03  0.50417400983E+03  0.00000000000E+00 0.  1.
<mgrwt>
<rscale>  0 0.19234044E+04</rscale>
<asrwt>0</asrwt>
<pdfrwt beam="1">  1        1 0.15522757E+00 0.19234044E+04</pdfrwt>
<pdfrwt beam="2">  1       -2 0.14102161E+00 0.19234044E+04</pdfrwt>
<totfact> 0.42948809E+00</totfact>
</mgrwt>
</event>
<event>
12    5  0.5095719E-008  0.2333792E+04  0.7818608E-02  0.8464716E-01
          1   -1    0    0  501    0  0.00000000000E+00  0.00000000000E+00  0.11048428554E+04  0.11048428554E+04  0.00000000000E+00 0. -1.
         -2   -1    0    0    0  501 -0.00000000000E+00 -0.00000000000E+00 -0.12324338356E+04  0.12324338356E+04  0.00000000000E+00 0.  1.
        -24    2    1    2    0    0  0.68207049829E+03 -0.61611433989E+03  0.31188349297E+03  0.97497000711E+03  0.92076908775E+02 0.  0.
        254    2    1    2    0    0 -0.68207049829E+03  0.61611433989E+03 -0.43947447311E+03  0.13623066839E+04  0.90439186420E+03 0.  0.
         23    2    4    4    0    0 -0.23047078065E+03  0.84034330141E+02  0.26257094690E+03  0.36899421897E+03  0.83873011771E+02 0.  0.
         23    2    4    4    0    0 -0.45159971764E+03  0.53208000975E+03 -0.70204542000E+03  0.99331246493E+03  0.82161058245E+02 0.  0.
          1    1    3    3  502    0  0.49277149190E+03 -0.49705518102E+03  0.22779889809E+03  0.73605701829E+03  0.00000000000E+00 0. -1.
         -2    1    3    3    0  502  0.18929900639E+03 -0.11905915887E+03  0.84084594881E+02  0.23891298882E+03  0.00000000000E+00 0.  1.
         13    1    5    5    0    0 -0.22185234195E+03  0.74228296415E+02  0.20850037825E+03  0.31336992413E+03  0.00000000000E+00 0. -1.
        -13    1    5    5    0    0 -0.86184386984E+01  0.98060337261E+01  0.54070568640E+02  0.55624294837E+02  0.00000000000E+00 0.  1.
          1    1    6    6  503    0 -0.14771502312E+03  0.22671414819E+03 -0.30069590109E+03  0.40452077570E+03  0.00000000000E+00 0. -1.
         -1    1    6    6    0  503 -0.30388469452E+03  0.30536586156E+03 -0.40134951891E+03  0.58879168922E+03  0.00000000000E+00 0.  1.
<mgrwt>
<rscale>  0 0.23337915E+04</rscale>
<asrwt>0</asrwt>
<pdfrwt beam="1">  1        1 0.16997583E+00 0.23337915E+04</pdfrwt>
<pdfrwt beam="2">  1       -2 0.18960520E+00 0.23337915E+04</pdfrwt>
<totfact> 0.15498626E+00</totfact>
</mgrwt>
</event>
<event>
12    5  0.5095719E-008  0.3055250E+04  0.7818608E-02  0.8228128E-01
          1   -1    0    0  501    0  0.00000000000E+00  0.00000000000E+00  0.23147061388E+04  0.23147061388E+04  0.00000000000E+00 0. -1.
         -2   -1    0    0    0  501 -0.00000000000E+00 -0.00000000000E+00 -0.10081788227E+04  0.10081788227E+04  0.00000000000E+00 0.  1.
        -24    2    1    2    0    0 -0.57668649739E+03  0.56483335519E+03 -0.63489833020E+03  0.10300540389E+04  0.79444307556E+02 0.  0.
        254    2    1    2    0    0  0.57668649739E+03 -0.56483335519E+03  0.19414256463E+04  0.22928309226E+04  0.91451411375E+03 0.  0.
         23    2    4    4    0    0  0.17007930081E+03  0.99065672786E+01  0.13641597016E+04  0.13776901562E+04  0.89851912993E+02 0.  0.
         23    2    4    4    0    0  0.40660719658E+03 -0.57473992247E+03  0.57726594466E+03  0.91514076643E+03  0.92689054008E+02 0.  0.
          1    1    3    3  502    0 -0.21936639282E+02  0.11213713356E+02 -0.36288872316E+02  0.43861666226E+02  0.00000000000E+00 0. -1.
         -2    1    3    3    0  502 -0.55474985811E+03  0.55361964184E+03 -0.59860945789E+03  0.98619237270E+03  0.00000000000E+00 0.  1.
         13    1    5    5    0    0  0.93451360440E+02  0.49302046772E+02  0.81280020013E+03  0.81963895339E+03  0.00000000000E+00 0. -1.
        -13    1    5    5    0    0  0.76627940372E+02 -0.39395479494E+02  0.55135950151E+03  0.55805120280E+03  0.00000000000E+00 0.  1.
          3    1    6    6  503    0  0.36534616124E+03 -0.48765980741E+03  0.46065120516E+03  0.76386480355E+03  0.00000000000E+00 0. -1.
         -3    1    6    6    0  503  0.41261035340E+02 -0.87080115063E+02  0.11661473950E+03  0.15127596288E+03  0.00000000000E+00 0.  1.
<mgrwt>
<rscale>  0 0.30552497E+04</rscale>
<asrwt>0</asrwt>
<pdfrwt beam="1">  1        1 0.35610864E+00 0.30552497E+04</pdfrwt>
<pdfrwt beam="2">  1       -2 0.15510443E+00 0.30552497E+04</pdfrwt>
<totfact> 0.37120694E-01</totfact>
</mgrwt>
</event>
<event>
12    5  0.5095719E-008  0.1598650E+04  0.7818608E-02  0.8821378E-01
          1   -1    0    0  501    0  0.00000000000E+00  0.00000000000E+00  0.16093049069E+04  0.16093049069E+04  0.00000000000E+00 0. -1.
         -2   -1    0    0    0  501 -0.00000000000E+00 -0.00000000000E+00 -0.39701620063E+03  0.39701620063E+03  0.00000000000E+00 0.  1.
        -24    2    1    2    0    0  0.23586128447E+03 -0.44193086819E+03  0.20580305027E+03  0.54736513369E+03  0.79500039659E+02 0.  0.
        254    2    1    2    0    0 -0.23586128447E+03  0.44193086819E+03  0.10064856560E+04  0.14589559738E+04  0.92984177153E+03 0.  0.
         23    2    4    4    0    0  0.34250837361E+03  0.21626667332E+03  0.28962522317E+03  0.50613740984E+03  0.90603795488E+02 0.  0.
         23    2    4    4    0    0 -0.57836965809E+03  0.22566419487E+03  0.71686043283E+03  0.95281856400E+03  0.92404250460E+02 0.  0.
          3    1    3    3  502    0  0.14645726473E+03 -0.26585939938E+03  0.16587934548E+03  0.34590014149E+03  0.00000000000E+00 0. -1.
         -4    1    3    3    0  502  0.89404019749E+02 -0.17607146881E+03  0.39923704795E+02  0.20146499220E+03  0.00000000000E+00 0.  1.
         13    1    5    5    0    0  0.49361709835E+02  0.71244781988E+02  0.44595453510E+02  0.97473852043E+02  0.00000000000E+00 0. -1.
        -13    1    5    5    0    0  0.29314666378E+03  0.14502189133E+03  0.24502976966E+03  0.40866355779E+03  0.00000000000E+00 0.  1.
          3    1    6    6  503    0 -0.12652485331E+03  0.83729928020E+02  0.21058396877E+03  0.25954738923E+03  0.00000000000E+00 0. -1.
         -3    1    6    6    0  503 -0.45184480478E+03  0.14193426685E+03  0.50627646406E+03  0.69327117477E+03  0.00000000000E+00 0.  1.
<mgrwt>
<rscale>  0 0.15986496E+04</rscale>
<asrwt>0</asrwt>
<pdfrwt beam="1">  1        1 0.24758537E+00 0.15986496E+04</pdfrwt>
<pdfrwt beam="2">  1       -2 0.61079416E-01 0.15986496E+04</pdfrwt>
<totfact> 0.11548515E+01</totfact>
</mgrwt>
</event>
<event>
12    5  0.5095719E-008  0.1207599E+04  0.7818608E-02  0.9106231E-01
         -2   -1    0    0    0  501 -0.00000000000E+00  0.00000000000E+00  0.96699169842E+03  0.96699169842E+03  0.00000000000E+00 0.  1.
          1   -1    0    0  501    0  0.00000000000E+00 -0.00000000000E+00 -0.37701854918E+03  0.37701854918E+03  0.00000000000E+00 0. -1.
        -24    2    1    2    0    0 -0.25101094133E+03 -0.49874442190E+02  0.80125833005E+02  0.27977599301E+03  0.79752771125E+02 0.  0.
        254    2    1    2    0    0  0.25101094133E+03  0.49874442190E+02  0.50984731623E+03  0.10642342546E+04  0.89841878326E+03 0.  0.
         23    2    4    4    0    0 -0.42137510076E+01  0.42925052754E+03  0.11679625518E+03  0.45418367126E+03  0.91474974326E+02 0.  0.
         23    2    4    4    0    0  0.25522469233E+03 -0.37937608535E+03  0.39305106105E+03  0.61005058332E+03  0.92772409154E+02 0.  0.
          3    1    3    3  502    0 -0.45186827439E+01  0.21268058203E+01  0.20227786867E+02  0.20835190382E+02  0.00000000000E+00 0. -1.
         -4    1    3    3    0  502 -0.24649225858E+03 -0.52001248010E+02  0.59898046138E+02  0.25894080263E+03  0.00000000000E+00 0.  1.
         13    1    5    5    0    0  0.25053177217E+02  0.35277590939E+03  0.72255807480E+02  0.36097008969E+03  0.00000000000E+00 0. -1.
        -13    1    5    5    0    0 -0.29266928225E+02  0.76474618149E+02  0.44540447700E+02  0.93213581575E+02  0.00000000000E+00 0.  1.
          1    1    6    6  503    0  0.19174696261E+03 -0.33250530744E+03  0.35338290969E+03  0.52173379995E+03  0.00000000000E+00 0. -1.
         -1    1    6    6    0  503  0.63477729724E+02 -0.46870777907E+02  0.39668151369E+02  0.88316783374E+02  0.00000000000E+00 0.  1.
<mgrwt>
<rscale>  0 0.12075990E+04</rscale>
<asrwt>0</asrwt>
<pdfrwt beam="1">  1        1 0.58002854E-01 0.12075990E+04</pdfrwt>
<pdfrwt beam="2">  1       -2 0.14876795E+00 0.12075990E+04</pdfrwt>
<totfact> 0.17158335E+01</totfact>
</mgrwt>
</event>
<event>
12    5  0.5095719E-008  0.3155940E+04  0.7818608E-02  0.8200551E-01
          1   -1    0    0  501    0  0.00000000000E+00  0.00000000000E+00  0.26730772919E+04  0.26730772919E+04  0.00000000000E+00 0. -1.
         -4   -1    0    0    0  501 -0.00000000000E+00 -0.00000000000E+00 -0.93150668803E+03  0.93150668803E+03  0.00000000000E+00 0.  1.
        -24    2    1    2    0    0  0.48153336138E+03 -0.87589481087E+03  0.19824130850E+04  0.22216251226E+04  0.81181571695E+02 0.  0.
        254    2    1    2    0    0 -0.48153336138E+03  0.87589481087E+03 -0.24084248120E+03  0.13829588574E+04  0.92493459366E+03 0.  0.
         23    2    4    4    0    0 -0.41779388675E+03  0.63289905866E+03  0.26585625543E+03  0.80896576973E+03  0.92914572454E+02 0.  0.
         23    2    4    4    0    0 -0.63739474630E+02  0.24299575221E+03 -0.50669873663E+03  0.57399308763E+03  0.98055080040E+02 0.  0.
          1    1    3    3  502    0  0.34397843507E+03 -0.63951038826E+03  0.15160716835E+04  0.16810020970E+04  0.00000000000E+00 0. -1.
         -2    1    3    3    0  502  0.13755492631E+03 -0.23638442261E+03  0.46634140152E+03  0.54062302557E+03  0.00000000000E+00 0.  1.
         13    1    5    5    0    0 -0.42170492083E+02  0.11318868590E+03  0.64034279814E+02  0.13671290359E+03  0.00000000000E+00 0.  1.
        -13    1    5    5    0    0 -0.37562339466E+03  0.51971037277E+03  0.20182197562E+03  0.67225286613E+03  0.00000000000E+00 0. -1.
          2    1    6    6  503    0 -0.33338180535E+02  0.90805404808E+02 -0.30199175253E+03  0.31710577797E+03  0.00000000000E+00 0. -1.
         -2    1    6    6    0  503 -0.30401294096E+02  0.15219034740E+03 -0.20470698410E+03  0.25688730966E+03  0.00000000000E+00 0.  1.
<mgrwt>
<rscale>  0 0.31559400E+04</rscale>
<asrwt>0</asrwt>
<pdfrwt beam="1">  1        1 0.41124266E+00 0.31559400E+04</pdfrwt>
<pdfrwt beam="2">  1       -4 0.14330872E+00 0.31559400E+04</pdfrwt>
<totfact> 0.14236519E-01</totfact>
</mgrwt>
</event>
<event>
12    5  0.5095719E-008  0.1166724E+04  0.7818608E-02  0.9142492E-01
          1   -1    0    0  501    0  0.00000000000E+00  0.00000000000E+00  0.22312916056E+04  0.22312916056E+04  0.00000000000E+00 0. -1.
         -2   -1    0    0    0  501 -0.00000000000E+00 -0.00000000000E+00 -0.15251751295E+03  0.15251751295E+03  0.00000000000E+00 0.  1.
        -24    2    1    2    0    0  0.52629667417E+01 -0.24127953429E+03  0.43429233757E+03  0.50352581537E+03  0.81761236426E+02 0.  0.
        254    2    1    2    0    0 -0.52629667417E+01  0.24127953429E+03  0.16444817551E+04  0.18802833032E+04  0.87914819285E+03 0.  0.
         23    2    4    4    0    0 -0.26204801708E+03 -0.17699478872E+03  0.29611811531E+03  0.44247207178E+03  0.89995986595E+02 0.  0.
         23    2    4    4    0    0  0.25678505034E+03  0.41827432301E+03  0.13483636398E+04  0.14378112314E+04  0.91239578916E+02 0.  0.
          1    1    3    3  502    0  0.15026092130E+02 -0.13254355760E+03  0.31355065937E+03  0.34074564428E+03  0.00000000000E+00 0. -1.
         -2    1    3    3    0  502 -0.97631253885E+01 -0.10873597669E+03  0.12074167821E+03  0.16278017109E+03  0.00000000000E+00 0.  1.
         13    1    5    5    0    0 -0.25163024833E+03 -0.15631065264E+03  0.23827701203E+03  0.38016672193E+03  0.00000000000E+00 0. -1.
        -13    1    5    5    0    0 -0.10417768751E+02 -0.20684136081E+02  0.57841103286E+02  0.62305349854E+02  0.00000000000E+00 0.  1.
          3    1    6    6  503    0  0.21160319588E+03  0.27217630282E+03  0.98447752395E+03  0.10430972378E+04  0.00000000000E+00 0. -1.
         -3    1    6    6    0  503  0.45181854459E+02  0.14609802020E+03  0.36388611584E+03  0.39471399364E+03  0.00000000000E+00 0.  1.
<mgrwt>
<rscale>  0 0.11667237E+04</rscale>
<asrwt>0</asrwt>
<pdfrwt beam="1">  1        1 0.34327561E+00 0.11667237E+04</pdfrwt>
<pdfrwt beam="2">  1       -2 0.23464234E-01 0.11667237E+04</pdfrwt>
<totfact> 0.29179136E+01</totfact>
</mgrwt>
</event>
<event>
12    5  0.5095719E-008  0.3844398E+04  0.7818608E-02  0.8036694E-01
         -2   -1    0    0    0  501 -0.00000000000E+00  0.00000000000E+00  0.23174994802E+04  0.23174994802E+04  0.00000000000E+00 0.  1.
          1   -1    0    0  501    0  0.00000000000E+00 -0.00000000000E+00 -0.15943259076E+04  0.15943259076E+04  0.00000000000E+00 0. -1.
        -24    2    1    2    0    0  0.14606071343E+04 -0.10771698466E+04  0.36084317628E+03  0.18520201935E+04  0.78121187787E+02 0.  0.
        254    2    1    2    0    0 -0.14606071343E+04  0.10771698466E+04  0.36233039638E+03  0.20598051943E+04  0.90434840808E+03 0.  0.
         23    2    4    4    0    0 -0.54923776507E+03 -0.35196427382E+02 -0.52562810777E+02  0.56035127956E+03  0.91267717999E+02 0.  0.
         23    2    4    4    0    0 -0.91136936927E+03  0.11123662740E+04  0.41489320716E+03  0.14994539148E+04  0.90955013538E+02 0.  0.
          3    1    3    3  502    0  0.52831155398E+03 -0.35782382090E+03  0.99202884028E+02  0.64574932991E+03  0.00000000000E+00 0. -1.
         -4    1    3    3    0  502  0.93229558037E+03 -0.71934602567E+03  0.26164029225E+03  0.12062708636E+04  0.00000000000E+00 0.  1.
         13    1    5    5    0    0 -0.29234486961E+03 -0.47684872546E+02 -0.63437488621E+02  0.30292521325E+03  0.00000000000E+00 0.  1.
        -13    1    5    5    0    0 -0.25689289546E+03  0.12488445164E+02  0.10874677844E+02  0.25742606632E+03  0.00000000000E+00 0. -1.
          1    1    6    6  503    0 -0.48320423428E+03  0.57982959170E+03  0.17090475094E+03  0.77388443668E+03  0.00000000000E+00 0. -1.
         -1    1    6    6    0  503 -0.42816513499E+03  0.53253668226E+03  0.24398845621E+03  0.72556947809E+03  0.00000000000E+00 0.  1.
<mgrwt>
<rscale>  0 0.38443982E+04</rscale>
<asrwt>0</asrwt>
<pdfrwt beam="1">  1        1 0.24528091E+00 0.38443982E+04</pdfrwt>
<pdfrwt beam="2">  1       -2 0.35653838E+00 0.38443982E+04</pdfrwt>
<totfact> 0.55432248E-02</totfact>
</mgrwt>
</event>
<event>
12    5  0.5095719E-008  0.1762957E+04  0.7818608E-02  0.8726251E-01
          1   -1    0    0  501    0  0.00000000000E+00  0.00000000000E+00  0.28399383566E+04  0.28399383566E+04  0.00000000000E+00 0. -1.
         -2   -1    0    0    0  501 -0.00000000000E+00 -0.00000000000E+00 -0.27359887694E+03  0.27359887694E+03  0.00000000000E+00 0.  1.
        -24    2    1    2    0    0  0.24616816456E+03 -0.96484590284E+02  0.20081486097E+04  0.20274600076E+04  0.89583492918E+02 0.  0.
        254    2    1    2    0    0 -0.24616816456E+03  0.96484590284E+02  0.55819086999E+03  0.10860772260E+04  0.89335247920E+03 0.  0.
         23    2    4    4    0    0  0.31920902801E+03  0.18959551982E+02  0.97291905705E+02  0.34690921742E+03  0.92878533790E+02 0.  0.
         23    2    4    4    0    0 -0.56537719257E+03  0.77525038301E+02  0.46089896429E+03  0.73916800859E+03  0.90994440508E+02 0.  0.
          3    1    3    3  502    0  0.15490142114E+03 -0.13896948155E+02  0.10570499397E+04  0.10684297592E+04  0.00000000000E+00 0. -1.
         -4    1    3    3    0  502  0.91266743414E+02 -0.82587642129E+02  0.95109867001E+03  0.95903024831E+03  0.00000000000E+00 0.  1.
         13    1    5    5    0    0  0.30924494419E+03  0.28902540679E+02  0.73350828888E+02  0.31913654830E+03  0.00000000000E+00 0. -1.
        -13    1    5    5    0    0  0.99640838219E+01 -0.99429886967E+01  0.23941076817E+02  0.27772669116E+02  0.00000000000E+00 0.  1.
          3    1    6    6  503    0 -0.44872268977E+03  0.39249979575E+02  0.39867595527E+03  0.60152733148E+03  0.00000000000E+00 0. -1.
         -3    1    6    6    0  503 -0.11665450279E+03  0.38275058727E+02  0.62223009017E+02  0.13764067710E+03  0.00000000000E+00 0.  1.
<mgrwt>
<rscale>  0 0.17629565E+04</rscale>
<asrwt>0</asrwt>
<pdfrwt beam="1">  1        1 0.43691357E+00 0.17629565E+04</pdfrwt>
<pdfrwt beam="2">  1       -2 0.42092137E-01 0.17629565E+04</pdfrwt>
<totfact> 0.34795415E+00</totfact>
</mgrwt>
</event>
<event>
12    5  0.5095719E-008  0.1431871E+04  0.7818608E-02  0.8931067E-01
         -4   -1    0    0    0  501 -0.00000000000E+00  0.00000000000E+00  0.16621147898E+03  0.16621147898E+03  0.00000000000E+00 0.  1.
          1   -1    0    0  501    0  0.00000000000E+00 -0.00000000000E+00 -0.30838029687E+04  0.30838029687E+04  0.00000000000E+00 0. -1.
        -24    2    1    2    0    0  0.31049817717E+03 -0.34957288023E+01 -0.13867952143E+04  0.14234020975E+04  0.80319527823E+02 0.  0.
        254    2    1    2    0    0 -0.31049817717E+03  0.34957288023E+01 -0.15307962754E+04  0.18266123502E+04  0.94697101483E+03 0.  0.
         23    2    4    4    0    0 -0.20305679808E+03 -0.36421531553E+03 -0.13059566504E+04  0.13739323155E+04  0.91007558401E+02 0.  0.
         23    2    4    4    0    0 -0.10744137909E+03  0.36771104433E+03 -0.22483962500E+03  0.45268003464E+03  0.87242734517E+02 0.  0.
          1    1    3    3  502    0  0.19796901110E+03 -0.31782658323E+02 -0.98441831445E+03  0.10046299242E+04  0.00000000000E+00 0. -1.
         -2    1    3    3    0  502  0.11252916607E+03  0.28286929521E+02 -0.40237689987E+03  0.41877217332E+03  0.00000000000E+00 0.  1.
         13    1    5    5    0    0 -0.16020849471E+03 -0.29654479266E+03 -0.92115764527E+03  0.98088581561E+03  0.00000000000E+00 0. -1.
        -13    1    5    5    0    0 -0.42848303374E+02 -0.67670522866E+02 -0.38479900510E+03  0.39304649991E+03  0.00000000000E+00 0.  1.
          1    1    6    6  503    0 -0.84048938569E+02  0.31079971248E+03 -0.22200340171E+03  0.39108336161E+03  0.00000000000E+00 0. -1.
         -1    1    6    6    0  503 -0.23392440517E+02  0.56911331850E+02 -0.28362232921E+01  0.61596673034E+02  0.00000000000E+00 0.  1.
<mgrwt>
<rscale>  0 0.14318707E+04</rscale>
<asrwt>0</asrwt>
<pdfrwt beam="1">  1        1 0.47443123E+00 0.14318707E+04</pdfrwt>
<pdfrwt beam="2">  1       -4 0.25570997E-01 0.14318707E+04</pdfrwt>
<totfact> 0.37226890E+00</totfact>
</mgrwt>
</event>
<event>
12    5  0.5095719E-008  0.1320168E+04  0.7818608E-02  0.9013723E-01
         -2   -1    0    0    0  501 -0.00000000000E+00  0.00000000000E+00  0.25614345171E+03  0.25614345171E+03  0.00000000000E+00 0.  1.
          1   -1    0    0  501    0  0.00000000000E+00 -0.00000000000E+00 -0.17010413087E+04  0.17010413087E+04  0.00000000000E+00 0. -1.
        -24    2    1    2    0    0  0.24088047707E+03 -0.11046319301E+03 -0.69597665898E+03  0.74882340817E+03  0.78278129308E+02 0.  0.
        254    2    1    2    0    0 -0.24088047707E+03  0.11046319301E+03 -0.74892119800E+03  0.12083613522E+04  0.91051011830E+03 0.  0.
         23    2    4    4    0    0 -0.33278959783E+03 -0.33703719992E+03 -0.38823253430E+03  0.61900233165E+03  0.89979971876E+02 0.  0.
         23    2    4    4    0    0  0.91909120755E+02  0.44750039293E+03 -0.36068866369E+03  0.58935902059E+03  0.92432975123E+02 0.  0.
          3    1    3    3  502    0  0.14714179031E+03 -0.91465670434E+02 -0.52583077164E+03  0.55363767550E+03  0.00000000000E+00 0. -1.
         -4    1    3    3    0  502  0.93738686761E+02 -0.18997522572E+02 -0.17014588734E+03  0.19518573267E+03  0.00000000000E+00 0.  1.
         13    1    5    5    0    0 -0.18125233002E+03 -0.24304962840E+03 -0.22930120144E+03  0.38013756719E+03  0.00000000000E+00 0.  1.
        -13    1    5    5    0    0 -0.15153726781E+03 -0.93987571516E+02 -0.15893133287E+03  0.23886476446E+03  0.00000000000E+00 0. -1.
          2    1    6    6  503    0  0.16709333848E+01  0.96000793463E+02 -0.36416440914E+02  0.10268934479E+03  0.00000000000E+00 0. -1.
         -2    1    6    6    0  503  0.90238187370E+02  0.35149959946E+03 -0.32427222278E+03  0.48666967581E+03  0.00000000000E+00 0.  1.
<mgrwt>
<rscale>  0 0.13201676E+04</rscale>
<asrwt>0</asrwt>
<pdfrwt beam="1">  1        1 0.26169866E+00 0.13201676E+04</pdfrwt>
<pdfrwt beam="2">  1       -2 0.39406685E-01 0.13201676E+04</pdfrwt>
<totfact> 0.24955357E+01</totfact>
</mgrwt>
</event>
<event>
12    5  0.5095719E-008  0.2968367E+04  0.7818608E-02  0.8252822E-01
         -2   -1    0    0    0  501 -0.00000000000E+00  0.00000000000E+00  0.86591432660E+03  0.86591432660E+03  0.00000000000E+00 0.  1.
          1   -1    0    0  501    0  0.00000000000E+00 -0.00000000000E+00 -0.25439012936E+04  0.25439012936E+04  0.00000000000E+00 0. -1.
        -24    2    1    2    0    0 -0.32569641819E+03  0.22421143100E+03 -0.22059587336E+04  0.22425657785E+04  0.80612740201E+02 0.  0.
        254    2    1    2    0    0  0.32569641819E+03 -0.22421143100E+03  0.52797176665E+03  0.11672498417E+04  0.96300004353E+03 0.  0.
         23    2    4    4    0    0 -0.29484514018E+03 -0.27025081261E+03  0.24599554753E+03  0.47800258238E+03  0.89462287859E+02 0.  0.
         23    2    4    4    0    0  0.62054155838E+03  0.46039381610E+02  0.28197621912E+03  0.68924725927E+03  0.91431646244E+02 0.  0.
          1    1    3    3  502    0 -0.63797415987E+02  0.63729014404E+02 -0.68427563054E+03  0.69019173866E+03  0.00000000000E+00 0. -1.
         -2    1    3    3    0  502 -0.26189900221E+03  0.16048241659E+03 -0.15216831031E+04  0.15523740399E+04  0.00000000000E+00 0.  1.
         13    1    5    5    0    0 -0.20651660434E+03 -0.14292511257E+03  0.18287514876E+03  0.31067670609E+03  0.00000000000E+00 0.  1.
        -13    1    5    5    0    0 -0.88328535839E+02 -0.12732570004E+03  0.63120398763E+02  0.16732587628E+03  0.00000000000E+00 0. -1.
          3    1    6    6  503    0  0.13619445801E+02 -0.76019935903E+01 -0.41207997903E+01  0.16132594379E+02  0.00000000000E+00 0. -1.
         -3    1    6    6    0  503  0.60692211258E+03  0.53641375200E+02  0.28609701891E+03  0.67311466490E+03  0.00000000000E+00 0.  1.
<mgrwt>
<rscale>  0 0.29683669E+04</rscale>
<asrwt>0</asrwt>
<pdfrwt beam="1">  1        1 0.39136943E+00 0.29683669E+04</pdfrwt>
<pdfrwt beam="2">  1       -2 0.13321759E+00 0.29683669E+04</pdfrwt>
<totfact> 0.38677951E-01</totfact>
</mgrwt>
</event>
<event>
12    5  0.5095719E-008  0.1493994E+04  0.7818608E-02  0.8888457E-01
         -2   -1    0    0    0  501 -0.00000000000E+00  0.00000000000E+00  0.16553078218E+03  0.16553078218E+03  0.00000000000E+00 0.  1.
          1   -1    0    0  501    0  0.00000000000E+00 -0.00000000000E+00 -0.33710001766E+04  0.33710001766E+04  0.00000000000E+00 0. -1.
        -24    2    1    2    0    0 -0.24625956915E+03  0.24301109703E+03 -0.26858714954E+03  0.44511889541E+03  0.79332247402E+02 0.  0.
        254    2    1    2    0    0  0.24625956915E+03 -0.24301109703E+03 -0.29368822449E+04  0.30914120634E+04  0.90102888773E+03 0.  0.
         23    2    4    4    0    0 -0.52190592704E+02  0.12899815204E+03 -0.66211825966E+02  0.17992816870E+03  0.92874963236E+02 0.  0.
         23    2    4    4    0    0  0.29845016185E+03 -0.37200924907E+03 -0.28706704189E+04  0.29114838947E+04  0.92338693664E+02 0.  0.
          3    1    3    3  502    0 -0.23177618057E+02  0.16359445565E+02 -0.55438697034E+02  0.62275858620E+02  0.00000000000E+00 0. -1.
         -2    1    3    3    0  502 -0.22308195109E+03  0.22665165147E+03 -0.21314845251E+03  0.38284303679E+03  0.00000000000E+00 0.  1.
         13    1    5    5    0    0 -0.66654040856E+02  0.12115738768E+03 -0.31955698540E+02  0.14192617948E+03  0.00000000000E+00 0.  1.
        -13    1    5    5    0    0  0.14463448153E+02  0.78407643567E+01 -0.34256127426E+02  0.38001989216E+02  0.00000000000E+00 0. -1.
          1    1    6    6  503    0  0.16956936450E+03 -0.25826197895E+03 -0.16375980424E+04  0.16664874340E+04  0.00000000000E+00 0. -1.
         -1    1    6    6    0  503  0.12888079735E+03 -0.11374727013E+03 -0.12330723765E+04  0.12449964607E+04  0.00000000000E+00 0.  1.
<mgrwt>
<rscale>  0 0.14939937E+04</rscale>
<asrwt>0</asrwt>
<pdfrwt beam="1">  1        1 0.51861543E+00 0.14939937E+04</pdfrwt>
<pdfrwt beam="2">  1       -2 0.25466273E-01 0.14939937E+04</pdfrwt>
<totfact> 0.37526934E+00</totfact>
</mgrwt>
</event>
<event>
12    5  0.5095719E-008  0.1618504E+04  0.7818608E-02  0.8809261E-01
          1   -1    0    0  501    0  0.00000000000E+00  0.00000000000E+00  0.65404652084E+03  0.65404652084E+03  0.00000000000E+00 0. -1.
         -2   -1    0    0    0  501 -0.00000000000E+00 -0.00000000000E+00 -0.10012872878E+04  0.10012872878E+04  0.00000000000E+00 0.  1.
        -24    2    1    2    0    0 -0.44477454463E+03 -0.30951348102E+03 -0.25516183239E+03  0.60421441331E+03  0.79652407733E+02 0.  0.
        254    2    1    2    0    0  0.44477454463E+03  0.30951348102E+03 -0.92078934620E+02  0.10511193954E+04  0.89596342708E+03 0.  0.
         23    2    4    4    0    0 -0.39205591575E+02 -0.25033122989E+03  0.88727871632E+02  0.28380870641E+03  0.92043161392E+02 0.  0.
         23    2    4    4    0    0  0.48398013620E+03  0.55984471092E+03 -0.18080680625E+03  0.76731068897E+03  0.91715427486E+02 0.  0.
          1    1    3    3  502    0 -0.15245101878E+03 -0.10285858730E+03 -0.45902864360E+02  0.18954755357E+03  0.00000000000E+00 0. -1.
         -2    1    3    3    0  502 -0.29232352585E+03 -0.20665489372E+03 -0.20925896803E+03  0.41466685973E+03  0.00000000000E+00 0.  1.
         13    1    5    5    0    0  0.16597892898E+02 -0.28863090494E+02  0.36728263662E+02  0.49573515037E+02  0.00000000000E+00 0.  1.
        -13    1    5    5    0    0 -0.55803484473E+02 -0.22146813940E+03  0.51999607971E+02  0.23423519137E+03  0.00000000000E+00 0. -1.
          2    1    6    6  503    0  0.32544981220E+03  0.37632346522E+03 -0.16542648157E+03  0.52431178848E+03  0.00000000000E+00 0.  1.
         -2    1    6    6    0  503  0.15853032400E+03  0.18352124570E+03 -0.15380324679E+02  0.24299890049E+03  0.00000000000E+00 0. -1.
<mgrwt>
<rscale>  0 0.16185036E+04</rscale>
<asrwt>0</asrwt>
<pdfrwt beam="1">  1        1 0.10062254E+00 0.16185036E+04</pdfrwt>
<pdfrwt beam="2">  1       -2 0.15404420E+00 0.16185036E+04</pdfrwt>
<totfact> 0.70597056E+00</totfact>
</mgrwt>
</event>
<event>
12    5  0.5095719E-008  0.1991790E+04  0.7818608E-02  0.8610469E-01
          1   -1    0    0  501    0  0.00000000000E+00  0.00000000000E+00  0.11845087931E+04  0.11845087931E+04  0.00000000000E+00 0. -1.
         -2   -1    0    0    0  501 -0.00000000000E+00 -0.00000000000E+00 -0.83731518696E+03  0.83731518696E+03  0.00000000000E+00 0.  1.
        -24    2    1    2    0    0 -0.57028874395E+02 -0.76664586659E+03 -0.48490432120E+02  0.77448246809E+03  0.80458648328E+02 0.  0.
        254    2    1    2    0    0  0.57028874395E+02  0.76664586659E+03  0.39568403822E+03  0.12473415119E+04  0.89905328652E+03 0.  0.
         23    2    4    4    0    0  0.61269309657E+02  0.96070504521E+03  0.34705556128E+03  0.10273743293E+04  0.91336398984E+02 0.  0.
         23    2    4    4    0    0 -0.42404352620E+01 -0.19405917862E+03  0.48628476942E+02  0.21996718258E+03  0.91344876960E+02 0.  0.
          3    1    3    3  502    0 -0.68809603039E+02 -0.61291999752E+03 -0.61109278607E+02  0.61979031032E+03  0.00000000000E+00 0. -1.
         -4    1    3    3    0  502  0.11780728643E+02 -0.15372586907E+03  0.12618846487E+02  0.15469215777E+03  0.00000000000E+00 0.  1.
         13    1    5    5    0    0  0.15244460759E+02  0.31838259423E+02  0.24708704339E+02  0.43088147059E+02  0.00000000000E+00 0. -1.
        -13    1    5    5    0    0  0.46024848899E+02  0.92886678579E+03  0.32234685694E+03  0.98428618228E+03  0.00000000000E+00 0.  1.
          2    1    6    6  503    0  0.19100396534E+02 -0.31618764007E+02  0.41704982800E+02  0.55712449017E+02  0.00000000000E+00 0. -1.
         -2    1    6    6    0  503 -0.23340831796E+02 -0.16244041461E+03  0.69234941418E+01  0.16425473357E+03  0.00000000000E+00 0.  1.
<mgrwt>
<rscale>  0 0.19917904E+04</rscale>
<asrwt>0</asrwt>
<pdfrwt beam="1">  1        1 0.18223212E+00 0.19917904E+04</pdfrwt>
<pdfrwt beam="2">  1       -2 0.12881772E+00 0.19917904E+04</pdfrwt>
<totfact> 0.39698635E+00</totfact>
</mgrwt>
</event>
<event>
12    5  0.5095719E-008  0.1928575E+04  0.7818608E-02  0.8640762E-01
         -2   -1    0    0    0  501 -0.00000000000E+00  0.00000000000E+00  0.23525449351E+03  0.23525449351E+03  0.00000000000E+00 0.  1.
          1   -1    0    0  501    0  0.00000000000E+00 -0.00000000000E+00 -0.39525291619E+04  0.39525291619E+04  0.00000000000E+00 0. -1.
        -24    2    1    2    0    0 -0.28628041828E+03  0.69642013508E+03 -0.15062555065E+04  0.16858651060E+04  0.79862520079E+02 0.  0.
        254    2    1    2    0    0  0.28628041828E+03 -0.69642013508E+03 -0.22110191619E+04  0.25019185495E+04  0.89667899024E+03 0.  0.
         23    2    4    4    0    0 -0.23471348386E+02 -0.60398343283E+03 -0.60141966868E+03  0.85756804405E+03  0.91490114114E+02 0.  0.
         23    2    4    4    0    0  0.30975176667E+03 -0.92436702259E+02 -0.16095994932E+04  0.16443505054E+04  0.92667984185E+02 0.  0.
          3    1    3    3  502    0 -0.57736586324E+01  0.10009101917E+01 -0.48023821756E+01  0.75762675359E+01  0.00000000000E+00 0. -1.
         -4    1    3    3    0  502 -0.28050675965E+03  0.69541922489E+03 -0.15014531244E+04  0.16782888384E+04  0.00000000000E+00 0.  1.
         13    1    5    5    0    0 -0.50575111296E+02 -0.31744274288E+03 -0.35229770812E+03  0.47690817988E+03  0.00000000000E+00 0. -1.
        -13    1    5    5    0    0  0.27103762910E+02 -0.28654068994E+03 -0.24912196056E+03  0.38065986417E+03  0.00000000000E+00 0.  1.
          3    1    6    6  503    0  0.99931600834E+02 -0.44135954755E+02 -0.35562764924E+03  0.37202867128E+03  0.00000000000E+00 0. -1.
         -3    1    6    6    0  503  0.20982016583E+03 -0.48300747504E+02 -0.12539718439E+04  0.12723218341E+04  0.00000000000E+00 0.  1.
<mgrwt>
<rscale>  0 0.19285749E+04</rscale>
<asrwt>0</asrwt>
<pdfrwt beam="1">  1        1 0.60808142E+00 0.19285749E+04</pdfrwt>
<pdfrwt beam="2">  1       -2 0.36192998E-01 0.19285749E+04</pdfrwt>
<totfact> 0.62743383E-01</totfact>
</mgrwt>
</event>
<event>
12    5  0.5095719E-008  0.3294740E+04  0.7818608E-02  0.8164235E-01
          1   -1    0    0  501    0  0.00000000000E+00  0.00000000000E+00  0.13596801541E+04  0.13596801541E+04  0.00000000000E+00 0. -1.
         -2   -1    0    0    0  501 -0.00000000000E+00 -0.00000000000E+00 -0.19959309062E+04  0.19959309062E+04  0.00000000000E+00 0.  1.
        -24    2    1    2    0    0  0.97522172897E+03  0.10330392857E+04 -0.85672587521E+03  0.16608712384E+04  0.79287190950E+02 0.  0.
        254    2    1    2    0    0 -0.97522172897E+03 -0.10330392857E+04  0.22047512310E+03  0.16947398219E+04  0.89738854321E+03 0.  0.
         23    2    4    4    0    0 -0.43806323671E+02  0.52634468786E+02 -0.17327291757E+03  0.20829487562E+03  0.93133613418E+02 0.  0.
         23    2    4    4    0    0 -0.93141540530E+03 -0.10856737545E+04  0.39374804066E+03  0.14864449463E+04  0.90878491916E+02 0.  0.
          1    1    3    3  502    0  0.51087028913E+02  0.82971073809E+02 -0.61323483604E+02  0.11512885500E+03  0.00000000000E+00 0. -1.
         -2    1    3    3    0  502  0.92413470006E+03  0.95006821194E+03 -0.79540239160E+03  0.15457423834E+04  0.00000000000E+00 0.  1.
         13    1    5    5    0    0  0.76743831916E+01 -0.19388371595E+02 -0.65960568320E+02  0.69178043363E+02  0.00000000000E+00 0. -1.
        -13    1    5    5    0    0 -0.51480706863E+02  0.72022840381E+02 -0.10731234925E+03  0.13911683225E+03  0.00000000000E+00 0.  1.
          2    1    6    6  503    0 -0.38305691183E+03 -0.43575073392E+03  0.20554369709E+03  0.61551564662E+03  0.00000000000E+00 0. -1.
         -2    1    6    6    0  503 -0.54835849348E+03 -0.64992302061E+03  0.18820434357E+03  0.87092929967E+03  0.00000000000E+00 0.  1.
<mgrwt>
<rscale>  0 0.32947398E+04</rscale>
<asrwt>0</asrwt>
<pdfrwt beam="1">  1        1 0.20918156E+00 0.32947398E+04</pdfrwt>
<pdfrwt beam="2">  1       -2 0.30706629E+00 0.32947398E+04</pdfrwt>
<totfact> 0.17193969E-01</totfact>
</mgrwt>
</event>
<event>
12    5  0.5095719E-008  0.1561296E+04  0.7818608E-02  0.8844684E-01
         -4   -1    0    0    0  501 -0.00000000000E+00  0.00000000000E+00  0.68394241184E+03  0.68394241184E+03  0.00000000000E+00 0.  1.
          3   -1    0    0  501    0  0.00000000000E+00 -0.00000000000E+00 -0.89102766996E+03  0.89102766996E+03  0.00000000000E+00 0. -1.
        -24    2    1    2    0    0 -0.26718797484E+03 -0.40224140247E+03 -0.25910683893E+03  0.55373372951E+03  0.79354454539E+02 0.  0.
        254    2    1    2    0    0  0.26718797484E+03  0.40224140247E+03  0.52021580817E+02  0.10212363523E+04  0.89834841938E+03 0.  0.
         23    2    4    4    0    0 -0.70940843534E+01  0.56950433746E+03  0.25527716334E+03  0.63041714325E+03  0.88734592856E+02 0.  0.
         23    2    4    4    0    0  0.27428205919E+03 -0.16726293498E+03 -0.20325558252E+03  0.39081920904E+03  0.90660271990E+02 0.  0.
          3    1    3    3  502    0 -0.20888339421E+03 -0.25792289910E+03 -0.19830778742E+03  0.38662963261E+03  0.00000000000E+00 0. -1.
         -2    1    3    3    0  502 -0.58304580624E+02 -0.14431850337E+03 -0.60799051513E+02  0.16710409690E+03  0.00000000000E+00 0.  1.
         13    1    5    5    0    0 -0.45212554323E+02  0.21775450813E+03  0.10686300141E+03  0.24674055594E+03  0.00000000000E+00 0.  1.
        -13    1    5    5    0    0  0.38118469969E+02  0.35174982933E+03  0.14841416193E+03  0.38367658731E+03  0.00000000000E+00 0. -1.
          2    1    6    6  503    0  0.24121244021E+03 -0.15811667524E+03 -0.20879829240E+03  0.35606326855E+03  0.00000000000E+00 0. -1.
         -2    1    6    6    0  503  0.33069618977E+02 -0.91462597450E+01  0.55427098792E+01  0.34755940491E+02  0.00000000000E+00 0.  1.
<mgrwt>
<rscale>  0 0.15612964E+04</rscale>
<asrwt>0</asrwt>
<pdfrwt beam="1">  1        3 0.13708118E+00 0.15612964E+04</pdfrwt>
<pdfrwt beam="2">  1       -4 0.10522191E+00 0.15612964E+04</pdfrwt>
<totfact> 0.65551802E-01</totfact>
</mgrwt>
</event>
<event>
12    5  0.5095719E-008  0.3178047E+04  0.7818608E-02  0.8194639E-01
          1   -1    0    0  501    0  0.00000000000E+00  0.00000000000E+00  0.13823258365E+04  0.13823258365E+04  0.00000000000E+00 0. -1.
         -2   -1    0    0    0  501 -0.00000000000E+00 -0.00000000000E+00 -0.18266289610E+04  0.18266289610E+04  0.00000000000E+00 0.  1.
        -24    2    1    2    0    0  0.14307088362E+04  0.61437709012E+02  0.10645340673E+03  0.14381977459E+04  0.79862771150E+02 0.  0.
        254    2    1    2    0    0 -0.14307088362E+04 -0.61437709012E+02 -0.55075653122E+03  0.17707570516E+04  0.88405057144E+03 0.  0.
         23    2    4    4    0    0 -0.56053565641E+03  0.22328582030E+03  0.13239292807E+03  0.62438078568E+03  0.90921386253E+02 0.  0.
         23    2    4    4    0    0 -0.87017317983E+03 -0.28472352931E+03 -0.68314945929E+03  0.11463762659E+04  0.96002647096E+02 0.  0.
          3    1    3    3  502    0  0.13781534480E+04  0.52959013697E+02  0.88461799150E+02  0.13820047299E+04  0.00000000000E+00 0. -1.
         -4    1    3    3    0  502  0.52555388212E+02  0.84786953152E+01  0.17991607577E+02  0.56193016003E+02  0.00000000000E+00 0.  1.
         13    1    5    5    0    0 -0.49416750350E+03  0.21296454969E+03  0.91733282371E+02  0.54586666507E+03  0.00000000000E+00 0.  1.
        -13    1    5    5    0    0 -0.66368152906E+02  0.10321270604E+02  0.40659645698E+02  0.78514120611E+02  0.00000000000E+00 0. -1.
          1    1    6    6  503    0 -0.69024395296E+02 -0.47378145653E+01 -0.29713717572E+02  0.75297536777E+02  0.00000000000E+00 0. -1.
         -1    1    6    6    0  503 -0.80114878454E+03 -0.27998571474E+03 -0.65343574172E+03  0.10710787291E+04  0.00000000000E+00 0.  1.
<mgrwt>
<rscale>  0 0.31780475E+04</rscale>
<asrwt>0</asrwt>
<pdfrwt beam="1">  1        1 0.21266551E+00 0.31780475E+04</pdfrwt>
<pdfrwt beam="2">  1       -2 0.28101984E+00 0.31780475E+04</pdfrwt>
<totfact> 0.24157172E-01</totfact>
</mgrwt>
</event>
<event>
12    5  0.5095719E-008  0.1372934E+04  0.7818608E-02  0.8973647E-01
         -2   -1    0    0    0  501 -0.00000000000E+00  0.00000000000E+00  0.25571126815E+03  0.25571126815E+03  0.00000000000E+00 0.  1.
          1   -1    0    0  501    0  0.00000000000E+00 -0.00000000000E+00 -0.18428482766E+04  0.18428482766E+04  0.00000000000E+00 0. -1.
        -24    2    1    2    0    0 -0.17491329724E+03  0.14479612277E+03 -0.93045170745E+03  0.96112278614E+03  0.80349557615E+02 0.  0.
        254    2    1    2    0    0  0.17491329724E+03 -0.14479612277E+03 -0.65668530101E+03  0.11374367586E+04  0.90053662702E+03 0.  0.
         23    2    4    4    0    0 -0.29872570353E+03 -0.27884654573E+03 -0.38467008978E+03  0.56847301456E+03  0.90543074303E+02 0.  0.
         23    2    4    4    0    0  0.47363900077E+03  0.13405042296E+03 -0.27201521123E+03  0.56896374407E+03  0.86162915354E+02 0.  0.
          3    1    3    3  502    0 -0.16035533874E+03  0.15495718156E+03 -0.86940392582E+03  0.89754595928E+03  0.00000000000E+00 0. -1.
         -4    1    3    3    0  502 -0.14557958498E+02 -0.10161058793E+02 -0.61047781631E+02  0.63576826860E+02  0.00000000000E+00 0.  1.
         13    1    5    5    0    0 -0.10017112002E+03 -0.40174070345E+02 -0.10630317007E+03  0.15148786480E+03  0.00000000000E+00 0.  1.
        -13    1    5    5    0    0 -0.19855458351E+03 -0.23867247538E+03 -0.27836691971E+03  0.41698514976E+03  0.00000000000E+00 0. -1.
          2    1    6    6  503    0  0.43558336216E+03  0.14415651493E+03 -0.26192473248E+03  0.52831669637E+03  0.00000000000E+00 0. -1.
         -2    1    6    6    0  503  0.38055638610E+02 -0.10106091968E+02 -0.10090478749E+02  0.40647047694E+02  0.00000000000E+00 0.  1.
<mgrwt>
<rscale>  0 0.13729342E+04</rscale>
<asrwt>0</asrwt>
<pdfrwt beam="1">  1        1 0.28351512E+00 0.13729342E+04</pdfrwt>
<pdfrwt beam="2">  1       -2 0.39340195E-01 0.13729342E+04</pdfrwt>
<totfact> 0.19974844E+01</totfact>
</mgrwt>
</event>
<event>
12    5  0.5095719E-008  0.1725118E+04  0.7818608E-02  0.8747167E-01
          1   -1    0    0  501    0  0.00000000000E+00  0.00000000000E+00  0.16205252356E+04  0.16205252356E+04  0.00000000000E+00 0. -1.
         -2   -1    0    0    0  501 -0.00000000000E+00 -0.00000000000E+00 -0.45911544638E+03  0.45911544638E+03  0.00000000000E+00 0.  1.
        -24    2    1    2    0    0 -0.15632104883E+03 -0.35422980176E+03 -0.17952050435E+03  0.43411340894E+03  0.79446948211E+02 0.  0.
        254    2    1    2    0    0  0.15632104883E+03  0.35422980176E+03  0.13409302936E+04  0.16455272731E+04  0.87163692638E+03 0.  0.
         23    2    4    4    0    0  0.19972599669E+03 -0.12042370496E+03  0.10512093540E+04  0.10806348356E+04  0.91313741752E+02 0.  0.
         23    2    4    4    0    0 -0.43404947860E+02  0.47465350672E+03  0.28972093960E+03  0.56489243752E+03  0.89360518042E+02 0.  0.
          1    1    3    3  502    0 -0.82115366569E+02 -0.10145194003E+03 -0.43165415233E+02  0.13747247956E+03  0.00000000000E+00 0. -1.
         -2    1    3    3    0  502 -0.74205682257E+02 -0.25277786173E+03 -0.13635508911E+03  0.29664092938E+03  0.00000000000E+00 0.  1.
         13    1    5    5    0    0  0.33140977999E+02 -0.34216407321E+02  0.40384266775E+03  0.40664233332E+03  0.00000000000E+00 0.  1.
        -13    1    5    5    0    0  0.16658501869E+03 -0.86207297640E+02  0.64736668626E+03  0.67399250226E+03  0.00000000000E+00 0. -1.
          2    1    6    6  503    0 -0.39519798040E+02  0.38983669665E+03  0.19495773782E+03  0.43765623956E+03  0.00000000000E+00 0. -1.
         -2    1    6    6    0  503 -0.38851498203E+01  0.84816810072E+02  0.94763201777E+02  0.12723619796E+03  0.00000000000E+00 0.  1.
<mgrwt>
<rscale>  0 0.17251182E+04</rscale>
<asrwt>0</asrwt>
<pdfrwt beam="1">  1        1 0.24931157E+00 0.17251182E+04</pdfrwt>
<pdfrwt beam="2">  1       -2 0.70633146E-01 0.17251182E+04</pdfrwt>
<totfact> 0.82057918E+00</totfact>
</mgrwt>
</event>
<event>
12    5  0.5095719E-008  0.1438569E+04  0.7818608E-02  0.8926364E-01
          3   -1    0    0  501    0  0.00000000000E+00  0.00000000000E+00  0.12717703216E+04  0.12717703216E+04  0.00000000000E+00 0. -1.
         -4   -1    0    0    0  501 -0.00000000000E+00 -0.00000000000E+00 -0.40681095051E+03  0.40681095051E+03  0.00000000000E+00 0.  1.
        -24    2    1    2    0    0  0.20999695119E+03  0.20813631200E+03  0.64386394109E+03  0.71318467258E+03  0.81560766827E+02 0.  0.
        254    2    1    2    0    0 -0.20999695119E+03 -0.20813631200E+03  0.22109543003E+03  0.96539659957E+03  0.89201343118E+03 0.  0.
         23    2    4    4    0    0 -0.87243041584E+02 -0.49354159911E+03  0.34793894646E+03  0.61707865093E+03  0.92357417788E+02 0.  0.
         23    2    4    4    0    0 -0.12275390960E+03  0.28540528711E+03 -0.12684351642E+03  0.34831794864E+03  0.93334963725E+02 0.  0.
          1    1    3    3  502    0  0.16792822637E+03  0.14953915147E+03  0.55437920334E+03  0.59824589270E+03  0.00000000000E+00 0. -1.
         -2    1    3    3    0  502  0.42068724813E+02  0.58597160538E+02  0.89484737746E+02  0.11493877988E+03  0.00000000000E+00 0.  1.
         13    1    5    5    0    0 -0.63494062385E+02 -0.43466258011E+03  0.26642012796E+03  0.51375357817E+03  0.00000000000E+00 0. -1.
        -13    1    5    5    0    0 -0.23748979199E+02 -0.58879019000E+02  0.81518818499E+02  0.10332507276E+03  0.00000000000E+00 0.  1.
          2    1    6    6  503    0 -0.80240870712E+02  0.75352679334E+02 -0.41509602347E+02  0.11764212979E+03  0.00000000000E+00 0.  1.
         -2    1    6    6    0  503 -0.42513038890E+02  0.21005260777E+03 -0.85333914075E+02  0.23067581884E+03  0.00000000000E+00 0. -1.
<mgrwt>
<rscale>  0 0.14385689E+04</rscale>
<asrwt>0</asrwt>
<pdfrwt beam="1">  1        3 0.19565697E+00 0.14385689E+04</pdfrwt>
<pdfrwt beam="2">  1       -4 0.62586300E-01 0.14385689E+04</pdfrwt>
<totfact> 0.83580098E-01</totfact>
</mgrwt>
</event>
<event>
12    5  0.5095719E-008  0.1775663E+04  0.7818608E-02  0.8719350E-01
         -2   -1    0    0    0  501 -0.00000000000E+00  0.00000000000E+00  0.26481595459E+03  0.26481595459E+03  0.00000000000E+00 0.  1.
          1   -1    0    0  501    0  0.00000000000E+00 -0.00000000000E+00 -0.29765748775E+04  0.29765748775E+04  0.00000000000E+00 0. -1.
        -24    2    1    2    0    0  0.42306099427E+03  0.51286400306E+03 -0.92896751463E+03  0.11451682278E+04  0.80122008926E+02 0.  0.
        254    2    1    2    0    0 -0.42306099427E+03 -0.51286400306E+03 -0.17827914083E+04  0.20962226042E+04  0.87965556361E+03 0.  0.
         23    2    4    4    0    0 -0.57754773420E+03 -0.16431447152E+03 -0.61489438909E+03  0.86425589693E+03  0.91008322757E+02 0.  0.
         23    2    4    4    0    0  0.15448673994E+03 -0.34854953154E+03 -0.11678970192E+04  0.12319667073E+04  0.91682014239E+02 0.  0.
          1    1    3    3  502    0  0.17810478456E+03  0.18892981783E+03 -0.42352248080E+03  0.49677669238E+03  0.00000000000E+00 0. -1.
         -2    1    3    3    0  502  0.24495620971E+03  0.32393418524E+03 -0.50544503383E+03  0.64839153546E+03  0.00000000000E+00 0.  1.
         13    1    5    5    0    0 -0.50820369911E+03 -0.11267503078E+03 -0.53689779538E+03  0.74781408454E+03  0.00000000000E+00 0. -1.
        -13    1    5    5    0    0 -0.69344035093E+02 -0.51639440739E+02 -0.77996593717E+02  0.11644181240E+03  0.00000000000E+00 0.  1.
          3    1    6    6  503    0  0.91050061041E+02 -0.29618080324E+03 -0.92196052880E+03  0.97263785578E+03  0.00000000000E+00 0. -1.
         -3    1    6    6    0  503  0.63436678895E+02 -0.52368728307E+02 -0.24593649037E+03  0.25932885152E+03  0.00000000000E+00 0.  1.
<mgrwt>
<rscale>  0 0.17756627E+04</rscale>
<asrwt>0</asrwt>
<pdfrwt beam="1">  1        1 0.45793457E+00 0.17756627E+04</pdfrwt>
<pdfrwt beam="2">  1       -2 0.40740919E-01 0.17756627E+04</pdfrwt>
<totfact> 0.29552543E+00</totfact>
</mgrwt>
</event>
<event>
12    5  0.5095719E-008  0.2887003E+04  0.7818608E-02  0.8276755E-01
          3   -1    0    0  501    0  0.00000000000E+00  0.00000000000E+00  0.21954720163E+04  0.21954720163E+04  0.00000000000E+00 0. -1.
         -4   -1    0    0    0  501 -0.00000000000E+00 -0.00000000000E+00 -0.94908832008E+03  0.94908832008E+03  0.00000000000E+00 0.  1.
        -24    2    1    2    0    0 -0.32969985752E+02 -0.79636271089E+03 -0.56028118555E+03  0.97721451217E+03  0.75845953514E+02 0.  0.
        254    2    1    2    0    0  0.32969985752E+02  0.79636271089E+03  0.18066648818E+04  0.21673458242E+04  0.89334726697E+03 0.  0.
         23    2    4    4    0    0  0.25643537866E+03 -0.22163055398E+02  0.16999659680E+03  0.32139540927E+03  0.90254427700E+02 0.  0.
         23    2    4    4    0    0 -0.22346539291E+03  0.81852576628E+03  0.16366682850E+04  0.18459504149E+04  0.94491520638E+02 0.  0.
          3    1    3    3  502    0 -0.60075582925E+01 -0.16039964757E+03 -0.15154111697E+03  0.22074611623E+03  0.00000000000E+00 0. -1.
         -4    1    3    3    0  502 -0.26962427460E+02 -0.63596306331E+03 -0.40874006858E+03  0.75646839594E+03  0.00000000000E+00 0.  1.
         13    1    5    5    0    0  0.16720901701E+03  0.25303792144E+02  0.12734497793E+03  0.21169761612E+03  0.00000000000E+00 0. -1.
        -13    1    5    5    0    0  0.89226361654E+02 -0.47466847541E+02  0.42651618872E+02  0.10969779315E+03  0.00000000000E+00 0.  1.
          3    1    6    6  503    0 -0.95919994148E+02  0.19648115000E+03  0.43139982019E+03  0.48364376605E+03  0.00000000000E+00 0. -1.
         -3    1    6    6    0  503 -0.12754539876E+03  0.62204461628E+03  0.12052684648E+04  0.13623066489E+04  0.00000000000E+00 0.  1.
<mgrwt>
<rscale>  0 0.28870032E+04</rscale>
<asrwt>0</asrwt>
<pdfrwt beam="1">  1        3 0.33776492E+00 0.28870032E+04</pdfrwt>
<pdfrwt beam="2">  1       -4 0.14601359E+00 0.28870032E+04</pdfrwt>
<totfact> 0.15145661E-02</totfact>
</mgrwt>
</event>
<event>
12    5  0.5322830E-008  0.1965076E+04  0.7818608E-02  0.8623125E-01
          1   -1    0    0  501    0  0.00000000000E+00  0.00000000000E+00  0.95768070326E+03  0.95768070326E+03  0.00000000000E+00 0. -1.
         -2   -1    0    0    0  501 -0.00000000000E+00 -0.00000000000E+00 -0.10080407027E+04  0.10080407027E+04  0.00000000000E+00 0.  1.
        -24    2    1    2    0    0 -0.11320014079E+03  0.63113162917E+03  0.47051645714E+03  0.79970932364E+03  0.83712965839E+02 0.  0.
        254    2    1    2    0    0  0.11320014079E+03 -0.63113162917E+03 -0.52087645654E+03  0.11660120823E+04  0.82287938839E+03 0.  0.
         23    2    4    4    0    0  0.36266103231E+03 -0.24776843710E+03 -0.53632082470E+03  0.69934873326E+03  0.92392645450E+02 0.  0.
         23    2    4    4    0    0 -0.24946089152E+03 -0.38336319207E+03  0.15444368162E+02  0.46666334902E+03  0.91313084366E+02 0.  0.
          1    1    3    3  502    0 -0.78659467560E+02  0.55057448414E+03  0.37921067317E+03  0.67314211655E+03  0.00000000000E+00 0. -1.
         -2    1    3    3    0  502 -0.34540673230E+02  0.80557145028E+02  0.91305783974E+02  0.12656720708E+03  0.00000000000E+00 0.  1.
         13    1    5    5    0    0  0.21546776341E+03 -0.16546366890E+03 -0.39454186302E+03  0.47902804142E+03  0.00000000000E+00 0. -1.
        -13    1    5    5    0    0  0.14719326890E+03 -0.82304768200E+02 -0.14177896168E+03  0.22032069184E+03  0.00000000000E+00 0.  1.
          4    1    6    6  503    0  0.19055911192E+01 -0.67445569565E+01 -0.11055454839E+02  0.13089820769E+02  0.00000000000E+00 0.  1.
         -4    1    6    6    0  503 -0.25136648264E+03 -0.37661863512E+03  0.26499823001E+02  0.45357352825E+03  0.00000000000E+00 0. -1.
<mgrwt>
<rscale>  0 0.19650762E+04</rscale>
<asrwt>0</asrwt>
<pdfrwt beam="1">  1        1 0.14733549E+00 0.19650762E+04</pdfrwt>
<pdfrwt beam="2">  1       -2 0.15508319E+00 0.19650762E+04</pdfrwt>
<totfact> 0.36529852E+00</totfact>
</mgrwt>
</event>
<event>
12    5  0.5095719E-008  0.1708205E+04  0.7818608E-02  0.8756698E-01
         -2   -1    0    0    0  501 -0.00000000000E+00  0.00000000000E+00  0.39061559288E+03  0.39061559288E+03  0.00000000000E+00 0.  1.
          1   -1    0    0  501    0  0.00000000000E+00 -0.00000000000E+00 -0.18675428790E+04  0.18675428790E+04  0.00000000000E+00 0. -1.
        -24    2    1    2    0    0 -0.47743644409E+03  0.21689159140E+03 -0.11197541539E+03  0.54210480035E+03  0.79696928107E+02 0.  0.
        254    2    1    2    0    0  0.47743644409E+03 -0.21689159140E+03 -0.13649518707E+04  0.17160536715E+04  0.89819768066E+03 0.  0.
         23    2    4    4    0    0  0.57423767406E+03  0.11012389017E+03 -0.47533334248E+03  0.75894970442E+03  0.90480328590E+02 0.  0.
         23    2    4    4    0    0 -0.96801229971E+02 -0.32701548157E+03 -0.88961852822E+03  0.95710396707E+03  0.91199093882E+02 0.  0.
          3    1    3    3  502    0 -0.23449604182E+01  0.12965080296E+02 -0.53238478856E+01  0.14210401217E+02  0.00000000000E+00 0. -1.
         -4    1    3    3    0  502 -0.47509148367E+03  0.20392651110E+03 -0.10665156750E+03  0.52789439913E+03  0.00000000000E+00 0.  1.
         13    1    5    5    0    0  0.16539152381E+03  0.16451361232E+02 -0.18575243706E+03  0.24925683804E+03  0.00000000000E+00 0. -1.
        -13    1    5    5    0    0  0.40884615025E+03  0.93672528943E+02 -0.28958090542E+03  0.50969286638E+03  0.00000000000E+00 0.  1.
          3    1    6    6  503    0 -0.81900529265E+02 -0.12088657881E+03 -0.34776416926E+03  0.37717526305E+03  0.00000000000E+00 0. -1.
         -3    1    6    6    0  503 -0.14900700706E+02 -0.20612890276E+03 -0.54185435895E+03  0.57992870403E+03  0.00000000000E+00 0.  1.
<mgrwt>
<rscale>  0 0.17082053E+04</rscale>
<asrwt>0</asrwt>
<pdfrwt beam="1">  1        1 0.28731429E+00 0.17082053E+04</pdfrwt>
<pdfrwt beam="2">  1       -2 0.60094707E-01 0.17082053E+04</pdfrwt>
<totfact> 0.78998652E+00</totfact>
</mgrwt>
</event>
<event>
12    5  0.5095719E-008  0.1891006E+04  0.7818608E-02  0.8659346E-01
          1   -1    0    0  501    0  0.00000000000E+00  0.00000000000E+00  0.13135951717E+04  0.13135951717E+04  0.00000000000E+00 0. -1.
         -2   -1    0    0    0  501 -0.00000000000E+00 -0.00000000000E+00 -0.68055672985E+03  0.68055672985E+03  0.00000000000E+00 0.  1.
        -24    2    1    2    0    0  0.72096447814E+03 -0.11410994694E+03  0.23992042451E+03  0.77261751527E+03  0.81025650637E+02 0.  0.
        254    2    1    2    0    0 -0.72096447814E+03  0.11410994694E+03  0.39311801737E+03  0.12215343863E+04  0.89710290526E+03 0.  0.
         23    2    4    4    0    0 -0.87322957942E+02  0.42567210497E+03  0.14678796529E+03  0.46812495498E+03  0.93660166476E+02 0.  0.
         23    2    4    4    0    0 -0.63364152020E+03 -0.31156215803E+03  0.24633005207E+03  0.75340943133E+03  0.91513508446E+02 0.  0.
          3    1    3    3  502    0  0.15134157325E+03 -0.22610211963E+02  0.16366481651E+02  0.15389397390E+03  0.00000000000E+00 0. -1.
         -4    1    3    3    0  502  0.56962290489E+03 -0.91499734977E+02  0.22355394286E+03  0.61872354137E+03  0.00000000000E+00 0.  1.
         13    1    5    5    0    0 -0.28099683593E+02  0.20898030918E+03  0.11804437274E+03  0.24165437256E+03  0.00000000000E+00 0.  1.
        -13    1    5    5    0    0 -0.59223274348E+02  0.21669179579E+03  0.28743592558E+02  0.22647058242E+03  0.00000000000E+00 0. -1.
          1    1    6    6  503    0 -0.59011034517E+03 -0.27090047763E+03  0.24445406957E+03  0.69381199210E+03  0.00000000000E+00 0. -1.
         -1    1    6    6    0  503 -0.43531175035E+02 -0.40661680396E+02  0.18759825014E+01  0.59597439231E+02  0.00000000000E+00 0.  1.
<mgrwt>
<rscale>  0 0.18910061E+04</rscale>
<asrwt>0</asrwt>
<pdfrwt beam="1">  1        1 0.20209156E+00 0.18910061E+04</pdfrwt>
<pdfrwt beam="2">  1       -2 0.10470104E+00 0.18910061E+04</pdfrwt>
<totfact> 0.53784761E+00</totfact>
</mgrwt>
</event>
<event>
12    5  0.5095719E-008  0.1251789E+04  0.7818608E-02  0.9068695E-01
          1   -1    0    0  501    0  0.00000000000E+00  0.00000000000E+00  0.22682876757E+04  0.22682876757E+04  0.00000000000E+00 0. -1.
         -2   -1    0    0    0  501 -0.00000000000E+00 -0.00000000000E+00 -0.17270473701E+03  0.17270473701E+03  0.00000000000E+00 0.  1.
        -24    2    1    2    0    0 -0.25334328510E+03  0.41504501530E+02  0.76487092081E+03  0.81065097114E+03  0.78879831104E+02 0.  0.
        254    2    1    2    0    0  0.25334328510E+03 -0.41504501530E+02  0.13307120179E+04  0.16303414416E+04  0.90626337111E+03 0.  0.
         23    2    4    4    0    0  0.68840694327E+02  0.22399356845E+03  0.12628871299E+04  0.12876179375E+04  0.90354249191E+02 0.  0.
         23    2    4    4    0    0  0.18450259077E+03 -0.26549806998E+03  0.67824888036E+02  0.34272350407E+03  0.91262005437E+02 0.  0.
          1    1    3    3  502    0 -0.15877252950E+03  0.15295520189E+02  0.35488359799E+03  0.38908230130E+03  0.00000000000E+00 0. -1.
         -4    1    3    3    0  502 -0.94570755600E+02  0.26208981340E+02  0.40998732282E+03  0.42156866984E+03  0.00000000000E+00 0.  1.
         13    1    5    5    0    0  0.41270404247E+02  0.37555678675E+02  0.43414759474E+03  0.43771887015E+03  0.00000000000E+00 0.  1.
        -13    1    5    5    0    0  0.27570290080E+02  0.18643788978E+03  0.82873953511E+03  0.84989906736E+03  0.00000000000E+00 0. -1.
          1    1    6    6  503    0  0.10845232110E+03 -0.19818611386E+03  0.81660131682E+02  0.24022493373E+03  0.00000000000E+00 0. -1.
         -1    1    6    6    0  503  0.76050269673E+02 -0.67311956119E+02 -0.13835243646E+02  0.10249857033E+03  0.00000000000E+00 0.  1.
<mgrwt>
<rscale>  0 0.12517892E+04</rscale>
<asrwt>0</asrwt>
<pdfrwt beam="1">  1        1 0.34896731E+00 0.12517892E+04</pdfrwt>
<pdfrwt beam="2">  1       -2 0.26569961E-01 0.12517892E+04</pdfrwt>
<totfact> 0.21816483E+01</totfact>
</mgrwt>
</event>
<event>
12    5  0.5095719E-008  0.1300173E+04  0.7818608E-02  0.9029428E-01
          1   -1    0    0  501    0  0.00000000000E+00  0.00000000000E+00  0.16011371154E+03  0.16011371154E+03  0.00000000000E+00 0. -1.
         -2   -1    0    0    0  501 -0.00000000000E+00 -0.00000000000E+00 -0.26394518372E+04  0.26394518372E+04  0.00000000000E+00 0.  1.
        -24    2    1    2    0    0  0.33258653802E+03  0.12288078243E+02 -0.53814153848E+03  0.63767788331E+03  0.79195740293E+02 0.  0.
        254    2    1    2    0    0 -0.33258653802E+03 -0.12288078243E+02 -0.19411965872E+04  0.21618876654E+04  0.89148712034E+03 0.  0.
         23    2    4    4    0    0  0.38967797285E+02 -0.11127205850E+03  0.29493612164E+02  0.15199768101E+03  0.91287795717E+02 0.  0.
         23    2    4    4    0    0 -0.37155433531E+03  0.98983980255E+02 -0.19706901993E+04  0.20098899844E+04  0.90484447624E+02 0.  0.
          1    1    3    3  502    0  0.20317884473E+03 -0.15106386060E+02 -0.26570037204E+03  0.33482313771E+03  0.00000000000E+00 0. -1.
         -2    1    3    3    0  502  0.12940769329E+03  0.27394464303E+02 -0.27244116644E+03  0.30285474560E+03  0.00000000000E+00 0.  1.
         13    1    5    5    0    0 -0.18206895398E+02 -0.80313738338E+02  0.27935650861E+02  0.86960842883E+02  0.00000000000E+00 0. -1.
        -13    1    5    5    0    0  0.57174692682E+02 -0.30958320160E+02  0.15579613033E+01  0.65036838129E+02  0.00000000000E+00 0.  1.
          3    1    6    6  503    0 -0.35790146229E+03  0.11153258477E+03 -0.18316680014E+04  0.18696364998E+04  0.00000000000E+00 0. -1.
         -3    1    6    6    0  503 -0.13652873014E+02 -0.12548604514E+02 -0.13902219797E+03  0.14025348461E+03  0.00000000000E+00 0.  1.
<mgrwt>
<rscale>  0 0.13001730E+04</rscale>
<asrwt>0</asrwt>
<pdfrwt beam="1">  1        1 0.24632879E-01 0.13001730E+04</pdfrwt>
<pdfrwt beam="2">  1       -2 0.40606951E+00 0.13001730E+04</pdfrwt>
<totfact> 0.11725864E+00</totfact>
</mgrwt>
</event>
<event>
12    5  0.5095719E-008  0.2179093E+04  0.7818608E-02  0.8527181E-01
         -2   -1    0    0    0  501 -0.00000000000E+00  0.00000000000E+00  0.24167394979E+04  0.24167394979E+04  0.00000000000E+00 0.  1.
          1   -1    0    0  501    0  0.00000000000E+00 -0.00000000000E+00 -0.49120362567E+03  0.49120362567E+03  0.00000000000E+00 0. -1.
        -24    2    1    2    0    0 -0.13110829918E+03  0.81728164767E+03  0.42260316135E+03  0.93296212837E+03  0.81769329534E+02 0.  0.
        254    2    1    2    0    0  0.13110829918E+03 -0.81728164767E+03  0.15029327109E+04  0.19749809952E+04  0.97806161375E+03 0.  0.
         23    2    4    4    0    0 -0.16316733623E+03  0.15273897527E+03  0.44019763364E+03  0.50337653162E+03  0.98291412358E+02 0.  0.
         23    2    4    4    0    0  0.29427563541E+03 -0.97002062294E+03  0.10627350773E+04  0.14716044636E+04  0.93143407510E+02 0.  0.
          3    1    3    3  502    0 -0.67712790738E+02  0.34089210539E+03  0.13474411844E+03  0.37275786646E+03  0.00000000000E+00 0. -1.
         -4    1    3    3    0  502 -0.63395508443E+02  0.47638954227E+03  0.28785904291E+03  0.56020426191E+03  0.00000000000E+00 0.  1.
         13    1    5    5    0    0 -0.16437718678E+03  0.10552778931E+03  0.32988686819E+03  0.38338142842E+03  0.00000000000E+00 0. -1.
        -13    1    5    5    0    0  0.12098505543E+01  0.47211185952E+02  0.11031076545E+03  0.11999510320E+03  0.00000000000E+00 0.  1.
          2    1    6    6  503    0  0.29932668162E+03 -0.93689098489E+03  0.10158149802E+04  0.14139452797E+04  0.00000000000E+00 0. -1.
         -2    1    6    6    0  503 -0.50510462063E+01 -0.33129638046E+02  0.46920097061E+02  0.57659183944E+02  0.00000000000E+00 0.  1.
<mgrwt>
<rscale>  0 0.21790927E+04</rscale>
<asrwt>0</asrwt>
<pdfrwt beam="1">  1        1 0.75569790E-01 0.21790927E+04</pdfrwt>
<pdfrwt beam="2">  1       -2 0.37180607E+00 0.21790927E+04</pdfrwt>
<totfact> 0.41138714E-01</totfact>
</mgrwt>
</event>
<event>
12    5  0.5095719E-008  0.1027677E+04  0.7818608E-02  0.9278699E-01
         -2   -1    0    0    0  501 -0.00000000000E+00  0.00000000000E+00  0.33170678258E+03  0.33170678258E+03  0.00000000000E+00 0.  1.
          1   -1    0    0  501    0  0.00000000000E+00 -0.00000000000E+00 -0.79597450055E+03  0.79597450055E+03  0.00000000000E+00 0. -1.
        -24    2    1    2    0    0 -0.72321915494E+02 -0.48106594827E+02 -0.76233290744E+02  0.14016479702E+03  0.79309216230E+02 0.  0.
        254    2    1    2    0    0  0.72321915494E+02  0.48106594827E+02 -0.38803442723E+03  0.98751648611E+03  0.90392111918E+03 0.  0.
         23    2    4    4    0    0  0.45531467326E+03  0.17264680647E+03 -0.20644982466E+03  0.53662255592E+03  0.90685533330E+02 0.  0.
         23    2    4    4    0    0 -0.38299275776E+03 -0.12454021164E+03 -0.18158460256E+03  0.45089393019E+03  0.90214475433E+02 0.  0.
          3    1    3    3  502    0 -0.54136073935E+02 -0.92201887544E+01 -0.80039948452E+02  0.97067603915E+02  0.00000000000E+00 0. -1.
         -4    1    3    3    0  502 -0.18185841559E+02 -0.38886406073E+02  0.38066577079E+01  0.43097193103E+02  0.00000000000E+00 0.  1.
         13    1    5    5    0    0  0.19181790390E+02  0.15122994612E+02  0.80326207519E+01  0.25713207594E+02  0.00000000000E+00 0. -1.
        -13    1    5    5    0    0  0.43613288287E+03  0.15752381185E+03 -0.21448244542E+03  0.51090934833E+03  0.00000000000E+00 0.  1.
          3    1    6    6  503    0 -0.66283672367E+02  0.11197431328E+02 -0.41051986976E+02  0.78766574925E+02  0.00000000000E+00 0. -1.
         -3    1    6    6    0  503 -0.31670908540E+03 -0.13573764297E+03 -0.14053261559E+03  0.37212735526E+03  0.00000000000E+00 0.  1.
<mgrwt>
<rscale>  0 0.10276773E+04</rscale>
<asrwt>0</asrwt>
<pdfrwt beam="1">  1        1 0.12245761E+00 0.10276773E+04</pdfrwt>
<pdfrwt beam="2">  1       -2 0.51031813E-01 0.10276773E+04</pdfrwt>
<totfact> 0.70950278E+01</totfact>
</mgrwt>
</event>
<event>
12    5  0.5095719E-008  0.1428621E+04  0.7818608E-02  0.8933358E-01
         -2   -1    0    0    0  501 -0.00000000000E+00  0.00000000000E+00  0.12415443272E+04  0.12415443272E+04  0.00000000000E+00 0.  1.
          1   -1    0    0  501    0  0.00000000000E+00 -0.00000000000E+00 -0.41097191095E+03  0.41097191095E+03  0.00000000000E+00 0. -1.
        -24    2    1    2    0    0  0.25251500798E+03  0.24830011485E+03 -0.24981066104E+02  0.36359417259E+03  0.78484981911E+02 0.  0.
        254    2    1    2    0    0 -0.25251500798E+03 -0.24830011485E+03  0.85555348232E+03  0.12889220655E+04  0.89662230264E+03 0.  0.
         23    2    4    4    0    0  0.20050770023E+03  0.18871288860E+03  0.10987054071E+03  0.30891197399E+03  0.86828450324E+02 0.  0.
         23    2    4    4    0    0 -0.45302270821E+03 -0.43701300345E+03  0.74568294161E+03  0.98001009153E+03  0.90370297970E+02 0.  0.
          3    1    3    3  502    0  0.46251832725E+02  0.16864870372E+02  0.13898120861E+02  0.51154800817E+02  0.00000000000E+00 0. -1.
         -4    1    3    3    0  502  0.20626317526E+03  0.23143524448E+03 -0.38879186965E+02  0.31243937177E+03  0.00000000000E+00 0.  1.
         13    1    5    5    0    0  0.20869542486E+03  0.18629014066E+03  0.10934665765E+03  0.30035726794E+03  0.00000000000E+00 0. -1.
        -13    1    5    5    0    0 -0.81877246307E+01  0.24227479385E+01  0.52388305974E+00  0.85547060536E+01  0.00000000000E+00 0.  1.
          2    1    6    6  503    0 -0.21156704474E+03 -0.17153831517E+03  0.38128943153E+03  0.46858045050E+03  0.00000000000E+00 0. -1.
         -2    1    6    6    0  503 -0.24145566346E+03 -0.26547468829E+03  0.36439351008E+03  0.51142964104E+03  0.00000000000E+00 0.  1.
<mgrwt>
<rscale>  0 0.14286215E+04</rscale>
<asrwt>0</asrwt>
<pdfrwt beam="1">  1        1 0.63226448E-01 0.14286215E+04</pdfrwt>
<pdfrwt beam="2">  1       -2 0.19100682E+00 0.14286215E+04</pdfrwt>
<totfact> 0.75007456E+00</totfact>
</mgrwt>
</event>
<event>
12    5  0.5095719E-008  0.1409385E+04  0.7818608E-02  0.8947053E-01
          1   -1    0    0  501    0  0.00000000000E+00  0.00000000000E+00  0.83056185703E+03  0.83056185703E+03  0.00000000000E+00 0. -1.
         -2   -1    0    0    0  501 -0.00000000000E+00 -0.00000000000E+00 -0.59789826652E+03  0.59789826652E+03  0.00000000000E+00 0.  1.
        -24    2    1    2    0    0  0.27385616788E+03 -0.16113454157E+03  0.33192635431E+03  0.46622125237E+03  0.78902536789E+02 0.  0.
        254    2    1    2    0    0 -0.27385616788E+03  0.16113454157E+03 -0.99262763799E+02  0.96223887117E+03  0.90282279975E+03 0.  0.
         23    2    4    4    0    0  0.19357534783E+03  0.32674956955E+03  0.12566843281E+03  0.41028120216E+03  0.91112092229E+02 0.  0.
         23    2    4    4    0    0 -0.46743151572E+03 -0.16561502799E+03 -0.22493119661E+03  0.55195766901E+03  0.90236720844E+02 0.  0.
          1    1    3    3  502    0  0.26859431777E+03 -0.13517203405E+03  0.30947738171E+03  0.43149812991E+03  0.00000000000E+00 0. -1.
         -2    1    3    3    0  502  0.52618501152E+01 -0.25962507517E+02  0.22448972596E+02  0.34723122466E+02  0.00000000000E+00 0.  1.
         13    1    5    5    0    0  0.13189052921E+03  0.24947722592E+03  0.13130366093E+03  0.31124692660E+03  0.00000000000E+00 0.  1.
        -13    1    5    5    0    0  0.61684818627E+02  0.77272343633E+02 -0.56352281143E+01  0.99034275559E+02  0.00000000000E+00 0. -1.
          4    1    6    6  503    0 -0.28833379835E+03 -0.12875107035E+03 -0.10286837086E+03  0.33210708982E+03  0.00000000000E+00 0. -1.
         -4    1    6    6    0  503 -0.17909771736E+03 -0.36863957641E+02 -0.12206282575E+03  0.21985057918E+03  0.00000000000E+00 0.  1.
<mgrwt>
<rscale>  0 0.14093850E+04</rscale>
<asrwt>0</asrwt>
<pdfrwt beam="1">  1        1 0.12777875E+00 0.14093850E+04</pdfrwt>
<pdfrwt beam="2">  1       -2 0.91984348E-01 0.14093850E+04</pdfrwt>
<totfact> 0.17846931E+01</totfact>
</mgrwt>
</event>
<event>
12    5  0.5095719E-008  0.2244680E+04  0.7818608E-02  0.8500058E-01
         -2   -1    0    0    0  501 -0.00000000000E+00  0.00000000000E+00  0.74430785286E+03  0.74430785286E+03  0.00000000000E+00 0.  1.
          1   -1    0    0  501    0  0.00000000000E+00 -0.00000000000E+00 -0.16923730827E+04  0.16923730827E+04  0.00000000000E+00 0. -1.
        -24    2    1    2    0    0  0.17031492437E+03  0.85719141324E+03 -0.77397984907E+03  0.11698762262E+04  0.76034764299E+02 0.  0.
        254    2    1    2    0    0 -0.17031492437E+03 -0.85719141324E+03 -0.17408538079E+03  0.12668047094E+04  0.90039111481E+03 0.  0.
         23    2    4    4    0    0 -0.34511078432E+03 -0.90354782890E+03  0.40968097543E+02  0.97250224714E+03  0.92639641217E+02 0.  0.
         23    2    4    4    0    0  0.17479585994E+03  0.46356415664E+02 -0.21505347833E+03  0.29430246228E+03  0.87541023729E+02 0.  0.
          3    1    3    3  502    0  0.16680982472E+03  0.71467191818E+03 -0.66611319223E+03  0.99110456216E+03  0.00000000000E+00 0. -1.
         -4    1    3    3    0  502  0.35050996537E+01  0.14251949505E+03 -0.10786665684E+03  0.17877166401E+03  0.00000000000E+00 0.  1.
         13    1    5    5    0    0 -0.30380847871E+03 -0.72358332445E+03  0.58945206588E+02  0.78698599514E+03  0.00000000000E+00 0. -1.
        -13    1    5    5    0    0 -0.41302305604E+02 -0.17996450445E+03 -0.17977109045E+02  0.18551625201E+03  0.00000000000E+00 0.  1.
          2    1    6    6  503    0  0.18513049940E+03  0.44639968703E+02 -0.20391797494E+03  0.27901356439E+03  0.00000000000E+00 0. -1.
         -2    1    6    6    0  503 -0.10334639453E+02  0.17164469610E+01 -0.11135503395E+02  0.15288897889E+02  0.00000000000E+00 0.  1.
<mgrwt>
<rscale>  0 0.22446796E+04</rscale>
<asrwt>0</asrwt>
<pdfrwt beam="1">  1        1 0.26036509E+00 0.22446796E+04</pdfrwt>
<pdfrwt beam="2">  1       -2 0.11450890E+00 0.22446796E+04</pdfrwt>
<totfact> 0.22922762E+00</totfact>
</mgrwt>
</event>
<event>
12    5  0.5095719E-008  0.3047817E+04  0.7818608E-02  0.8230207E-01
          1   -1    0    0  501    0  0.00000000000E+00  0.00000000000E+00  0.29810442574E+04  0.29810442574E+04  0.00000000000E+00 0. -1.
         -2   -1    0    0    0  501 -0.00000000000E+00 -0.00000000000E+00 -0.77902157308E+03  0.77902157308E+03  0.00000000000E+00 0.  1.
        -24    2    1    2    0    0 -0.88297808895E+03  0.48266565367E+03 -0.17245658185E+03  0.10242533713E+04  0.82080797319E+02 0.  0.
        254    2    1    2    0    0  0.88297808895E+03 -0.48266565367E+03  0.23744792662E+04  0.27358124592E+04  0.91318212167E+03 0.  0.
         23    2    4    4    0    0  0.49162530270E+03  0.37775940829E+01  0.18452284528E+04  0.19121449629E+04  0.98593141382E+02 0.  0.
         23    2    4    4    0    0  0.39135278624E+03 -0.48644324775E+03  0.52925081336E+03  0.82366749627E+03  0.92399590799E+02 0.  0.
          3    1    3    3  502    0 -0.26862997911E+03  0.10472188965E+03 -0.51845788995E+02  0.29294491920E+03  0.00000000000E+00 0. -1.
         -4    1    3    3    0  502 -0.61434810984E+03  0.37794376401E+03 -0.12061079285E+03  0.73130845214E+03  0.00000000000E+00 0.  1.
         13    1    5    5    0    0  0.13685910179E+03  0.24106439791E+02  0.38535810781E+03  0.40964912478E+03  0.00000000000E+00 0. -1.
        -13    1    5    5    0    0  0.35476620092E+03 -0.20328845709E+02  0.14598703450E+04  0.15024958381E+04  0.00000000000E+00 0.  1.
          2    1    6    6  503    0  0.11184593687E+03 -0.83223229246E+02  0.97490826532E+02  0.17011784368E+03  0.00000000000E+00 0. -1.
         -2    1    6    6    0  503  0.27950684937E+03 -0.40322001850E+03  0.43175998683E+03  0.65354965259E+03  0.00000000000E+00 0.  1.
<mgrwt>
<rscale>  0 0.30478174E+04</rscale>
<asrwt>0</asrwt>
<pdfrwt beam="1">  1        1 0.45862219E+00 0.30478174E+04</pdfrwt>
<pdfrwt beam="2">  1       -2 0.11984947E+00 0.30478174E+04</pdfrwt>
<totfact> 0.24503541E-01</totfact>
</mgrwt>
</event>
<event>
12    5  0.5095719E-008  0.1908580E+04  0.7818608E-02  0.8650597E-01
          1   -1    0    0  501    0  0.00000000000E+00  0.00000000000E+00  0.23057009416E+04  0.23057009416E+04  0.00000000000E+00 0. -1.
         -2   -1    0    0    0  501 -0.00000000000E+00 -0.00000000000E+00 -0.39496426984E+03  0.39496426984E+03  0.00000000000E+00 0.  1.
        -24    2    1    2    0    0 -0.67289240000E+03 -0.15264554229E+03  0.11218329014E+04  0.13196068483E+04  0.82269872328E+02 0.  0.
        254    2    1    2    0    0  0.67289240000E+03  0.15264554229E+03  0.78890377036E+03  0.13810583631E+04  0.89937100239E+03 0.  0.
         23    2    4    4    0    0  0.83607227521E+03  0.27565387807E+03  0.73549414187E+03  0.11507137034E+04  0.90490246263E+02 0.  0.
         23    2    4    4    0    0 -0.16317987522E+03 -0.12300833578E+03  0.53409628489E+02  0.23034465970E+03  0.91909474432E+02 0.  0.
          1    1    3    3  502    0 -0.54793529870E+03 -0.14171115954E+03  0.96572788178E+03  0.11193504750E+04  0.00000000000E+00 0. -1.
         -2    1    3    3    0  502 -0.12495710130E+03 -0.10934382747E+02  0.15610501965E+03  0.20025637331E+03  0.00000000000E+00 0.  1.
         13    1    5    5    0    0  0.38579405073E+03  0.14565754047E+03  0.39856403022E+03  0.57350366595E+03  0.00000000000E+00 0. -1.
        -13    1    5    5    0    0  0.45027822448E+03  0.12999633760E+03  0.33693011164E+03  0.57721003748E+03  0.00000000000E+00 0.  1.
          1    1    6    6  503    0 -0.17456170323E+03 -0.11886588827E+03  0.54716091622E+02  0.21816218351E+03  0.00000000000E+00 0. -1.
         -1    1    6    6    0  503  0.11381828015E+02 -0.41424475086E+01 -0.13064631332E+01  0.12182476195E+02  0.00000000000E+00 0.  1.
<mgrwt>
<rscale>  0 0.19085801E+04</rscale>
<asrwt>0</asrwt>
<pdfrwt beam="1">  1        1 0.35472321E+00 0.19085801E+04</pdfrwt>
<pdfrwt beam="2">  1       -2 0.60763735E-01 0.19085801E+04</pdfrwt>
<totfact> 0.38203556E+00</totfact>
</mgrwt>
</event>
<event>
12    5  0.5095719E-008  0.1689519E+04  0.7818608E-02  0.8767365E-01
         -4   -1    0    0    0  501 -0.00000000000E+00  0.00000000000E+00  0.12312493931E+04  0.12312493931E+04  0.00000000000E+00 0.  1.
          3   -1    0    0  501    0  0.00000000000E+00 -0.00000000000E+00 -0.57958906556E+03  0.57958906556E+03  0.00000000000E+00 0. -1.
        -24    2    1    2    0    0 -0.24245153204E+03 -0.60987837882E+02  0.82065857348E+03  0.86147085956E+03  0.78417382529E+02 0.  0.
        254    2    1    2    0    0  0.24245153204E+03  0.60987837882E+02 -0.16899824599E+03  0.94936759905E+03  0.90013119556E+03 0.  0.
         23    2    4    4    0    0 -0.13333939604E+03  0.39288938651E+03 -0.75886638279E+02  0.43149836796E+03  0.91052705132E+02 0.  0.
         23    2    4    4    0    0  0.37579092809E+03 -0.33190154863E+03 -0.93111607711E+02  0.51786923110E+03  0.90229204887E+02 0.  0.
          1    1    3    3  502    0 -0.15998590725E+02 -0.52303269914E+01  0.15949940999E+03  0.16038507728E+03  0.00000000000E+00 0. -1.
         -2    1    3    3    0  502 -0.22645294132E+03 -0.55757510890E+02  0.66115916349E+03  0.70108578228E+03  0.00000000000E+00 0.  1.
         13    1    5    5    0    0 -0.13012864120E+03  0.35747708262E+03 -0.42619661622E+02  0.38280512459E+03  0.00000000000E+00 0.  1.
        -13    1    5    5    0    0 -0.32107548470E+01  0.35412303889E+02 -0.33266976657E+02  0.48693243364E+02  0.00000000000E+00 0. -1.
          3    1    6    6  503    0  0.15090727414E+03 -0.79463218064E+02 -0.17570770719E+02  0.17145302680E+03  0.00000000000E+00 0. -1.
         -3    1    6    6    0  503  0.22488365394E+03 -0.25243833056E+03 -0.75540836992E+02  0.34641620430E+03  0.00000000000E+00 0.  1.
<mgrwt>
<rscale>  0 0.16895191E+04</rscale>
<asrwt>0</asrwt>
<pdfrwt beam="1">  1        3 0.89167549E-01 0.16895191E+04</pdfrwt>
<pdfrwt beam="2">  1       -4 0.18942298E+00 0.16895191E+04</pdfrwt>
<totfact> 0.38442206E-01</totfact>
</mgrwt>
</event>
<event>
12    5  0.5095719E-008  0.1704228E+04  0.7818608E-02  0.8758957E-01
         -2   -1    0    0    0  501 -0.00000000000E+00  0.00000000000E+00  0.33630934910E+03  0.33630934910E+03  0.00000000000E+00 0.  1.
          1   -1    0    0  501    0  0.00000000000E+00 -0.00000000000E+00 -0.21590188883E+04  0.21590188883E+04  0.00000000000E+00 0. -1.
        -24    2    1    2    0    0 -0.39664547668E+03  0.36633989605E+03 -0.10954592427E+04  0.12238871866E+04  0.79601127988E+02 0.  0.
        254    2    1    2    0    0  0.39664547668E+03 -0.36633989605E+03 -0.72725029653E+03  0.12714410508E+04  0.89226498207E+03 0.  0.
         23    2    4    4    0    0  0.20107923942E+03 -0.54764259739E+03 -0.78834722256E+03  0.98499186032E+03  0.91500527721E+02 0.  0.
         23    2    4    4    0    0  0.19556623726E+03  0.18130270133E+03  0.61096926026E+02  0.28644919048E+03  0.84873327327E+02 0.  0.
          3    1    3    3  502    0 -0.21554529938E+03  0.15779458389E+03 -0.59644779611E+03  0.65353567636E+03  0.00000000000E+00 0. -1.
         -4    1    3    3    0  502 -0.18110017730E+03  0.20854531216E+03 -0.49901144656E+03  0.57035151025E+03  0.00000000000E+00 0.  1.
         13    1    5    5    0    0  0.91882017978E+02 -0.23918966003E+03 -0.27187102161E+03  0.37358780907E+03  0.00000000000E+00 0. -1.
        -13    1    5    5    0    0  0.10919722145E+03 -0.30845293736E+03 -0.51647620095E+03  0.61140405125E+03  0.00000000000E+00 0.  1.
          1    1    6    6  503    0  0.47171134344E+02  0.22148275947E+01  0.82056561570E+01  0.47930722606E+02  0.00000000000E+00 0. -1.
         -1    1    6    6    0  503  0.14839510291E+03  0.17908787374E+03  0.52891269869E+02  0.23851846787E+03  0.00000000000E+00 0.  1.
<mgrwt>
<rscale>  0 0.17042280E+04</rscale>
<asrwt>0</asrwt>
<pdfrwt beam="1">  1        1 0.33215675E+00 0.17042280E+04</pdfrwt>
<pdfrwt beam="2">  1       -2 0.51739899E-01 0.17042280E+04</pdfrwt>
<totfact> 0.68502717E+00</totfact>
</mgrwt>
</event>
<event>
12    5  0.5095719E-008  0.4959396E+04  0.7818608E-02  0.7834801E-01
          1   -1    0    0  501    0  0.00000000000E+00  0.00000000000E+00  0.28926383854E+04  0.28926383854E+04  0.00000000000E+00 0. -1.
         -2   -1    0    0    0  501 -0.00000000000E+00 -0.00000000000E+00 -0.21257071162E+04  0.21257071162E+04  0.00000000000E+00 0.  1.
        -24    2    1    2    0    0  0.49522774749E+03 -0.61882783836E+03 -0.19165680669E+04  0.20755796234E+04  0.81235475828E+02 0.  0.
        254    2    1    2    0    0 -0.49522774749E+03  0.61882783836E+03  0.26834993362E+04  0.29427658782E+04  0.91131987330E+03 0.  0.
         23    2    4    4    0    0  0.86237411772E+02  0.46789748176E+03  0.18432858097E+04  0.19058935157E+04  0.91447100906E+02 0.  0.
         23    2    4    4    0    0 -0.58146515927E+03  0.15093035659E+03  0.84021352643E+03  0.10368723625E+04  0.90905567271E+02 0.  0.
          1    1    3    3  502    0  0.15916901855E+03 -0.22259977129E+03 -0.57089515656E+03  0.63309297455E+03  0.00000000000E+00 0. -1.
         -2    1    3    3    0  502  0.33605872895E+03 -0.39622806706E+03 -0.13456729104E+04  0.14424866489E+04  0.00000000000E+00 0.  1.
         13    1    5    5    0    0  0.81023049238E+02  0.20922255211E+03  0.78434617057E+03  0.81580495592E+03  0.00000000000E+00 0.  1.
        -13    1    5    5    0    0  0.52143625345E+01  0.25867492965E+03  0.10589396392E+04  0.10900885598E+04  0.00000000000E+00 0. -1.
          4    1    6    6  503    0 -0.14937428019E+03  0.14907117206E+02  0.15785280555E+03  0.21783573157E+03  0.00000000000E+00 0. -1.
         -4    1    6    6    0  503 -0.43209087907E+03  0.13602323939E+03  0.68236072088E+03  0.81903663094E+03  0.00000000000E+00 0.  1.
<mgrwt>
<rscale>  0 0.49593959E+04</rscale>
<asrwt>0</asrwt>
<pdfrwt beam="1">  1        1 0.44502129E+00 0.49593959E+04</pdfrwt>
<pdfrwt beam="2">  1       -2 0.32703186E+00 0.49593959E+04</pdfrwt>
<totfact> 0.98685824E-03</totfact>
</mgrwt>
</event>
<event>
12    5  0.5095719E-008  0.1160548E+04  0.7818608E-02  0.9148107E-01
          1   -1    0    0  501    0  0.00000000000E+00  0.00000000000E+00  0.37262870389E+03  0.37262870389E+03  0.00000000000E+00 0. -1.
         -2   -1    0    0    0  501 -0.00000000000E+00 -0.00000000000E+00 -0.90362862299E+03  0.90362862299E+03  0.00000000000E+00 0.  1.
        -24    2    1    2    0    0  0.18208534824E+03  0.10735929069E+03 -0.12833221315E+03  0.26263885712E+03  0.88481190075E+02 0.  0.
        254    2    1    2    0    0 -0.18208534824E+03 -0.10735929069E+03 -0.40266770594E+03  0.10136184698E+04  0.90586976408E+03 0.  0.
         23    2    4    4    0    0 -0.22636343551E+03 -0.27344354164E+03 -0.62112978605E+03  0.72100124345E+03  0.89603607794E+02 0.  0.
         23    2    4    4    0    0  0.44278087262E+02  0.16608425095E+03  0.21846208011E+03  0.29261722631E+03  0.91403682971E+02 0.  0.
          1    1    3    3  502    0  0.62118139525E+02  0.64149642291E+02 -0.12120227775E+02  0.90115147369E+02  0.00000000000E+00 0. -1.
         -2    1    3    3    0  502  0.11996720872E+03  0.43209648398E+02 -0.11621198538E+03  0.17252370975E+03  0.00000000000E+00 0.  1.
         13    1    5    5    0    0 -0.18802948295E+03 -0.18274085216E+03 -0.39198890917E+03  0.47159793301E+03  0.00000000000E+00 0. -1.
        -13    1    5    5    0    0 -0.38333952552E+02 -0.90702689482E+02 -0.22914087688E+03  0.24940331044E+03  0.00000000000E+00 0.  1.
          2    1    6    6  503    0  0.69372282507E+02  0.85472068159E+02  0.12962959423E+03  0.17006416352E+03  0.00000000000E+00 0. -1.
         -2    1    6    6    0  503 -0.25094195245E+02  0.80612182796E+02  0.88832485881E+02  0.12255306278E+03  0.00000000000E+00 0.  1.
<mgrwt>
<rscale>  0 0.11605481E+04</rscale>
<asrwt>0</asrwt>
<pdfrwt beam="1">  1        1 0.57327494E-01 0.11605481E+04</pdfrwt>
<pdfrwt beam="2">  1       -2 0.13901979E+00 0.11605481E+04</pdfrwt>
<totfact> 0.20884721E+01</totfact>
</mgrwt>
</event>
<event>
12    5  0.5095719E-008  0.1495647E+04  0.7818608E-02  0.8887353E-01
         -2   -1    0    0    0  501 -0.00000000000E+00  0.00000000000E+00  0.24844423721E+03  0.24844423721E+03  0.00000000000E+00 0.  1.
          1   -1    0    0  501    0  0.00000000000E+00 -0.00000000000E+00 -0.22509688608E+04  0.22509688608E+04  0.00000000000E+00 0. -1.
        -24    2    1    2    0    0  0.84491856785E+02 -0.45625463663E+03 -0.50772893667E+03  0.69396965186E+03  0.92184799586E+02 0.  0.
        254    2    1    2    0    0 -0.84491856785E+02  0.45625463663E+03 -0.14947956869E+04  0.18054434461E+04  0.89994706747E+03 0.  0.
         23    2    4    4    0    0  0.33325107277E+02  0.70597663472E+03 -0.11669773623E+04  0.13672903439E+04  0.90183971541E+02 0.  0.
         23    2    4    4    0    0 -0.11781696406E+03 -0.24972199810E+03 -0.32781832462E+03  0.43815310228E+03  0.90947093022E+02 0.  0.
          3    1    3    3  502    0  0.18078792993E+02 -0.30147811032E+02 -0.76071206012E+02  0.83800725833E+02  0.00000000000E+00 0. -1.
         -4    1    3    3    0  502  0.66413063792E+02 -0.42610682559E+03 -0.43165773065E+03  0.61016892603E+03  0.00000000000E+00 0.  1.
         13    1    5    5    0    0 -0.11634295390E+02  0.53700434066E+03 -0.90226515520E+03  0.10500435367E+04  0.00000000000E+00 0. -1.
        -13    1    5    5    0    0  0.44959402667E+02  0.16897229406E+03 -0.26471220710E+03  0.31724680714E+03  0.00000000000E+00 0.  1.
          4    1    6    6  503    0  0.75014214130E+01 -0.66678412317E+02 -0.56708199672E+02  0.87852728485E+02  0.00000000000E+00 0. -1.
         -4    1    6    6    0  503 -0.12531838547E+03 -0.18304358578E+03 -0.27111012495E+03  0.35030037379E+03  0.00000000000E+00 0.  1.
<mgrwt>
<rscale>  0 0.14956473E+04</rscale>
<asrwt>0</asrwt>
<pdfrwt beam="1">  1        1 0.34630291E+00 0.14956473E+04</pdfrwt>
<pdfrwt beam="2">  1       -2 0.38222189E-01 0.14956473E+04</pdfrwt>
<totfact> 0.11058079E+01</totfact>
</mgrwt>
</event>
<event>
12    5  0.5095719E-008  0.1431928E+04  0.7818608E-02  0.8931027E-01
         -2   -1    0    0    0  501 -0.00000000000E+00  0.00000000000E+00  0.69305325427E+03  0.69305325427E+03  0.00000000000E+00 0.  1.
          1   -1    0    0  501    0  0.00000000000E+00 -0.00000000000E+00 -0.73963172239E+03  0.73963172239E+03  0.00000000000E+00 0. -1.
        -24    2    1    2    0    0 -0.11953344317E+03 -0.29243612442E+03 -0.30665814148E+03  0.44740055012E+03  0.79504123221E+02 0.  0.
        254    2    1    2    0    0  0.11953344317E+03  0.29243612442E+03  0.26007967336E+03  0.98528442654E+03  0.89629059673E+03 0.  0.
         23    2    4    4    0    0  0.43680852223E+03 -0.62304031728E+02  0.44057861194E+02  0.45475681388E+03  0.10089195793E+03 0.  0.
         23    2    4    4    0    0 -0.31727507906E+03  0.35474015615E+03  0.21602181217E+03  0.53052761266E+03  0.91049823082E+02 0.  0.
          1    1    3    3  502    0 -0.12215034286E+03 -0.26343370218E+03 -0.24781603061E+03  0.38174704548E+03  0.00000000000E+00 0. -1.
         -2    1    3    3    0  502  0.26168996923E+01 -0.29002422240E+02 -0.58842110868E+02  0.65653504638E+02  0.00000000000E+00 0.  1.
         13    1    5    5    0    0  0.37250784207E+03 -0.53125222540E+02  0.95585769901E-02  0.37627700138E+03  0.00000000000E+00 0. -1.
        -13    1    5    5    0    0  0.64300680157E+02 -0.91788091885E+01  0.44048302617E+02  0.78479812501E+02  0.00000000000E+00 0.  1.
          1    1    6    6  503    0 -0.30486461978E+03  0.31732250430E+03  0.17479603468E+03  0.47348670717E+03  0.00000000000E+00 0. -1.
         -1    1    6    6    0  503 -0.12410459284E+02  0.37417651847E+02  0.41225777486E+02  0.57040905487E+02  0.00000000000E+00 0.  1.
<mgrwt>
<rscale>  0 0.14319276E+04</rscale>
<asrwt>0</asrwt>
<pdfrwt beam="1">  1        1 0.11378950E+00 0.14319276E+04</pdfrwt>
<pdfrwt beam="2">  1       -2 0.10662358E+00 0.14319276E+04</pdfrwt>
<totfact> 0.15104204E+01</totfact>
</mgrwt>
</event>
<event>
12    5  0.5095719E-008  0.1444633E+04  0.7818608E-02  0.8922130E-01
         -2   -1    0    0    0  501 -0.00000000000E+00  0.00000000000E+00  0.10538035102E+04  0.10538035102E+04  0.00000000000E+00 0.  1.
          1   -1    0    0  501    0  0.00000000000E+00 -0.00000000000E+00 -0.49510272007E+03  0.49510272007E+03  0.00000000000E+00 0. -1.
        -24    2    1    2    0    0  0.33851929270E+03  0.26301798939E+03  0.16649172584E+03  0.46673400830E+03  0.79670354993E+02 0.  0.
        254    2    1    2    0    0 -0.33851929270E+03 -0.26301798939E+03  0.39220906424E+03  0.10821722219E+04  0.91295946983E+03 0.  0.
         23    2    4    4    0    0  0.26323142035E+03  0.43410054545E+02  0.26700139701E+03  0.38873600617E+03  0.93009262940E+02 0.  0.
         23    2    4    4    0    0 -0.60175071305E+03 -0.30642804393E+03  0.12520766723E+03  0.69343621575E+03  0.95784960235E+02 0.  0.
          3    1    3    3  502    0  0.25385826659E+03  0.20008282002E+03  0.87255261916E+02  0.33479939534E+03  0.00000000000E+00 0. -1.
         -4    1    3    3    0  502  0.84661026108E+02  0.62935169363E+02  0.79236463919E+02  0.13193461297E+03  0.00000000000E+00 0.  1.
         13    1    5    5    0    0  0.10619123384E+02  0.10403240968E+02 -0.53551824413E+01  0.15800986775E+02  0.00000000000E+00 0.  1.
        -13    1    5    5    0    0  0.25261229697E+03  0.33006813578E+02  0.27235657945E+03  0.37293501940E+03  0.00000000000E+00 0. -1.
          2    1    6    6  503    0 -0.52187906822E+03 -0.22653578070E+03  0.99165352739E+02  0.57750323719E+03  0.00000000000E+00 0. -1.
         -2    1    6    6    0  503 -0.79871644833E+02 -0.79892263227E+02  0.26042314494E+02  0.11593297855E+03  0.00000000000E+00 0.  1.
<mgrwt>
<rscale>  0 0.14446328E+04</rscale>
<asrwt>0</asrwt>
<pdfrwt beam="1">  1        1 0.76169649E-01 0.14446328E+04</pdfrwt>
<pdfrwt beam="2">  1       -2 0.16212362E+00 0.14446328E+04</pdfrwt>
<totfact> 0.92674519E+00</totfact>
</mgrwt>
</event>
<event>
12    5  0.5095719E-008  0.3408456E+04  0.7818608E-02  0.8135834E-01
         -2   -1    0    0    0  501 -0.00000000000E+00  0.00000000000E+00  0.11679418480E+04  0.11679418480E+04  0.00000000000E+00 0.  1.
          1   -1    0    0  501    0  0.00000000000E+00 -0.00000000000E+00 -0.24867621090E+04  0.24867621090E+04  0.00000000000E+00 0. -1.
        -24    2    1    2    0    0 -0.22032394703E+03  0.16615215485E+03 -0.22863845775E+04  0.23044201013E+04  0.81537640578E+02 0.  0.
        254    2    1    2    0    0  0.22032394703E+03 -0.16615215485E+03  0.96756431647E+03  0.13502838557E+04  0.90052018533E+03 0.  0.
         23    2    4    4    0    0  0.14257125557E+03  0.26901604641E+03  0.81213868246E+03  0.87227334197E+03  0.92711096560E+02 0.  0.
         23    2    4    4    0    0  0.77752691453E+02 -0.43516820125E+03  0.15542563400E+03  0.47801051370E+03  0.94446170316E+02 0.  0.
          1    1    3    3  502    0 -0.21489470880E+03  0.16953544454E+03 -0.20795525011E+04  0.20974891198E+04  0.00000000000E+00 0. -1.
         -2    1    3    3    0  502 -0.54292382218E+01 -0.33832896894E+01 -0.20683207642E+03  0.20693098153E+03  0.00000000000E+00 0.  1.
         13    1    5    5    0    0  0.80007062695E+02  0.66791966951E+02  0.31988105989E+03  0.33643155233E+03  0.00000000000E+00 0.  1.
        -13    1    5    5    0    0  0.62564192877E+02  0.20222407945E+03  0.49225762258E+03  0.53584178964E+03  0.00000000000E+00 0. -1.
          4    1    6    6  503    0  0.70751638089E+01 -0.26957075946E+03  0.69319269863E+02  0.27843062596E+03  0.00000000000E+00 0.  1.
         -4    1    6    6    0  503  0.70677527644E+02 -0.16559744179E+03  0.86106364141E+02  0.19957988774E+03  0.00000000000E+00 0. -1.
<mgrwt>
<rscale>  0 0.34084563E+04</rscale>
<asrwt>0</asrwt>
<pdfrwt beam="1">  1        1 0.38257879E+00 0.34084563E+04</pdfrwt>
<pdfrwt beam="2">  1       -2 0.17968336E+00 0.34084563E+04</pdfrwt>
<totfact> 0.18239108E-01</totfact>
</mgrwt>
</event>
<event>
12    5  0.5095719E-008  0.2724196E+04  0.7818608E-02  0.8327197E-01
         -4   -1    0    0    0  501 -0.00000000000E+00  0.00000000000E+00  0.11556688678E+04  0.11556688678E+04  0.00000000000E+00 0.  1.
          3   -1    0    0  501    0  0.00000000000E+00 -0.00000000000E+00 -0.16053996584E+04  0.16053996584E+04  0.00000000000E+00 0. -1.
        -24    2    1    2    0    0  0.14248063548E+03  0.85526543747E+03  0.65668535902E+03  0.10924265663E+04  0.10188445400E+03 0.  0.
        254    2    1    2    0    0 -0.14248063548E+03 -0.85526543747E+03 -0.11064161496E+04  0.16686419600E+04  0.89912712920E+03 0.  0.
         23    2    4    4    0    0  0.10639546008E+03  0.13289607195E+03 -0.52194795101E+02  0.19937645179E+03  0.89695668958E+02 0.  0.
         23    2    4    4    0    0 -0.24887609556E+03 -0.98816150941E+03 -0.10542213545E+04  0.14692655082E+04  0.94636090322E+02 0.  0.
          3    1    3    3  502    0 -0.76119364537E+01  0.73664154102E+02  0.32039385589E+02  0.80689970908E+02  0.00000000000E+00 0. -1.
         -4    1    3    3    0  502  0.15009257194E+03  0.78160128336E+03  0.62464597343E+03  0.10117365954E+04  0.00000000000E+00 0.  1.
         13    1    5    5    0    0  0.33090631268E+02  0.39675814488E+02  0.25487202196E+02  0.57608659148E+02  0.00000000000E+00 0.  1.
        -13    1    5    5    0    0  0.73304828812E+02  0.93220257460E+02 -0.77681997297E+02  0.14176779265E+03  0.00000000000E+00 0. -1.
          1    1    6    6  503    0 -0.18969737217E+03 -0.87338132294E+03 -0.93632519508E+03  0.12944052299E+04  0.00000000000E+00 0. -1.
         -1    1    6    6    0  503 -0.59178723393E+02 -0.11478018647E+03 -0.11789615944E+03  0.17486027828E+03  0.00000000000E+00 0.  1.
<mgrwt>
<rscale>  0 0.27241956E+04</rscale>
<asrwt>0</asrwt>
<pdfrwt beam="1">  1        3 0.24698456E+00 0.27241956E+04</pdfrwt>
<pdfrwt beam="2">  1       -4 0.17779521E+00 0.27241956E+04</pdfrwt>
<totfact> 0.28572221E-02</totfact>
</mgrwt>
</event>
<event>
12    5  0.5095719E-008  0.1934524E+04  0.7818608E-02  0.8637860E-01
          1   -1    0    0  501    0  0.00000000000E+00  0.00000000000E+00  0.21231666114E+04  0.21231666114E+04  0.00000000000E+00 0. -1.
         -2   -1    0    0    0  501 -0.00000000000E+00 -0.00000000000E+00 -0.44066051967E+03  0.44066051967E+03  0.00000000000E+00 0.  1.
        -24    2    1    2    0    0 -0.37217648889E+03  0.62981857587E+03  0.67967029743E+03  0.10019129481E+04  0.81798929796E+02 0.  0.
        254    2    1    2    0    0  0.37217648889E+03 -0.62981857587E+03  0.10028357943E+04  0.15619141830E+04  0.94800290471E+03 0.  0.
         23    2    4    4    0    0 -0.21642375439E+03 -0.40113362459E+03  0.13632757821E+03  0.48476585464E+03  0.93087587820E+02 0.  0.
         23    2    4    4    0    0  0.58860024328E+03 -0.22868495128E+03  0.86650821609E+03  0.10771483284E+04  0.10327138721E+03 0.  0.
          1    1    3    3  502    0 -0.28792114789E+03  0.43025956505E+03  0.51043243820E+03  0.72702348977E+03  0.00000000000E+00 0. -1.
         -2    1    3    3    0  502 -0.84255340995E+02  0.19955901082E+03  0.16923785924E+03  0.27488945830E+03  0.00000000000E+00 0.  1.
         13    1    5    5    0    0 -0.21280940060E+03 -0.32316167641E+03  0.10798660445E+03  0.40172430450E+03  0.00000000000E+00 0.  1.
        -13    1    5    5    0    0 -0.36143537828E+01 -0.77971948180E+02  0.28340973757E+02  0.83041550140E+02  0.00000000000E+00 0. -1.
          1    1    6    6  503    0  0.23516400992E+03 -0.76471476601E+02  0.42286328206E+03  0.48986054506E+03  0.00000000000E+00 0. -1.
         -1    1    6    6    0  503  0.35343623335E+03 -0.15221347468E+03  0.44364493403E+03  0.58728778330E+03  0.00000000000E+00 0.  1.
<mgrwt>
<rscale>  0 0.19345239E+04</rscale>
<asrwt>0</asrwt>
<pdfrwt beam="1">  1        1 0.32664101E+00 0.19345239E+04</pdfrwt>
<pdfrwt beam="2">  1       -2 0.67793927E-01 0.19345239E+04</pdfrwt>
<totfact> 0.40138586E+00</totfact>
</mgrwt>
</event>
<event>
12    5  0.5095719E-008  0.2752700E+04  0.7818608E-02  0.8318105E-01
         -4   -1    0    0    0  501 -0.00000000000E+00  0.00000000000E+00  0.10298668964E+04  0.10298668964E+04  0.00000000000E+00 0.  1.
          3   -1    0    0  501    0  0.00000000000E+00 -0.00000000000E+00 -0.18394026427E+04  0.18394026427E+04  0.00000000000E+00 0. -1.
        -24    2    1    2    0    0 -0.35461822312E+03 -0.46433600711E+02  0.86197199592E+03  0.93712248813E+03  0.85397146091E+02 0.  0.
        254    2    1    2    0    0  0.35461822312E+03  0.46433600711E+02 -0.16715077422E+04  0.19321470509E+04  0.90074631868E+03 0.  0.
         23    2    4    4    0    0 -0.17179071435E+03  0.30608929077E+03 -0.79513030784E+03  0.87379579324E+03  0.89912059123E+02 0.  0.
         23    2    4    4    0    0  0.52640893746E+03 -0.25965569006E+03 -0.87637743438E+03  0.10583512577E+04  0.86847742109E+02 0.  0.
          3    1    3    3  502    0 -0.21834744711E+03 -0.21340100169E+02  0.41864845794E+03  0.47264948838E+03  0.00000000000E+00 0. -1.
         -4    1    3    3    0  502 -0.13627077601E+03 -0.25093500542E+02  0.44332353798E+03  0.46447299974E+03  0.00000000000E+00 0.  1.
         13    1    5    5    0    0 -0.17476468702E+03  0.27349782658E+03 -0.67028119146E+03  0.74472856304E+03  0.00000000000E+00 0. -1.
        -13    1    5    5    0    0  0.29739726788E+01  0.32591464189E+02 -0.12484911638E+03  0.12906723020E+03  0.00000000000E+00 0.  1.
          4    1    6    6  503    0  0.24630902235E+03 -0.11521946512E+03 -0.48320121682E+03  0.55446106768E+03  0.00000000000E+00 0. -1.
         -4    1    6    6    0  503  0.28009991511E+03 -0.14443622494E+03 -0.39317621757E+03  0.50389019000E+03  0.00000000000E+00 0.  1.
<mgrwt>
<rscale>  0 0.27527004E+04</rscale>
<asrwt>0</asrwt>
<pdfrwt beam="1">  1        3 0.28298502E+00 0.27527004E+04</pdfrwt>
<pdfrwt beam="2">  1       -4 0.15844106E+00 0.27527004E+04</pdfrwt>
<totfact> 0.24604749E-02</totfact>
</mgrwt>
</event>
<event>
12    5  0.5095719E-008  0.1704041E+04  0.7818608E-02  0.8759063E-01
         -2   -1    0    0    0  501 -0.00000000000E+00  0.00000000000E+00  0.21416245586E+04  0.21416245586E+04  0.00000000000E+00 0.  1.
          1   -1    0    0  501    0  0.00000000000E+00 -0.00000000000E+00 -0.33896637003E+03  0.33896637003E+03  0.00000000000E+00 0. -1.
        -24    2    1    2    0    0  0.94632372970E+02  0.91619786362E+01 -0.22450336321E+03  0.25659471553E+03  0.79999125502E+02 0.  0.
        254    2    1    2    0    0 -0.94632372970E+02 -0.91619786362E+01  0.20271615518E+04  0.22239962131E+04  0.90979996210E+03 0.  0.
         23    2    4    4    0    0  0.18082632863E+03 -0.96044545803E+02  0.56258232931E+02  0.23002329776E+03  0.88447797231E+02 0.  0.
         23    2    4    4    0    0 -0.27545870160E+03  0.86882567167E+02  0.19709033189E+04  0.19939729154E+04  0.89677299803E+02 0.  0.
          1    1    3    3  502    0  0.12478942360E+02  0.75380877937E+01 -0.13225827723E+03  0.13305938022E+03  0.00000000000E+00 0. -1.
         -2    1    3    3    0  502  0.82153430610E+02  0.16238908426E+01 -0.92245085979E+02  0.12353533531E+03  0.00000000000E+00 0.  1.
         13    1    5    5    0    0  0.76403553125E+02 -0.38791553433E+02 -0.20803579395E+02  0.88176394027E+02  0.00000000000E+00 0.  1.
        -13    1    5    5    0    0  0.10442277551E+03 -0.57252992371E+02  0.77061812326E+02  0.14184690374E+03  0.00000000000E+00 0. -1.
          1    1    6    6  503    0 -0.15476640692E+03  0.12328323032E+02  0.84237216855E+03  0.85656027144E+03  0.00000000000E+00 0. -1.
         -1    1    6    6    0  503 -0.12069229468E+03  0.74554244135E+02  0.11285311503E+04  0.11374126439E+04  0.00000000000E+00 0.  1.
<mgrwt>
<rscale>  0 0.17040407E+04</rscale>
<asrwt>0</asrwt>
<pdfrwt beam="1">  1        1 0.52148674E-01 0.17040407E+04</pdfrwt>
<pdfrwt beam="2">  1       -2 0.32948069E+00 0.17040407E+04</pdfrwt>
<totfact> 0.13038174E+00</totfact>
</mgrwt>
</event>
<event>
12    5  0.5095719E-008  0.1570810E+04  0.7818608E-02  0.8838684E-01
         -2   -1    0    0    0  501 -0.00000000000E+00  0.00000000000E+00  0.29938814656E+03  0.29938814656E+03  0.00000000000E+00 0.  1.
          1   -1    0    0  501    0  0.00000000000E+00 -0.00000000000E+00 -0.20604049322E+04  0.20604049322E+04  0.00000000000E+00 0. -1.
        -24    2    1    2    0    0 -0.30337959374E+03  0.92634977867E+02  0.32213401439E+02  0.32816037241E+03  0.77660219956E+02 0.  0.
        254    2    1    2    0    0  0.30337959374E+03 -0.92634977867E+02 -0.17932301871E+04  0.20316327064E+04  0.90068670063E+03 0.  0.
         23    2    4    4    0    0  0.40792558129E+03 -0.41374931133E+03 -0.12967209150E+04  0.14240641087E+04  0.94242674454E+02 0.  0.
         23    2    4    4    0    0 -0.10454598755E+03  0.32111433346E+03 -0.49650927210E+03  0.60756859772E+03  0.92595167180E+02 0.  0.
          1    1    3    3  502    0 -0.19347667833E+03  0.35603629472E+02 -0.10959113259E+02  0.19703031658E+03  0.00000000000E+00 0. -1.
         -2    1    3    3    0  502 -0.10990291541E+03  0.57031348395E+02  0.43172514697E+02  0.13113005583E+03  0.00000000000E+00 0.  1.
         13    1    5    5    0    0  0.24117402671E+03 -0.30734337490E+03 -0.84613535466E+03  0.93197097576E+03  0.00000000000E+00 0.  1.
        -13    1    5    5    0    0  0.16675155458E+03 -0.10640593642E+03 -0.45058556037E+03  0.49209313293E+03  0.00000000000E+00 0. -1.
          3    1    6    6  503    0 -0.19742661817E+02  0.19204906825E+01 -0.25487790855E+02  0.32296880077E+02  0.00000000000E+00 0. -1.
         -3    1    6    6    0  503 -0.84803325733E+02  0.31919384278E+03 -0.47102148125E+03  0.57527171764E+03  0.00000000000E+00 0.  1.
<mgrwt>
<rscale>  0 0.15708097E+04</rscale>
<asrwt>0</asrwt>
<pdfrwt beam="1">  1        1 0.31698538E+00 0.15708097E+04</pdfrwt>
<pdfrwt beam="2">  1       -2 0.46059714E-01 0.15708097E+04</pdfrwt>
<totfact> 0.10239470E+01</totfact>
</mgrwt>
</event>
<event>
12    5  0.5095719E-008  0.2017283E+04  0.7818608E-02  0.8598583E-01
          1   -1    0    0  501    0  0.00000000000E+00  0.00000000000E+00  0.53878677280E+03  0.53878677280E+03  0.00000000000E+00 0. -1.
         -2   -1    0    0    0  501 -0.00000000000E+00 -0.00000000000E+00 -0.18882371316E+04  0.18882371316E+04  0.00000000000E+00 0.  1.
        -24    2    1    2    0    0 -0.36107806079E+03 -0.54302962392E+03  0.25556770023E+02  0.65746752915E+03  0.79698588149E+02 0.  0.
        254    2    1    2    0    0  0.36107806079E+03  0.54302962392E+03 -0.13750071288E+04  0.17695563752E+04  0.90300975765E+03 0.  0.
         23    2    4    4    0    0  0.47836687265E+03  0.17718981015E+03 -0.12550210205E+04  0.13577378264E+04  0.90239402273E+02 0.  0.
         23    2    4    4    0    0 -0.11728881186E+03  0.36583981376E+03 -0.11998610827E+03  0.41181854878E+03  0.87191835737E+02 0.  0.
          3    1    3    3  502    0 -0.30629650698E+03 -0.44865034871E+03 -0.80142636210E+01  0.54329450025E+03  0.00000000000E+00 0. -1.
         -4    1    3    3    0  502 -0.54781553812E+02 -0.94379275212E+02  0.33571033644E+02  0.11417302890E+03  0.00000000000E+00 0.  1.
         13    1    5    5    0    0  0.78277494835E+02  0.31574204374E+02 -0.30902999663E+03  0.32034955189E+03  0.00000000000E+00 0.  1.
        -13    1    5    5    0    0  0.40008937782E+03  0.14561560578E+03 -0.94599102388E+03  0.10373882745E+04  0.00000000000E+00 0. -1.
          2    1    6    6  503    0 -0.12611563153E+03  0.27802035191E+03 -0.10077167220E+03  0.32148934432E+03  0.00000000000E+00 0. -1.
         -2    1    6    6    0  503  0.88268196637E+01  0.87819461853E+02 -0.19214436079E+02  0.90329204465E+02  0.00000000000E+00 0.  1.
<mgrwt>
<rscale>  0 0.20172825E+04</rscale>
<asrwt>0</asrwt>
<pdfrwt beam="1">  1        1 0.82890276E-01 0.20172825E+04</pdfrwt>
<pdfrwt beam="2">  1       -2 0.29049801E+00 0.20172825E+04</pdfrwt>
<totfact> 0.11776001E+00</totfact>
</mgrwt>
</event>
<event>
12    5  0.5095719E-008  0.2946398E+04  0.7818608E-02  0.8259205E-01
          1   -1    0    0  501    0  0.00000000000E+00  0.00000000000E+00  0.10515450798E+04  0.10515450798E+04  0.00000000000E+00 0. -1.
         -2   -1    0    0    0  501 -0.00000000000E+00 -0.00000000000E+00 -0.20639298832E+04  0.20639298832E+04  0.00000000000E+00 0.  1.
        -24    2    1    2    0    0 -0.24615522257E+03  0.49816326709E+03 -0.17045200951E+04  0.17946503096E+04  0.81375332481E+02 0.  0.
        254    2    1    2    0    0  0.24615522257E+03 -0.49816326709E+03  0.69213529175E+03  0.13208246534E+04  0.97814491185E+03 0.  0.
         23    2    4    4    0    0  0.50520377117E+03 -0.20581779224E+03  0.73246667450E+03  0.91763543543E+03  0.89193884843E+02 0.  0.
         23    2    4    4    0    0 -0.25904854860E+03 -0.29234547485E+03 -0.40331382757E+02  0.40318921793E+03  0.91448880951E+02 0.  0.
          1    1    3    3  502    0 -0.13085378252E+03  0.18673305610E+03 -0.75874266865E+03  0.79226408720E+03  0.00000000000E+00 0. -1.
         -2    1    3    3    0  502 -0.11530144005E+03  0.31143021099E+03 -0.94577742649E+03  0.10023862224E+04  0.00000000000E+00 0.  1.
         13    1    5    5    0    0  0.22226028227E+02 -0.11362333359E+02  0.95130580194E+01  0.26713240594E+02  0.00000000000E+00 0.  1.
        -13    1    5    5    0    0  0.48297774294E+03 -0.19445545888E+03  0.72295361648E+03  0.89092219484E+03  0.00000000000E+00 0. -1.
          2    1    6    6  503    0 -0.18921187208E+03 -0.17422871297E+03 -0.61208648884E+02  0.26439227609E+03  0.00000000000E+00 0. -1.
         -2    1    6    6    0  503 -0.69836676523E+02 -0.11811676188E+03  0.20877266127E+02  0.13879694184E+03  0.00000000000E+00 0.  1.
<mgrwt>
<rscale>  0 0.29463980E+04</rscale>
<asrwt>0</asrwt>
<pdfrwt beam="1">  1        1 0.16177617E+00 0.29463980E+04</pdfrwt>
<pdfrwt beam="2">  1       -2 0.31752767E+00 0.29463980E+04</pdfrwt>
<totfact> 0.25677187E-01</totfact>
</mgrwt>
</event>
<event>
12    5  0.5095719E-008  0.1944650E+04  0.7818608E-02  0.8632945E-01
         -2   -1    0    0    0  501 -0.00000000000E+00  0.00000000000E+00  0.52885528879E+03  0.52885528879E+03  0.00000000000E+00 0.  1.
          1   -1    0    0  501    0  0.00000000000E+00 -0.00000000000E+00 -0.17876646328E+04  0.17876646328E+04  0.00000000000E+00 0. -1.
        -24    2    1    2    0    0  0.58698780897E+03 -0.45540169854E+03 -0.68924651958E+03  0.10159768412E+04  0.72130314310E+02 0.  0.
        254    2    1    2    0    0 -0.58698780897E+03  0.45540169854E+03 -0.56956282445E+03  0.13005430804E+04  0.90280955799E+03 0.  0.
         23    2    4    4    0    0 -0.38856613835E+03 -0.18361115651E+03 -0.34128838858E+02  0.43876358035E+03  0.81559800934E+02 0.  0.
         23    2    4    4    0    0 -0.19842167062E+03  0.63901285506E+03 -0.53543398559E+03  0.86177950003E+03  0.90916255118E+02 0.  0.
          1    1    3    3  502    0  0.55272730473E+03 -0.44434089285E+03 -0.64230109917E+03  0.95681607660E+03  0.00000000000E+00 0. -1.
         -2    1    3    3    0  502  0.34260504238E+02 -0.11060805695E+02 -0.46945420416E+02  0.59160764627E+02  0.00000000000E+00 0.  1.
         13    1    5    5    0    0 -0.47305485995E+02 -0.17567020423E+02 -0.31029350773E+02  0.59238752697E+02  0.00000000000E+00 0. -1.
        -13    1    5    5    0    0 -0.34126065236E+03 -0.16604413609E+03 -0.30994880858E+01  0.37952482765E+03  0.00000000000E+00 0.  1.
          3    1    6    6  503    0 -0.44952948146E+02  0.16958847711E+03 -0.92296317414E+02  0.19824134111E+03  0.00000000000E+00 0. -1.
         -3    1    6    6    0  503 -0.15346872247E+03  0.46942437794E+03 -0.44313766818E+03  0.66353815892E+03  0.00000000000E+00 0.  1.
<mgrwt>
<rscale>  0 0.19446500E+04</rscale>
<asrwt>0</asrwt>
<pdfrwt beam="1">  1        1 0.27502533E+00 0.19446500E+04</pdfrwt>
<pdfrwt beam="2">  1       -2 0.81362353E-01 0.19446500E+04</pdfrwt>
<totfact> 0.45227082E+00</totfact>
</mgrwt>
</event>
<event>
12    5  0.5095719E-008  0.1518104E+04  0.7818608E-02  0.8872503E-01
         -2   -1    0    0    0  501 -0.00000000000E+00  0.00000000000E+00  0.47527482338E+03  0.47527482338E+03  0.00000000000E+00 0.  1.
          1   -1    0    0  501    0  0.00000000000E+00 -0.00000000000E+00 -0.12122664661E+04  0.12122664661E+04  0.00000000000E+00 0. -1.
        -24    2    1    2    0    0 -0.16443096606E+03  0.40615409577E+03 -0.45482127335E+03  0.63688467309E+03  0.82225324734E+02 0.  0.
        254    2    1    2    0    0  0.16443096606E+03 -0.40615409577E+03 -0.28217036937E+03  0.10506566164E+04  0.91228313372E+03 0.  0.
         23    2    4    4    0    0 -0.15336765281E+03 -0.47494214742E+03  0.12438524388E+03  0.52239125070E+03  0.91264722559E+02 0.  0.
         23    2    4    4    0    0  0.31779861887E+03  0.68788051653E+02 -0.40655561325E+03  0.52826536568E+03  0.89716618889E+02 0.  0.
          3    1    3    3  502    0 -0.11214733258E+03  0.30596720914E+03 -0.38348816465E+03  0.50324559581E+03  0.00000000000E+00 0. -1.
         -4    1    3    3    0  502 -0.52283633477E+02  0.10018688662E+03 -0.71333108692E+02  0.13363907728E+03  0.00000000000E+00 0.  1.
         13    1    5    5    0    0 -0.42992506284E+02 -0.23712971550E+03  0.26136562661E+02  0.24240869926E+03  0.00000000000E+00 0.  1.
        -13    1    5    5    0    0 -0.11037514653E+03 -0.23781243192E+03  0.98248681220E+02  0.27998255143E+03  0.00000000000E+00 0. -1.
          1    1    6    6  503    0  0.23567262552E+03  0.99145294509E+01 -0.27297247956E+03  0.36076842837E+03  0.00000000000E+00 0. -1.
         -1    1    6    6    0  503  0.82125993349E+02  0.58873522202E+02 -0.13358313370E+03  0.16749693731E+03  0.00000000000E+00 0.  1.
<mgrwt>
<rscale>  0 0.15181037E+04</rscale>
<asrwt>0</asrwt>
<pdfrwt beam="1">  1        1 0.18650253E+00 0.15181037E+04</pdfrwt>
<pdfrwt beam="2">  1       -2 0.73119203E-01 0.15181037E+04</pdfrwt>
<totfact> 0.14979213E+01</totfact>
</mgrwt>
</event>
<event>
12    5  0.5095719E-008  0.1534880E+04  0.7818608E-02  0.8861584E-01
          1   -1    0    0  501    0  0.00000000000E+00  0.00000000000E+00  0.13048525230E+04  0.13048525230E+04  0.00000000000E+00 0. -1.
         -2   -1    0    0    0  501 -0.00000000000E+00 -0.00000000000E+00 -0.45136466750E+03  0.45136466750E+03  0.00000000000E+00 0.  1.
        -24    2    1    2    0    0 -0.88710256950E+02  0.39366453090E+03 -0.52927546925E+02  0.41474842140E+03  0.79835175551E+02 0.  0.
        254    2    1    2    0    0  0.88710256950E+02 -0.39366453090E+03  0.90641540243E+03  0.13414687691E+04  0.90283348638E+03 0.  0.
         23    2    4    4    0    0  0.27116616783E+02  0.23036302409E+03  0.57447779207E+03  0.62583845311E+03  0.88581047877E+02 0.  0.
         23    2    4    4    0    0  0.61593640167E+02 -0.62402755499E+03  0.33193761036E+03  0.71563031599E+03  0.93487999746E+02 0.  0.
          3    1    3    3  502    0 -0.58306150361E+02  0.18642056117E+03  0.11321764798E+02  0.19565381457E+03  0.00000000000E+00 0. -1.
         -4    1    3    3    0  502 -0.30404106589E+02  0.20724396973E+03 -0.64249311723E+02  0.21909460684E+03  0.00000000000E+00 0.  1.
         13    1    5    5    0    0  0.27452907600E+02  0.38085419921E+02  0.57318404458E+02  0.74091570612E+02  0.00000000000E+00 0.  1.
        -13    1    5    5    0    0 -0.33629081689E+00  0.19227760416E+03  0.51715938761E+03  0.55174688250E+03  0.00000000000E+00 0. -1.
          3    1    6    6  503    0  0.75516928407E+02 -0.54834463197E+03  0.31485810988E+03  0.63680473557E+03  0.00000000000E+00 0. -1.
         -3    1    6    6    0  503 -0.13923288239E+02 -0.75682923013E+02  0.17079500483E+02  0.78825580416E+02  0.00000000000E+00 0.  1.
<mgrwt>
<rscale>  0 0.15348802E+04</rscale>
<asrwt>0</asrwt>
<pdfrwt beam="1">  1        1 0.20074654E+00 0.15348802E+04</pdfrwt>
<pdfrwt beam="2">  1       -2 0.69440719E-01 0.15348802E+04</pdfrwt>
<totfact> 0.14364893E+01</totfact>
</mgrwt>
</event>
<event>
12    5  0.5095719E-008  0.1011024E+04  0.7818608E-02  0.9296535E-01
         -2   -1    0    0    0  501 -0.00000000000E+00  0.00000000000E+00  0.15298042541E+03  0.15298042541E+03  0.00000000000E+00 0.  1.
          1   -1    0    0  501    0  0.00000000000E+00 -0.00000000000E+00 -0.16704266389E+04  0.16704266389E+04  0.00000000000E+00 0. -1.
        -24    2    1    2    0    0 -0.36724969282E+02  0.16330445585E+01 -0.55622658950E+02  0.10089052057E+03  0.75720715452E+02 0.  0.
        254    2    1    2    0    0  0.36724969282E+02 -0.16330445585E+01 -0.14618235545E+04  0.17225165437E+04  0.91037560854E+03 0.  0.
         23    2    4    4    0    0  0.14637183466E+03 -0.38027993258E+02 -0.15398533355E+04  0.15500209605E+04  0.92443718273E+02 0.  0.
         23    2    4    4    0    0 -0.10964686538E+03  0.36394948699E+02  0.78029780945E+02  0.17249558320E+03  0.10158273539E+03 0.  0.
          3    1    3    3  502    0 -0.39650946987E+02 -0.18751503745E+02 -0.64877621806E+02  0.78312976580E+02  0.00000000000E+00 0. -1.
         -4    1    3    3    0  502  0.29259777048E+01  0.20384548303E+02  0.92549628564E+01  0.22577543988E+02  0.00000000000E+00 0.  1.
         13    1    5    5    0    0  0.13266468764E+03  0.40326632210E+01 -0.11157045489E+04  0.11235714585E+04  0.00000000000E+00 0.  1.
        -13    1    5    5    0    0  0.13707147025E+02 -0.42060656479E+02 -0.42414878654E+03  0.42644950209E+03  0.00000000000E+00 0. -1.
          1    1    6    6  503    0 -0.49496880730E+02 -0.30076824987E+02  0.74432367733E+01  0.58394848891E+02  0.00000000000E+00 0. -1.
         -1    1    6    6    0  503 -0.60149984653E+02  0.66471773687E+02  0.70586544172E+02  0.11410073431E+03  0.00000000000E+00 0.  1.
<mgrwt>
<rscale>  0 0.10110244E+04</rscale>
<asrwt>0</asrwt>
<pdfrwt beam="1">  1        1 0.25698872E+00 0.10110244E+04</pdfrwt>
<pdfrwt beam="2">  1       -2 0.23535450E-01 0.10110244E+04</pdfrwt>
<totfact> 0.70338241E+01</totfact>
</mgrwt>
</event>
<event>
12    5  0.5095719E-008  0.2618675E+04  0.7818608E-02  0.8361885E-01
          1   -1    0    0  501    0  0.00000000000E+00  0.00000000000E+00  0.66391051711E+03  0.66391051711E+03  0.00000000000E+00 0. -1.
         -2   -1    0    0    0  501 -0.00000000000E+00 -0.00000000000E+00 -0.25822226291E+04  0.25822226291E+04  0.00000000000E+00 0.  1.
        -24    2    1    2    0    0 -0.63770105727E+03  0.56165282277E+03  0.12110220142E+03  0.86201778648E+03  0.79324581592E+02 0.  0.
        254    2    1    2    0    0  0.63770105727E+03 -0.56165282277E+03 -0.20394143134E+04  0.23841153597E+04  0.89592342027E+03 0.  0.
         23    2    4    4    0    0  0.13891621278E+03 -0.35359966455E+03 -0.15344180056E+03  0.42012109184E+03  0.92881153662E+02 0.  0.
         23    2    4    4    0    0  0.49878484449E+03 -0.20805315823E+03 -0.18859725128E+04  0.19639942678E+04  0.91152220919E+02 0.  0.
          1    1    3    3  502    0 -0.54773236544E+03  0.46960910212E+03  0.12956895362E+03  0.73302903536E+03  0.00000000000E+00 0. -1.
         -2    1    3    3    0  502 -0.89968691835E+02  0.92043720653E+02 -0.84667522026E+01  0.12898875112E+03  0.00000000000E+00 0.  1.
         13    1    5    5    0    0  0.11396870107E+03 -0.22815631258E+03 -0.14150846352E+03  0.29166558426E+03  0.00000000000E+00 0. -1.
        -13    1    5    5    0    0  0.24947511706E+02 -0.12544335196E+03 -0.11933337035E+02  0.12845550757E+03  0.00000000000E+00 0.  1.
          4    1    6    6  503    0  0.50203176954E+03 -0.20945974828E+03 -0.18792524838E+04  0.19563995455E+04  0.00000000000E+00 0. -1.
         -4    1    6    6    0  503 -0.32469250510E+01  0.14065900469E+01 -0.67200290370E+01  0.75947223850E+01  0.00000000000E+00 0.  1.
<mgrwt>
<rscale>  0 0.26186751E+04</rscale>
<asrwt>0</asrwt>
<pdfrwt beam="1">  1        1 0.10214008E+00 0.26186751E+04</pdfrwt>
<pdfrwt beam="2">  1       -2 0.39726501E+00 0.26186751E+04</pdfrwt>
<totfact> 0.17594128E-01</totfact>
</mgrwt>
</event>
<event>
12    5  0.5095719E-008  0.1292952E+04  0.7818608E-02  0.9035173E-01
          1   -1    0    0  501    0  0.00000000000E+00  0.00000000000E+00  0.12605900788E+04  0.12605900788E+04  0.00000000000E+00 0. -1.
         -2   -1    0    0    0  501 -0.00000000000E+00 -0.00000000000E+00 -0.33153631194E+03  0.33153631194E+03  0.00000000000E+00 0.  1.
        -24    2    1    2    0    0 -0.22953570251E+02  0.88884269046E+02  0.63820903277E+03  0.64999714527E+03  0.82208513494E+02 0.  0.
        254    2    1    2    0    0  0.22953570251E+02 -0.88884269046E+02  0.29084473414E+03  0.94212924551E+03  0.89139754105E+03 0.  0.
         23    2    4    4    0    0 -0.25699046999E+03  0.49672188905E+02  0.48935896587E+03  0.56069846090E+03  0.79994615860E+02 0.  0.
         23    2    4    4    0    0  0.27994404024E+03 -0.13855645795E+03 -0.19851423172E+03  0.38143078461E+03  0.92276679300E+02 0.  0.
          1    1    3    3  502    0 -0.78170817374E+00  0.25336404938E+02  0.43888786494E+03  0.43961926991E+03  0.00000000000E+00 0. -1.
         -2    1    3    3    0  502 -0.22171862077E+02  0.63547864108E+02  0.19932116783E+03  0.21037787537E+03  0.00000000000E+00 0.  1.
         13    1    5    5    0    0 -0.17317802384E+03 -0.53127284212E+01  0.29959879650E+03  0.34609000547E+03  0.00000000000E+00 0.  1.
        -13    1    5    5    0    0 -0.83812446152E+02  0.54984917326E+02  0.18976016937E+03  0.21460845543E+03  0.00000000000E+00 0. -1.
          4    1    6    6  503    0  0.18464491353E+03 -0.79807014862E+02 -0.74875097675E+02  0.21463733125E+03  0.00000000000E+00 0.  1.
         -4    1    6    6    0  503  0.95299126714E+02 -0.58749443089E+02 -0.12363913405E+03  0.16679345336E+03  0.00000000000E+00 0. -1.
<mgrwt>
<rscale>  0 0.12929523E+04</rscale>
<asrwt>0</asrwt>
<pdfrwt beam="1">  1        1 0.19393693E+00 0.12929523E+04</pdfrwt>
<pdfrwt beam="2">  1       -2 0.51005587E-01 0.12929523E+04</pdfrwt>
<totfact> 0.30243521E+01</totfact>
</mgrwt>
</event>
<event>
12    5  0.5095719E-008  0.1997534E+04  0.7818608E-02  0.8607775E-01
         -2   -1    0    0    0  501 -0.00000000000E+00  0.00000000000E+00  0.23204952594E+04  0.23204952594E+04  0.00000000000E+00 0.  1.
          1   -1    0    0  501    0  0.00000000000E+00 -0.00000000000E+00 -0.42988039066E+03  0.42988039066E+03  0.00000000000E+00 0. -1.
        -24    2    1    2    0    0 -0.10802088479E+03  0.32908486897E+03  0.17234430501E+04  0.17596917235E+04  0.79332542124E+02 0.  0.
        254    2    1    2    0    0  0.10802088479E+03 -0.32908486897E+03  0.16717181861E+03  0.99068392654E+03  0.91298568600E+03 0.  0.
         23    2    4    4    0    0  0.90271156449E+02  0.18279656555E+03  0.36957565973E+03  0.43217669915E+03  0.92881994809E+02 0.  0.
         23    2    4    4    0    0  0.17749728344E+02 -0.51188143452E+03 -0.20240384113E+03  0.55850722739E+03  0.92872774710E+02 0.  0.
          1    1    3    3  502    0 -0.64403863387E+02  0.11243766940E+03  0.78167163071E+03  0.79233870622E+03  0.00000000000E+00 0. -1.
         -2    1    3    3    0  502 -0.43617021406E+02  0.21664719956E+03  0.94177141942E+03  0.96735301730E+03  0.00000000000E+00 0.  1.
         13    1    5    5    0    0  0.54954987846E+02  0.22755015023E+02  0.84246154372E+02  0.10312737718E+03  0.00000000000E+00 0. -1.
        -13    1    5    5    0    0  0.35316168603E+02  0.16004155053E+03  0.28532950536E+03  0.32904932197E+03  0.00000000000E+00 0.  1.
          3    1    6    6  503    0  0.93894516771E+01 -0.28641941246E+03 -0.16233979184E+03  0.32936066803E+03  0.00000000000E+00 0. -1.
         -3    1    6    6    0  503  0.83602766673E+01 -0.22546202206E+03 -0.40064049288E+02  0.22914655936E+03  0.00000000000E+00 0.  1.
<mgrwt>
<rscale>  0 0.19975339E+04</rscale>
<asrwt>0</asrwt>
<pdfrwt beam="1">  1        1 0.66135446E-01 0.19975339E+04</pdfrwt>
<pdfrwt beam="2">  1       -2 0.35699926E+00 0.19975339E+04</pdfrwt>
<totfact> 0.62301294E-01</totfact>
</mgrwt>
</event>
<event>
12    5  0.5095719E-008  0.1501785E+04  0.7818608E-02  0.8883267E-01
          1   -1    0    0  501    0  0.00000000000E+00  0.00000000000E+00  0.78784363075E+03  0.78784363075E+03  0.00000000000E+00 0. -1.
         -2   -1    0    0    0  501 -0.00000000000E+00 -0.00000000000E+00 -0.71567396241E+03  0.71567396241E+03  0.00000000000E+00 0.  1.
        -24    2    1    2    0    0  0.23640859716E+03 -0.12821286390E+02  0.44081244097E+03  0.50641645256E+03  0.78029514397E+02 0.  0.
        254    2    1    2    0    0 -0.23640859716E+03  0.12821286390E+02 -0.36864277263E+03  0.99710114059E+03  0.89568955591E+03 0.  0.
         23    2    4    4    0    0 -0.46332724321E+03 -0.15636108913E+03 -0.46964542186E+03  0.68408584152E+03  0.91025775501E+02 0.  0.
         23    2    4    4    0    0  0.22691864605E+03  0.16918237552E+03  0.10100264923E+03  0.31301529907E+03  0.87534531396E+02 0.  0.
          1    1    3    3  502    0  0.21857568707E+03 -0.32897016292E+02  0.37437419891E+03  0.43475692687E+03  0.00000000000E+00 0. -1.
         -4    1    3    3    0  502  0.17832910092E+02  0.20075729903E+02  0.66438242065E+02  0.71659525690E+02  0.00000000000E+00 0.  1.
         13    1    5    5    0    0 -0.26759399580E+03 -0.72576264914E+02 -0.32236667908E+03  0.42519893767E+03  0.00000000000E+00 0. -1.
        -13    1    5    5    0    0 -0.19573324741E+03 -0.83784824220E+02 -0.14727874278E+03  0.25888690385E+03  0.00000000000E+00 0.  1.
          1    1    6    6  503    0  0.75869290055E+02  0.11883253240E+02  0.39877866380E+02  0.86530948845E+02  0.00000000000E+00 0. -1.
         -1    1    6    6    0  503  0.15104935599E+03  0.15729912228E+03  0.61124782849E+02  0.22648435022E+03  0.00000000000E+00 0.  1.
<mgrwt>
<rscale>  0 0.15017845E+04</rscale>
<asrwt>0</asrwt>
<pdfrwt beam="1">  1        1 0.12120671E+00 0.15017845E+04</pdfrwt>
<pdfrwt beam="2">  1       -2 0.11010369E+00 0.15017845E+04</pdfrwt>
<totfact> 0.12583932E+01</totfact>
</mgrwt>
</event>
<event>
12    5  0.5095719E-008  0.1997287E+04  0.7818608E-02  0.8607890E-01
         -2   -1    0    0    0  501 -0.00000000000E+00  0.00000000000E+00  0.34950445012E+03  0.34950445012E+03  0.00000000000E+00 0.  1.
          1   -1    0    0  501    0  0.00000000000E+00 -0.00000000000E+00 -0.28534370452E+04  0.28534370452E+04  0.00000000000E+00 0. -1.
        -24    2    1    2    0    0 -0.96895101606E+02 -0.23267201570E+03 -0.22200267640E+04  0.22356839947E+04  0.78988377469E+02 0.  0.
        254    2    1    2    0    0  0.96895101606E+02  0.23267201570E+03 -0.28390583105E+03  0.96725750057E+03  0.88964016540E+03 0.  0.
         23    2    4    4    0    0 -0.27750206336E+03 -0.17535932064E+03  0.21056921177E+00  0.33845553087E+03  0.82424605146E+02 0.  0.
         23    2    4    4    0    0  0.37439716496E+03  0.40803133634E+03 -0.28411640026E+03  0.62880196970E+03  0.89481727962E+02 0.  0.
          3    1    3    3  502    0 -0.47972780370E+02 -0.12703820298E+03 -0.15189455750E+04  0.15250035254E+04  0.00000000000E+00 0. -1.
         -4    1    3    3    0  502 -0.48922321235E+02 -0.10563381272E+03 -0.70108118897E+03  0.71068046929E+03  0.00000000000E+00 0.  1.
         13    1    5    5    0    0 -0.20587867899E+03 -0.10249928352E+03  0.30245799689E+02  0.23196323412E+03  0.00000000000E+00 0.  1.
        -13    1    5    5    0    0 -0.71623384371E+02 -0.72860037114E+02 -0.30035230477E+02  0.10649229675E+03  0.00000000000E+00 0. -1.
          2    1    6    6  503    0  0.45650413372E+02  0.14718898121E+02 -0.17989808379E+02  0.51227330679E+02  0.00000000000E+00 0. -1.
         -2    1    6    6    0  503  0.32874675159E+03  0.39331243821E+03 -0.26612659188E+03  0.57757463902E+03  0.00000000000E+00 0.  1.
<mgrwt>
<rscale>  0 0.19972871E+04</rscale>
<asrwt>0</asrwt>
<pdfrwt beam="1">  1        1 0.43899032E+00 0.19972871E+04</pdfrwt>
<pdfrwt beam="2">  1       -2 0.53769915E-01 0.19972871E+04</pdfrwt>
<totfact> 0.20299485E+00</totfact>
</mgrwt>
</event>
<event>
12    5  0.5095719E-008  0.3377210E+04  0.7818608E-02  0.8143522E-01
          1   -1    0    0  501    0  0.00000000000E+00  0.00000000000E+00  0.19412751484E+04  0.19412751484E+04  0.00000000000E+00 0. -1.
         -2   -1    0    0    0  501 -0.00000000000E+00 -0.00000000000E+00 -0.14688217899E+04  0.14688217899E+04  0.00000000000E+00 0.  1.
        -24    2    1    2    0    0  0.10500465896E+04  0.10151473567E+04  0.79694647689E+03  0.16655796409E+04  0.76875593648E+02 0.  0.
        254    2    1    2    0    0 -0.10500465896E+04 -0.10151473567E+04 -0.32449311839E+03  0.17445172974E+04  0.89717491103E+03 0.  0.
         23    2    4    4    0    0 -0.60816401186E+03 -0.10932351104E+04 -0.27086041200E+03  0.12831415920E+04  0.89780345394E+02 0.  0.
         23    2    4    4    0    0 -0.44188257775E+03  0.78087753726E+02 -0.53632706388E+02  0.46137570540E+03  0.92914824138E+02 0.  0.
          1    1    3    3  502    0  0.93229289532E+03  0.90376869569E+03  0.73513546452E+03  0.14921099320E+04  0.00000000000E+00 0. -1.
         -2    1    3    3    0  502  0.11775369429E+03  0.11137866099E+03  0.61811012368E+02  0.17346970886E+03  0.00000000000E+00 0.  1.
         13    1    5    5    0    0 -0.54324472099E+03 -0.98519236797E+03 -0.27045977405E+03  0.11570943428E+04  0.00000000000E+00 0. -1.
        -13    1    5    5    0    0 -0.64919290874E+02 -0.10804274243E+03 -0.40063794922E+00  0.12604724920E+03  0.00000000000E+00 0.  1.
          1    1    6    6  503    0 -0.26321582695E+03  0.23637814375E+01 -0.16025626195E+02  0.26371382163E+03  0.00000000000E+00 0. -1.
         -1    1    6    6    0  503 -0.17866675079E+03  0.75723972288E+02 -0.37607080194E+02  0.19766188378E+03  0.00000000000E+00 0.  1.
<mgrwt>
<rscale>  0 0.33772102E+04</rscale>
<asrwt>0</asrwt>
<pdfrwt beam="1">  1        1 0.29865771E+00 0.33772102E+04</pdfrwt>
<pdfrwt beam="2">  1       -2 0.22597258E+00 0.33772102E+04</pdfrwt>
<totfact> 0.21450191E-01</totfact>
</mgrwt>
</event>
<event>
12    5  0.5095719E-008  0.1230623E+04  0.7818608E-02  0.9086466E-01
         -2   -1    0    0    0  501 -0.00000000000E+00  0.00000000000E+00  0.20531958617E+03  0.20531958617E+03  0.00000000000E+00 0.  1.
          1   -1    0    0  501    0  0.00000000000E+00 -0.00000000000E+00 -0.18439959517E+04  0.18439959517E+04  0.00000000000E+00 0. -1.
        -24    2    1    2    0    0 -0.38347717465E+02  0.32268136412E+02 -0.98111593620E+03  0.98550988335E+03  0.78290930793E+02 0.  0.
        254    2    1    2    0    0  0.38347717465E+02 -0.32268136412E+02 -0.65756042930E+03  0.10638056545E+04  0.83473646877E+03 0.  0.
         23    2    4    4    0    0 -0.26212627686E+03 -0.30983425192E+03 -0.29367550392E+03  0.50908347634E+03  0.90626903263E+02 0.  0.
         23    2    4    4    0    0  0.30047399433E+03  0.27756611551E+03 -0.36388492538E+03  0.55472217815E+03  0.89313415949E+02 0.  0.
          1    1    3    3  502    0 -0.21125816007E+02  0.32715736071E+02 -0.17805158678E+03  0.18226076661E+03  0.00000000000E+00 0. -1.
         -2    1    3    3    0  502 -0.17221901458E+02 -0.44759965913E+00 -0.80306434942E+03  0.80324911674E+03  0.00000000000E+00 0.  1.
         13    1    5    5    0    0 -0.16464168150E+03 -0.23819885790E+03 -0.24264603669E+03  0.37778655126E+03  0.00000000000E+00 0. -1.
        -13    1    5    5    0    0 -0.97484595366E+02 -0.71635394021E+02 -0.51029467232E+02  0.13129692508E+03  0.00000000000E+00 0.  1.
          3    1    6    6  503    0  0.24062220329E+03  0.25149920803E+03 -0.27068078430E+03  0.44092968073E+03  0.00000000000E+00 0. -1.
         -3    1    6    6    0  503  0.59851791039E+02  0.26066907480E+02 -0.93204141081E+02  0.11379249743E+03  0.00000000000E+00 0.  1.
<mgrwt>
<rscale>  0 0.12306234E+04</rscale>
<asrwt>0</asrwt>
<pdfrwt beam="1">  1        1 0.28369168E+00 0.12306234E+04</pdfrwt>
<pdfrwt beam="2">  1       -2 0.31587630E-01 0.12306234E+04</pdfrwt>
<totfact> 0.30714254E+01</totfact>
</mgrwt>
</event>
<event>
12    5  0.5095719E-008  0.1781322E+04  0.7818608E-02  0.8716296E-01
         -2   -1    0    0    0  501 -0.00000000000E+00  0.00000000000E+00  0.18608492490E+04  0.18608492490E+04  0.00000000000E+00 0.  1.
          1   -1    0    0  501    0  0.00000000000E+00 -0.00000000000E+00 -0.42629846680E+03  0.42629846680E+03  0.00000000000E+00 0. -1.
        -24    2    1    2    0    0  0.42926681291E+03 -0.22259221598E+03  0.11241779971E+04  0.12263450575E+04  0.79553375283E+02 0.  0.
        254    2    1    2    0    0 -0.42926681291E+03  0.22259221598E+03  0.31037278513E+03  0.10608026584E+04  0.89171392440E+03 0.  0.
         23    2    4    4    0    0 -0.43780382240E+03 -0.19870320611E+03  0.38534170743E+03  0.62315755611E+03  0.93177020946E+02 0.  0.
         23    2    4    4    0    0  0.85370094923E+01  0.42129542208E+03 -0.74968922305E+02  0.43764510225E+03  0.91379335812E+02 0.  0.
          3    1    3    3  502    0  0.14995314503E+03 -0.11731665879E+03  0.47951775856E+03  0.51593257787E+03  0.00000000000E+00 0. -1.
         -4    1    3    3    0  502  0.27931366788E+03 -0.10527555719E+03  0.64466023854E+03  0.71041247959E+03  0.00000000000E+00 0.  1.
         13    1    5    5    0    0 -0.14638671686E+03 -0.22404253429E+02  0.13580310953E+03  0.20093159533E+03  0.00000000000E+00 0. -1.
        -13    1    5    5    0    0 -0.29141710554E+03 -0.17629895268E+03  0.24953859790E+03  0.42222596078E+03  0.00000000000E+00 0.  1.
          2    1    6    6  503    0 -0.36769503275E+01  0.36217378840E+03 -0.32119441409E+02  0.36361384941E+03  0.00000000000E+00 0.  1.
         -2    1    6    6    0  503  0.12213959820E+02  0.59121633683E+02 -0.42849480896E+02  0.74031252839E+02  0.00000000000E+00 0. -1.
<mgrwt>
<rscale>  0 0.17813222E+04</rscale>
<asrwt>0</asrwt>
<pdfrwt beam="1">  1        1 0.65584381E-01 0.17813222E+04</pdfrwt>
<pdfrwt beam="2">  1       -2 0.28628449E+00 0.17813222E+04</pdfrwt>
<totfact> 0.17579061E+00</totfact>
</mgrwt>
</event>
<event>
12    5  0.5095719E-008  0.1457452E+04  0.7818608E-02  0.8913250E-01
          1   -1    0    0  501    0  0.00000000000E+00  0.00000000000E+00  0.22572771874E+04  0.22572771874E+04  0.00000000000E+00 0. -1.
         -2   -1    0    0    0  501 -0.00000000000E+00 -0.00000000000E+00 -0.23525772599E+03  0.23525772599E+03  0.00000000000E+00 0.  1.
        -24    2    1    2    0    0 -0.24024780009E+03 -0.14187543590E+03  0.36193723510E+02  0.29321973927E+03  0.82584412058E+02 0.  0.
        254    2    1    2    0    0  0.24024780009E+03  0.14187543590E+03  0.19858257379E+04  0.21993151742E+04  0.90312553342E+03 0.  0.
         23    2    4    4    0    0  0.18958908120E+03 -0.15384120016E+03  0.86014419472E+02  0.27384336249E+03  0.89334048662E+02 0.  0.
         23    2    4    4    0    0  0.50658718894E+02  0.29571663605E+03  0.18998113185E+04  0.19254718117E+04  0.90244208390E+02 0.  0.
          1    1    3    3  502    0 -0.22076690919E+02 -0.43391928679E+02  0.22014069700E+02  0.53430880783E+02  0.00000000000E+00 0. -1.
         -2    1    3    3    0  502 -0.21817110917E+03 -0.98483507218E+02  0.14179653810E+02  0.23978885848E+03  0.00000000000E+00 0.  1.
         13    1    5    5    0    0  0.19099565181E+03 -0.15537943219E+03  0.95532640964E+02  0.26409958812E+03  0.00000000000E+00 0.  1.
        -13    1    5    5    0    0 -0.14065706090E+01  0.15382320322E+01 -0.95182214923E+01  0.97437743734E+01  0.00000000000E+00 0. -1.
          4    1    6    6  503    0  0.54266276877E+02  0.75127200420E+02  0.55595464256E+03  0.56362619672E+03  0.00000000000E+00 0. -1.
         -4    1    6    6    0  503 -0.36075579829E+01  0.22058943563E+03  0.13438566759E+04  0.13618456150E+04  0.00000000000E+00 0.  1.
<mgrwt>
<rscale>  0 0.14574524E+04</rscale>
<asrwt>0</asrwt>
<pdfrwt beam="1">  1        1 0.34727340E+00 0.14574524E+04</pdfrwt>
<pdfrwt beam="2">  1       -2 0.36193498E-01 0.14574524E+04</pdfrwt>
<totfact> 0.12207660E+01</totfact>
</mgrwt>
</event>
<event>
12    5  0.5095719E-008  0.1951442E+04  0.7818608E-02  0.8629666E-01
         -2   -1    0    0    0  501 -0.00000000000E+00  0.00000000000E+00  0.85148795817E+03  0.85148795817E+03  0.00000000000E+00 0.  1.
          1   -1    0    0  501    0  0.00000000000E+00 -0.00000000000E+00 -0.11180794028E+04  0.11180794028E+04  0.00000000000E+00 0. -1.
        -24    2    1    2    0    0  0.50975439351E+02 -0.47386275844E+03 -0.70746831253E+03  0.85677410048E+03  0.80037720773E+02 0.  0.
        254    2    1    2    0    0 -0.50975439351E+02  0.47386275844E+03  0.44087686790E+03  0.11127932605E+04  0.90376546665E+03 0.  0.
         23    2    4    4    0    0  0.39628160072E+03  0.72462077442E+02  0.16816565468E+03  0.44607266629E+03  0.91713011408E+02 0.  0.
         23    2    4    4    0    0 -0.44725704007E+03  0.40140068100E+03  0.27271121322E+03  0.66672059422E+03  0.94781740509E+02 0.  0.
          1    1    3    3  502    0 -0.43407760836E+01 -0.15119755479E+03 -0.28120199017E+03  0.31930252455E+03  0.00000000000E+00 0. -1.
         -2    1    3    3    0  502  0.55316215435E+02 -0.32266520366E+03 -0.42626632237E+03  0.53747157592E+03  0.00000000000E+00 0.  1.
         13    1    5    5    0    0  0.94568966722E+01  0.20558392277E+02  0.58395096005E+01  0.23370499782E+02  0.00000000000E+00 0. -1.
        -13    1    5    5    0    0  0.38682470404E+03  0.51903685165E+02  0.16232614508E+03  0.42270216651E+03  0.00000000000E+00 0.  1.
          3    1    6    6  503    0 -0.15852160590E+03  0.90788040419E+02  0.60003640438E+02  0.19228105649E+03  0.00000000000E+00 0. -1.
         -3    1    6    6    0  503 -0.28873543417E+03  0.31061264058E+03  0.21270757278E+03  0.47443953772E+03  0.00000000000E+00 0.  1.
<mgrwt>
<rscale>  0 0.19514417E+04</rscale>
<asrwt>0</asrwt>
<pdfrwt beam="1">  1        1 0.17201222E+00 0.19514417E+04</pdfrwt>
<pdfrwt beam="2">  1       -2 0.13099815E+00 0.19514417E+04</pdfrwt>
<totfact> 0.42758382E+00</totfact>
</mgrwt>
</event>
<event>
12    5  0.5095719E-008  0.1449333E+04  0.7818608E-02  0.8918863E-01
          1   -1    0    0  501    0  0.00000000000E+00  0.00000000000E+00  0.87290578859E+03  0.87290578859E+03  0.00000000000E+00 0. -1.
         -2   -1    0    0    0  501 -0.00000000000E+00 -0.00000000000E+00 -0.60160184303E+03  0.60160184303E+03  0.00000000000E+00 0.  1.
        -24    2    1    2    0    0 -0.30836983382E+03  0.17893949011E+03  0.34592696609E+03  0.50617913913E+03  0.97162541610E+02 0.  0.
        254    2    1    2    0    0  0.30836983382E+03 -0.17893949011E+03 -0.74623020536E+02  0.96832849249E+03  0.89720687617E+03 0.  0.
         23    2    4    4    0    0  0.55885197403E+03  0.10358744720E+03 -0.38593788818E+02  0.57805934362E+03  0.98067507956E+02 0.  0.
         23    2    4    4    0    0 -0.25048214022E+03 -0.28252693732E+03 -0.36029231718E+02  0.39026914887E+03  0.91919150029E+02 0.  0.
          3    1    3    3  502    0 -0.17047826557E+03  0.71963460485E+02  0.23610357055E+03  0.29997745700E+03  0.00000000000E+00 0. -1.
         -2    1    3    3    0  502 -0.13789156824E+03  0.10697602963E+03  0.10982339554E+03  0.20620168213E+03  0.00000000000E+00 0.  1.
         13    1    5    5    0    0  0.38569571005E+03  0.82839769821E+02 -0.70579212776E+02  0.40075557824E+03  0.00000000000E+00 0. -1.
        -13    1    5    5    0    0  0.17315626398E+03  0.20747677382E+02  0.31985423957E+02  0.17730376538E+03  0.00000000000E+00 0.  1.
          2    1    6    6  503    0 -0.20755756165E+03 -0.27460963193E+03 -0.24348913071E+02  0.34508471556E+03  0.00000000000E+00 0. -1.
         -2    1    6    6    0  503 -0.42924578562E+02 -0.79173053899E+01 -0.11680318647E+02  0.45184433305E+02  0.00000000000E+00 0.  1.
<mgrwt>
<rscale>  0 0.14493333E+04</rscale>
<asrwt>0</asrwt>
<pdfrwt beam="1">  1        1 0.13429320E+00 0.14493333E+04</pdfrwt>
<pdfrwt beam="2">  1       -2 0.92554129E-01 0.14493333E+04</pdfrwt>
<totfact> 0.16153669E+01</totfact>
</mgrwt>
</event>
<event>
12    5  0.5095719E-008  0.1694580E+04  0.7818608E-02  0.8764462E-01
          1   -1    0    0  501    0  0.00000000000E+00  0.00000000000E+00  0.99204668226E+03  0.99204668226E+03  0.00000000000E+00 0. -1.
         -2   -1    0    0    0  501 -0.00000000000E+00 -0.00000000000E+00 -0.72365576802E+03  0.72365576802E+03  0.00000000000E+00 0.  1.
        -24    2    1    2    0    0  0.22679124533E+03 -0.19123772561E+03 -0.43574484709E+03  0.53313355408E+03  0.79697415641E+02 0.  0.
        254    2    1    2    0    0 -0.22679124533E+03  0.19123772561E+03  0.70413576133E+03  0.11825688962E+04  0.90258289771E+03 0.  0.
         23    2    4    4    0    0 -0.16781390615E+03  0.47635937725E+03  0.12304672993E+03  0.52625225857E+03  0.81982794016E+02 0.  0.
         23    2    4    4    0    0 -0.58977339181E+02 -0.28512165164E+03  0.58108903140E+03  0.65631663763E+03  0.91183242173E+02 0.  0.
          3    1    3    3  502    0  0.10457446431E+02 -0.90428316416E+01 -0.66991603341E+02  0.68403259485E+02  0.00000000000E+00 0. -1.
         -4    1    3    3    0  502  0.21633379890E+03 -0.18219489397E+03 -0.36875324375E+03  0.46473029459E+03  0.00000000000E+00 0.  1.
         13    1    5    5    0    0 -0.51485920361E+02  0.25460128311E+03  0.82723115867E+02  0.27260911073E+03  0.00000000000E+00 0. -1.
        -13    1    5    5    0    0 -0.11632798579E+03  0.22175809414E+03  0.40323614063E+02  0.25364314784E+03  0.00000000000E+00 0.  1.
          1    1    6    6  503    0  0.40838074130E+00 -0.10463452713E+03  0.13024584861E+03  0.16707044060E+03  0.00000000000E+00 0. -1.
         -1    1    6    6    0  503 -0.59385719922E+02 -0.18048712451E+03  0.45084318279E+03  0.48924619704E+03  0.00000000000E+00 0.  1.
<mgrwt>
<rscale>  0 0.16945800E+04</rscale>
<asrwt>0</asrwt>
<pdfrwt beam="1">  1        1 0.15262257E+00 0.16945800E+04</pdfrwt>
<pdfrwt beam="2">  1       -2 0.11133166E+00 0.16945800E+04</pdfrwt>
<totfact> 0.81744990E+00</totfact>
</mgrwt>
</event>
<event>
12    5  0.5095719E-008  0.2578850E+04  0.7818608E-02  0.8375421E-01
         -2   -1    0    0    0  501 -0.00000000000E+00  0.00000000000E+00  0.12876583157E+04  0.12876583157E+04  0.00000000000E+00 0.  1.
          1   -1    0    0  501    0  0.00000000000E+00 -0.00000000000E+00 -0.12911943934E+04  0.12911943934E+04  0.00000000000E+00 0. -1.
        -24    2    1    2    0    0  0.33704270396E+03 -0.83564099404E+03  0.67949047138E+03  0.11311379026E+04  0.76628968849E+02 0.  0.
        254    2    1    2    0    0 -0.33704270396E+03  0.83564099404E+03 -0.68302654902E+03  0.14477148065E+04  0.90413452480E+03 0.  0.
         23    2    4    4    0    0 -0.50038838698E+03  0.93061008555E+03 -0.62109109683E+03  0.12290536753E+04  0.91624871804E+02 0.  0.
         23    2    4    4    0    0  0.16334568302E+03 -0.94969091512E+02 -0.61935452187E+02  0.21866113112E+03  0.90971146634E+02 0.  0.
          3    1    3    3  502    0  0.90745437472E+01 -0.39246748928E+01  0.11114532125E+02  0.14875592143E+02  0.00000000000E+00 0. -1.
         -4    1    3    3    0  502  0.32796816022E+03 -0.83171631915E+03  0.66837593925E+03  0.11162623105E+04  0.00000000000E+00 0.  1.
         13    1    5    5    0    0 -0.42310749027E+03  0.74475610535E+03 -0.53663978768E+03  0.10107738948E+04  0.00000000000E+00 0.  1.
        -13    1    5    5    0    0 -0.77280896715E+02  0.18585398021E+03 -0.84451309158E+02  0.21827978050E+03  0.00000000000E+00 0. -1.
          2    1    6    6  503    0  0.14592578237E+03 -0.10818468690E+03 -0.70939023350E+02  0.19501437248E+03  0.00000000000E+00 0. -1.
         -2    1    6    6    0  503  0.17419900653E+02  0.13215595393E+02  0.90035711627E+01  0.23646758637E+02  0.00000000000E+00 0.  1.
<mgrwt>
<rscale>  0 0.25788503E+04</rscale>
<asrwt>0</asrwt>
<pdfrwt beam="1">  1        1 0.19864529E+00 0.25788503E+04</pdfrwt>
<pdfrwt beam="2">  1       -2 0.19810128E+00 0.25788503E+04</pdfrwt>
<totfact> 0.97295177E-01</totfact>
</mgrwt>
</event>
<event>
12    5  0.5095719E-008  0.3151385E+04  0.7818608E-02  0.8201776E-01
          1   -1    0    0  501    0  0.00000000000E+00  0.00000000000E+00  0.12927503903E+04  0.12927503903E+04  0.00000000000E+00 0. -1.
         -2   -1    0    0    0  501 -0.00000000000E+00 -0.00000000000E+00 -0.19205613941E+04  0.19205613941E+04  0.00000000000E+00 0.  1.
        -24    2    1    2    0    0 -0.14202314759E+04  0.26600371102E+03 -0.37247207013E+03  0.14943345080E+04  0.80528003570E+02 0.  0.
        254    2    1    2    0    0  0.14202314759E+04 -0.26600371102E+03 -0.25533893369E+03  0.17189772764E+04  0.89547165579E+03 0.  0.
         23    2    4    4    0    0  0.39955631265E+03 -0.23028146266E+02  0.31846475144E+03  0.51961782854E+03  0.91691588074E+02 0.  0.
         23    2    4    4    0    0  0.10206751632E+04 -0.24297556476E+03 -0.57380368513E+03  0.11993594479E+04  0.91637886166E+02 0.  0.
          1    1    3    3  502    0 -0.86119486206E+03  0.14186372654E+03 -0.18924797473E+03  0.89308269678E+03  0.00000000000E+00 0. -1.
         -2    1    3    3    0  502 -0.55903661383E+03  0.12413998449E+03 -0.18322409541E+03  0.60125181122E+03  0.00000000000E+00 0.  1.
         13    1    5    5    0    0  0.34467207827E+03 -0.34863612988E+02  0.30573302763E+03  0.46204653145E+03  0.00000000000E+00 0. -1.
        -13    1    5    5    0    0  0.54884234385E+02  0.11835466722E+02  0.12731723814E+02  0.57571297083E+02  0.00000000000E+00 0.  1.
          1    1    6    6  503    0  0.49278025208E+03 -0.87647362056E+02 -0.31383445235E+03  0.59076772119E+03  0.00000000000E+00 0. -1.
         -1    1    6    6    0  503  0.52789491116E+03 -0.15532820270E+03 -0.25996923278E+03  0.60859172668E+03  0.00000000000E+00 0.  1.
<mgrwt>
<rscale>  0 0.31513848E+04</rscale>
<asrwt>0</asrwt>
<pdfrwt beam="1">  1        1 0.19888467E+00 0.31513848E+04</pdfrwt>
<pdfrwt beam="2">  1       -2 0.29547099E+00 0.31513848E+04</pdfrwt>
<totfact> 0.22873346E-01</totfact>
</mgrwt>
</event>
<event>
12    5  0.5095719E-008  0.1848074E+04  0.7818608E-02  0.8681144E-01
         -2   -1    0    0    0  501 -0.00000000000E+00  0.00000000000E+00  0.91981100949E+03  0.91981100949E+03  0.00000000000E+00 0.  1.
          1   -1    0    0  501    0  0.00000000000E+00 -0.00000000000E+00 -0.92828254062E+03  0.92828254062E+03  0.00000000000E+00 0. -1.
        -24    2    1    2    0    0 -0.35968101069E+03  0.57652504229E+03  0.17406061159E+03  0.70641242664E+03  0.83485724326E+02 0.  0.
        254    2    1    2    0    0  0.35968101069E+03 -0.57652504229E+03 -0.18253214272E+03  0.11416811235E+04  0.89909190336E+03 0.  0.
         23    2    4    4    0    0  0.18584757607E+03 -0.48189970279E+03  0.30698484908E+03  0.60756743983E+03  0.90176778030E+02 0.  0.
         23    2    4    4    0    0  0.17383343462E+03 -0.94625339506E+02 -0.48951699180E+03  0.53411368363E+03  0.80489278263E+02 0.  0.
          3    1    3    3  502    0 -0.26670795923E+03  0.39141955786E+03  0.86299873613E+02  0.48144581624E+03  0.00000000000E+00 0. -1.
         -4    1    3    3    0  502 -0.92973051466E+02  0.18510548443E+03  0.87760737976E+02  0.22496661040E+03  0.00000000000E+00 0.  1.
         13    1    5    5    0    0  0.14290296444E+03 -0.37599453984E+03  0.19293576929E+03  0.44611362040E+03  0.00000000000E+00 0. -1.
        -13    1    5    5    0    0  0.42944611634E+02 -0.10590516294E+03  0.11404907978E+03  0.16145381942E+03  0.00000000000E+00 0.  1.
          1    1    6    6  503    0 -0.43324107920E+01  0.34135075713E+01 -0.44418908759E+02  0.44760041025E+02  0.00000000000E+00 0. -1.
         -1    1    6    6    0  503  0.17816584541E+03 -0.98038847077E+02 -0.44509808304E+03  0.48935364261E+03  0.00000000000E+00 0.  1.
<mgrwt>
<rscale>  0 0.18480741E+04</rscale>
<asrwt>0</asrwt>
<pdfrwt beam="1">  1        1 0.14281270E+00 0.18480741E+04</pdfrwt>
<pdfrwt beam="2">  1       -2 0.14150939E+00 0.18480741E+04</pdfrwt>
<totfact> 0.49630348E+00</totfact>
</mgrwt>
</event>
<event>
12    5  0.5095719E-008  0.2649547E+04  0.7818608E-02  0.8351563E-01
          1   -1    0    0  501    0  0.00000000000E+00  0.00000000000E+00  0.31876530109E+04  0.31876530109E+04  0.00000000000E+00 0. -1.
         -2   -1    0    0    0  501 -0.00000000000E+00 -0.00000000000E+00 -0.55056941193E+03  0.55056941193E+03  0.00000000000E+00 0.  1.
        -24    2    1    2    0    0 -0.80714219977E+03  0.86843985983E+02  0.23453283766E+04  0.24831692383E+04  0.80894152260E+02 0.  0.
        254    2    1    2    0    0  0.80714219977E+03 -0.86843985983E+02  0.29175522242E+03  0.12550531845E+04  0.91160132598E+03 0.  0.
         23    2    4    4    0    0  0.55465142478E+03  0.37700776303E+03  0.91182395775E+02  0.68308914318E+03  0.92322759042E+02 0.  0.
         23    2    4    4    0    0  0.25249077499E+03 -0.46385174901E+03  0.20057282665E+03  0.57196404131E+03  0.89461551749E+02 0.  0.
          3    1    3    3  502    0 -0.77556180461E+03  0.71038214985E+02  0.22720970170E+04  0.24018674808E+04  0.00000000000E+00 0. -1.
         -4    1    3    3    0  502 -0.31580395159E+02  0.15805770998E+02  0.73231359524E+02  0.81301757502E+02  0.00000000000E+00 0.  1.
         13    1    5    5    0    0  0.33583149948E+03  0.28128373646E+03  0.63593300221E+02  0.44265951280E+03  0.00000000000E+00 0.  1.
        -13    1    5    5    0    0  0.21881992530E+03  0.95724026566E+02  0.27589095554E+02  0.24042963037E+03  0.00000000000E+00 0. -1.
          3    1    6    6  503    0  0.69639828981E+02 -0.21257180716E+03  0.10280000181E+03  0.24617944543E+03  0.00000000000E+00 0. -1.
         -3    1    6    6    0  503  0.18285094601E+03 -0.25127994185E+03  0.97772824835E+02  0.32578459588E+03  0.00000000000E+00 0.  1.
<mgrwt>
<rscale>  0 0.26495466E+04</rscale>
<asrwt>0</asrwt>
<pdfrwt beam="1">  1        1 0.49040815E+00 0.26495466E+04</pdfrwt>
<pdfrwt beam="2">  1       -2 0.84702988E-01 0.26495466E+04</pdfrwt>
<totfact> 0.40674519E-01</totfact>
</mgrwt>
</event>
<event>
12    5  0.5095719E-008  0.1616434E+04  0.7818608E-02  0.8810515E-01
          3   -1    0    0  501    0  0.00000000000E+00  0.00000000000E+00  0.97891994141E+03  0.97891994141E+03  0.00000000000E+00 0. -1.
         -4   -1    0    0    0  501 -0.00000000000E+00 -0.00000000000E+00 -0.66728072375E+03  0.66728072375E+03  0.00000000000E+00 0.  1.
        -24    2    1    2    0    0  0.31955323612E+03 -0.42971706391E+03  0.25627244071E+03  0.59835367198E+03  0.74702926120E+02 0.  0.
        254    2    1    2    0    0 -0.31955323612E+03  0.42971706391E+03  0.55366776949E+02  0.10478469932E+04  0.89896986344E+03 0.  0.
         23    2    4    4    0    0 -0.43934979657E+03  0.64324995562E+03  0.63199746840E+02  0.78670804593E+03  0.90092132763E+02 0.  0.
         23    2    4    4    0    0  0.11979656045E+03 -0.21353289171E+03 -0.78329698910E+01  0.26113894724E+03  0.90469235713E+02 0.  0.
          1    1    3    3  502    0  0.29872864097E+03 -0.40266811203E+03  0.25859506329E+03  0.56413811796E+03  0.00000000000E+00 0. -1.
         -2    1    3    3    0  502  0.20824595157E+02 -0.27048951882E+02 -0.23226225739E+01  0.34215554022E+02  0.00000000000E+00 0.  1.
         13    1    5    5    0    0 -0.32077174471E+03  0.52855326993E+03  0.34317800031E+02  0.61922595453E+03  0.00000000000E+00 0. -1.
        -13    1    5    5    0    0 -0.11857805186E+03  0.11469668569E+03  0.28881946809E+02  0.16748209141E+03  0.00000000000E+00 0.  1.
          1    1    6    6  503    0  0.43701134548E+02 -0.16455327771E+03 -0.10745750391E+02  0.17059613570E+03  0.00000000000E+00 0. -1.
         -1    1    6    6    0  503  0.76095425898E+02 -0.48979614002E+02  0.29127805003E+01  0.90542811535E+02  0.00000000000E+00 0.  1.
<mgrwt>
<rscale>  0 0.16164336E+04</rscale>
<asrwt>0</asrwt>
<pdfrwt beam="1">  1        3 0.15060307E+00 0.16164336E+04</pdfrwt>
<pdfrwt beam="2">  1       -4 0.10265857E+00 0.16164336E+04</pdfrwt>
<totfact> 0.54455684E-01</totfact>
</mgrwt>
</event>
<event>
12    5  0.5095719E-008  0.1272849E+04  0.7818608E-02  0.9051378E-01
         -2   -1    0    0    0  501 -0.00000000000E+00  0.00000000000E+00  0.53361841354E+03  0.53361841354E+03  0.00000000000E+00 0.  1.
          1   -1    0    0  501    0  0.00000000000E+00 -0.00000000000E+00 -0.75903650030E+03  0.75903650030E+03  0.00000000000E+00 0. -1.
        -24    2    1    2    0    0 -0.47940066141E+02  0.14711142044E+03  0.22142291722E+03  0.27985916402E+03  0.73164359163E+02 0.  0.
        254    2    1    2    0    0  0.47940066141E+02 -0.14711142044E+03 -0.44684100399E+03  0.10127957498E+04  0.89562733770E+03 0.  0.
         23    2    4    4    0    0  0.37160862418E+03 -0.98216098534E+02  0.63245232759E+02  0.39982190730E+03  0.90101201536E+02 0.  0.
         23    2    4    4    0    0 -0.32366855804E+03 -0.48895321902E+02 -0.51008623675E+03  0.61297384251E+03  0.91634462496E+02 0.  0.
          3    1    3    3  502    0 -0.16096456529E+02  0.19249141682E+02  0.91244142667E+02  0.94631490210E+02  0.00000000000E+00 0. -1.
         -4    1    3    3    0  502 -0.31843609611E+02  0.12786227875E+03  0.13017877456E+03  0.18522767381E+03  0.00000000000E+00 0.  1.
         13    1    5    5    0    0  0.29581243408E+03 -0.11402269501E+03  0.57334083088E+02  0.32216978166E+03  0.00000000000E+00 0.  1.
        -13    1    5    5    0    0  0.75796190101E+02  0.15806596480E+02  0.59111496715E+01  0.77652125641E+02  0.00000000000E+00 0. -1.
          4    1    6    6  503    0 -0.65141928889E+01 -0.14648740519E+02 -0.75020677516E+01  0.17700320006E+02  0.00000000000E+00 0. -1.
         -4    1    6    6    0  503 -0.31715436515E+03 -0.34246581383E+02 -0.50258416900E+03  0.59527352251E+03  0.00000000000E+00 0.  1.
<mgrwt>
<rscale>  0 0.12728485E+04</rscale>
<asrwt>0</asrwt>
<pdfrwt beam="1">  1        1 0.11677485E+00 0.12728485E+04</pdfrwt>
<pdfrwt beam="2">  1       -2 0.82095140E-01 0.12728485E+04</pdfrwt>
<totfact> 0.27034531E+01</totfact>
</mgrwt>
</event>
<event>
12    5  0.5095719E-008  0.1376243E+04  0.7818608E-02  0.8971197E-01
         -2   -1    0    0    0  501 -0.00000000000E+00  0.00000000000E+00  0.34499424425E+03  0.34499424425E+03  0.00000000000E+00 0.  1.
          1   -1    0    0  501    0  0.00000000000E+00 -0.00000000000E+00 -0.13725198753E+04  0.13725198753E+04  0.00000000000E+00 0. -1.
        -24    2    1    2    0    0  0.25815446752E+03 -0.11271610326E+02 -0.67640333482E+03  0.72839989168E+03  0.79209548274E+02 0.  0.
        254    2    1    2    0    0 -0.25815446752E+03  0.11271610326E+02 -0.35112229622E+03  0.98911422785E+03  0.88785658219E+03 0.  0.
         23    2    4    4    0    0  0.14505786294E+03  0.22152472085E+02  0.22039205919E+03  0.28351737070E+03  0.10137516518E+03 0.  0.
         23    2    4    4    0    0 -0.40321233046E+03 -0.10880861759E+02 -0.57151435541E+03  0.70559685715E+03  0.92410442080E+02 0.  0.
          3    1    3    3  502    0  0.19814542024E+03 -0.87638102437E+01 -0.41192813280E+03  0.45719054947E+03  0.00000000000E+00 0. -1.
         -4    1    3    3    0  502  0.60009047284E+02 -0.25078000820E+01 -0.26447520202E+03  0.27120934221E+03  0.00000000000E+00 0.  1.
         13    1    5    5    0    0  0.14286849661E+03 -0.10930490030E+02  0.19378980879E+03  0.24100907229E+03  0.00000000000E+00 0.  1.
        -13    1    5    5    0    0  0.21893663246E+01  0.33082962114E+02  0.26602250400E+02  0.42508298407E+02  0.00000000000E+00 0. -1.
          1    1    6    6  503    0 -0.20036446933E+03  0.37425447214E+02 -0.25292905266E+03  0.32483794475E+03  0.00000000000E+00 0. -1.
         -1    1    6    6    0  503 -0.20284786113E+03 -0.48306308973E+02 -0.31858530275E+03  0.38075891241E+03  0.00000000000E+00 0.  1.
<mgrwt>
<rscale>  0 0.13762434E+04</rscale>
<asrwt>0</asrwt>
<pdfrwt beam="1">  1        1 0.21115691E+00 0.13762434E+04</pdfrwt>
<pdfrwt beam="2">  1       -2 0.53076037E-01 0.13762434E+04</pdfrwt>
<totfact> 0.23042839E+01</totfact>
</mgrwt>
</event>
<event>
12    5  0.5095719E-008  0.1353051E+04  0.7818608E-02  0.8988522E-01
          1   -1    0    0  501    0  0.00000000000E+00  0.00000000000E+00  0.31936721430E+03  0.31936721430E+03  0.00000000000E+00 0. -1.
         -2   -1    0    0    0  501 -0.00000000000E+00 -0.00000000000E+00 -0.14331039684E+04  0.14331039684E+04  0.00000000000E+00 0.  1.
        -24    2    1    2    0    0 -0.27336938377E+03 -0.13260171515E+03 -0.35658164205E+03  0.47536770445E+03  0.80684274479E+02 0.  0.
        254    2    1    2    0    0  0.27336938377E+03  0.13260171515E+03 -0.75715511201E+03  0.12771034782E+04  0.98254536565E+03 0.  0.
         23    2    4    4    0    0  0.28388859949E+03  0.34815602608E+03  0.27155107135E+02  0.45868309146E+03  0.88585682413E+02 0.  0.
         23    2    4    4    0    0 -0.10519215728E+02 -0.21555431093E+03 -0.78431021914E+03  0.81842038674E+03  0.89972744371E+02 0.  0.
          1    1    3    3  502    0 -0.27851548645E+03 -0.12787286936E+03 -0.34216618351E+03  0.45934741106E+03  0.00000000000E+00 0. -1.
         -2    1    3    3    0  502  0.51461026872E+01 -0.47288457889E+01 -0.14415458539E+02  0.16020293388E+02  0.00000000000E+00 0.  1.
         13    1    5    5    0    0  0.24610036151E+03  0.32201491783E+03 -0.41285918653E-01  0.40528878216E+03  0.00000000000E+00 0.  1.
        -13    1    5    5    0    0  0.37788237981E+02  0.26141108251E+02  0.27196393053E+02  0.53394309298E+02  0.00000000000E+00 0. -1.
          4    1    6    6  503    0  0.15734667437E+02 -0.34772144458E+02 -0.57571434668E+02  0.69073525169E+02  0.00000000000E+00 0. -1.
         -4    1    6    6    0  503 -0.26253883164E+02 -0.18078216647E+03 -0.72673878447E+03  0.74934686158E+03  0.00000000000E+00 0.  1.
<mgrwt>
<rscale>  0 0.13530505E+04</rscale>
<asrwt>0</asrwt>
<pdfrwt beam="1">  1        1 0.49133418E-01 0.13530505E+04</pdfrwt>
<pdfrwt beam="2">  1       -2 0.22047753E+00 0.13530505E+04</pdfrwt>
<totfact> 0.67735546E+00</totfact>
</mgrwt>
</event>
<event>
12    5  0.5095719E-008  0.2193607E+04  0.7818608E-02  0.8521094E-01
          1   -1    0    0  501    0  0.00000000000E+00  0.00000000000E+00  0.99295151214E+03  0.99295151214E+03  0.00000000000E+00 0. -1.
         -2   -1    0    0    0  501 -0.00000000000E+00 -0.00000000000E+00 -0.12115177702E+04  0.12115177702E+04  0.00000000000E+00 0.  1.
        -24    2    1    2    0    0  0.15393352567E+03  0.50571101356E+02  0.80863552190E+03  0.82858805881E+03  0.80086186681E+02 0.  0.
        254    2    1    2    0    0 -0.15393352567E+03 -0.50571101356E+02 -0.10272017799E+04  0.13758812235E+04  0.90091768651E+03 0.  0.
         23    2    4    4    0    0  0.11263226133E+03  0.10502143663E+03 -0.10377790411E+04  0.10529175002E+04  0.89075224386E+02 0.  0.
         23    2    4    4    0    0 -0.26656578700E+03 -0.15559253798E+03  0.10577261172E+02  0.32296372331E+03  0.94484556662E+02 0.  0.
          3    1    3    3  502    0  0.14595913486E+03  0.64319853231E+02  0.77678771481E+03  0.79299449332E+03  0.00000000000E+00 0. -1.
         -4    1    3    3    0  502  0.79743908068E+01 -0.13748751875E+02  0.31847807095E+02  0.35593565481E+02  0.00000000000E+00 0.  1.
         13    1    5    5    0    0  0.50414292340E+02 -0.20966623327E+01 -0.40463286910E+03  0.40776679073E+03  0.00000000000E+00 0. -1.
        -13    1    5    5    0    0  0.62217968989E+02  0.10711809896E+03 -0.63314617201E+03  0.64515070946E+03  0.00000000000E+00 0.  1.
          1    1    6    6  503    0 -0.19931905423E+03 -0.69908081111E+02 -0.12617549807E+02  0.21159968750E+03  0.00000000000E+00 0. -1.
         -1    1    6    6    0  503 -0.67246732766E+02 -0.85684456871E+02  0.23194810980E+02  0.11136403582E+03  0.00000000000E+00 0.  1.
<mgrwt>
<rscale>  0 0.21936074E+04</rscale>
<asrwt>0</asrwt>
<pdfrwt beam="1">  1        1 0.15276177E+00 0.21936074E+04</pdfrwt>
<pdfrwt beam="2">  1       -2 0.18638735E+00 0.21936074E+04</pdfrwt>
<totfact> 0.20092490E+00</totfact>
</mgrwt>
</event>
<event>
12    5  0.5095719E-008  0.1864013E+04  0.7818608E-02  0.8672980E-01
          1   -1    0    0  501    0  0.00000000000E+00  0.00000000000E+00  0.16423883942E+04  0.16423883942E+04  0.00000000000E+00 0. -1.
         -4   -1    0    0    0  501 -0.00000000000E+00 -0.00000000000E+00 -0.52888575373E+03  0.52888575373E+03  0.00000000000E+00 0.  1.
        -24    2    1    2    0    0  0.20361246471E+03 -0.38938025717E+03  0.10910547225E+04  0.11789264892E+04  0.79951479583E+02 0.  0.
        254    2    1    2    0    0 -0.20361246471E+03  0.38938025717E+03  0.22447917954E+02  0.99234765868E+03  0.88948015504E+03 0.  0.
         23    2    4    4    0    0 -0.46877680105E+03  0.23519684675E+03 -0.23608144265E+03  0.58219023674E+03  0.90231802972E+02 0.  0.
         23    2    4    4    0    0  0.26516433634E+03  0.15418341042E+03  0.25852936061E+03  0.41015742194E+03  0.85481174319E+02 0.  0.
          3    1    3    3  502    0  0.18080702479E+03 -0.37116519412E+03  0.10524258864E+04  0.11305109588E+04  0.00000000000E+00 0. -1.
         -4    1    3    3    0  502  0.22805439917E+02 -0.18215063049E+02  0.38628836066E+02  0.48415530437E+02  0.00000000000E+00 0.  1.
         13    1    5    5    0    0 -0.39677338215E+03  0.21090589064E+03 -0.23294259355E+03  0.50613502485E+03  0.00000000000E+00 0.  1.
        -13    1    5    5    0    0 -0.72003418892E+02  0.24290956112E+02 -0.31388490966E+01  0.76055211883E+02  0.00000000000E+00 0. -1.
          2    1    6    6  503    0 -0.44858079795E+01  0.80131567143E-01 -0.18683613994E+01  0.48600070592E+01  0.00000000000E+00 0. -1.
         -2    1    6    6    0  503  0.26965014432E+03  0.15410327885E+03  0.26039772200E+03  0.40529741488E+03  0.00000000000E+00 0.  1.
<mgrwt>
<rscale>  0 0.18640127E+04</rscale>
<asrwt>0</asrwt>
<pdfrwt beam="1">  1        1 0.25267513E+00 0.18640127E+04</pdfrwt>
<pdfrwt beam="2">  1       -4 0.81367040E-01 0.18640127E+04</pdfrwt>
<totfact> 0.32095809E+00</totfact>
</mgrwt>
</event>
<event>
12    5  0.5095719E-008  0.1448743E+04  0.7818608E-02  0.8919272E-01
          1   -1    0    0  501    0  0.00000000000E+00  0.00000000000E+00  0.53333487876E+03  0.53333487876E+03  0.00000000000E+00 0. -1.
         -2   -1    0    0    0  501 -0.00000000000E+00 -0.00000000000E+00 -0.98383599007E+03  0.98383599007E+03  0.00000000000E+00 0.  1.
        -24    2    1    2    0    0 -0.12658898904E+03  0.30833686872E+03  0.12707953300E+03  0.36560172697E+03  0.80118776194E+02 0.  0.
        254    2    1    2    0    0  0.12658898904E+03 -0.30833686872E+03 -0.57758064431E+03  0.11515691419E+04  0.93883741459E+03 0.  0.
         23    2    4    4    0    0  0.38845637753E+03  0.89820834174E+02 -0.15644977640E+02  0.40921527177E+03  0.90808776148E+02 0.  0.
         23    2    4    4    0    0 -0.26186738849E+03 -0.39815770289E+03 -0.56193566667E+03  0.74235387009E+03  0.90628303730E+02 0.  0.
          1    1    3    3  502    0 -0.60817355668E+02  0.13527683573E+03  0.99057115915E+02  0.17835606311E+03  0.00000000000E+00 0. -1.
         -2    1    3    3    0  502 -0.65771633371E+02  0.17306003299E+03  0.28022417086E+02  0.18724566386E+03  0.00000000000E+00 0.  1.
         13    1    5    5    0    0  0.39958096922E+00 -0.71313386060E+01  0.49669559028E+01  0.86997877103E+01  0.00000000000E+00 0. -1.
        -13    1    5    5    0    0  0.38805679656E+03  0.96952172780E+02 -0.20611933543E+02  0.40051548406E+03  0.00000000000E+00 0.  1.
          4    1    6    6  503    0 -0.13191116396E+03 -0.27788883270E+03 -0.37136442484E+03  0.48221809853E+03  0.00000000000E+00 0. -1.
         -4    1    6    6    0  503 -0.12995622453E+03 -0.12026887020E+03 -0.19057124183E+03  0.26013577156E+03  0.00000000000E+00 0.  1.
<mgrwt>
<rscale>  0 0.14487430E+04</rscale>
<asrwt>0</asrwt>
<pdfrwt beam="1">  1        1 0.82051520E-01 0.14487430E+04</pdfrwt>
<pdfrwt beam="2">  1       -2 0.15135938E+00 0.14487430E+04</pdfrwt>
<totfact> 0.10060404E+01</totfact>
</mgrwt>
</event>
<event>
12    5  0.5095719E-008  0.3028393E+04  0.7818608E-02  0.8235669E-01
         -2   -1    0    0    0  501 -0.00000000000E+00  0.00000000000E+00  0.23114852403E+04  0.23114852403E+04  0.00000000000E+00 0.  1.
          1   -1    0    0  501    0  0.00000000000E+00 -0.00000000000E+00 -0.99191231585E+03  0.99191231585E+03  0.00000000000E+00 0. -1.
        -24    2    1    2    0    0 -0.72864571812E+03 -0.78620178615E+03 -0.34188638454E+03  0.11280467809E+04  0.81027211362E+02 0.  0.
        254    2    1    2    0    0  0.72864571812E+03  0.78620178615E+03  0.16614593090E+04  0.21753507752E+04  0.90700944241E+03 0.  0.
         23    2    4    4    0    0  0.77217383138E+03  0.83794718390E+03  0.10481627102E+04  0.15515405610E+04  0.10111941632E+03 0.  0.
         23    2    4    4    0    0 -0.43528113255E+02 -0.51745397753E+02  0.61329659877E+03  0.62381021423E+03  0.91837805267E+02 0.  0.
          1    1    3    3  502    0 -0.68764689921E+03 -0.72623679177E+03 -0.33640342953E+03  0.10551992244E+04  0.00000000000E+00 0. -1.
         -2    1    3    3    0  502 -0.40998818912E+02 -0.59964994379E+02 -0.54829550144E+01  0.72847556574E+02  0.00000000000E+00 0.  1.
         13    1    5    5    0    0  0.40568724775E+03  0.45606564083E+03  0.62793610192E+03  0.87571785401E+03  0.00000000000E+00 0.  1.
        -13    1    5    5    0    0  0.36648658362E+03  0.38188154307E+03  0.42022660828E+03  0.67582270695E+03  0.00000000000E+00 0. -1.
          4    1    6    6  503    0 -0.32289447469E+02  0.97171176580E-01  0.46834836743E+03  0.46946012731E+03  0.00000000000E+00 0. -1.
         -4    1    6    6    0  503 -0.11238665786E+02 -0.51842568930E+02  0.14494823134E+03  0.15435008692E+03  0.00000000000E+00 0.  1.
<mgrwt>
<rscale>  0 0.30283928E+04</rscale>
<asrwt>0</asrwt>
<pdfrwt beam="1">  1        1 0.15260189E+00 0.30283928E+04</pdfrwt>
<pdfrwt beam="2">  1       -2 0.35561311E+00 0.30283928E+04</pdfrwt>
<totfact> 0.16394155E-01</totfact>
</mgrwt>
</event>
<event>
12    5  0.5161122E-008  0.1584420E+04  0.7818608E-02  0.8830177E-01
          1   -1    0    0  501    0  0.00000000000E+00  0.00000000000E+00  0.27124419050E+04  0.27124419050E+04  0.00000000000E+00 0. -1.
         -2   -1    0    0    0  501 -0.00000000000E+00 -0.00000000000E+00 -0.23137706657E+03  0.23137706657E+03  0.00000000000E+00 0.  1.
        -24    2    1    2    0    0  0.12186877165E+03 -0.42552104642E+03  0.28316695894E+03  0.53096193654E+03  0.76268558217E+02 0.  0.
        254    2    1    2    0    0 -0.12186877165E+03  0.42552104642E+03  0.21978978795E+04  0.24128570351E+04  0.89174201670E+03 0.  0.
         23    2    4    4    0    0  0.37602279576E+03  0.24455614400E+03  0.10593410171E+04  0.11537740388E+04  0.88262628253E+02 0.  0.
         23    2    4    4    0    0 -0.49789156742E+03  0.18096490242E+03  0.11385568625E+04  0.12590829963E+04  0.91290490897E+02 0.  0.
          1    1    3    3  502    0  0.14538424473E+02 -0.74371093573E+01  0.18335385930E+02  0.24553263713E+02  0.00000000000E+00 0. -1.
         -2    1    3    3    0  502  0.10733034718E+03 -0.41808393706E+03  0.26483157301E+03  0.50640867283E+03  0.00000000000E+00 0.  1.
         13    1    5    5    0    0  0.27574866151E+03  0.20703425277E+03  0.87657382192E+03  0.94195656557E+03  0.00000000000E+00 0. -1.
        -13    1    5    5    0    0  0.10027413426E+03  0.37521891226E+02  0.18276719517E+03  0.21181747320E+03  0.00000000000E+00 0.  1.
          3    1    6    6  503    0 -0.36741642363E+03  0.11876262785E+03  0.73209321005E+03  0.82768342881E+03  0.00000000000E+00 0. -1.
         -3    1    6    6    0  503 -0.13047514379E+03  0.62202274575E+02  0.40646365241E+03  0.43139956750E+03  0.00000000000E+00 0.  1.
<mgrwt>
<rscale>  0 0.15844202E+04</rscale>
<asrwt>0</asrwt>
<pdfrwt beam="1">  1        1 0.41729873E+00 0.15844202E+04</pdfrwt>
<pdfrwt beam="2">  1       -2 0.35596474E-01 0.15844202E+04</pdfrwt>
<totfact> 0.60370538E+00</totfact>
</mgrwt>
</event>
<event>
12    5  0.5095719E-008  0.3427619E+04  0.7818608E-02  0.8131161E-01
          1   -1    0    0  501    0  0.00000000000E+00  0.00000000000E+00  0.16657412396E+04  0.16657412396E+04  0.00000000000E+00 0. -1.
         -2   -1    0    0    0  501 -0.00000000000E+00 -0.00000000000E+00 -0.17632653029E+04  0.17632653029E+04  0.00000000000E+00 0.  1.
        -24    2    1    2    0    0 -0.29561213818E+03  0.43751782539E+03  0.14588310803E+04  0.15535209519E+04  0.80192539003E+02 0.  0.
        254    2    1    2    0    0  0.29561213818E+03 -0.43751782539E+03 -0.15563551436E+04  0.18754855906E+04  0.90354661408E+03 0.  0.
         23    2    4    4    0    0  0.41670609041E+03  0.12927032134E+03 -0.82829465025E+03  0.94053252399E+03  0.90413601177E+02 0.  0.
         23    2    4    4    0    0 -0.12109395223E+03 -0.56678814673E+03 -0.72806049335E+03  0.93495306663E+03  0.90291784150E+02 0.  0.
          1    1    3    3  502    0 -0.15162098287E+03  0.29064021277E+03  0.86077839135E+03  0.92108636660E+03  0.00000000000E+00 0. -1.
         -2    1    3    3    0  502 -0.14399115531E+03  0.14687761262E+03  0.59805268896E+03  0.63243458529E+03  0.00000000000E+00 0.  1.
         13    1    5    5    0    0  0.20464452472E+02  0.31118775419E+02 -0.75058066194E+02  0.83790723230E+02  0.00000000000E+00 0.  1.
        -13    1    5    5    0    0  0.39624163794E+03  0.98151545922E+02 -0.75323658406E+03  0.85674180076E+03  0.00000000000E+00 0. -1.
          1    1    6    6  503    0 -0.94607016127E+02 -0.53871504105E+03 -0.66526178787E+03  0.86124191105E+03  0.00000000000E+00 0. -1.
         -1    1    6    6    0  503 -0.26486936099E+02 -0.28073105677E+02 -0.62798705485E+02  0.73711155580E+02  0.00000000000E+00 0.  1.
<mgrwt>
<rscale>  0 0.34276194E+04</rscale>
<asrwt>0</asrwt>
<pdfrwt beam="1">  1        1 0.25626788E+00 0.34276194E+04</pdfrwt>
<pdfrwt beam="2">  1       -2 0.27127158E+00 0.34276194E+04</pdfrwt>
<totfact> 0.17269413E-01</totfact>
</mgrwt>
</event>
<event>
12    5  0.5095719E-008  0.3428961E+04  0.7818608E-02  0.8130835E-01
         -2   -1    0    0    0  501 -0.00000000000E+00  0.00000000000E+00  0.94665492688E+03  0.94665492688E+03  0.00000000000E+00 0.  1.
          1   -1    0    0  501    0  0.00000000000E+00 -0.00000000000E+00 -0.31050841324E+04  0.31050841324E+04  0.00000000000E+00 0. -1.
        -24    2    1    2    0    0 -0.46007830380E+02 -0.10819570756E+04 -0.24006459369E+04  0.26348173793E+04  0.80086665053E+02 0.  0.
        254    2    1    2    0    0  0.46007830380E+02  0.10819570756E+04  0.24221673130E+03  0.14169216801E+04  0.88105066172E+03 0.  0.
         23    2    4    4    0    0  0.44345337698E+03  0.70763280876E+03  0.10563525723E+03  0.84675855288E+03  0.91902936439E+02 0.  0.
         23    2    4    4    0    0 -0.39744554660E+03  0.37432426688E+03  0.13658147408E+03  0.57016312718E+03  0.91377640848E+02 0.  0.
          1    1    3    3  502    0 -0.68307348268E+01 -0.54055752674E+03 -0.12867991928E+04  0.13957439813E+04  0.00000000000E+00 0. -1.
         -2    1    3    3    0  502 -0.39177095553E+02 -0.54139954890E+03 -0.11138467440E+04  0.12390733980E+04  0.00000000000E+00 0.  1.
         13    1    5    5    0    0  0.38075541133E+03  0.57697537595E+03  0.11810236469E+03  0.70130124501E+03  0.00000000000E+00 0. -1.
        -13    1    5    5    0    0  0.62697965651E+02  0.13065743281E+03 -0.12467107467E+02  0.14545730787E+03  0.00000000000E+00 0.  1.
          1    1    6    6  503    0 -0.20521099205E+03  0.21807998836E+03  0.11760032193E+03  0.32171457582E+03  0.00000000000E+00 0. -1.
         -1    1    6    6    0  503 -0.19223455455E+03  0.15624427852E+03  0.18981152149E+02  0.24844855135E+03  0.00000000000E+00 0.  1.
<mgrwt>
<rscale>  0 0.34289609E+04</rscale>
<asrwt>0</asrwt>
<pdfrwt beam="1">  1        1 0.47770526E+00 0.34289609E+04</pdfrwt>
<pdfrwt beam="2">  1       -2 0.14563922E+00 0.34289609E+04</pdfrwt>
<totfact> 0.11701263E-01</totfact>
</mgrwt>
</event>
<event>
12    5  0.5095719E-008  0.1551809E+04  0.7818608E-02  0.8850713E-01
         -2   -1    0    0    0  501 -0.00000000000E+00  0.00000000000E+00  0.13481161965E+04  0.13481161965E+04  0.00000000000E+00 0.  1.
          1   -1    0    0  501    0  0.00000000000E+00 -0.00000000000E+00 -0.44656962650E+03  0.44656962650E+03  0.00000000000E+00 0. -1.
        -24    2    1    2    0    0  0.16440613327E+03  0.43757181256E+03  0.55186282987E+02  0.47794318312E+03  0.82980073861E+02 0.  0.
        254    2    1    2    0    0 -0.16440613327E+03 -0.43757181256E+03  0.84636028700E+03  0.13167426399E+04  0.89386071422E+03 0.  0.
         23    2    4    4    0    0  0.14138060593E+03 -0.61566869762E+03  0.47390984695E+03  0.79486946867E+03  0.90501426578E+02 0.  0.
         23    2    4    4    0    0 -0.30578673919E+03  0.17809688506E+03  0.37245044004E+03  0.52187317120E+03  0.91696489558E+02 0.  0.
          1    1    3    3  502    0  0.16022207228E+03  0.32749188697E+03  0.41760721465E+02  0.36696867215E+03  0.00000000000E+00 0. -1.
         -4    1    3    3    0  502  0.41840609839E+01  0.11007992559E+03  0.13425561522E+02  0.11097451098E+03  0.00000000000E+00 0.  1.
         13    1    5    5    0    0  0.14694740506E+03 -0.47152240680E+03  0.36686344564E+03  0.61523630234E+03  0.00000000000E+00 0. -1.
        -13    1    5    5    0    0 -0.55667991335E+01 -0.14414629082E+03  0.10704640132E+03  0.17963316633E+03  0.00000000000E+00 0.  1.
          4    1    6    6  503    0 -0.21204136530E+03  0.89856718942E+02  0.28416935536E+03  0.36577041032E+03  0.00000000000E+00 0. -1.
         -4    1    6    6    0  503 -0.93745373889E+02  0.88240166117E+02  0.88281084677E+02  0.15610276088E+03  0.00000000000E+00 0.  1.
<mgrwt>
<rscale>  0 0.15518089E+04</rscale>
<asrwt>0</asrwt>
<pdfrwt beam="1">  1        1 0.68703020E-01 0.15518089E+04</pdfrwt>
<pdfrwt beam="2">  1       -2 0.20740249E+00 0.15518089E+04</pdfrwt>
<totfact> 0.51821788E+00</totfact>
</mgrwt>
</event>
<event>
12    5  0.5095719E-008  0.1540622E+04  0.7818608E-02  0.8857880E-01
         -2   -1    0    0    0  501 -0.00000000000E+00  0.00000000000E+00  0.79908038353E+03  0.79908038353E+03  0.00000000000E+00 0.  1.
          1   -1    0    0  501    0  0.00000000000E+00 -0.00000000000E+00 -0.74257726890E+03  0.74257726890E+03  0.00000000000E+00 0. -1.
        -24    2    1    2    0    0 -0.19204255662E+02  0.35619171101E+03  0.38814292538E+03  0.53303482259E+03  0.78929418744E+02 0.  0.
        254    2    1    2    0    0  0.19204255662E+02 -0.35619171101E+03 -0.33163981074E+03  0.10086228298E+04  0.88322913809E+03 0.  0.
         23    2    4    4    0    0  0.13534705858E+03 -0.57464657688E+03 -0.42001086789E+03  0.73047301502E+03  0.92974092825E+02 0.  0.
         23    2    4    4    0    0 -0.11614280292E+03  0.21845486587E+03  0.88371057150E+02  0.27814981482E+03  0.91357521046E+02 0.  0.
          3    1    3    3  502    0 -0.29753251463E+02  0.60611805698E+02  0.95508922199E+02  0.11696581202E+03  0.00000000000E+00 0. -1.
         -4    1    3    3    0  502  0.10548995800E+02  0.29557990531E+03  0.29263400318E+03  0.41606901057E+03  0.00000000000E+00 0.  1.
         13    1    5    5    0    0 -0.90304616559E+01 -0.60453833651E+01 -0.98089237738E+01  0.14639360756E+02  0.00000000000E+00 0.  1.
        -13    1    5    5    0    0  0.14437752024E+03 -0.56860119351E+03 -0.41020194412E+03  0.71583365426E+03  0.00000000000E+00 0. -1.
          2    1    6    6  503    0 -0.33959989724E+02  0.88760489610E+02  0.80265632313E+02  0.12439564763E+03  0.00000000000E+00 0. -1.
         -2    1    6    6    0  503 -0.82182813198E+02  0.12969437626E+03  0.81054248370E+01  0.15375416720E+03  0.00000000000E+00 0.  1.
<mgrwt>
<rscale>  0 0.15406219E+04</rscale>
<asrwt>0</asrwt>
<pdfrwt beam="1">  1        1 0.11424266E+00 0.15406219E+04</pdfrwt>
<pdfrwt beam="2">  1       -2 0.12293544E+00 0.15406219E+04</pdfrwt>
<totfact> 0.10498815E+01</totfact>
</mgrwt>
</event>
<event>
12    5  0.5095719E-008  0.1554262E+04  0.7818608E-02  0.8849150E-01
          1   -1    0    0  501    0  0.00000000000E+00  0.00000000000E+00  0.15512187646E+04  0.15512187646E+04  0.00000000000E+00 0. -1.
         -2   -1    0    0    0  501 -0.00000000000E+00 -0.00000000000E+00 -0.38932794502E+03  0.38932794502E+03  0.00000000000E+00 0.  1.
        -24    2    1    2    0    0 -0.10329285676E+03 -0.50079771452E+02  0.10158812467E+04  0.10252530444E+04  0.77147261154E+02 0.  0.
        254    2    1    2    0    0  0.10329285676E+03  0.50079771452E+02  0.14600957289E+03  0.91529366523E+03  0.89625124851E+03 0.  0.
         23    2    4    4    0    0  0.23595059768E+03  0.34259485032E+03  0.32473207664E+03  0.53568159404E+03  0.91977891823E+02 0.  0.
         23    2    4    4    0    0 -0.13265774091E+03 -0.29251507887E+03 -0.17872250375E+03  0.37961207119E+03  0.94870668054E+02 0.  0.
          1    1    3    3  502    0 -0.81214651055E+02 -0.67916801431E+02  0.68211211689E+03  0.69027925615E+03  0.00000000000E+00 0. -1.
         -2    1    3    3    0  502 -0.22078205708E+02  0.17837029980E+02  0.33376912977E+03  0.33497378822E+03  0.00000000000E+00 0.  1.
         13    1    5    5    0    0  0.15620011187E+03  0.17087422289E+03  0.13677738678E+03  0.26889501396E+03  0.00000000000E+00 0. -1.
        -13    1    5    5    0    0  0.79750485805E+02  0.17172062743E+03  0.18795468986E+03  0.26678658008E+03  0.00000000000E+00 0.  1.
          3    1    6    6  503    0 -0.14179114534E+03 -0.24822870943E+03 -0.17271844301E+03  0.33399682878E+03  0.00000000000E+00 0. -1.
         -3    1    6    6    0  503  0.91334044243E+01 -0.44286369436E+02 -0.60040607367E+01  0.45615242404E+02  0.00000000000E+00 0.  1.
<mgrwt>
<rscale>  0 0.15542623E+04</rscale>
<asrwt>0</asrwt>
<pdfrwt beam="1">  1        1 0.23864904E+00 0.15542623E+04</pdfrwt>
<pdfrwt beam="2">  1       -2 0.59896608E-01 0.15542623E+04</pdfrwt>
<totfact> 0.13245098E+01</totfact>
</mgrwt>
</event>
<event>
12    5  0.5095719E-008  0.1540686E+04  0.7818608E-02  0.8857839E-01
          1   -1    0    0  501    0  0.00000000000E+00  0.00000000000E+00  0.57281850929E+03  0.57281850929E+03  0.00000000000E+00 0. -1.
         -2   -1    0    0    0  501 -0.00000000000E+00 -0.00000000000E+00 -0.10359800795E+04  0.10359800795E+04  0.00000000000E+00 0.  1.
        -24    2    1    2    0    0 -0.12269939730E+03 -0.29913014657E+03  0.25142416138E+03  0.41705513176E+03  0.78656769073E+02 0.  0.
        254    2    1    2    0    0  0.12269939730E+03  0.29913014657E+03 -0.71458573162E+03  0.11917434571E+04  0.89726568692E+03 0.  0.
         23    2    4    4    0    0  0.21412793472E+03  0.17870455730E+03  0.13614682924E+03  0.32288036470E+03  0.89048748302E+02 0.  0.
         23    2    4    4    0    0 -0.91428537416E+02  0.12042558927E+03 -0.85073256086E+03  0.86886309236E+03  0.91190367655E+02 0.  0.
          1    1    3    3  502    0 -0.11656624173E+03 -0.21005949331E+03  0.20802374052E+03  0.31778381970E+03  0.00000000000E+00 0. -1.
         -2    1    3    3    0  502 -0.61331555738E+01 -0.89070653255E+02  0.43400420860E+02  0.99271312067E+02  0.00000000000E+00 0.  1.
         13    1    5    5    0    0  0.99334495871E+02  0.76644790506E+02  0.13249955538E+02  0.12616389065E+03  0.00000000000E+00 0.  1.
        -13    1    5    5    0    0  0.11479343885E+03  0.10205976679E+03  0.12289687370E+03  0.19671647406E+03  0.00000000000E+00 0. -1.
          2    1    6    6  503    0 -0.75745506224E+02  0.58385288508E+02 -0.67696943352E+03  0.68369133207E+03  0.00000000000E+00 0. -1.
         -2    1    6    6    0  503 -0.15683031192E+02  0.62040300761E+02 -0.17376312734E+03  0.18517176029E+03  0.00000000000E+00 0.  1.
<mgrwt>
<rscale>  0 0.15406863E+04</rscale>
<asrwt>0</asrwt>
<pdfrwt beam="1">  1        1 0.88125925E-01 0.15406863E+04</pdfrwt>
<pdfrwt beam="2">  1       -2 0.15938155E+00 0.15406863E+04</pdfrwt>
<totfact> 0.78564425E+00</totfact>
</mgrwt>
</event>
<event>
12    5  0.5095719E-008  0.1660407E+04  0.7818608E-02  0.8784274E-01
         -2   -1    0    0    0  501 -0.00000000000E+00  0.00000000000E+00  0.27544182307E+03  0.27544182307E+03  0.00000000000E+00 0.  1.
          1   -1    0    0  501    0  0.00000000000E+00 -0.00000000000E+00 -0.25022986865E+04  0.25022986865E+04  0.00000000000E+00 0. -1.
        -24    2    1    2    0    0  0.12223399574E+03 -0.65046150925E+02 -0.17376131650E+04  0.17449112605E+04  0.79016734807E+02 0.  0.
        254    2    1    2    0    0 -0.12223399574E+03  0.65046150925E+02 -0.48924369840E+03  0.10328292490E+04  0.89900206327E+03 0.  0.
         23    2    4    4    0    0  0.26510877337E+03 -0.17228081220E+03  0.36690457312E+02  0.33253122406E+03  0.96267779385E+02 0.  0.
         23    2    4    4    0    0 -0.38734276911E+03  0.23732696312E+03 -0.52593415571E+03  0.70029802497E+03  0.86325427470E+02 0.  0.
          3    1    3    3  502    0  0.64781047830E+02 -0.58058596850E+02 -0.13710765132E+04  0.13738333924E+04  0.00000000000E+00 0. -1.
         -2    1    3    3    0  502  0.57452947912E+02 -0.69875540750E+01 -0.36653665180E+03  0.37107786817E+03  0.00000000000E+00 0.  1.
         13    1    5    5    0    0  0.23904981947E+03 -0.17666250527E+03  0.52343413027E+02  0.30181830601E+03  0.00000000000E+00 0. -1.
        -13    1    5    5    0    0  0.26058953898E+02  0.43816930682E+01 -0.15652955715E+02  0.30712918048E+02  0.00000000000E+00 0.  1.
          1    1    6    6  503    0 -0.12983058724E+03  0.12600582378E+03 -0.18476613845E+03  0.25859616185E+03  0.00000000000E+00 0. -1.
         -1    1    6    6    0  503 -0.25751218187E+03  0.11132113934E+03 -0.34116801726E+03  0.44170186312E+03  0.00000000000E+00 0.  1.
<mgrwt>
<rscale>  0 0.16604068E+04</rscale>
<asrwt>0</asrwt>
<pdfrwt beam="1">  1        1 0.38496903E+00 0.16604068E+04</pdfrwt>
<pdfrwt beam="2">  1       -2 0.42375665E-01 0.16604068E+04</pdfrwt>
<totfact> 0.59841119E+00</totfact>
</mgrwt>
</event>
<event>
12    5  0.5095719E-008  0.1418071E+04  0.7818608E-02  0.8940841E-01
         -2   -1    0    0    0  501 -0.00000000000E+00  0.00000000000E+00  0.66804391020E+03  0.66804391020E+03  0.00000000000E+00 0.  1.
          1   -1    0    0  501    0  0.00000000000E+00 -0.00000000000E+00 -0.75254228246E+03  0.75254228246E+03  0.00000000000E+00 0. -1.
        -24    2    1    2    0    0 -0.30069490069E+03 -0.21492948396E+03 -0.23941237337E+03  0.44760018772E+03  0.80097048307E+02 0.  0.
        254    2    1    2    0    0  0.30069490069E+03  0.21492948396E+03  0.15491400110E+03  0.97298600494E+03  0.88661790626E+03 0.  0.
         23    2    4    4    0    0 -0.24590467545E+03  0.25657080923E+03 -0.70488187760E+02  0.37290826675E+03  0.88285339888E+02 0.  0.
         23    2    4    4    0    0  0.54659957614E+03 -0.41641325274E+02  0.22540218886E+03  0.60007773819E+03  0.93712584650E+02 0.  0.
          3    1    3    3  502    0 -0.14091956689E+03 -0.12323763847E+03 -0.78484889763E+02  0.20299191558E+03  0.00000000000E+00 0. -1.
         -4    1    3    3    0  502 -0.15977533380E+03 -0.91691845483E+02 -0.16092748360E+03  0.24460827214E+03  0.00000000000E+00 0.  1.
         13    1    5    5    0    0 -0.57465812060E+02  0.60024819243E+02  0.20916219745E+02  0.85690062021E+02  0.00000000000E+00 0. -1.
        -13    1    5    5    0    0 -0.18843886339E+03  0.19654598999E+03 -0.91404407504E+02  0.28721820473E+03  0.00000000000E+00 0.  1.
          1    1    6    6  503    0  0.70725832520E+02 -0.12044104194E+01 -0.27532768371E+01  0.70789649833E+02  0.00000000000E+00 0. -1.
         -1    1    6    6    0  503  0.47587374362E+03 -0.40436914854E+02  0.22815546570E+03  0.52928808836E+03  0.00000000000E+00 0.  1.
<mgrwt>
<rscale>  0 0.14180709E+04</rscale>
<asrwt>0</asrwt>
<pdfrwt beam="1">  1        1 0.11577574E+00 0.14180709E+04</pdfrwt>
<pdfrwt beam="2">  1       -2 0.10277599E+00 0.14180709E+04</pdfrwt>
<totfact> 0.16077444E+01</totfact>
</mgrwt>
</event>
<event>
12    5  0.5095719E-008  0.1807202E+04  0.7818608E-02  0.8702479E-01
         -2   -1    0    0    0  501 -0.00000000000E+00  0.00000000000E+00  0.47324358983E+03  0.47324358983E+03  0.00000000000E+00 0.  1.
          1   -1    0    0  501    0  0.00000000000E+00 -0.00000000000E+00 -0.17253160634E+04  0.17253160634E+04  0.00000000000E+00 0. -1.
        -24    2    1    2    0    0  0.69196929937E+02 -0.13942756923E+03 -0.12759202870E+04  0.12877984671E+04  0.78892655368E+02 0.  0.
        254    2    1    2    0    0 -0.69196929937E+02  0.13942756923E+03  0.23847813445E+02  0.91076118605E+03  0.89704456836E+03 0.  0.
         23    2    4    4    0    0  0.33394859144E+03 -0.60633595284E+01 -0.21841218725E+03  0.40975023826E+03  0.92913659700E+02 0.  0.
         23    2    4    4    0    0 -0.40314552138E+03  0.14549092876E+03  0.24226000069E+03  0.50101094779E+03  0.92887782360E+02 0.  0.
          1    1    3    3  502    0  0.80917405732E+02 -0.84312095462E+02 -0.78399465609E+03  0.79265615292E+03  0.00000000000E+00 0. -1.
         -2    1    3    3    0  502 -0.11720475795E+02 -0.55115473769E+02 -0.49192563090E+03  0.49514231423E+03  0.00000000000E+00 0.  1.
         13    1    5    5    0    0  0.32211581220E+03 -0.24700610431E+02 -0.19399413904E+03  0.37683211461E+03  0.00000000000E+00 0. -1.
        -13    1    5    5    0    0  0.11832779245E+02  0.18637250902E+02 -0.24418048210E+02  0.32918123644E+02  0.00000000000E+00 0.  1.
          1    1    6    6  503    0 -0.33587881818E+03  0.13988978404E+03  0.16831595152E+03  0.40089149619E+03  0.00000000000E+00 0. -1.
         -1    1    6    6    0  503 -0.67266703201E+02  0.56011447239E+01  0.73944049171E+02  0.10011945160E+03  0.00000000000E+00 0.  1.
<mgrwt>
<rscale>  0 0.18072020E+04</rscale>
<asrwt>0</asrwt>
<pdfrwt beam="1">  1        1 0.26543324E+00 0.18072020E+04</pdfrwt>
<pdfrwt beam="2">  1       -2 0.72806706E-01 0.18072020E+04</pdfrwt>
<totfact> 0.64651059E+00</totfact>
</mgrwt>
</event>
<event>
12    5  0.5095719E-008  0.1156722E+04  0.7818608E-02  0.9151605E-01
         -2   -1    0    0    0  501 -0.00000000000E+00  0.00000000000E+00  0.14157789919E+03  0.14157789919E+03  0.00000000000E+00 0.  1.
          1   -1    0    0  501    0  0.00000000000E+00 -0.00000000000E+00 -0.23626666119E+04  0.23626666119E+04  0.00000000000E+00 0. -1.
        -24    2    1    2    0    0  0.10273535695E+02  0.22198170621E+03 -0.43341229810E+03  0.49355237954E+03  0.79789145749E+02 0.  0.
        254    2    1    2    0    0 -0.10273535695E+02 -0.22198170621E+03 -0.17876764146E+04  0.20106921315E+04  0.89314862208E+03 0.  0.
         23    2    4    4    0    0  0.91390985272E+02  0.30604291638E+03 -0.40209659621E+03  0.52156646647E+03  0.91298014251E+02 0.  0.
         23    2    4    4    0    0 -0.10166452097E+03 -0.52802462259E+03 -0.13855798184E+04  0.14891256651E+04  0.92293750418E+02 0.  0.
          1    1    3    3  502    0  0.43320829256E+01  0.13118080491E+03 -0.16939371702E+03  0.21429279476E+03  0.00000000000E+00 0. -1.
         -2    1    3    3    0  502  0.59414527697E+01  0.90800901300E+02 -0.26401858108E+03  0.27925958478E+03  0.00000000000E+00 0.  1.
         13    1    5    5    0    0  0.17501431782E+02  0.45020443265E+00 -0.16683703928E+02  0.24183646855E+02  0.00000000000E+00 0.  1.
        -13    1    5    5    0    0  0.73889553490E+02  0.30559271195E+03 -0.38541289228E+03  0.49738281961E+03  0.00000000000E+00 0. -1.
          1    1    6    6  503    0 -0.10864673347E+03 -0.52694474208E+03 -0.13591357956E+04  0.14617540781E+04  0.00000000000E+00 0. -1.
         -1    1    6    6    0  503  0.69822125062E+01 -0.10798805121E+01 -0.26444022742E+02  0.27371586950E+02  0.00000000000E+00 0.  1.
<mgrwt>
<rscale>  0 0.11567219E+04</rscale>
<asrwt>0</asrwt>
<pdfrwt beam="1">  1        1 0.36348714E+00 0.11567219E+04</pdfrwt>
<pdfrwt beam="2">  1       -2 0.21781217E-01 0.11567219E+04</pdfrwt>
<totfact> 0.27154838E+01</totfact>
</mgrwt>
</event>
<event>
12    5  0.5095719E-008  0.2022416E+04  0.7818608E-02  0.8596211E-01
         -2   -1    0    0    0  501 -0.00000000000E+00  0.00000000000E+00  0.95790999007E+03  0.95790999007E+03  0.00000000000E+00 0.  1.
          1   -1    0    0  501    0  0.00000000000E+00 -0.00000000000E+00 -0.10674719017E+04  0.10674719017E+04  0.00000000000E+00 0. -1.
        -24    2    1    2    0    0  0.75649209437E+02 -0.76936652985E+03  0.18956442444E+03  0.80026608614E+03  0.82725313383E+02 0.  0.
        254    2    1    2    0    0 -0.75649209437E+02  0.76936652985E+03 -0.29912633604E+03  0.12251158056E+04  0.90210005657E+03 0.  0.
         23    2    4    4    0    0  0.13664747502E+02 -0.19499035140E+03 -0.49967899610E+02  0.22097465701E+03  0.90139034747E+02 0.  0.
         23    2    4    4    0    0 -0.89313956940E+02  0.96435688125E+03 -0.24915843643E+03  0.10041411486E+04  0.90875423034E+02 0.  0.
          1    1    3    3  502    0  0.21232620834E+02 -0.55844583048E+03  0.11986463496E+03  0.57155935867E+03  0.00000000000E+00 0. -1.
         -2    1    3    3    0  502  0.54416588603E+02 -0.21092069937E+03  0.69699789481E+02  0.22870672747E+03  0.00000000000E+00 0.  1.
         13    1    5    5    0    0  0.11682000544E+02  0.10981513754E+01 -0.19165062466E+02  0.22471641962E+02  0.00000000000E+00 0.  1.
        -13    1    5    5    0    0  0.19827469586E+01 -0.19608850278E+03 -0.30802837144E+02  0.19850301505E+03  0.00000000000E+00 0. -1.
          4    1    6    6  503    0 -0.30740824646E+01  0.52355047890E+03 -0.13128745770E+03  0.53976934934E+03  0.00000000000E+00 0. -1.
         -4    1    6    6    0  503 -0.86239874475E+02  0.44080640235E+03 -0.11787097873E+03  0.46437179924E+03  0.00000000000E+00 0.  1.
<mgrwt>
<rscale>  0 0.20224164E+04</rscale>
<asrwt>0</asrwt>
<pdfrwt beam="1">  1        1 0.16422645E+00 0.20224164E+04</pdfrwt>
<pdfrwt beam="2">  1       -2 0.14737077E+00 0.20224164E+04</pdfrwt>
<totfact> 0.34205130E+00</totfact>
</mgrwt>
</event>
<event>
12    5  0.5095719E-008  0.1314748E+04  0.7818608E-02  0.9017951E-01
         -2   -1    0    0    0  501 -0.00000000000E+00  0.00000000000E+00  0.15675230115E+03  0.15675230115E+03  0.00000000000E+00 0.  1.
          1   -1    0    0  501    0  0.00000000000E+00 -0.00000000000E+00 -0.27568384868E+04  0.27568384868E+04  0.00000000000E+00 0. -1.
        -24    2    1    2    0    0  0.11277245908E+03  0.20664497819E+03 -0.14034855117E+03  0.28541250387E+03  0.79641741646E+02 0.  0.
        254    2    1    2    0    0 -0.11277245908E+03 -0.20664497819E+03 -0.24597376345E+04  0.26281782841E+04  0.89531675284E+03 0.  0.
         23    2    4    4    0    0 -0.11176062766E+03  0.33153460968E+03 -0.74137870614E+03  0.82508659995E+03  0.93380277233E+02 0.  0.
         23    2    4    4    0    0 -0.10118314192E+01 -0.53817958787E+03 -0.17183589284E+04  0.18030916841E+04  0.93508941851E+02 0.  0.
          1    1    3    3  502    0  0.83762199388E+02  0.10835551956E+03 -0.11741237942E+03  0.18039592985E+03  0.00000000000E+00 0. -1.
         -4    1    3    3    0  502  0.29010259691E+02  0.98289458624E+02 -0.22936171752E+02  0.10501657402E+03  0.00000000000E+00 0.  1.
         13    1    5    5    0    0 -0.52474829188E+02  0.68562894010E+02 -0.12075759112E+03  0.14844821975E+03  0.00000000000E+00 0. -1.
        -13    1    5    5    0    0 -0.59285798472E+02  0.26297171567E+03 -0.62062111502E+03  0.67663838020E+03  0.00000000000E+00 0.  1.
          1    1    6    6  503    0 -0.44965587541E+02 -0.18732383853E+03 -0.60713004265E+03  0.63696076271E+03  0.00000000000E+00 0. -1.
         -1    1    6    6    0  503  0.43953756122E+02 -0.35085574934E+03 -0.11112288857E+04  0.11661309214E+04  0.00000000000E+00 0.  1.
<mgrwt>
<rscale>  0 0.13147483E+04</rscale>
<asrwt>0</asrwt>
<pdfrwt beam="1">  1        1 0.42412899E+00 0.13147483E+04</pdfrwt>
<pdfrwt beam="2">  1       -2 0.24115739E-01 0.13147483E+04</pdfrwt>
<totfact> 0.11885248E+01</totfact>
</mgrwt>
</event>
<event>
12    5  0.5095719E-008  0.2112444E+04  0.7818608E-02  0.8555781E-01
          1   -1    0    0  501    0  0.00000000000E+00  0.00000000000E+00  0.30106775505E+04  0.30106775505E+04  0.00000000000E+00 0. -1.
         -2   -1    0    0    0  501 -0.00000000000E+00 -0.00000000000E+00 -0.37054943038E+03  0.37054943038E+03  0.00000000000E+00 0.  1.
        -24    2    1    2    0    0 -0.62566225039E+03  0.42119075365E+03  0.40934540820E+03  0.86161064495E+03  0.77164355534E+02 0.  0.
        254    2    1    2    0    0  0.62566225039E+03 -0.42119075365E+03  0.22307827119E+04  0.25196163359E+04  0.89622545707E+03 0.  0.
         23    2    4    4    0    0 -0.19616886705E+02 -0.48421041303E+03  0.12131762467E+04  0.13095985414E+04  0.91690717991E+02 0.  0.
         23    2    4    4    0    0  0.64527913709E+03  0.63019659381E+02  0.10176064652E+04  0.12100177945E+04  0.90903810396E+02 0.  0.
          3    1    3    3  502    0 -0.15284315662E+03  0.13694397017E+03  0.89212921952E+02  0.22377137202E+03  0.00000000000E+00 0. -1.
         -4    1    3    3    0  502 -0.47281909377E+03  0.28424678348E+03  0.32013248624E+03  0.63783927293E+03  0.00000000000E+00 0.  1.
         13    1    5    5    0    0 -0.37592743018E+02 -0.93005759921E+02  0.28717098842E+03  0.30418820209E+03  0.00000000000E+00 0. -1.
        -13    1    5    5    0    0  0.17975856313E+02 -0.39120465311E+03  0.92600525830E+03  0.10054103393E+04  0.00000000000E+00 0.  1.
          1    1    6    6  503    0  0.29743899816E+03 -0.97901251733E+01  0.42046185498E+03  0.51512520388E+03  0.00000000000E+00 0. -1.
         -1    1    6    6    0  503  0.34784013893E+03  0.72809784554E+02  0.59714461025E+03  0.69489259064E+03  0.00000000000E+00 0.  1.
<mgrwt>
<rscale>  0 0.21124439E+04</rscale>
<asrwt>0</asrwt>
<pdfrwt beam="1">  1        1 0.46318115E+00 0.21124439E+04</pdfrwt>
<pdfrwt beam="2">  1       -2 0.57007607E-01 0.21124439E+04</pdfrwt>
<totfact> 0.13690040E+00</totfact>
</mgrwt>
</event>
<event>
12    5  0.5095719E-008  0.1752463E+04  0.7818608E-02  0.8731996E-01
          1   -1    0    0  501    0  0.00000000000E+00  0.00000000000E+00  0.16318202569E+04  0.16318202569E+04  0.00000000000E+00 0. -1.
         -2   -1    0    0    0  501 -0.00000000000E+00 -0.00000000000E+00 -0.47050599193E+03  0.47050599193E+03  0.00000000000E+00 0.  1.
        -24    2    1    2    0    0  0.51337649619E+03 -0.62421904833E+02 -0.53497949085E+02  0.52579036613E+03  0.78368089857E+02 0.  0.
        254    2    1    2    0    0 -0.51337649619E+03  0.62421904833E+02  0.12148122141E+04  0.15765358828E+04  0.86153627493E+03 0.  0.
         23    2    4    4    0    0 -0.67017201755E+03  0.95230934476E+01  0.12137288821E+04  0.13895267250E+04  0.91790510697E+02 0.  0.
         23    2    4    4    0    0  0.15679552135E+03  0.52898811386E+02  0.10833320020E+01  0.18700915774E+03  0.87109882965E+02 0.  0.
          3    1    3    3  502    0  0.59481638735E+00  0.42994722313E+01 -0.46861867020E+01  0.63874575387E+01  0.00000000000E+00 0. -1.
         -2    1    3    3    0  502  0.51278167981E+03 -0.66721377065E+02 -0.48811762383E+02  0.51940290859E+03  0.00000000000E+00 0.  1.
         13    1    5    5    0    0 -0.24022888767E+02 -0.11037538817E+02  0.25033688758E+02  0.36408955226E+02  0.00000000000E+00 0. -1.
        -13    1    5    5    0    0 -0.64614912878E+03  0.20560632264E+02  0.11886951933E+04  0.13531177698E+04  0.00000000000E+00 0.  1.
          1    1    6    6  503    0 -0.30794959607E+00 -0.92293404086E+01 -0.14669744017E+02  0.17334270878E+02  0.00000000000E+00 0. -1.
         -1    1    6    6    0  503  0.15710347095E+03  0.62128151794E+02  0.15753076019E+02  0.16967488687E+03  0.00000000000E+00 0.  1.
<mgrwt>
<rscale>  0 0.17524625E+04</rscale>
<asrwt>0</asrwt>
<pdfrwt beam="1">  1        1 0.25104927E+00 0.17524625E+04</pdfrwt>
<pdfrwt beam="2">  1       -2 0.72385538E-01 0.17524625E+04</pdfrwt>
<totfact> 0.76208660E+00</totfact>
</mgrwt>
</event>
<event>
12    5  0.5095719E-008  0.2297350E+04  0.7818608E-02  0.8478967E-01
          1   -1    0    0  501    0  0.00000000000E+00  0.00000000000E+00  0.99415565311E+03  0.99415565311E+03  0.00000000000E+00 0. -1.
         -2   -1    0    0    0  501 -0.00000000000E+00 -0.00000000000E+00 -0.13272110266E+04  0.13272110266E+04  0.00000000000E+00 0.  1.
        -24    2    1    2    0    0  0.66039796167E+03 -0.16420686486E+02 -0.86314412466E+03  0.10899340406E+04  0.80890828751E+02 0.  0.
        254    2    1    2    0    0 -0.66039796167E+03  0.16420686486E+02  0.53008875119E+03  0.12314326391E+04  0.89388878155E+03 0.  0.
         23    2    4    4    0    0  0.33035488707E+02 -0.29286730260E+03  0.14530811153E+02  0.30908069561E+03  0.91962663519E+02 0.  0.
         23    2    4    4    0    0 -0.69343345038E+03  0.30928798908E+03  0.51555794003E+03  0.92235194349E+03  0.91782938628E+02 0.  0.
          3    1    3    3  502    0  0.31526754134E+03  0.23963010655E+02 -0.37050239193E+03  0.48707275732E+03  0.00000000000E+00 0. -1.
         -4    1    3    3    0  502  0.34513042034E+03 -0.40383697141E+02 -0.49264173272E+03  0.60286128326E+03  0.00000000000E+00 0.  1.
         13    1    5    5    0    0  0.10600728775E+02 -0.25074904062E+02  0.29235750728E+02  0.39948158717E+02  0.00000000000E+00 0.  1.
        -13    1    5    5    0    0  0.22434759932E+02 -0.26779239854E+03 -0.14704939575E+02  0.26913253689E+03  0.00000000000E+00 0. -1.
          2    1    6    6  503    0 -0.68854630605E+03  0.30049818262E+03  0.49561410288E+03  0.90001584003E+03  0.00000000000E+00 0. -1.
         -2    1    6    6    0  503 -0.48871443368E+01  0.87898064595E+01  0.19943837150E+02  0.22336103457E+02  0.00000000000E+00 0.  1.
<mgrwt>
<rscale>  0 0.22973501E+04</rscale>
<asrwt>0</asrwt>
<pdfrwt beam="1">  1        1 0.15294702E+00 0.22973501E+04</pdfrwt>
<pdfrwt beam="2">  1       -2 0.20418631E+00 0.22973501E+04</pdfrwt>
<totfact> 0.15135275E+00</totfact>
</mgrwt>
</event>
<event>
12    5  0.5095719E-008  0.2608385E+04  0.7818608E-02  0.8365359E-01
          1   -1    0    0  501    0  0.00000000000E+00  0.00000000000E+00  0.10597985718E+04  0.10597985718E+04  0.00000000000E+00 0. -1.
         -2   -1    0    0    0  501 -0.00000000000E+00 -0.00000000000E+00 -0.16049449754E+04  0.16049449754E+04  0.00000000000E+00 0.  1.
        -24    2    1    2    0    0 -0.97359960592E+03  0.39617379216E+03  0.23544127981E+03  0.10800724584E+04  0.79208919882E+02 0.  0.
        254    2    1    2    0    0  0.97359960592E+03 -0.39617379216E+03 -0.78058768341E+03  0.15846710887E+04  0.89275722439E+03 0.  0.
         23    2    4    4    0    0  0.41508811164E+03 -0.78376256838E+02  0.14336549431E+03  0.45521076517E+03  0.90676334883E+02 0.  0.
         23    2    4    4    0    0  0.55851149428E+03 -0.31779753533E+03 -0.92395317772E+03  0.11294603236E+04  0.95188156592E+02 0.  0.
          1    1    3    3  502    0 -0.49991465921E+03  0.18475614299E+03  0.82802644335E+02  0.53935681768E+03  0.00000000000E+00 0. -1.
         -2    1    3    3    0  502 -0.47368494671E+03  0.21141764917E+03  0.15263863548E+03  0.54071564076E+03  0.00000000000E+00 0.  1.
         13    1    5    5    0    0  0.41495425535E+03 -0.76284796443E+02  0.12971195683E+03  0.44139732209E+03  0.00000000000E+00 0. -1.
        -13    1    5    5    0    0  0.13385628802E+00 -0.20914603948E+01  0.13653537478E+02  0.13813443081E+02  0.00000000000E+00 0.  1.
          4    1    6    6  503    0  0.47154353532E+03 -0.30525306063E+03 -0.79612556369E+03  0.97434524163E+03  0.00000000000E+00 0. -1.
         -4    1    6    6    0  503  0.86967958965E+02 -0.12544474700E+02 -0.12782761402E+03  0.15511508192E+03  0.00000000000E+00 0.  1.
<mgrwt>
<rscale>  0 0.26083852E+04</rscale>
<asrwt>0</asrwt>
<pdfrwt beam="1">  1        1 0.16304593E+00 0.26083852E+04</pdfrwt>
<pdfrwt beam="2">  1       -2 0.24691461E+00 0.26083852E+04</pdfrwt>
<totfact> 0.70503428E-01</totfact>
</mgrwt>
</event>
<event>
12    5  0.5095719E-008  0.2374983E+04  0.7818608E-02  0.8448929E-01
          1   -1    0    0  501    0  0.00000000000E+00  0.00000000000E+00  0.31649274117E+04  0.31649274117E+04  0.00000000000E+00 0. -1.
         -2   -1    0    0    0  501 -0.00000000000E+00 -0.00000000000E+00 -0.44555088793E+03  0.44555088793E+03  0.00000000000E+00 0.  1.
        -24    2    1    2    0    0  0.34466375052E+03  0.36802926226E+03 -0.17031181946E+03  0.53827225737E+03  0.80574613845E+02 0.  0.
        254    2    1    2    0    0 -0.34466375052E+03 -0.36802926226E+03  0.28896883433E+04  0.30722060423E+04  0.91318815495E+03 0.  0.
         23    2    4    4    0    0 -0.35372997106E+03 -0.26715234089E+03  0.48378186472E+03  0.66244993098E+03  0.91102978815E+02 0.  0.
         23    2    4    4    0    0  0.90662205391E+01 -0.10087692137E+03  0.24059064785E+04  0.24097561113E+04  0.90995510485E+02 0.  0.
          1    1    3    3  502    0  0.26199830883E+03  0.24122259202E+03 -0.91917218171E+02  0.36780460536E+03  0.00000000000E+00 0. -1.
         -2    1    3    3    0  502  0.82665441696E+02  0.12680667025E+03 -0.78394601285E+02  0.17046765201E+03  0.00000000000E+00 0.  1.
         13    1    5    5    0    0 -0.29488509478E+03 -0.25442206539E+03  0.39124348661E+03  0.55205006322E+03  0.00000000000E+00 0.  1.
        -13    1    5    5    0    0 -0.58844876281E+02 -0.12730275501E+02  0.92538378103E+02  0.11039986776E+03  0.00000000000E+00 0. -1.
          2    1    6    6  503    0  0.35806937179E+02 -0.43075421943E+02  0.57009088811E+03  0.57283614536E+03  0.00000000000E+00 0. -1.
         -2    1    6    6    0  503 -0.26740716640E+02 -0.57801499427E+02  0.18358155904E+04  0.18369199660E+04  0.00000000000E+00 0.  1.
<mgrwt>
<rscale>  0 0.23749831E+04</rscale>
<asrwt>0</asrwt>
<pdfrwt beam="1">  1        1 0.48691190E+00 0.23749831E+04</pdfrwt>
<pdfrwt beam="2">  1       -2 0.68546292E-01 0.23749831E+04</pdfrwt>
<totfact> 0.69424456E-01</totfact>
</mgrwt>
</event>
<event>
12    5  0.5095719E-008  0.1409444E+04  0.7818608E-02  0.8947011E-01
          1   -1    0    0  501    0  0.00000000000E+00  0.00000000000E+00  0.21615597023E+04  0.21615597023E+04  0.00000000000E+00 0. -1.
         -2   -1    0    0    0  501 -0.00000000000E+00 -0.00000000000E+00 -0.22975679987E+03  0.22975679987E+03  0.00000000000E+00 0.  1.
        -24    2    1    2    0    0  0.16293825339E+03  0.62188983761E+02 -0.56996677936E+02  0.19984771643E+03  0.79209496565E+02 0.  0.
        254    2    1    2    0    0 -0.16293825339E+03 -0.62188983761E+02  0.19887995803E+04  0.21914687857E+04  0.90376729520E+03 0.  0.
         23    2    4    4    0    0 -0.41104286362E+03  0.26664872057E+03  0.11115768807E+04  0.12181058503E+04  0.90116173740E+02 0.  0.
         23    2    4    4    0    0  0.24810461023E+03 -0.32883770433E+03  0.87722269962E+03  0.97336293546E+03  0.90695126579E+02 0.  0.
          3    1    3    3  502    0  0.56944387818E+02 -0.15671885481E+02 -0.84856264398E+01  0.59668058076E+02  0.00000000000E+00 0. -1.
         -4    1    3    3    0  502  0.10599386558E+03  0.77860869242E+02 -0.48511051496E+02  0.14017965835E+03  0.00000000000E+00 0.  1.
         13    1    5    5    0    0 -0.37801542585E+03  0.20961894634E+03  0.96015139761E+03  0.10529608118E+04  0.00000000000E+00 0.  1.
        -13    1    5    5    0    0 -0.33027437774E+02  0.57029774223E+02  0.15142548312E+03  0.16514503847E+03  0.00000000000E+00 0. -1.
          3    1    6    6  503    0 -0.61157131772E+01 -0.24476244611E+02  0.53790272716E+02  0.59412809535E+02  0.00000000000E+00 0. -1.
         -3    1    6    6    0  503  0.25422032341E+03 -0.30436145972E+03  0.82343242690E+03  0.91395012592E+03  0.00000000000E+00 0.  1.
<mgrwt>
<rscale>  0 0.14094439E+04</rscale>
<asrwt>0</asrwt>
<pdfrwt beam="1">  1        1 0.33254763E+00 0.14094439E+04</pdfrwt>
<pdfrwt beam="2">  1       -2 0.35347201E-01 0.14094439E+04</pdfrwt>
<totfact> 0.14902908E+01</totfact>
</mgrwt>
</event>
<event>
12    5  0.5095719E-008  0.1240637E+04  0.7818608E-02  0.9078012E-01
         -2   -1    0    0    0  501 -0.00000000000E+00  0.00000000000E+00  0.14288768740E+04  0.14288768740E+04  0.00000000000E+00 0.  1.
          1   -1    0    0  501    0  0.00000000000E+00 -0.00000000000E+00 -0.26929896077E+03  0.26929896077E+03  0.00000000000E+00 0. -1.
        -24    2    1    2    0    0  0.19529698243E+03  0.18199654393E+03  0.11073905396E+03  0.29852306807E+03  0.74761158014E+02 0.  0.
        254    2    1    2    0    0 -0.19529698243E+03 -0.18199654393E+03  0.10488388592E+04  0.13996527666E+04  0.88752535807E+03 0.  0.
         23    2    4    4    0    0 -0.11790591928E+02  0.34703198771E+03  0.37092204127E+03  0.51583497484E+03  0.89063696361E+02 0.  0.
         23    2    4    4    0    0 -0.18350639051E+03 -0.52902853164E+03  0.67791681795E+03  0.88381779181E+03  0.89537111945E+02 0.  0.
          3    1    3    3  502    0  0.19569785309E+03  0.18662506887E+03  0.11332626069E+03  0.29320540138E+03  0.00000000000E+00 0. -1.
         -4    1    3    3    0  502 -0.40087066120E+00 -0.46285249359E+01 -0.25872067313E+01  0.53176666913E+01  0.00000000000E+00 0.  1.
         13    1    5    5    0    0 -0.23925685379E+02  0.31366590721E+03  0.36128390331E+03  0.47904571656E+03  0.00000000000E+00 0.  1.
        -13    1    5    5    0    0  0.12135093452E+02  0.33366080497E+02  0.96381379663E+01  0.36789258273E+02  0.00000000000E+00 0. -1.
          2    1    6    6  503    0 -0.59129281594E+02 -0.17692923884E+03  0.16285937148E+03  0.24763562421E+03  0.00000000000E+00 0.  1.
         -2    1    6    6    0  503 -0.12437710891E+03 -0.35209929280E+03  0.51505744647E+03  0.63618216760E+03  0.00000000000E+00 0. -1.
<mgrwt>
<rscale>  0 0.12406370E+04</rscale>
<asrwt>0</asrwt>
<pdfrwt beam="1">  1        1 0.41430610E-01 0.12406370E+04</pdfrwt>
<pdfrwt beam="2">  1       -2 0.21982721E+00 0.12406370E+04</pdfrwt>
<totfact> 0.86130141E+00</totfact>
</mgrwt>
</event>
<event>
12    5  0.5095719E-008  0.1473358E+04  0.7818608E-02  0.8902365E-01
          1   -1    0    0  501    0  0.00000000000E+00  0.00000000000E+00  0.14035286727E+04  0.14035286727E+04  0.00000000000E+00 0. -1.
         -2   -1    0    0    0  501 -0.00000000000E+00 -0.00000000000E+00 -0.38666535947E+03  0.38666535947E+03  0.00000000000E+00 0.  1.
        -24    2    1    2    0    0  0.50506230627E+01 -0.30938212229E+02 -0.23095714168E+03  0.24657653352E+03  0.80474243228E+02 0.  0.
        254    2    1    2    0    0 -0.50506230627E+01  0.30938212229E+02  0.12478204549E+04  0.15436174986E+04  0.90813898310E+03 0.  0.
         23    2    4    4    0    0  0.19795610582E+03 -0.35654374185E+03  0.36728733050E+03  0.55638108238E+03  0.91377601201E+02 0.  0.
         23    2    4    4    0    0 -0.20300672889E+03  0.38748195408E+03  0.88053312437E+03  0.98723641622E+03  0.89124416889E+02 0.  0.
          1    1    3    3  502    0 -0.35587595037E+01  0.12035873001E+02 -0.11233119451E+01  0.12601144307E+02  0.00000000000E+00 0. -1.
         -2    1    3    3    0  502  0.86093825664E+01 -0.42974085230E+02 -0.22983382973E+03  0.23397538922E+03  0.00000000000E+00 0.  1.
         13    1    5    5    0    0  0.41531379000E+02 -0.32699685877E+02  0.20258875391E+02  0.56608717794E+02  0.00000000000E+00 0. -1.
        -13    1    5    5    0    0  0.15642472682E+03 -0.32384405598E+03  0.34702845511E+03  0.49977236459E+03  0.00000000000E+00 0.  1.
          3    1    6    6  503    0 -0.20836168441E+03  0.36019053937E+03  0.84680655029E+03  0.94352167426E+03  0.00000000000E+00 0.  1.
         -3    1    6    6    0  503  0.53549555246E+01  0.27291414709E+02  0.33726574083E+02  0.43714741962E+02  0.00000000000E+00 0. -1.
<mgrwt>
<rscale>  0 0.14733580E+04</rscale>
<asrwt>0</asrwt>
<pdfrwt beam="1">  1        1 0.21592749E+00 0.14733580E+04</pdfrwt>
<pdfrwt beam="2">  1       -2 0.59486979E-01 0.14733580E+04</pdfrwt>
<totfact> 0.17135312E+01</totfact>
</mgrwt>
</event>
<event>
12    5  0.5095719E-008  0.3694879E+04  0.7818608E-02  0.8069098E-01
          1   -1    0    0  501    0  0.00000000000E+00  0.00000000000E+00  0.18849447279E+04  0.18849447279E+04  0.00000000000E+00 0. -1.
         -2   -1    0    0    0  501 -0.00000000000E+00 -0.00000000000E+00 -0.18106807938E+04  0.18106807938E+04  0.00000000000E+00 0.  1.
        -24    2    1    2    0    0  0.52103235083E+03 -0.14788661319E+04  0.77109061603E+03  0.17491380869E+04  0.79897197727E+02 0.  0.
        254    2    1    2    0    0 -0.52103235083E+03  0.14788661319E+04 -0.69682668197E+03  0.19464874348E+04  0.91908985544E+03 0.  0.
         23    2    4    4    0    0 -0.21424185689E+03  0.14380279880E+04 -0.40591900058E+03  0.15122528650E+04  0.91183469332E+02 0.  0.
         23    2    4    4    0    0 -0.30679049394E+03  0.40838143894E+02 -0.29090768139E+03  0.43423456980E+03  0.90245339773E+02 0.  0.
          1    1    3    3  502    0  0.45571764486E+03 -0.13248590818E+04  0.66325617430E+03  0.15501093223E+04  0.00000000000E+00 0. -1.
         -2    1    3    3    0  502  0.65314705972E+02 -0.15400705011E+03  0.10783444173E+03  0.19902876456E+03  0.00000000000E+00 0.  1.
         13    1    5    5    0    0 -0.15528457600E+03  0.12312776947E+04 -0.36286247797E+03  0.12929915850E+04  0.00000000000E+00 0. -1.
        -13    1    5    5    0    0 -0.58957280892E+02  0.20675029336E+03 -0.43056522617E+02  0.21926128001E+03  0.00000000000E+00 0.  1.
          4    1    6    6  503    0 -0.91188353739E+02  0.26868263648E+01 -0.35674168741E+02  0.97954995834E+02  0.00000000000E+00 0. -1.
         -4    1    6    6    0  503 -0.21560214020E+03  0.38151317529E+02 -0.25523351265E+03  0.33627957397E+03  0.00000000000E+00 0.  1.
<mgrwt>
<rscale>  0 0.36948793E+04</rscale>
<asrwt>0</asrwt>
<pdfrwt beam="1">  1        1 0.28999150E+00 0.36948793E+04</pdfrwt>
<pdfrwt beam="2">  1       -2 0.27856627E+00 0.36948793E+04</pdfrwt>
<totfact> 0.10813527E-01</totfact>
</mgrwt>
</event>
<event>
12    5  0.5095719E-008  0.1315283E+04  0.7818608E-02  0.9017533E-01
         -2   -1    0    0    0  501 -0.00000000000E+00  0.00000000000E+00  0.54986013772E+03  0.54986013772E+03  0.00000000000E+00 0.  1.
          1   -1    0    0  501    0  0.00000000000E+00 -0.00000000000E+00 -0.78654973753E+03  0.78654973753E+03  0.00000000000E+00 0. -1.
        -24    2    1    2    0    0  0.25328481032E+03 -0.10644131382E+03  0.15377939073E+03  0.32491372679E+03  0.80236403313E+02 0.  0.
        254    2    1    2    0    0 -0.25328481032E+03  0.10644131382E+03 -0.39046899054E+03  0.10114961485E+04  0.89172612240E+03 0.  0.
         23    2    4    4    0    0  0.10365825982E+03  0.22409502575E+03 -0.53703696367E+03  0.59813386128E+03  0.91606769749E+02 0.  0.
         23    2    4    4    0    0 -0.35694307014E+03 -0.11765371193E+03  0.14656797313E+03  0.41336228719E+03  0.90196776397E+02 0.  0.
          1    1    3    3  502    0  0.15408480605E+03 -0.56382275838E+02  0.46681985431E+02  0.17058808941E+03  0.00000000000E+00 0. -1.
         -2    1    3    3    0  502  0.99200004263E+02 -0.50059037979E+02  0.10709740530E+03  0.15432563738E+03  0.00000000000E+00 0.  1.
         13    1    5    5    0    0  0.80602934366E+02  0.67770125939E+02 -0.21028737539E+03  0.23518163884E+03  0.00000000000E+00 0. -1.
        -13    1    5    5    0    0  0.23055325459E+02  0.15632489981E+03 -0.32674958828E+03  0.36295222244E+03  0.00000000000E+00 0.  1.
          4    1    6    6  503    0 -0.18106514608E+02 -0.45320419824E+01 -0.12356332139E+02  0.22384463802E+02  0.00000000000E+00 0. -1.
         -4    1    6    6    0  503 -0.33883655553E+03 -0.11312166995E+03  0.15892430527E+03  0.39097782339E+03  0.00000000000E+00 0.  1.
<mgrwt>
<rscale>  0 0.13152830E+04</rscale>
<asrwt>0</asrwt>
<pdfrwt beam="1">  1        1 0.12100765E+00 0.13152830E+04</pdfrwt>
<pdfrwt beam="2">  1       -2 0.84593868E-01 0.13152830E+04</pdfrwt>
<totfact> 0.23796652E+01</totfact>
</mgrwt>
</event>
<event>
12    5  0.5095719E-008  0.3924349E+04  0.7818608E-02  0.8019984E-01
         -2   -1    0    0    0  501 -0.00000000000E+00  0.00000000000E+00  0.14431557432E+04  0.14431557432E+04  0.00000000000E+00 0.  1.
          1   -1    0    0  501    0  0.00000000000E+00 -0.00000000000E+00 -0.26678545093E+04  0.26678545093E+04  0.00000000000E+00 0. -1.
        -24    2    1    2    0    0 -0.15446475659E+04  0.94463167746E+03 -0.14540425364E+03  0.18182421839E+04  0.81222739042E+02 0.  0.
        254    2    1    2    0    0  0.15446475659E+04 -0.94463167746E+03 -0.10792945125E+04  0.22927680686E+04  0.90202198564E+03 0.  0.
         23    2    4    4    0    0  0.36542136506E+03  0.15055445990E+03 -0.28127508184E+03  0.49410321129E+03  0.93930252358E+02 0.  0.
         23    2    4    4    0    0  0.11792262009E+04 -0.10951861374E+04 -0.79801943064E+03  0.17986648573E+04  0.91395562519E+02 0.  0.
          3    1    3    3  502    0 -0.68714805923E+03  0.39753900594E+03 -0.28288095558E+02  0.79436133648E+03  0.00000000000E+00 0. -1.
         -4    1    3    3    0  502 -0.85749950669E+03  0.54709267153E+03 -0.11711615809E+03  0.10238808474E+04  0.00000000000E+00 0.  1.
         13    1    5    5    0    0  0.10557635957E+03  0.91542334972E+02 -0.93874832090E+02  0.16834147110E+03  0.00000000000E+00 0. -1.
        -13    1    5    5    0    0  0.25984500549E+03  0.59012124924E+02 -0.18740024975E+03  0.32576174019E+03  0.00000000000E+00 0.  1.
          1    1    6    6  503    0  0.72877377271E+03 -0.61565665436E+03 -0.47546288003E+03  0.10659311789E+04  0.00000000000E+00 0. -1.
         -1    1    6    6    0  503  0.45045242816E+03 -0.47952948299E+03 -0.32255655061E+03  0.73273367838E+03  0.00000000000E+00 0.  1.
<mgrwt>
<rscale>  0 0.39243494E+04</rscale>
<asrwt>0</asrwt>
<pdfrwt beam="1">  1        1 0.41043915E+00 0.39243494E+04</pdfrwt>
<pdfrwt beam="2">  1       -2 0.22202396E+00 0.39243494E+04</pdfrwt>
<totfact> 0.68760764E-02</totfact>
</mgrwt>
</event>
<event>
12    5  0.5095719E-008  0.1760596E+04  0.7818608E-02  0.8727539E-01
          1   -1    0    0  501    0  0.00000000000E+00  0.00000000000E+00  0.28932103598E+04  0.28932103598E+04  0.00000000000E+00 0. -1.
         -2   -1    0    0    0  501 -0.00000000000E+00 -0.00000000000E+00 -0.26784259362E+03  0.26784259362E+03  0.00000000000E+00 0.  1.
        -24    2    1    2    0    0 -0.11378606978E+03 -0.34199635353E+03  0.48997470620E+01  0.36869476406E+03  0.77479326434E+02 0.  0.
        254    2    1    2    0    0  0.11378606978E+03  0.34199635353E+03  0.26204680191E+04  0.27923581893E+04  0.89470824456E+03 0.  0.
         23    2    4    4    0    0 -0.28717822254E+03  0.40808307619E+03  0.18243102787E+04  0.18937072501E+04  0.94952763683E+02 0.  0.
         23    2    4    4    0    0  0.40096429232E+03 -0.66086722664E+02  0.79615774036E+03  0.89865093925E+03  0.92555628924E+02 0.  0.
          1    1    3    3  502    0 -0.42353650474E+02 -0.94560382798E+02  0.35084958555E+02  0.10939127945E+03  0.00000000000E+00 0. -1.
         -2    1    3    3    0  502 -0.71432419306E+02 -0.24743597073E+03 -0.30185211493E+02  0.25930348461E+03  0.00000000000E+00 0.  1.
         13    1    5    5    0    0 -0.24978871063E+03  0.33675799939E+03  0.16365203648E+04  0.16893783633E+04  0.00000000000E+00 0.  1.
        -13    1    5    5    0    0 -0.37389511909E+02  0.71325076805E+02  0.18778991397E+03  0.20432888677E+03  0.00000000000E+00 0. -1.
          3    1    6    6  503    0  0.42441429373E+00 -0.24848296331E+01 -0.20980446210E+01  0.32796794097E+01  0.00000000000E+00 0. -1.
         -3    1    6    6    0  503  0.40053987802E+03 -0.63601893031E+02  0.79825578498E+03  0.89537125984E+03  0.00000000000E+00 0.  1.
<mgrwt>
<rscale>  0 0.17605965E+04</rscale>
<asrwt>0</asrwt>
<pdfrwt beam="1">  1        1 0.44510926E+00 0.17605965E+04</pdfrwt>
<pdfrwt beam="2">  1       -2 0.41206555E-01 0.17605965E+04</pdfrwt>
<totfact> 0.33241463E+00</totfact>
</mgrwt>
</event>
<event>
12    5  0.5095719E-008  0.1761306E+04  0.7818608E-02  0.8727152E-01
          1   -1    0    0  501    0  0.00000000000E+00  0.00000000000E+00  0.62809447960E+03  0.62809447960E+03  0.00000000000E+00 0. -1.
         -2   -1    0    0    0  501 -0.00000000000E+00 -0.00000000000E+00 -0.12347657820E+04  0.12347657820E+04  0.00000000000E+00 0.  1.
        -24    2    1    2    0    0  0.63463587604E+03 -0.95955969983E+02 -0.29575108346E+03  0.71120281289E+03  0.79815376792E+02 0.  0.
        254    2    1    2    0    0 -0.63463587604E+03  0.95955969983E+02 -0.31092021895E+03  0.11516574487E+04  0.90425287022E+03 0.  0.
         23    2    4    4    0    0 -0.59009465746E+03  0.26152369872E+03 -0.54424511969E+03  0.84929221416E+03  0.92131237663E+02 0.  0.
         23    2    4    4    0    0 -0.44541218573E+02 -0.16556772874E+03  0.23332490074E+03  0.30236523456E+03  0.87107019316E+02 0.  0.
          1    1    3    3  502    0  0.54824458859E+03 -0.78099035825E+02 -0.22352232433E+03  0.59718825992E+03  0.00000000000E+00 0. -1.
         -2    1    3    3    0  502  0.86391287450E+02 -0.17856934159E+02 -0.72228759126E+02  0.11401455297E+03  0.00000000000E+00 0.  1.
         13    1    5    5    0    0 -0.39888522363E+03  0.17325175583E+03 -0.42098411266E+03  0.60527119182E+03  0.00000000000E+00 0.  1.
        -13    1    5    5    0    0 -0.19120943383E+03  0.88271942894E+02 -0.12326100703E+03  0.24402102234E+03  0.00000000000E+00 0. -1.
          2    1    6    6  503    0 -0.97667794162E+00 -0.14076118159E+03  0.15508603821E+03  0.20944293588E+03  0.00000000000E+00 0. -1.
         -2    1    6    6    0  503 -0.43564540631E+02 -0.24806547145E+02  0.78238862531E+02  0.92922298679E+02  0.00000000000E+00 0.  1.
<mgrwt>
<rscale>  0 0.17613058E+04</rscale>
<asrwt>0</asrwt>
<pdfrwt beam="1">  1        1 0.96629920E-01 0.17613058E+04</pdfrwt>
<pdfrwt beam="2">  1       -2 0.18996397E+00 0.17613058E+04</pdfrwt>
<totfact> 0.41147301E+00</totfact>
</mgrwt>
</event>
<event>
12    5  0.5095719E-008  0.1545920E+04  0.7818608E-02  0.8854478E-01
         -2   -1    0    0    0  501 -0.00000000000E+00  0.00000000000E+00  0.60256042688E+03  0.60256042688E+03  0.00000000000E+00 0.  1.
          1   -1    0    0  501    0  0.00000000000E+00 -0.00000000000E+00 -0.99154706948E+03  0.99154706948E+03  0.00000000000E+00 0. -1.
        -24    2    1    2    0    0 -0.94410245971E+00  0.45489479419E+03 -0.35966878480E+03  0.58533541173E+03  0.79534548235E+02 0.  0.
        254    2    1    2    0    0  0.94410245971E+00 -0.45489479419E+03 -0.29317857799E+02  0.10087720846E+04  0.89990633781E+03 0.  0.
         23    2    4    4    0    0  0.71751119854E+01 -0.51734834396E+03 -0.37575217725E+03  0.64588616867E+03  0.90986004071E+02 0.  0.
         23    2    4    4    0    0 -0.62310095257E+01  0.62453549768E+02  0.34643431945E+03  0.36288591596E+03  0.87921436230E+02 0.  0.
          1    1    3    3  502    0 -0.36274807225E+02  0.31306459982E+03 -0.25789812015E+03  0.40723058048E+03  0.00000000000E+00 0. -1.
         -2    1    3    3    0  502  0.35330704765E+02  0.14183019437E+03 -0.10177066465E+03  0.17810483126E+03  0.00000000000E+00 0.  1.
         13    1    5    5    0    0  0.48279193591E+02 -0.24637576176E+03 -0.18862524337E+03  0.31402448782E+03  0.00000000000E+00 0. -1.
        -13    1    5    5    0    0 -0.41104081606E+02 -0.27097258220E+03 -0.18712693388E+03  0.33186168084E+03  0.00000000000E+00 0.  1.
          1    1    6    6  503    0 -0.39120993385E+02  0.63949103485E+02  0.23219385202E+03  0.24399574766E+03  0.00000000000E+00 0. -1.
         -1    1    6    6    0  503  0.32889983860E+02 -0.14955537171E+01  0.11424046743E+03  0.11889016830E+03  0.00000000000E+00 0.  1.
<mgrwt>
<rscale>  0 0.15459198E+04</rscale>
<asrwt>0</asrwt>
<pdfrwt beam="1">  1        1 0.15254570E+00 0.15459198E+04</pdfrwt>
<pdfrwt beam="2">  1       -2 0.92701605E-01 0.15459198E+04</pdfrwt>
<totfact> 0.12809440E+01</totfact>
</mgrwt>
</event>
<event>
12    5  0.5095719E-008  0.2438064E+04  0.7818608E-02  0.8425389E-01
         -2   -1    0    0    0  501 -0.00000000000E+00  0.00000000000E+00  0.74459190830E+03  0.74459190830E+03  0.00000000000E+00 0.  1.
          1   -1    0    0  501    0  0.00000000000E+00 -0.00000000000E+00 -0.19957757637E+04  0.19957757637E+04  0.00000000000E+00 0. -1.
        -24    2    1    2    0    0  0.45660217007E+03 -0.51749386895E+03 -0.14366430863E+04  0.15957221514E+04  0.78104935211E+02 0.  0.
        254    2    1    2    0    0 -0.45660217007E+03  0.51749386895E+03  0.18545923091E+03  0.11446455206E+04  0.89416597752E+03 0.  0.
         23    2    4    4    0    0 -0.35078200035E+03  0.71021911474E+03  0.33312923660E+03  0.86449196646E+03  0.94403755748E+02 0.  0.
         23    2    4    4    0    0 -0.10582016971E+03 -0.19272524578E+03 -0.14767000568E+03  0.28015355412E+03  0.91316234214E+02 0.  0.
          3    1    3    3  502    0  0.34445655777E+03 -0.42499370033E+03 -0.11832246083E+04  0.13035683485E+04  0.00000000000E+00 0. -1.
         -4    1    3    3    0  502  0.11214561229E+03 -0.92500168621E+02 -0.25341847796E+03  0.29215380286E+03  0.00000000000E+00 0.  1.
         13    1    5    5    0    0 -0.79069914980E+02  0.10861490272E+03  0.27857481210E+02  0.13720527617E+03  0.00000000000E+00 0. -1.
        -13    1    5    5    0    0 -0.27171208537E+03  0.60160421201E+03  0.30527175539E+03  0.72728669030E+03  0.00000000000E+00 0.  1.
          4    1    6    6  503    0 -0.38535121835E+02 -0.14180579653E+03 -0.12463457601E+03  0.19268527987E+03  0.00000000000E+00 0. -1.
         -4    1    6    6    0  503 -0.67285047878E+02 -0.50919449255E+02 -0.23035429677E+02  0.87468274253E+02  0.00000000000E+00 0.  1.
<mgrwt>
<rscale>  0 0.24380636E+04</rscale>
<asrwt>0</asrwt>
<pdfrwt beam="1">  1        1 0.30704242E+00 0.24380636E+04</pdfrwt>
<pdfrwt beam="2">  1       -2 0.11455260E+00 0.24380636E+04</pdfrwt>
<totfact> 0.14014062E+00</totfact>
</mgrwt>
</event>
<event>
12    5  0.5095719E-008  0.2653708E+04  0.7818608E-02  0.8350183E-01
         -2   -1    0    0    0  501 -0.00000000000E+00  0.00000000000E+00  0.13898539206E+04  0.13898539206E+04  0.00000000000E+00 0.  1.
          1   -1    0    0  501    0  0.00000000000E+00 -0.00000000000E+00 -0.12667097527E+04  0.12667097527E+04  0.00000000000E+00 0. -1.
        -24    2    1    2    0    0 -0.87106864301E+03  0.74901206267E+03  0.29595857303E+03  0.11889944122E+04  0.79602665448E+02 0.  0.
        254    2    1    2    0    0  0.87106864301E+03 -0.74901206267E+03 -0.17281440508E+03  0.14675692612E+04  0.89672463269E+03 0.  0.
         23    2    4    4    0    0 -0.91695427782E+02 -0.36919794971E+03  0.78425215212E+02  0.39858566783E+03  0.89469786362E+02 0.  0.
         23    2    4    4    0    0  0.96276407079E+03 -0.37981411297E+03 -0.25123962029E+03  0.10689835933E+04  0.91821346224E+02 0.  0.
          1    1    3    3  502    0 -0.27213246009E+03  0.26621688947E+03  0.68786576440E+02  0.38685798579E+03  0.00000000000E+00 0. -1.
         -2    1    3    3    0  502 -0.59893618292E+03  0.48279517321E+03  0.22717199659E+03  0.80213642638E+03  0.00000000000E+00 0.  1.
         13    1    5    5    0    0 -0.96819527742E+02 -0.20710682950E+03  0.45308189388E+02  0.23306671106E+03  0.00000000000E+00 0.  1.
        -13    1    5    5    0    0  0.51240999600E+01 -0.16209112021E+03  0.33117025824E+02  0.16551895677E+03  0.00000000000E+00 0. -1.
          1    1    6    6  503    0  0.36579613949E+02 -0.31076120382E+02 -0.23553892214E+02  0.53465682947E+02  0.00000000000E+00 0. -1.
         -1    1    6    6    0  503  0.92618445684E+03 -0.34873799258E+03 -0.22768572808E+03  0.10155179104E+04  0.00000000000E+00 0.  1.
<mgrwt>
<rscale>  0 0.26537080E+04</rscale>
<asrwt>0</asrwt>
<pdfrwt beam="1">  1        1 0.19487842E+00 0.26537080E+04</pdfrwt>
<pdfrwt beam="2">  1       -2 0.21382368E+00 0.26537080E+04</pdfrwt>
<totfact> 0.79575114E-01</totfact>
</mgrwt>
</event>
<event>
12    5  0.5095719E-008  0.2605232E+04  0.7818608E-02  0.8366426E-01
         -2   -1    0    0    0  501 -0.00000000000E+00  0.00000000000E+00  0.39715529837E+04  0.39715529837E+04  0.00000000000E+00 0.  1.
          1   -1    0    0  501    0  0.00000000000E+00 -0.00000000000E+00 -0.42724067125E+03  0.42724067125E+03  0.00000000000E+00 0. -1.
        -24    2    1    2    0    0  0.31934331754E+03  0.97551055149E+03  0.71915424714E+03  0.12559246332E+04  0.81011496806E+02 0.  0.
        254    2    1    2    0    0 -0.31934331754E+03 -0.97551055149E+03  0.28251580653E+04  0.31428690218E+04  0.91788158455E+03 0.  0.
         23    2    4    4    0    0  0.23604961606E+03 -0.48662499119E+03  0.69198385757E+03  0.88315964221E+03  0.92768481654E+02 0.  0.
         23    2    4    4    0    0 -0.55539293360E+03 -0.48888556030E+03  0.21331742078E+04  0.22597093796E+04  0.91563516751E+02 0.  0.
          3    1    3    3  502    0  0.30416929951E+03  0.85756058761E+03  0.65157724025E+03  0.11191434333E+04  0.00000000000E+00 0. -1.
         -2    1    3    3    0  502  0.15174018031E+02  0.11794996389E+03  0.67577006890E+02  0.13678119997E+03  0.00000000000E+00 0.  1.
         13    1    5    5    0    0  0.14580118066E+02 -0.13972567707E+02  0.57962766719E+01  0.21009743321E+02  0.00000000000E+00 0. -1.
        -13    1    5    5    0    0  0.22146949799E+03 -0.47265242348E+03  0.68618758090E+03  0.86214989889E+03  0.00000000000E+00 0.  1.
          1    1    6    6  503    0 -0.52485197039E+03 -0.46457190351E+03  0.19427923114E+04  0.20653664589E+04  0.00000000000E+00 0.  1.
         -1    1    6    6    0  503 -0.30540963213E+02 -0.24313656798E+02  0.19038189640E+03  0.19434292068E+03  0.00000000000E+00 0. -1.
<mgrwt>
<rscale>  0 0.26052324E+04</rscale>
<asrwt>0</asrwt>
<pdfrwt beam="1">  1        1 0.65729337E-01 0.26052324E+04</pdfrwt>
<pdfrwt beam="2">  1       -2 0.61100813E+00 0.26052324E+04</pdfrwt>
<totfact> 0.19181833E-02</totfact>
</mgrwt>
</event>
<event>
12    5  0.5095719E-008  0.1705725E+04  0.7818608E-02  0.8758106E-01
          1   -1    0    0  501    0  0.00000000000E+00  0.00000000000E+00  0.65697946739E+03  0.65697946739E+03  0.00000000000E+00 0. -1.
         -2   -1    0    0    0  501 -0.00000000000E+00 -0.00000000000E+00 -0.11071488314E+04  0.11071488314E+04  0.00000000000E+00 0.  1.
        -24    2    1    2    0    0 -0.30810743084E+03 -0.49969772176E+03 -0.13419177177E+02  0.59267489364E+03  0.80345834726E+02 0.  0.
        254    2    1    2    0    0  0.30810743084E+03  0.49969772176E+03 -0.43675018682E+03  0.11714534051E+04  0.91483569709E+03 0.  0.
         23    2    4    4    0    0 -0.17944068200E+03 -0.12650946453E+03 -0.26081039170E+03  0.35326540702E+03  0.92578531003E+02 0.  0.
         23    2    4    4    0    0  0.48754811284E+03  0.62620718629E+03 -0.17593979511E+03  0.81818799813E+03  0.92941843535E+02 0.  0.
          3    1    3    3  502    0 -0.27479765271E+03 -0.47417895985E+03 -0.26589706695E+02  0.54869522360E+03  0.00000000000E+00 0. -1.
         -4    1    3    3    0  502 -0.33309778134E+02 -0.25518761909E+02  0.13170529518E+02  0.43979670036E+02  0.00000000000E+00 0.  1.
         13    1    5    5    0    0 -0.18372011998E+03 -0.96409500967E+02 -0.23392929642E+03  0.31268321043E+03  0.00000000000E+00 0. -1.
        -13    1    5    5    0    0  0.42794379824E+01 -0.30099963567E+02 -0.26881095285E+02  0.40582196588E+02  0.00000000000E+00 0.  1.
          1    1    6    6  503    0  0.22415131663E+03  0.29667973782E+03 -0.12966803009E+03  0.39379750838E+03  0.00000000000E+00 0. -1.
         -1    1    6    6    0  503  0.26339679621E+03  0.32952744848E+03 -0.46271765026E+02  0.42439048975E+03  0.00000000000E+00 0.  1.
<mgrwt>
<rscale>  0 0.17057245E+04</rscale>
<asrwt>0</asrwt>
<pdfrwt beam="1">  1        1 0.10107376E+00 0.17057245E+04</pdfrwt>
<pdfrwt beam="2">  1       -2 0.17033059E+00 0.17057245E+04</pdfrwt>
<totfact> 0.52876813E+00</totfact>
</mgrwt>
</event>
<event>
12    5  0.5095719E-008  0.1496581E+04  0.7818608E-02  0.8886729E-01
          1   -1    0    0  501    0  0.00000000000E+00  0.00000000000E+00  0.11966482009E+04  0.11966482009E+04  0.00000000000E+00 0. -1.
         -2   -1    0    0    0  501 -0.00000000000E+00 -0.00000000000E+00 -0.46792278794E+03  0.46792278794E+03  0.00000000000E+00 0.  1.
        -24    2    1    2    0    0 -0.39858374860E+03 -0.10550655890E+02  0.46591967885E+03  0.61853861431E+03  0.80799438557E+02 0.  0.
        254    2    1    2    0    0  0.39858374860E+03  0.10550655890E+02  0.26280573408E+03  0.10460323745E+04  0.93066457633E+03 0.  0.
         23    2    4    4    0    0  0.31453517618E+03 -0.16155067682E+03  0.56701070717E+03  0.67469956238E+03  0.93206004101E+02 0.  0.
         23    2    4    4    0    0  0.84048572418E+02  0.17210133271E+03 -0.30420497309E+03  0.37133281211E+03  0.93082546442E+02 0.  0.
          1    1    3    3  502    0 -0.32866195042E+03 -0.20243580794E+02  0.42250243180E+03  0.53566480666E+03  0.00000000000E+00 0. -1.
         -2    1    3    3    0  502 -0.69921798175E+02  0.96929249033E+01  0.43417247048E+02  0.82873807651E+02  0.00000000000E+00 0.  1.
         13    1    5    5    0    0  0.20923939696E+03 -0.83632778698E+02  0.42801456523E+03  0.48370655873E+03  0.00000000000E+00 0. -1.
        -13    1    5    5    0    0  0.10529577922E+03 -0.77917898126E+02  0.13899614194E+03  0.19099300365E+03  0.00000000000E+00 0.  1.
          1    1    6    6  503    0  0.38082689875E+02  0.16113477417E+03 -0.23139647343E+03  0.28453301149E+03  0.00000000000E+00 0. -1.
         -1    1    6    6    0  503  0.45965882544E+02  0.10966558540E+02 -0.72808499663E+02  0.86799800618E+02  0.00000000000E+00 0.  1.
<mgrwt>
<rscale>  0 0.14965814E+04</rscale>
<asrwt>0</asrwt>
<pdfrwt beam="1">  1        1 0.18409972E+00 0.14965814E+04</pdfrwt>
<pdfrwt beam="2">  1       -2 0.71988121E-01 0.14965814E+04</pdfrwt>
<totfact> 0.15943217E+01</totfact>
</mgrwt>
</event>
<event>
12    5  0.5095719E-008  0.2085224E+04  0.7818608E-02  0.8567780E-01
          1   -1    0    0  501    0  0.00000000000E+00  0.00000000000E+00  0.70073654269E+03  0.70073654269E+03  0.00000000000E+00 0. -1.
         -4   -1    0    0    0  501 -0.00000000000E+00 -0.00000000000E+00 -0.15512816171E+04  0.15512816171E+04  0.00000000000E+00 0.  1.
        -24    2    1    2    0    0  0.46845044141E+03  0.33037448915E+03  0.32086915801E+03  0.66169175447E+03  0.79283303662E+02 0.  0.
        254    2    1    2    0    0 -0.46845044141E+03 -0.33037448915E+03 -0.11714142324E+04  0.15903264054E+04  0.91012837142E+03 0.  0.
         23    2    4    4    0    0 -0.44101090872E+03  0.20067512960E+03 -0.33975560878E+03  0.59885891792E+03  0.91853147069E+02 0.  0.
         23    2    4    4    0    0 -0.27439532682E+02 -0.53104961875E+03 -0.83165862366E+03  0.99146748743E+03  0.92655743434E+02 0.  0.
          1    1    3    3  502    0  0.38586185906E+03  0.26407801605E+03  0.22523582843E+03  0.51899687017E+03  0.00000000000E+00 0. -1.
         -2    1    3    3    0  502  0.82588582342E+02  0.66296473099E+02  0.95633329575E+02  0.14269488430E+03  0.00000000000E+00 0.  1.
         13    1    5    5    0    0 -0.10531761562E+03  0.33647687457E+02 -0.12452774548E+03  0.16652665380E+03  0.00000000000E+00 0. -1.
        -13    1    5    5    0    0 -0.33569329310E+03  0.16702744214E+03 -0.21522786330E+03  0.43233226412E+03  0.00000000000E+00 0.  1.
          3    1    6    6  503    0  0.13001617692E+02 -0.43484307984E+03 -0.65586082510E+03  0.78702666286E+03  0.00000000000E+00 0. -1.
         -3    1    6    6    0  503 -0.40441150374E+02 -0.96206538906E+02 -0.17579779856E+03  0.20444082457E+03  0.00000000000E+00 0.  1.
<mgrwt>
<rscale>  0 0.20852239E+04</rscale>
<asrwt>0</asrwt>
<pdfrwt beam="1">  1        1 0.10780562E+00 0.20852239E+04</pdfrwt>
<pdfrwt beam="2">  1       -4 0.23865871E+00 0.20852239E+04</pdfrwt>
<totfact> 0.89314152E-01</totfact>
</mgrwt>
</event>
<event>
12    5  0.5095719E-008  0.2099617E+04  0.7818608E-02  0.8561412E-01
         -2   -1    0    0    0  501 -0.00000000000E+00  0.00000000000E+00  0.11007913365E+04  0.11007913365E+04  0.00000000000E+00 0.  1.
          1   -1    0    0  501    0  0.00000000000E+00 -0.00000000000E+00 -0.10011871663E+04  0.10011871663E+04  0.00000000000E+00 0. -1.
        -24    2    1    2    0    0  0.59217011055E+03  0.28622351945E+03  0.58712631959E+03  0.88534709030E+03  0.80825814095E+02 0.  0.
        254    2    1    2    0    0 -0.59217011055E+03 -0.28622351945E+03 -0.48752214942E+03  0.12166314125E+04  0.89995822391E+03 0.  0.
         23    2    4    4    0    0 -0.59328938878E+03 -0.17293924431E+03 -0.71277553585E+03  0.94855491735E+03  0.99031235783E+02 0.  0.
         23    2    4    4    0    0  0.11192782320E+01 -0.11328427514E+03  0.22525338643E+03  0.26807649515E+03  0.91056792040E+02 0.  0.
          1    1    3    3  502    0  0.48043625655E+03  0.25064936474E+03  0.44573007321E+03  0.70165475757E+03  0.00000000000E+00 0. -1.
         -2    1    3    3    0  502  0.11173385401E+03  0.35574154708E+02  0.14139624638E+03  0.18369233273E+03  0.00000000000E+00 0.  1.
         13    1    5    5    0    0 -0.48333886696E+03 -0.17395182884E+03 -0.55496044278E+03  0.75621213434E+03  0.00000000000E+00 0.  1.
        -13    1    5    5    0    0 -0.10995052182E+03  0.10125845246E+01 -0.15781509307E+03  0.19234278302E+03  0.00000000000E+00 0. -1.
          4    1    6    6  503    0 -0.39845374782E+02 -0.33893250736E+02  0.11372706837E+03  0.12518087880E+03  0.00000000000E+00 0. -1.
         -4    1    6    6    0  503  0.40964653014E+02 -0.79391024401E+02  0.11152631805E+03  0.14289561635E+03  0.00000000000E+00 0.  1.
<mgrwt>
<rscale>  0 0.20996173E+04</rscale>
<asrwt>0</asrwt>
<pdfrwt beam="1">  1        1 0.15402880E+00 0.20996173E+04</pdfrwt>
<pdfrwt beam="2">  1       -2 0.16935251E+00 0.20996173E+04</pdfrwt>
<totfact> 0.26221457E+00</totfact>
</mgrwt>
</event>
<event>
12    5  0.5095719E-008  0.1155042E+04  0.7818608E-02  0.9153145E-01
         -2   -1    0    0    0  501 -0.00000000000E+00  0.00000000000E+00  0.63693729131E+03  0.63693729131E+03  0.00000000000E+00 0.  1.
          1   -1    0    0  501    0  0.00000000000E+00 -0.00000000000E+00 -0.52364692332E+03  0.52364692332E+03  0.00000000000E+00 0. -1.
        -24    2    1    2    0    0  0.45676081435E+02  0.13658485043E+03  0.17389702613E+03  0.23978377526E+03  0.80711569163E+02 0.  0.
        254    2    1    2    0    0 -0.45676081435E+02 -0.13658485043E+03 -0.60606658138E+02  0.92080043938E+03  0.90744617271E+03 0.  0.
         23    2    4    4    0    0 -0.10310760189E+03  0.36153624840E+03 -0.12627844040E+03  0.40685150249E+03  0.90786915858E+02 0.  0.
         23    2    4    4    0    0  0.57431520459E+02 -0.49812109883E+03  0.65671782265E+02  0.51394893689E+03  0.91693609938E+02 0.  0.
          1    1    3    3  502    0  0.25459073995E+01  0.41880843746E+02  0.61871435347E+01  0.42411878789E+02  0.00000000000E+00 0. -1.
         -2    1    3    3    0  502  0.43130174036E+02  0.94704006683E+02  0.16770988260E+03  0.19737189647E+03  0.00000000000E+00 0.  1.
         13    1    5    5    0    0 -0.98547842480E+02  0.20862853191E+03 -0.50756967668E+02  0.23624946847E+03  0.00000000000E+00 0. -1.
        -13    1    5    5    0    0 -0.45597594144E+01  0.15290771649E+03 -0.75521472734E+02  0.17060203402E+03  0.00000000000E+00 0.  1.
          3    1    6    6  503    0  0.72970305718E+02 -0.43100369374E+03  0.34996990483E+02  0.43853578973E+03  0.00000000000E+00 0. -1.
         -3    1    6    6    0  503 -0.15538785259E+02 -0.67117405089E+02  0.30674791781E+02  0.75413147156E+02  0.00000000000E+00 0.  1.
<mgrwt>
<rscale>  0 0.11550416E+04</rscale>
<asrwt>0</asrwt>
<pdfrwt beam="1">  1        1 0.80561065E-01 0.11550416E+04</pdfrwt>
<pdfrwt beam="2">  1       -2 0.97990352E-01 0.11550416E+04</pdfrwt>
<totfact> 0.31284314E+01</totfact>
</mgrwt>
</event>
<event>
12    5  0.5095719E-008  0.4487441E+04  0.7818608E-02  0.7912839E-01
         -2   -1    0    0    0  501 -0.00000000000E+00  0.00000000000E+00  0.24801721055E+04  0.24801721055E+04  0.00000000000E+00 0.  1.
          1   -1    0    0  501    0  0.00000000000E+00 -0.00000000000E+00 -0.20298118337E+04  0.20298118337E+04  0.00000000000E+00 0. -1.
        -24    2    1    2    0    0 -0.15951184542E+04  0.82594081410E+03 -0.97452755313E+03  0.20451372438E+04  0.79380618471E+02 0.  0.
        254    2    1    2    0    0  0.15951184542E+04 -0.82594081410E+03  0.14248878250E+04  0.24648466954E+04  0.90475566134E+03 0.  0.
         23    2    4    4    0    0  0.97277136103E+03 -0.92284494470E+03  0.75916836316E+03  0.15435139391E+04  0.90397808119E+02 0.  0.
         23    2    4    4    0    0  0.62234709319E+03  0.96904130595E+02  0.66571946182E+03  0.92133275634E+03  0.94685432492E+02 0.  0.
          1    1    3    3  502    0 -0.74125861679E+03  0.37482356293E+03 -0.40660349231E+03  0.92481535468E+03  0.00000000000E+00 0. -1.
         -2    1    3    3    0  502 -0.85385983743E+03  0.45111725117E+03 -0.56792406082E+03  0.11203218891E+04  0.00000000000E+00 0.  1.
         13    1    5    5    0    0  0.90031844610E+03 -0.88309426116E+03  0.71792307362E+03  0.14511520658E+04  0.00000000000E+00 0. -1.
        -13    1    5    5    0    0  0.72452914932E+02 -0.39750683539E+02  0.41245289535E+02  0.92361873264E+02  0.00000000000E+00 0.  1.
          3    1    6    6  503    0  0.61440844379E+03  0.10516790181E+03  0.66199650583E+03  0.90928400245E+03  0.00000000000E+00 0. -1.
         -3    1    6    6    0  503  0.79386493992E+01 -0.82637712176E+01  0.37229559887E+01  0.12048753891E+02  0.00000000000E+00 0.  1.
<mgrwt>
<rscale>  0 0.44874414E+04</rscale>
<asrwt>0</asrwt>
<pdfrwt beam="1">  1        1 0.31227874E+00 0.44874414E+04</pdfrwt>
<pdfrwt beam="2">  1       -2 0.38156494E+00 0.44874414E+04</pdfrwt>
<totfact> 0.18386348E-02</totfact>
</mgrwt>
</event>
<event>
12    5  0.5095719E-008  0.1606779E+04  0.7818608E-02  0.8816394E-01
         -2   -1    0    0    0  501 -0.00000000000E+00  0.00000000000E+00  0.24508139489E+03  0.24508139489E+03  0.00000000000E+00 0.  1.
          1   -1    0    0  501    0  0.00000000000E+00 -0.00000000000E+00 -0.26335511645E+04  0.26335511645E+04  0.00000000000E+00 0. -1.
        -24    2    1    2    0    0  0.30452165401E+03  0.92472169765E+02 -0.16236999756E+04  0.16564261126E+04  0.77854453186E+02 0.  0.
        254    2    1    2    0    0 -0.30452165401E+03 -0.92472169765E+02 -0.76476979398E+03  0.12222064467E+04  0.89868304797E+03 0.  0.
         23    2    4    4    0    0 -0.54870713071E+03  0.11628760856E+03 -0.66490904652E+03  0.87368600389E+03  0.81368728953E+02 0.  0.
         23    2    4    4    0    0  0.24418547671E+03 -0.20875977832E+03 -0.99860747460E+02  0.34852044284E+03  0.91033719676E+02 0.  0.
          3    1    3    3  502    0  0.20794746905E+03  0.30198975562E+02 -0.94633972625E+03  0.96938795407E+03  0.00000000000E+00 0. -1.
         -4    1    3    3    0  502  0.96574184958E+02  0.62273194204E+02 -0.67736024933E+03  0.68703815854E+03  0.00000000000E+00 0.  1.
         13    1    5    5    0    0 -0.11316694122E+03 -0.52281939464E+01 -0.15786483018E+03  0.19430747593E+03  0.00000000000E+00 0.  1.
        -13    1    5    5    0    0 -0.43554018950E+03  0.12151580250E+03 -0.50704421634E+03  0.67937852796E+03  0.00000000000E+00 0. -1.
          1    1    6    6  503    0  0.11986698577E+03 -0.15647693048E+03 -0.77568672067E+02  0.21182545393E+03  0.00000000000E+00 0. -1.
         -1    1    6    6    0  503  0.12431849094E+03 -0.52282847847E+02 -0.22292075393E+02  0.13669498891E+03  0.00000000000E+00 0.  1.
<mgrwt>
<rscale>  0 0.16067786E+04</rscale>
<asrwt>0</asrwt>
<pdfrwt beam="1">  1        1 0.40516175E+00 0.16067786E+04</pdfrwt>
<pdfrwt beam="2">  1       -2 0.37704827E-01 0.16067786E+04</pdfrwt>
<totfact> 0.61250566E+00</totfact>
</mgrwt>
</event>
<event>
12    5  0.5095719E-008  0.1148962E+04  0.7818608E-02  0.9158741E-01
          1   -1    0    0  501    0  0.00000000000E+00  0.00000000000E+00  0.19760554378E+03  0.19760554378E+03  0.00000000000E+00 0. -1.
         -2   -1    0    0    0  501 -0.00000000000E+00 -0.00000000000E+00 -0.16701385271E+04  0.16701385271E+04  0.00000000000E+00 0.  1.
        -24    2    1    2    0    0 -0.57187321436E+02 -0.18104412970E+03 -0.13495475988E+03  0.24640543964E+03  0.80346044331E+02 0.  0.
        254    2    1    2    0    0  0.57187321436E+02  0.18104412970E+03 -0.13375782235E+04  0.16213386313E+04  0.89642405518E+03 0.  0.
         23    2    4    4    0    0 -0.27055540816E+03  0.71245584431E+02 -0.12046957005E+04  0.12403845061E+04  0.94793618272E+02 0.  0.
         23    2    4    4    0    0  0.32774272959E+03  0.10979854527E+03 -0.13288252303E+03  0.38095412520E+03  0.89427418795E+02 0.  0.
          3    1    3    3  502    0 -0.19324932001E+02 -0.15001089218E+03 -0.12551788669E+03  0.19654887598E+03  0.00000000000E+00 0. -1.
         -2    1    3    3    0  502 -0.37862389436E+02 -0.31033237520E+02 -0.94368731888E+01  0.49856563663E+02  0.00000000000E+00 0.  1.
         13    1    5    5    0    0 -0.10333089173E+03  0.36768760561E+02 -0.29335684862E+03  0.31318916899E+03  0.00000000000E+00 0. -1.
        -13    1    5    5    0    0 -0.16722451643E+03  0.34476823871E+02 -0.91133885183E+03  0.92719533710E+03  0.00000000000E+00 0.  1.
          2    1    6    6  503    0  0.59302433059E+02  0.45881049266E+02 -0.69642762338E+00  0.74982226293E+02  0.00000000000E+00 0. -1.
         -2    1    6    6    0  503  0.26844029653E+03  0.63917496002E+02 -0.13218609541E+03  0.30597189890E+03  0.00000000000E+00 0.  1.
<mgrwt>
<rscale>  0 0.11489624E+04</rscale>
<asrwt>0</asrwt>
<pdfrwt beam="1">  1        1 0.30400852E-01 0.11489624E+04</pdfrwt>
<pdfrwt beam="2">  1       -2 0.25694440E+00 0.11489624E+04</pdfrwt>
<totfact> 0.76526251E+00</totfact>
</mgrwt>
</event>
<event>
12    5  0.5095719E-008  0.1090516E+04  0.7818608E-02  0.9214485E-01
          3   -1    0    0  501    0  0.00000000000E+00  0.00000000000E+00  0.31729466907E+03  0.31729466907E+03  0.00000000000E+00 0. -1.
         -4   -1    0    0    0  501 -0.00000000000E+00 -0.00000000000E+00 -0.93700366830E+03  0.93700366830E+03  0.00000000000E+00 0.  1.
        -24    2    1    2    0    0  0.11032430798E+03 -0.11447029881E+03 -0.12393973526E+03  0.21713132439E+03  0.80684892102E+02 0.  0.
        254    2    1    2    0    0 -0.11032430798E+03  0.11447029881E+03 -0.49576926397E+03  0.10371670130E+04  0.89702471955E+03 0.  0.
         23    2    4    4    0    0 -0.25960205828E+03  0.45135401567E+03 -0.24881912671E+03  0.58489449577E+03  0.95272961779E+02 0.  0.
         23    2    4    4    0    0  0.14927775030E+03 -0.33688371686E+03 -0.24695013726E+03  0.45227251721E+03  0.88269893590E+02 0.  0.
          3    1    3    3  502    0  0.11318333562E+03 -0.11031338843E+03 -0.13312999328E+03  0.20664729914E+03  0.00000000000E+00 0. -1.
         -4    1    3    3    0  502 -0.28590276414E+01 -0.41569103766E+01  0.91902580216E+01  0.10484025250E+02  0.00000000000E+00 0.  1.
         13    1    5    5    0    0 -0.25090890609E+03  0.43893902751E+03 -0.25754270254E+03  0.56740725467E+03  0.00000000000E+00 0.  1.
        -13    1    5    5    0    0 -0.86931521895E+01  0.12414988163E+02  0.87235758299E+01  0.17487241101E+02  0.00000000000E+00 0. -1.
          1    1    6    6  503    0  0.36455488031E+02 -0.13260979679E+03 -0.13766058076E+03  0.19458878772E+03  0.00000000000E+00 0. -1.
         -1    1    6    6    0  503  0.11282226227E+03 -0.20427392007E+03 -0.10928955650E+03  0.25768372949E+03  0.00000000000E+00 0.  1.
<mgrwt>
<rscale>  0 0.10905160E+04</rscale>
<asrwt>0</asrwt>
<pdfrwt beam="1">  1        3 0.48814565E-01 0.10905160E+04</pdfrwt>
<pdfrwt beam="2">  1       -4 0.14415441E+00 0.10905160E+04</pdfrwt>
<totfact> 0.31287183E+00</totfact>
</mgrwt>
</event>
<event>
12    5  0.5095719E-008  0.1685214E+04  0.7818608E-02  0.8769843E-01
          3   -1    0    0  501    0  0.00000000000E+00  0.00000000000E+00  0.80945338372E+03  0.80945338372E+03  0.00000000000E+00 0. -1.
         -4   -1    0    0    0  501 -0.00000000000E+00 -0.00000000000E+00 -0.87711823852E+03  0.87711823852E+03  0.00000000000E+00 0.  1.
        -24    2    1    2    0    0 -0.36938408847E+03 -0.75067036474E+02 -0.50675404425E+03  0.63679924741E+03  0.81449096756E+02 0.  0.
        254    2    1    2    0    0  0.36938408847E+03  0.75067036474E+02  0.43908918945E+03  0.10497723748E+04  0.87586703208E+03 0.  0.
         23    2    4    4    0    0 -0.27086614334E+03  0.10809211841E+03  0.13062256138E+03  0.33229259897E+03  0.91124882005E+02 0.  0.
         23    2    4    4    0    0  0.64025023181E+03 -0.33025081940E+02  0.30846662808E+03  0.71747977585E+03  0.92814614987E+02 0.  0.
          3    1    3    3  502    0 -0.43450907118E+02  0.14872729085E+02 -0.43319909335E+02  0.63133144580E+02  0.00000000000E+00 0. -1.
         -4    1    3    3    0  502 -0.32593318135E+03 -0.89939765559E+02 -0.46343413491E+03  0.57366610283E+03  0.00000000000E+00 0.  1.
         13    1    5    5    0    0 -0.18376795313E+03  0.55608082727E+02  0.12765210801E+03  0.23056014430E+03  0.00000000000E+00 0.  1.
        -13    1    5    5    0    0 -0.87098190215E+02  0.52484035687E+02  0.29704533684E+01  0.10173245467E+03  0.00000000000E+00 0. -1.
          1    1    6    6  503    0  0.38730484259E+03 -0.49293125108E+02  0.22500575449E+03  0.45062450314E+03  0.00000000000E+00 0. -1.
         -1    1    6    6    0  503  0.25294538922E+03  0.16268043168E+02  0.83460873587E+02  0.26685527272E+03  0.00000000000E+00 0.  1.
<mgrwt>
<rscale>  0 0.16852137E+04</rscale>
<asrwt>0</asrwt>
<pdfrwt beam="1">  1        3 0.12453129E+00 0.16852137E+04</pdfrwt>
<pdfrwt beam="2">  1       -4 0.13494127E+00 0.16852137E+04</pdfrwt>
<totfact> 0.44353315E-01</totfact>
</mgrwt>
</event>
<event>
12    5  0.5095719E-008  0.1688893E+04  0.7818608E-02  0.8767724E-01
          1   -1    0    0  501    0  0.00000000000E+00  0.00000000000E+00  0.18372132080E+04  0.18372132080E+04  0.00000000000E+00 0. -1.
         -2   -1    0    0    0  501 -0.00000000000E+00 -0.00000000000E+00 -0.38813679425E+03  0.38813679425E+03  0.00000000000E+00 0.  1.
        -24    2    1    2    0    0 -0.26241450571E+03 -0.42853516134E+03  0.86234437262E+02  0.51614584049E+03  0.80413886706E+02 0.  0.
        254    2    1    2    0    0  0.26241450571E+03  0.42853516134E+03  0.13628419764E+04  0.17092041617E+04  0.90085340448E+03 0.  0.
         23    2    4    4    0    0 -0.10479316053E+03  0.38938096360E+03  0.15474913260E+03  0.44186115687E+03  0.93246161321E+02 0.  0.
         23    2    4    4    0    0  0.36720766624E+03  0.39154197743E+02  0.12080928438E+04  0.12673430048E+04  0.10146650304E+03 0.  0.
          1    1    3    3  502    0 -0.96660194664E+02 -0.11209041926E+03  0.53649767493E+02  0.15743491631E+03  0.00000000000E+00 0. -1.
         -2    1    3    3    0  502 -0.16575431104E+03 -0.31644474209E+03  0.32584669769E+02  0.35871092418E+03  0.00000000000E+00 0.  1.
         13    1    5    5    0    0 -0.61593314928E+02  0.28605510766E+03  0.15222654177E+03  0.32983962933E+03  0.00000000000E+00 0. -1.
        -13    1    5    5    0    0 -0.43199845605E+02  0.10332585594E+03  0.25225908295E+01  0.11202152754E+03  0.00000000000E+00 0.  1.
          2    1    6    6  503    0  0.22423467722E+03 -0.20740447292E+02  0.63912771587E+03  0.67763972273E+03  0.00000000000E+00 0. -1.
         -2    1    6    6    0  503  0.14297298901E+03  0.59894645034E+02  0.56896512798E+03  0.58970328212E+03  0.00000000000E+00 0.  1.
<mgrwt>
<rscale>  0 0.16888932E+04</rscale>
<asrwt>0</asrwt>
<pdfrwt beam="1">  1        1 0.28264818E+00 0.16888932E+04</pdfrwt>
<pdfrwt beam="2">  1       -2 0.59713354E-01 0.16888932E+04</pdfrwt>
<totfact> 0.84091606E+00</totfact>
</mgrwt>
</event>
<event>
12    5  0.5095719E-008  0.1204042E+04  0.7818608E-02  0.9109326E-01
          1   -1    0    0  501    0  0.00000000000E+00  0.00000000000E+00  0.37690187112E+03  0.37690187112E+03  0.00000000000E+00 0. -1.
         -2   -1    0    0    0  501 -0.00000000000E+00 -0.00000000000E+00 -0.96160175297E+03  0.96160175297E+03  0.00000000000E+00 0.  1.
        -24    2    1    2    0    0  0.11101143908E+03  0.11742481040E+03 -0.36384374064E+03  0.40598456689E+03  0.79555485298E+02 0.  0.
        254    2    1    2    0    0 -0.11101143908E+03 -0.11742481040E+03 -0.22085614121E+03  0.93251905721E+03  0.89146072894E+03 0.  0.
         23    2    4    4    0    0 -0.46416834514E+03  0.24552397480E+02 -0.25874643946E+03  0.53979981236E+03  0.91537121643E+02 0.  0.
         23    2    4    4    0    0  0.35315690606E+03 -0.14197720788E+03  0.37890298254E+02  0.39271924484E+03  0.88968548998E+02 0.  0.
          1    1    3    3  502    0 -0.11991530831E+02  0.14471291530E+02 -0.52263771154E+02  0.55540227453E+02  0.00000000000E+00 0. -1.
         -2    1    3    3    0  502  0.12300296991E+03  0.10295351887E+03 -0.31157996949E+03  0.35044433943E+03  0.00000000000E+00 0.  1.
         13    1    5    5    0    0 -0.31345764379E+03 -0.23896851607E+02 -0.18901864684E+03  0.36681712449E+03  0.00000000000E+00 0.  1.
        -13    1    5    5    0    0 -0.15071070136E+03  0.48449249087E+02 -0.69727792619E+02  0.17298268788E+03  0.00000000000E+00 0. -1.
          1    1    6    6  503    0  0.18411143423E+02  0.15420854573E+00 -0.16842658165E+02  0.24953338785E+02  0.00000000000E+00 0. -1.
         -1    1    6    6    0  503  0.33474576264E+03 -0.14213141643E+03  0.54732956419E+02  0.36776590606E+03  0.00000000000E+00 0.  1.
<mgrwt>
<rscale>  0 0.12040424E+04</rscale>
<asrwt>0</asrwt>
<pdfrwt beam="1">  1        1 0.57984903E-01 0.12040424E+04</pdfrwt>
<pdfrwt beam="2">  1       -2 0.14793873E+00 0.12040424E+04</pdfrwt>
<totfact> 0.17425576E+01</totfact>
</mgrwt>
</event>
<event>
12    5  0.5095719E-008  0.2332618E+04  0.7818608E-02  0.8465170E-01
          1   -1    0    0  501    0  0.00000000000E+00  0.00000000000E+00  0.19281216753E+04  0.19281216753E+04  0.00000000000E+00 0. -1.
         -2   -1    0    0    0  501 -0.00000000000E+00 -0.00000000000E+00 -0.70549299823E+03  0.70549299823E+03  0.00000000000E+00 0.  1.
        -24    2    1    2    0    0  0.80437085697E+03 -0.54553252306E+03  0.40999695525E+03  0.10578658509E+04  0.79777477470E+02 0.  0.
        254    2    1    2    0    0 -0.80437085697E+03  0.54553252306E+03  0.81263172184E+03  0.15757488226E+04  0.93701431552E+03 0.  0.
         23    2    4    4    0    0 -0.95936514803E+03  0.62808339462E+03  0.72187407943E+03  0.13579930804E+04  0.90403440840E+02 0.  0.
         23    2    4    4    0    0  0.15499429106E+03 -0.82550871565E+02  0.90757642405E+02  0.21775574221E+03  0.91338584134E+02 0.  0.
          3    1    3    3  502    0  0.16510174505E+03 -0.15089420428E+03  0.10411320944E+03  0.24671280364E+03  0.00000000000E+00 0. -1.
         -4    1    3    3    0  502  0.63926911192E+03 -0.39463831878E+03  0.30588374581E+03  0.81115304724E+03  0.00000000000E+00 0.  1.
         13    1    5    5    0    0 -0.83353182449E+03  0.52060526346E+03  0.64508343528E+03  0.11755584976E+04  0.00000000000E+00 0.  1.
        -13    1    5    5    0    0 -0.12583332354E+03  0.10747813116E+03  0.76790644148E+02  0.18243458285E+03  0.00000000000E+00 0. -1.
          1    1    6    6  503    0  0.18743271315E+02  0.11900524313E+02  0.37580379223E+02  0.43648798392E+02  0.00000000000E+00 0. -1.
         -1    1    6    6    0  503  0.13625101975E+03 -0.94451395878E+02  0.53177263182E+02  0.17410694382E+03  0.00000000000E+00 0.  1.
<mgrwt>
<rscale>  0 0.23326177E+04</rscale>
<asrwt>0</asrwt>
<pdfrwt beam="1">  1        1 0.29663410E+00 0.23326177E+04</pdfrwt>
<pdfrwt beam="2">  1       -2 0.10853739E+00 0.23326177E+04</pdfrwt>
<totfact> 0.17917535E+00</totfact>
</mgrwt>
</event>
<event>
12    5  0.5095719E-008  0.1663267E+04  0.7818608E-02  0.8782596E-01
         -2   -1    0    0    0  501 -0.00000000000E+00  0.00000000000E+00  0.82162254251E+03  0.82162254251E+03  0.00000000000E+00 0.  1.
          1   -1    0    0  501    0  0.00000000000E+00 -0.00000000000E+00 -0.84176646791E+03  0.84176646791E+03  0.00000000000E+00 0. -1.
        -24    2    1    2    0    0  0.42566728636E+03  0.38544749179E+03  0.59884665664E+02  0.58344369663E+03  0.84011703653E+02 0.  0.
        254    2    1    2    0    0 -0.42566728636E+03 -0.38544749179E+03 -0.80028591069E+02  0.10799453138E+04  0.91110641408E+03 0.  0.
         23    2    4    4    0    0 -0.39217765782E+03 -0.52517457292E+03 -0.35911377119E+03  0.75299624347E+03  0.91809556642E+02 0.  0.
         23    2    4    4    0    0 -0.33489628541E+02  0.13972708113E+03  0.27908518012E+03  0.32694907031E+03  0.91443667881E+02 0.  0.
          3    1    3    3  502    0  0.40481802740E+03  0.33955519861E+03  0.42311329606E+02  0.53006189905E+03  0.00000000000E+00 0. -1.
         -4    1    3    3    0  502  0.20849258961E+02  0.45892293189E+02  0.17573336058E+02  0.53381797587E+02  0.00000000000E+00 0.  1.
         13    1    5    5    0    0 -0.38057427179E+03 -0.49081554453E+03 -0.31660356539E+03  0.69711870777E+03  0.00000000000E+00 0.  1.
        -13    1    5    5    0    0 -0.11603386028E+02 -0.34359028392E+02 -0.42510205802E+02  0.55877535707E+02  0.00000000000E+00 0. -1.
          4    1    6    6  503    0  0.12892726119E+02  0.53856641316E+02  0.38851661201E+02  0.67647703425E+02  0.00000000000E+00 0. -1.
         -4    1    6    6    0  503 -0.46382354660E+02  0.85870439809E+02  0.24023351892E+03  0.25930136689E+03  0.00000000000E+00 0.  1.
<mgrwt>
<rscale>  0 0.16632670E+04</rscale>
<asrwt>0</asrwt>
<pdfrwt beam="1">  1        1 0.12950253E+00 0.16632670E+04</pdfrwt>
<pdfrwt beam="2">  1       -2 0.12640347E+00 0.16632670E+04</pdfrwt>
<totfact> 0.79336839E+00</totfact>
</mgrwt>
</event>
<event>
12    5  0.5095719E-008  0.1231751E+04  0.7818608E-02  0.9085510E-01
          1   -1    0    0  501    0  0.00000000000E+00  0.00000000000E+00  0.75453963847E+03  0.75453963847E+03  0.00000000000E+00 0. -1.
         -2   -1    0    0    0  501 -0.00000000000E+00 -0.00000000000E+00 -0.50269371545E+03  0.50269371545E+03  0.00000000000E+00 0.  1.
        -24    2    1    2    0    0 -0.21888362778E+03 -0.16121510671E+03  0.42090345142E+02  0.28585304185E+03  0.77717509211E+02 0.  0.
        254    2    1    2    0    0  0.21888362778E+03  0.16121510671E+03  0.20975557788E+03  0.97138031207E+03  0.90867043260E+03 0.  0.
         23    2    4    4    0    0  0.55105714456E+03 -0.92993697118E+01  0.74262744631E+02  0.56347248661E+03  0.90751490778E+02 0.  0.
         23    2    4    4    0    0 -0.33217351677E+03  0.17051447643E+03  0.13549283324E+03  0.40790782546E+03  0.92822703543E+02 0.  0.
          1    1    3    3  502    0 -0.87966687462E+00 -0.12607151548E+02  0.16491382874E+02  0.20776905281E+02  0.00000000000E+00 0. -1.
         -2    1    3    3    0  502 -0.21800396091E+03 -0.14860795517E+03  0.25598962268E+02  0.26507613657E+03  0.00000000000E+00 0.  1.
         13    1    5    5    0    0  0.20100210330E+03 -0.39191948633E+02  0.52821026404E+02  0.21148975199E+03  0.00000000000E+00 0.  1.
        -13    1    5    5    0    0  0.35005504126E+03  0.29892578921E+02  0.21441718227E+02  0.35198273461E+03  0.00000000000E+00 0. -1.
          3    1    6    6  503    0 -0.12958749964E+03  0.42626961303E+02  0.91670220575E+02  0.16435755910E+03  0.00000000000E+00 0. -1.
         -3    1    6    6    0  503 -0.20258601713E+03  0.12788751512E+03  0.43822612670E+02  0.24355026636E+03  0.00000000000E+00 0.  1.
<mgrwt>
<rscale>  0 0.12317505E+04</rscale>
<asrwt>0</asrwt>
<pdfrwt beam="1">  1        1 0.11608302E+00 0.12317505E+04</pdfrwt>
<pdfrwt beam="2">  1       -2 0.77337495E-01 0.12317505E+04</pdfrwt>
<totfact> 0.31304448E+01</totfact>
</mgrwt>
</event>
<event>
12    5  0.5095719E-008  0.2715523E+04  0.7818608E-02  0.8329986E-01
         -2   -1    0    0    0  501 -0.00000000000E+00  0.00000000000E+00  0.18413451040E+04  0.18413451040E+04  0.00000000000E+00 0.  1.
          1   -1    0    0  501    0  0.00000000000E+00 -0.00000000000E+00 -0.10011793697E+04  0.10011793697E+04  0.00000000000E+00 0. -1.
        -24    2    1    2    0    0 -0.14537114644E+02 -0.40025173679E+03 -0.81828259113E+03  0.91462363632E+03  0.80853056051E+02 0.  0.
        254    2    1    2    0    0  0.14537114644E+02  0.40025173679E+03  0.16584483253E+04  0.19279008374E+04  0.89774050280E+03 0.  0.
         23    2    4    4    0    0 -0.28645677259E+03  0.93993490096E+02  0.13631891467E+04  0.13991627360E+04  0.92083946736E+02 0.  0.
         23    2    4    4    0    0  0.30099388724E+03  0.30625824669E+03  0.29525917865E+03  0.52873810142E+03  0.89412322941E+02 0.  0.
          3    1    3    3  502    0  0.16840153199E+02 -0.34048656876E+03 -0.69317622074E+03  0.77246874841E+03  0.00000000000E+00 0. -1.
         -4    1    3    3    0  502 -0.31377267843E+02 -0.59765168029E+02 -0.12510637038E+03  0.14215488791E+03  0.00000000000E+00 0.  1.
         13    1    5    5    0    0 -0.93785142218E+02  0.68575630320E+02  0.63184064122E+03  0.64243354977E+03  0.00000000000E+00 0.  1.
        -13    1    5    5    0    0 -0.19267163038E+03  0.25417859776E+02  0.73134850548E+03  0.75672918618E+03  0.00000000000E+00 0. -1.
          3    1    6    6  503    0  0.12578957473E+03  0.72065661978E+02  0.11629378605E+03  0.18585134226E+03  0.00000000000E+00 0. -1.
         -3    1    6    6    0  503  0.17520431251E+03  0.23419258471E+03  0.17896539260E+03  0.34288675916E+03  0.00000000000E+00 0.  1.
<mgrwt>
<rscale>  0 0.27155233E+04</rscale>
<asrwt>0</asrwt>
<pdfrwt beam="1">  1        1 0.15402760E+00 0.27155233E+04</pdfrwt>
<pdfrwt beam="2">  1       -2 0.28328386E+00 0.27155233E+04</pdfrwt>
<totfact> 0.46448421E-01</totfact>
</mgrwt>
</event>
<event>
12    5  0.5095719E-008  0.1834786E+04  0.7818608E-02  0.8688016E-01
          1   -1    0    0  501    0  0.00000000000E+00  0.00000000000E+00  0.16624538651E+04  0.16624538651E+04  0.00000000000E+00 0. -1.
         -2   -1    0    0    0  501 -0.00000000000E+00 -0.00000000000E+00 -0.50624565205E+03  0.50624565205E+03  0.00000000000E+00 0.  1.
        -24    2    1    2    0    0  0.22189926941E+03  0.16427717377E+03  0.11877940454E+04  0.12231546320E+04  0.95006756488E+02 0.  0.
        254    2    1    2    0    0 -0.22189926941E+03 -0.16427717377E+03 -0.31585832336E+02  0.94554488521E+03  0.90378713731E+03 0.  0.
         23    2    4    4    0    0  0.17721285551E+03  0.18902503443E+03 -0.24144836492E+03  0.36535461031E+03  0.89731926073E+02 0.  0.
         23    2    4    4    0    0 -0.39911212492E+03 -0.35330220820E+03  0.20986253258E+03  0.58019027490E+03  0.92008336206E+02 0.  0.
          1    1    3    3  502    0  0.20534034971E+03  0.16902047917E+03  0.10065319575E+04  0.10410759641E+04  0.00000000000E+00 0. -1.
         -2    1    3    3    0  502  0.16558919701E+02 -0.47433054019E+01  0.18126208791E+03  0.18207866784E+03  0.00000000000E+00 0.  1.
         13    1    5    5    0    0  0.10142596333E+03  0.44082762115E+02 -0.93981529092E+02  0.14513112610E+03  0.00000000000E+00 0. -1.
        -13    1    5    5    0    0  0.75786892178E+02  0.14494227231E+03 -0.14746683583E+03  0.22022348421E+03  0.00000000000E+00 0.  1.
          1    1    6    6  503    0 -0.10106044335E+02 -0.40101582025E+02  0.12711885167E+02  0.43265009390E+02  0.00000000000E+00 0. -1.
         -1    1    6    6    0  503 -0.38900608058E+03 -0.31320062617E+03  0.19715064742E+03  0.53692526551E+03  0.00000000000E+00 0.  1.
<mgrwt>
<rscale>  0 0.18347861E+04</rscale>
<asrwt>0</asrwt>
<pdfrwt beam="1">  1        1 0.25576213E+00 0.18347861E+04</pdfrwt>
<pdfrwt beam="2">  1       -2 0.77883948E-01 0.18347861E+04</pdfrwt>
<totfact> 0.61295467E+00</totfact>
</mgrwt>
</event>
<event>
12    5  0.5095719E-008  0.1471526E+04  0.7818608E-02  0.8903612E-01
         -2   -1    0    0    0  501 -0.00000000000E+00  0.00000000000E+00  0.30328754738E+03  0.30328754738E+03  0.00000000000E+00 0.  1.
          1   -1    0    0  501    0  0.00000000000E+00 -0.00000000000E+00 -0.17849298217E+04  0.17849298217E+04  0.00000000000E+00 0. -1.
        -24    2    1    2    0    0 -0.31310362589E+03  0.27542293020E+03 -0.70026608170E+03  0.81867944163E+03  0.77277240741E+02 0.  0.
        254    2    1    2    0    0  0.31310362589E+03 -0.27542293020E+03 -0.78137619265E+03  0.12695379275E+04  0.90955270536E+03 0.  0.
         23    2    4    4    0    0 -0.28886741785E+03  0.51799608168E+02 -0.27729056917E+03  0.41399798059E+03  0.91524224583E+02 0.  0.
         23    2    4    4    0    0  0.60197104374E+03 -0.32722253837E+03 -0.50408562348E+03  0.85553994688E+03  0.91665466741E+02 0.  0.
          1    1    3    3  502    0 -0.30070827519E+03  0.24167537539E+03 -0.61294958438E+03  0.72425109377E+03  0.00000000000E+00 0. -1.
         -2    1    3    3    0  502 -0.12395350705E+02  0.33747554805E+02 -0.87316497318E+02  0.94428347854E+02  0.00000000000E+00 0.  1.
         13    1    5    5    0    0 -0.66465998113E+02 -0.17386870142E+02 -0.99809660457E+02  0.12116930502E+03  0.00000000000E+00 0.  1.
        -13    1    5    5    0    0 -0.22240141973E+03  0.69186478310E+02 -0.17748090871E+03  0.29282867557E+03  0.00000000000E+00 0. -1.
          3    1    6    6  503    0  0.53574056192E+03 -0.31841227659E+03 -0.46968665665E+03  0.78039085272E+03  0.00000000000E+00 0. -1.
         -3    1    6    6    0  503  0.66230481820E+02 -0.88102617768E+01 -0.34398966832E+02  0.75149094165E+02  0.00000000000E+00 0.  1.
<mgrwt>
<rscale>  0 0.14715257E+04</rscale>
<asrwt>0</asrwt>
<pdfrwt beam="1">  1        1 0.27460459E+00 0.14715257E+04</pdfrwt>
<pdfrwt beam="2">  1       -2 0.46659623E-01 0.14715257E+04</pdfrwt>
<totfact> 0.15461513E+01</totfact>
</mgrwt>
</event>
<event>
12    5  0.5095719E-008  0.2020845E+04  0.7818608E-02  0.8596937E-01
          1   -1    0    0  501    0  0.00000000000E+00  0.00000000000E+00  0.19665191114E+04  0.19665191114E+04  0.00000000000E+00 0. -1.
         -2   -1    0    0    0  501 -0.00000000000E+00 -0.00000000000E+00 -0.51916780793E+03  0.51916780793E+03  0.00000000000E+00 0.  1.
        -24    2    1    2    0    0 -0.33164768006E+03  0.23248327839E+03  0.13079636960E+04  0.13716610037E+04  0.81524355477E+02 0.  0.
        254    2    1    2    0    0  0.33164768006E+03 -0.23248327839E+03  0.13938760748E+03  0.11140259157E+04  0.10283900900E+04 0.  0.
         23    2    4    4    0    0 -0.22873442112E+03  0.12877880615E+03  0.31355025530E+03  0.41900449931E+03  0.91365154881E+02 0.  0.
         23    2    4    4    0    0  0.56038210118E+03 -0.36126208454E+03 -0.17416264781E+03  0.69502141635E+03  0.90464071601E+02 0.  0.
          1    1    3    3  502    0 -0.20099302761E+03  0.16246948578E+03  0.94216911137E+03  0.97697347219E+03  0.00000000000E+00 0. -1.
         -2    1    3    3    0  502 -0.13065465244E+03  0.70013792607E+02  0.36579458465E+03  0.39468753149E+03  0.00000000000E+00 0.  1.
         13    1    5    5    0    0 -0.23229015886E+03  0.13543511712E+03  0.31080098255E+03  0.41097279667E+03  0.00000000000E+00 0.  1.
        -13    1    5    5    0    0  0.35557377364E+01 -0.66563109727E+01  0.27492727496E+01  0.80317026381E+01  0.00000000000E+00 0. -1.
          2    1    6    6  503    0  0.21371138318E+03 -0.15266653227E+03 -0.25062200866E+02  0.26383278661E+03  0.00000000000E+00 0. -1.
         -2    1    6    6    0  503  0.34667071799E+03 -0.20859555227E+03 -0.14910044695E+03  0.43118862974E+03  0.00000000000E+00 0.  1.
<mgrwt>
<rscale>  0 0.20208448E+04</rscale>
<asrwt>0</asrwt>
<pdfrwt beam="1">  1        1 0.30254140E+00 0.20208448E+04</pdfrwt>
<pdfrwt beam="2">  1       -2 0.79871972E-01 0.20208448E+04</pdfrwt>
<totfact> 0.35424547E+00</totfact>
</mgrwt>
</event>
<event>
12    5  0.5095719E-008  0.1713766E+04  0.7818608E-02  0.8753552E-01
         -2   -1    0    0    0  501 -0.00000000000E+00  0.00000000000E+00  0.98935836407E+03  0.98935836407E+03  0.00000000000E+00 0.  1.
          1   -1    0    0  501    0  0.00000000000E+00 -0.00000000000E+00 -0.74214637420E+03  0.74214637420E+03  0.00000000000E+00 0. -1.
        -24    2    1    2    0    0  0.14794028181E+03 -0.10574834106E+03 -0.50522648770E+03  0.54283593688E+03  0.79674411686E+02 0.  0.
        254    2    1    2    0    0 -0.14794028181E+03  0.10574834106E+03  0.75243847757E+03  0.11886688014E+04  0.90205366705E+03 0.  0.
         23    2    4    4    0    0  0.16488639967E+03 -0.25146465921E+03  0.60934702855E+03  0.68486734952E+03  0.85542303052E+02 0.  0.
         23    2    4    4    0    0 -0.31282668148E+03  0.35721300027E+03  0.14309144902E+03  0.50380145186E+03  0.88764181436E+02 0.  0.
          1    1    3    3  502    0  0.52517803880E+02 -0.28270747765E+02 -0.27970315445E+03  0.28599162490E+03  0.00000000000E+00 0. -1.
         -2    1    3    3    0  502  0.95422477930E+02 -0.77477593295E+02 -0.22552333325E+03  0.25684431198E+03  0.00000000000E+00 0.  1.
         13    1    5    5    0    0  0.69689828547E+02 -0.64892054148E+02  0.26762310064E+03  0.28405945661E+03  0.00000000000E+00 0.  1.
        -13    1    5    5    0    0  0.95196571123E+02 -0.18657260507E+03  0.34172392791E+03  0.40080789292E+03  0.00000000000E+00 0. -1.
          2    1    6    6  503    0 -0.14493928344E+02  0.57561463246E+02  0.27675553520E+02  0.65492994072E+02  0.00000000000E+00 0. -1.
         -2    1    6    6    0  503 -0.29833275314E+03  0.29965153703E+03  0.11541589550E+03  0.43830845779E+03  0.00000000000E+00 0.  1.
<mgrwt>
<rscale>  0 0.17137663E+04</rscale>
<asrwt>0</asrwt>
<pdfrwt beam="1">  1        1 0.11417637E+00 0.17137663E+04</pdfrwt>
<pdfrwt beam="2">  1       -2 0.15220898E+00 0.17137663E+04</pdfrwt>
<totfact> 0.59703990E+00</totfact>
</mgrwt>
</event>
<event>
12    5  0.5095719E-008  0.2059526E+04  0.7818608E-02  0.8579285E-01
         -2   -1    0    0    0  501 -0.00000000000E+00  0.00000000000E+00  0.10009972793E+04  0.10009972793E+04  0.00000000000E+00 0.  1.
          1   -1    0    0  501    0  0.00000000000E+00 -0.00000000000E+00 -0.10593556852E+04  0.10593556852E+04  0.00000000000E+00 0. -1.
        -24    2    1    2    0    0 -0.12610740027E+03  0.70210498603E+03  0.40537023323E+03  0.82408354746E+03  0.77033625094E+02 0.  0.
        254    2    1    2    0    0  0.12610740027E+03 -0.70210498603E+03 -0.46372863909E+03  0.12362694170E+04  0.89691879951E+03 0.  0.
         23    2    4    4    0    0  0.20687750939E+03 -0.88942913463E+03 -0.32694502011E+03  0.97489921040E+03  0.98249350303E+02 0.  0.
         23    2    4    4    0    0 -0.80770109127E+02  0.18732414861E+03 -0.13678361898E+03  0.26137020661E+03  0.89389480937E+02 0.  0.
          1    1    3    3  502    0 -0.13876060107E+02  0.72116984544E+02  0.70716411204E+02  0.10195202459E+03  0.00000000000E+00 0. -1.
         -2    1    3    3    0  502 -0.11223134016E+03  0.62998800148E+03  0.33465382203E+03  0.72213152287E+03  0.00000000000E+00 0.  1.
         13    1    5    5    0    0  0.14518310672E+03 -0.61068203362E+03 -0.17575382559E+03  0.65184360691E+03  0.00000000000E+00 0. -1.
        -13    1    5    5    0    0  0.61694402676E+02 -0.27874710102E+03 -0.15119119451E+03  0.32305560349E+03  0.00000000000E+00 0.  1.
          2    1    6    6  503    0 -0.99261926802E+02  0.14759628054E+03 -0.11939308264E+03  0.21422488260E+03  0.00000000000E+00 0. -1.
         -2    1    6    6    0  503  0.18491817676E+02  0.39727868064E+02 -0.17390536343E+02  0.47145324012E+02  0.00000000000E+00 0.  1.
<mgrwt>
<rscale>  0 0.20595263E+04</rscale>
<asrwt>0</asrwt>
<pdfrwt beam="1">  1        1 0.16297780E+00 0.20595263E+04</pdfrwt>
<pdfrwt beam="2">  1       -2 0.15399958E+00 0.20595263E+04</pdfrwt>
<totfact> 0.30768678E+00</totfact>
</mgrwt>
</event>
<event>
12    5  0.5095719E-008  0.1224098E+04  0.7818608E-02  0.9092022E-01
         -2   -1    0    0    0  501 -0.00000000000E+00  0.00000000000E+00  0.59026419845E+03  0.59026419845E+03  0.00000000000E+00 0.  1.
          1   -1    0    0  501    0  0.00000000000E+00 -0.00000000000E+00 -0.63463741033E+03  0.63463741033E+03  0.00000000000E+00 0. -1.
        -24    2    1    2    0    0  0.24004506284E+03  0.99653340570E+02 -0.21494270392E+03  0.34673499477E+03  0.80451041915E+02 0.  0.
        254    2    1    2    0    0 -0.24004506284E+03 -0.99653340570E+02  0.17056949203E+03  0.87816661401E+03  0.82129789350E+03 0.  0.
         23    2    4    4    0    0 -0.40538754585E+03 -0.35324835664E+03  0.11546189189E+03  0.55741599645E+03  0.90871782281E+02 0.  0.
         23    2    4    4    0    0  0.16534248301E+03  0.25359501607E+03  0.55107600141E+02  0.32075061757E+03  0.90529234018E+02 0.  0.
          3    1    3    3  502    0  0.16308146221E+03  0.87302919084E+02 -0.18931023512E+03  0.26468042640E+03  0.00000000000E+00 0. -1.
         -4    1    3    3    0  502  0.76963600632E+02  0.12350421486E+02 -0.25632468799E+02  0.82054568366E+02  0.00000000000E+00 0.  1.
         13    1    5    5    0    0 -0.28940434392E+03 -0.23576444450E+03  0.38481431079E+02  0.37526066688E+03  0.00000000000E+00 0.  1.
        -13    1    5    5    0    0 -0.11598320193E+03 -0.11748391214E+03  0.76980460815E+02  0.18215532957E+03  0.00000000000E+00 0. -1.
          1    1    6    6  503    0  0.31324223306E+02  0.96698743043E+02 -0.15163249324E+02  0.10277051134E+03  0.00000000000E+00 0. -1.
         -1    1    6    6    0  503  0.13401825970E+03  0.15689627303E+03  0.70270849465E+02  0.21798010622E+03  0.00000000000E+00 0.  1.
<mgrwt>
<rscale>  0 0.12240976E+04</rscale>
<asrwt>0</asrwt>
<pdfrwt beam="1">  1        1 0.97636524E-01 0.12240976E+04</pdfrwt>
<pdfrwt beam="2">  1       -2 0.90809877E-01 0.12240976E+04</pdfrwt>
<totfact> 0.28254666E+01</totfact>
</mgrwt>
</event>
<event>
12    5  0.5095719E-008  0.1760779E+04  0.7818608E-02  0.8727440E-01
          1   -1    0    0  501    0  0.00000000000E+00  0.00000000000E+00  0.70696648973E+03  0.70696648973E+03  0.00000000000E+00 0. -1.
         -2   -1    0    0    0  501 -0.00000000000E+00 -0.00000000000E+00 -0.10963538300E+04  0.10963538300E+04  0.00000000000E+00 0.  1.
        -24    2    1    2    0    0  0.45872221974E+02  0.12035802450E+03  0.50980391118E+03  0.53156191284E+03  0.77895600108E+02 0.  0.
        254    2    1    2    0    0 -0.45872221974E+02 -0.12035802450E+03 -0.89919125143E+03  0.12717584069E+04  0.89007540354E+03 0.  0.
         23    2    4    4    0    0  0.41166967985E+03 -0.96098466792E+02 -0.42716934699E+03  0.60758008738E+03  0.89292054196E+02 0.  0.
         23    2    4    4    0    0 -0.45754190183E+03 -0.24259557706E+02 -0.47202190444E+03  0.66417831949E+03  0.91624471301E+02 0.  0.
          3    1    3    3  502    0 -0.31917204872E+01  0.57169380553E+02  0.32763431937E+03  0.33260001861E+03  0.00000000000E+00 0. -1.
         -4    1    3    3    0  502  0.49063942462E+02  0.63188643945E+02  0.18216959181E+03  0.19896189422E+03  0.00000000000E+00 0.  1.
         13    1    5    5    0    0  0.16701658723E+03 -0.94615403088E+01 -0.12245030750E+03  0.20731169519E+03  0.00000000000E+00 0. -1.
        -13    1    5    5    0    0  0.24465309262E+03 -0.86636926484E+02 -0.30471903949E+03  0.40026839219E+03  0.00000000000E+00 0.  1.
          4    1    6    6  503    0  0.30156478253E+01 -0.19963158238E+01 -0.13239143177E+02  0.13724223866E+02  0.00000000000E+00 0. -1.
         -4    1    6    6    0  503 -0.46055754965E+03 -0.22263241882E+02 -0.45878276126E+03  0.65045409562E+03  0.00000000000E+00 0.  1.
<mgrwt>
<rscale>  0 0.17607787E+04</rscale>
<asrwt>0</asrwt>
<pdfrwt beam="1">  1        1 0.10876408E+00 0.17607787E+04</pdfrwt>
<pdfrwt beam="2">  1       -2 0.16866982E+00 0.17607787E+04</pdfrwt>
<totfact> 0.48437482E+00</totfact>
</mgrwt>
</event>
<event>
12    5  0.5095719E-008  0.2221676E+04  0.7818608E-02  0.8509460E-01
         -2   -1    0    0    0  501 -0.00000000000E+00  0.00000000000E+00  0.69848296097E+03  0.69848296097E+03  0.00000000000E+00 0.  1.
          1   -1    0    0  501    0  0.00000000000E+00 -0.00000000000E+00 -0.17666305673E+04  0.17666305673E+04  0.00000000000E+00 0. -1.
        -24    2    1    2    0    0  0.48516427250E+02  0.84810408368E+03 -0.22774138600E+02  0.85351028009E+03  0.79540910002E+02 0.  0.
        254    2    1    2    0    0 -0.48516427250E+02 -0.84810408368E+03 -0.10453734677E+04  0.16116032481E+04  0.88477396095E+03 0.  0.
         23    2    4    4    0    0 -0.94403128520E+02 -0.89738998262E+03 -0.11459846364E+04  0.14614783882E+04  0.91747265539E+02 0.  0.
         23    2    4    4    0    0  0.45886701271E+02  0.49285898938E+02  0.10061116874E+03  0.15012485992E+03  0.88770361623E+02 0.  0.
          3    1    3    3  502    0  0.37047360964E+01  0.58907507216E+02 -0.22147347304E+02  0.63042243524E+02  0.00000000000E+00 0. -1.
         -4    1    3    3    0  502  0.44811691153E+02  0.78919657647E+03 -0.62679129630E+00  0.79046803657E+03  0.00000000000E+00 0.  1.
         13    1    5    5    0    0 -0.30166742943E+02 -0.35866203811E+03 -0.38681803111E+03  0.52837172440E+03  0.00000000000E+00 0.  1.
        -13    1    5    5    0    0 -0.64236385577E+02 -0.53872794451E+03 -0.75916660532E+03  0.93310666382E+03  0.00000000000E+00 0. -1.
          4    1    6    6  503    0 -0.10311879084E+02  0.43069805065E+02  0.13548064217E+02  0.46312989567E+02  0.00000000000E+00 0.  1.
         -4    1    6    6    0  503  0.56198580355E+02  0.62160938734E+01  0.87063104518E+02  0.10381187035E+03  0.00000000000E+00 0. -1.
<mgrwt>
<rscale>  0 0.22216763E+04</rscale>
<asrwt>0</asrwt>
<pdfrwt beam="1">  1        1 0.27178932E+00 0.22216763E+04</pdfrwt>
<pdfrwt beam="2">  1       -2 0.10745892E+00 0.22216763E+04</pdfrwt>
<totfact> 0.23851077E+00</totfact>
</mgrwt>
</event>
<event>
12    5  0.5095719E-008  0.1698555E+04  0.7818608E-02  0.8762189E-01
          1   -1    0    0  501    0  0.00000000000E+00  0.00000000000E+00  0.68816652764E+03  0.68816652764E+03  0.00000000000E+00 0. -1.
         -2   -1    0    0    0  501 -0.00000000000E+00 -0.00000000000E+00 -0.10481065951E+04  0.10481065951E+04  0.00000000000E+00 0.  1.
        -24    2    1    2    0    0 -0.17949670654E+03  0.27907303238E+03 -0.65514314693E+03  0.73880074337E+03  0.80704215332E+02 0.  0.
        254    2    1    2    0    0  0.17949670654E+03 -0.27907303238E+03  0.29520307952E+03  0.99747237932E+03  0.89314358548E+03 0.  0.
         23    2    4    4    0    0  0.27898453916E+03 -0.52460470714E+03  0.13604054972E+02  0.60013273320E+03  0.83257163650E+02 0.  0.
         23    2    4    4    0    0 -0.99487832628E+02  0.24553167476E+03  0.28159902455E+03  0.39733964612E+03  0.91635973282E+02 0.  0.
          3    1    3    3  502    0  0.67428025983E+01  0.96485156407E+01 -0.10722431404E+02  0.15922618383E+02  0.00000000000E+00 0. -1.
         -4    1    3    3    0  502 -0.18623950913E+03  0.26942451674E+03 -0.64442071553E+03  0.72287812499E+03  0.00000000000E+00 0.  1.
         13    1    5    5    0    0  0.98858720005E+01 -0.42966389595E+00 -0.39561755068E+01  0.10656753770E+02  0.00000000000E+00 0. -1.
        -13    1    5    5    0    0  0.26909866716E+03 -0.52417504325E+03  0.17560230479E+02  0.58947597943E+03  0.00000000000E+00 0.  1.
          2    1    6    6  503    0  0.80732500592E+01  0.11942893538E+02 -0.19457060814E+01  0.14546334409E+02  0.00000000000E+00 0. -1.
         -2    1    6    6    0  503 -0.10756108269E+03  0.23358878122E+03  0.28354473063E+03  0.38279331171E+03  0.00000000000E+00 0.  1.
<mgrwt>
<rscale>  0 0.16985545E+04</rscale>
<asrwt>0</asrwt>
<pdfrwt beam="1">  1        1 0.10587177E+00 0.16985545E+04</pdfrwt>
<pdfrwt beam="2">  1       -2 0.16124717E+00 0.16985545E+04</pdfrwt>
<totfact> 0.57421361E+00</totfact>
</mgrwt>
</event>
<event>
12    5  0.5095719E-008  0.1931260E+04  0.7818608E-02  0.8639451E-01
         -2   -1    0    0    0  501 -0.00000000000E+00  0.00000000000E+00  0.13183419321E+04  0.13183419321E+04  0.00000000000E+00 0.  1.
          1   -1    0    0  501    0  0.00000000000E+00 -0.00000000000E+00 -0.70728339609E+03  0.70728339609E+03  0.00000000000E+00 0. -1.
        -24    2    1    2    0    0  0.40447351799E+03 -0.60070632394E+03  0.19671839542E+02  0.72880174152E+03  0.79486368622E+02 0.  0.
        254    2    1    2    0    0 -0.40447351799E+03  0.60070632394E+03  0.59138669643E+03  0.12968235866E+04  0.89864691383E+03 0.  0.
         23    2    4    4    0    0 -0.24788908913E+03  0.26640651781E+03 -0.19426250045E+03  0.42273208482E+03  0.92428692599E+02 0.  0.
         23    2    4    4    0    0 -0.15658442886E+03  0.33429980613E+03  0.78564919689E+03  0.87409150180E+03  0.10254876504E+03 0.  0.
          1    1    3    3  502    0  0.60569350900E+02 -0.13025787608E+03 -0.18343770987E+02  0.14481800469E+03  0.00000000000E+00 0. -1.
         -2    1    3    3    0  502  0.34390416709E+03 -0.47044844786E+03  0.38015610530E+02  0.58398373683E+03  0.00000000000E+00 0.  1.
         13    1    5    5    0    0 -0.17959671025E+03  0.15889978683E+03 -0.16771688407E+03  0.29263129325E+03  0.00000000000E+00 0. -1.
        -13    1    5    5    0    0 -0.68292378884E+02  0.10750673098E+03 -0.26545616383E+02  0.13010079157E+03  0.00000000000E+00 0.  1.
          1    1    6    6  503    0 -0.88270917599E+02  0.15356179196E+03  0.26498409158E+03  0.31873115259E+03  0.00000000000E+00 0. -1.
         -1    1    6    6    0  503 -0.68313511264E+02  0.18073801417E+03  0.52066510531E+03  0.55536034921E+03  0.00000000000E+00 0.  1.
<mgrwt>
<rscale>  0 0.19312601E+04</rscale>
<asrwt>0</asrwt>
<pdfrwt beam="1">  1        1 0.10881283E+00 0.19312601E+04</pdfrwt>
<pdfrwt beam="2">  1       -2 0.20282183E+00 0.19312601E+04</pdfrwt>
<totfact> 0.27918843E+00</totfact>
</mgrwt>
</event>
<event>
12    5  0.5095719E-008  0.2358985E+04  0.7818608E-02  0.8455020E-01
         -2   -1    0    0    0  501 -0.00000000000E+00  0.00000000000E+00  0.88739290405E+03  0.88739290405E+03  0.00000000000E+00 0.  1.
          1   -1    0    0  501    0  0.00000000000E+00 -0.00000000000E+00 -0.15677416595E+04  0.15677416595E+04  0.00000000000E+00 0. -1.
        -24    2    1    2    0    0  0.71856790850E+03 -0.73671839735E+02 -0.10221531040E+04  0.12542292837E+04  0.80788297134E+02 0.  0.
        254    2    1    2    0    0 -0.71856790850E+03  0.73671839735E+02  0.34180434856E+03  0.12009052798E+04  0.89642395070E+03 0.  0.
         23    2    4    4    0    0  0.65770337987E+02 -0.26533111022E+03  0.49523699846E+02  0.29221497306E+03  0.90612682487E+02 0.  0.
         23    2    4    4    0    0 -0.78433824648E+03  0.33900294995E+03  0.29228064871E+03  0.90869030678E+03  0.10089901415E+03 0.  0.
          3    1    3    3  502    0  0.62724805569E+03 -0.47979790532E+02 -0.92311668385E+03  0.11170884458E+04  0.00000000000E+00 0. -1.
         -4    1    3    3    0  502  0.91319852808E+02 -0.25692049203E+02 -0.99036420130E+02  0.13714083790E+03  0.00000000000E+00 0.  1.
         13    1    5    5    0    0  0.41321007224E+02 -0.18606190604E+03 -0.88187288189E+01  0.19079892163E+03  0.00000000000E+00 0.  1.
        -13    1    5    5    0    0  0.24449330762E+02 -0.79269204179E+02  0.58342428665E+02  0.10141605143E+03  0.00000000000E+00 0. -1.
          4    1    6    6  503    0 -0.31261515817E+03  0.15201473914E+03  0.16888771639E+03  0.38647092877E+03  0.00000000000E+00 0. -1.
         -4    1    6    6    0  503 -0.47172308831E+03  0.18698821081E+03  0.12339293232E+03  0.52221937802E+03  0.00000000000E+00 0.  1.
<mgrwt>
<rscale>  0 0.23589852E+04</rscale>
<asrwt>0</asrwt>
<pdfrwt beam="1">  1        1 0.24119102E+00 0.23589852E+04</pdfrwt>
<pdfrwt beam="2">  1       -2 0.13652199E+00 0.23589852E+04</pdfrwt>
<totfact> 0.17778839E+00</totfact>
</mgrwt>
</event>
<event>
12    5  0.5095719E-008  0.1179937E+04  0.7818608E-02  0.9130601E-01
          1   -1    0    0  501    0  0.00000000000E+00  0.00000000000E+00  0.11806681691E+04  0.11806681691E+04  0.00000000000E+00 0. -1.
         -2   -1    0    0    0  501 -0.00000000000E+00 -0.00000000000E+00 -0.29480178042E+03  0.29480178042E+03  0.00000000000E+00 0.  1.
        -24    2    1    2    0    0  0.23034428313E+03 -0.86538043515E+02  0.13804764669E+03  0.29346225155E+03  0.80719381667E+02 0.  0.
        254    2    1    2    0    0 -0.23034428313E+03  0.86538043515E+02  0.74781874195E+03  0.11820076979E+04  0.88168135141E+03 0.  0.
         23    2    4    4    0    0 -0.35087092534E+03 -0.23427158176E+03  0.98937079898E+02  0.44253669946E+03  0.89758589149E+02 0.  0.
         23    2    4    4    0    0  0.12052664220E+03  0.32080962527E+03  0.64888166205E+03  0.73947099848E+03  0.91238473723E+02 0.  0.
          1    1    3    3  502    0  0.36296856317E+02 -0.42182509749E+01  0.56842535152E+02  0.67574619660E+02  0.00000000000E+00 0. -1.
         -2    1    3    3    0  502  0.19404742682E+03 -0.82319792540E+02  0.81205111540E+02  0.22588763188E+03  0.00000000000E+00 0.  1.
         13    1    5    5    0    0 -0.24291749603E+03 -0.11669847410E+03  0.83706432746E+02  0.28219534124E+03  0.00000000000E+00 0. -1.
        -13    1    5    5    0    0 -0.10795342930E+03 -0.11757310766E+03  0.15230647152E+02  0.16034135822E+03  0.00000000000E+00 0.  1.
          1    1    6    6  503    0  0.44480323193E+02  0.29047593399E+02  0.95691721893E+02  0.10944938315E+03  0.00000000000E+00 0. -1.
         -1    1    6    6    0  503  0.76046319010E+02  0.29176203187E+03  0.55318994016E+03  0.63002161532E+03  0.00000000000E+00 0.  1.
<mgrwt>
<rscale>  0 0.11799374E+04</rscale>
<asrwt>0</asrwt>
<pdfrwt beam="1">  1        1 0.18164125E+00 0.11799374E+04</pdfrwt>
<pdfrwt beam="2">  1       -2 0.45354121E-01 0.11799374E+04</pdfrwt>
<totfact> 0.44232560E+01</totfact>
</mgrwt>
</event>
<event>
12    5  0.5095719E-008  0.1135105E+04  0.7818608E-02  0.9171636E-01
         -2   -1    0    0    0  501 -0.00000000000E+00  0.00000000000E+00  0.34401124785E+03  0.34401124785E+03  0.00000000000E+00 0.  1.
          1   -1    0    0  501    0  0.00000000000E+00 -0.00000000000E+00 -0.93635257492E+03  0.93635257492E+03  0.00000000000E+00 0. -1.
        -24    2    1    2    0    0 -0.14868141498E+02  0.18402970944E+03 -0.20652441225E+03  0.28849497049E+03  0.80554450858E+02 0.  0.
        254    2    1    2    0    0  0.14868141498E+02 -0.18402970944E+03 -0.38581691482E+03  0.99186885228E+03  0.89490844938E+03 0.  0.
         23    2    4    4    0    0 -0.19344020760E+03  0.21439577348E+03  0.10400934025E+03  0.32116786885E+03  0.94584330229E+02 0.  0.
         23    2    4    4    0    0  0.20830834910E+03 -0.39842548292E+03 -0.48982625507E+03  0.67070098343E+03  0.88174912960E+02 0.  0.
          1    1    3    3  502    0  0.13052997526E+02  0.15880063301E+03 -0.18834746790E+03  0.24670385172E+03  0.00000000000E+00 0. -1.
         -2    1    3    3    0  502 -0.27921139024E+02  0.25229076431E+02 -0.18176944347E+02  0.41791118767E+02  0.00000000000E+00 0.  1.
         13    1    5    5    0    0 -0.70757006730E+01  0.39232170529E+02 -0.10070545392E+02  0.41117449202E+02  0.00000000000E+00 0. -1.
        -13    1    5    5    0    0 -0.18636450693E+03  0.17516360295E+03  0.11407988564E+03  0.28005041965E+03  0.00000000000E+00 0.  1.
          3    1    6    6  503    0  0.77951195934E+02 -0.71097386568E+02 -0.12369422306E+03  0.16257763728E+03  0.00000000000E+00 0. -1.
         -3    1    6    6    0  503  0.13035715316E+03 -0.32732809635E+03 -0.36613203201E+03  0.50812334615E+03  0.00000000000E+00 0.  1.
<mgrwt>
<rscale>  0 0.11351050E+04</rscale>
<asrwt>0</asrwt>
<pdfrwt beam="1">  1        1 0.14405424E+00 0.11351050E+04</pdfrwt>
<pdfrwt beam="2">  1       -2 0.52924807E-01 0.11351050E+04</pdfrwt>
<totfact> 0.49875524E+01</totfact>
</mgrwt>
</event>
<event>
12    5  0.5095719E-008  0.1467835E+04  0.7818608E-02  0.8906129E-01
         -2   -1    0    0    0  501 -0.00000000000E+00  0.00000000000E+00  0.10205496486E+04  0.10205496486E+04  0.00000000000E+00 0.  1.
          1   -1    0    0  501    0  0.00000000000E+00 -0.00000000000E+00 -0.52778892066E+03  0.52778892066E+03  0.00000000000E+00 0. -1.
        -24    2    1    2    0    0  0.19080304920E+03  0.23844208090E+03  0.52976710700E+03  0.61648799996E+03  0.78382631377E+02 0.  0.
        254    2    1    2    0    0 -0.19080304920E+03 -0.23844208090E+03 -0.37006379061E+02  0.93185056931E+03  0.87961104012E+03 0.  0.
         23    2    4    4    0    0 -0.43510425849E+03  0.13840542709E+03 -0.71834418132E+02  0.47161344238E+03  0.93740478992E+02 0.  0.
         23    2    4    4    0    0  0.24430120930E+03 -0.37684750799E+03  0.34828039071E+02  0.46023712692E+03  0.94382707907E+02 0.  0.
          3    1    3    3  502    0  0.13345979960E+03  0.12580699426E+03  0.36824742201E+03  0.41139407109E+03  0.00000000000E+00 0. -1.
         -4    1    3    3    0  502  0.57343249592E+02  0.11263508664E+03  0.16151968500E+03  0.20509392886E+03  0.00000000000E+00 0.  1.
         13    1    5    5    0    0 -0.40749179086E+03  0.11135333686E+03 -0.84763975109E+02  0.43085270886E+03  0.00000000000E+00 0. -1.
        -13    1    5    5    0    0 -0.27612467631E+02  0.27052090223E+02  0.12929556978E+02  0.40760733528E+02  0.00000000000E+00 0.  1.
          2    1    6    6  503    0  0.22564759652E+03 -0.28174324894E+03  0.14773962557E+02  0.36126772083E+03  0.00000000000E+00 0. -1.
         -2    1    6    6    0  503  0.18653612773E+02 -0.95104259048E+02  0.20054076514E+02  0.98969406098E+02  0.00000000000E+00 0.  1.
<mgrwt>
<rscale>  0 0.14678349E+04</rscale>
<asrwt>0</asrwt>
<pdfrwt beam="1">  1        1 0.81198296E-01 0.14678349E+04</pdfrwt>
<pdfrwt beam="2">  1       -2 0.15700764E+00 0.14678349E+04</pdfrwt>
<totfact> 0.92387896E+00</totfact>
</mgrwt>
</event>
<event>
12    5  0.5095719E-008  0.2036923E+04  0.7818608E-02  0.8589550E-01
         -2   -1    0    0    0  501 -0.00000000000E+00  0.00000000000E+00  0.16063465477E+04  0.16063465477E+04  0.00000000000E+00 0.  1.
          1   -1    0    0  501    0  0.00000000000E+00 -0.00000000000E+00 -0.64572870172E+03  0.64572870172E+03  0.00000000000E+00 0. -1.
        -24    2    1    2    0    0  0.68314327229E+03 -0.21570767998E+03 -0.51516193921E+02  0.72266990225E+03  0.79895780258E+02 0.  0.
        254    2    1    2    0    0 -0.68314327229E+03  0.21570767998E+03  0.10121340399E+04  0.15294053472E+04  0.89523788320E+03 0.  0.
         23    2    4    4    0    0  0.50294426301E+02  0.88099223540E+02  0.70561581061E+03  0.71915421333E+03  0.94858356785E+02 0.  0.
         23    2    4    4    0    0 -0.73343769860E+03  0.12760845644E+03  0.30651822930E+03  0.81025113385E+03  0.91316477849E+02 0.  0.
          3    1    3    3  502    0  0.44811248248E+03 -0.11545285069E+03 -0.39669977233E+01  0.46276332478E+03  0.00000000000E+00 0. -1.
         -4    1    3    3    0  502  0.23503078981E+03 -0.10025482929E+03 -0.47549196197E+02  0.25990657747E+03  0.00000000000E+00 0.  1.
         13    1    5    5    0    0  0.38120638781E+01  0.54251340053E+02  0.13344958887E+03  0.14410597662E+03  0.00000000000E+00 0. -1.
        -13    1    5    5    0    0  0.46482362423E+02  0.33847883487E+02  0.57216622174E+03  0.57504823670E+03  0.00000000000E+00 0.  1.
          1    1    6    6  503    0 -0.18205596975E+03  0.31438233760E+01  0.45734316812E+02  0.18773888112E+03  0.00000000000E+00 0. -1.
         -1    1    6    6    0  503 -0.55138172884E+03  0.12446463307E+03  0.26078391249E+03  0.62251225273E+03  0.00000000000E+00 0.  1.
<mgrwt>
<rscale>  0 0.20369232E+04</rscale>
<asrwt>0</asrwt>
<pdfrwt beam="1">  1        1 0.99342878E-01 0.20369232E+04</pdfrwt>
<pdfrwt beam="2">  1       -2 0.24713024E+00 0.20369232E+04</pdfrwt>
<totfact> 0.16668720E+00</totfact>
</mgrwt>
</event>
<event>
12    5  0.5095719E-008  0.1489991E+04  0.7818608E-02  0.8891136E-01
         -2   -1    0    0    0  501 -0.00000000000E+00  0.00000000000E+00  0.84206242005E+03  0.84206242005E+03  0.00000000000E+00 0.  1.
          1   -1    0    0  501    0  0.00000000000E+00 -0.00000000000E+00 -0.65911794997E+03  0.65911794997E+03  0.00000000000E+00 0. -1.
        -24    2    1    2    0    0  0.12605421892E+03  0.41880031326E+03  0.15482328683E+03  0.47057633612E+03  0.78666825777E+02 0.  0.
        254    2    1    2    0    0 -0.12605421892E+03 -0.41880031326E+03  0.28121183254E+02  0.10306040339E+04  0.93277569933E+03 0.  0.
         23    2    4    4    0    0  0.37734690011E+03 -0.87721317681E+02 -0.93786434215E+02  0.40922740301E+03  0.92657754862E+02 0.  0.
         23    2    4    4    0    0 -0.50340111902E+03 -0.33107899558E+03  0.12190761747E+03  0.62137663090E+03  0.90672279543E+02 0.  0.
          3    1    3    3  502    0  0.35612909958E+02  0.13360315303E+03  0.11271756846E+02  0.13872683359E+03  0.00000000000E+00 0. -1.
         -4    1    3    3    0  502  0.90441308960E+02  0.28519716023E+03  0.14355152998E+03  0.33184950253E+03  0.00000000000E+00 0.  1.
         13    1    5    5    0    0  0.75419449228E+02  0.16116362457E+02 -0.25540382975E+01  0.77164457961E+02  0.00000000000E+00 0.  1.
        -13    1    5    5    0    0  0.30192745088E+03 -0.10383768014E+03 -0.91232395918E+02  0.33206294505E+03  0.00000000000E+00 0. -1.
          1    1    6    6  503    0 -0.44780951003E+03 -0.32423464245E+03  0.10392553805E+03  0.56254953391E+03  0.00000000000E+00 0. -1.
         -1    1    6    6    0  503 -0.55591608990E+02 -0.68443531329E+01  0.17982079420E+02  0.58827096989E+02  0.00000000000E+00 0.  1.
<mgrwt>
<rscale>  0 0.14899912E+04</rscale>
<asrwt>0</asrwt>
<pdfrwt beam="1">  1        1 0.10140276E+00 0.14899912E+04</pdfrwt>
<pdfrwt beam="2">  1       -2 0.12954807E+00 0.14899912E+04</pdfrwt>
<totfact> 0.11073460E+01</totfact>
</mgrwt>
</event>
<event>
12    5  0.5095719E-008  0.1391338E+04  0.7818608E-02  0.8960113E-01
         -2   -1    0    0    0  501 -0.00000000000E+00  0.00000000000E+00  0.82266740371E+03  0.82266740371E+03  0.00000000000E+00 0.  1.
          1   -1    0    0  501    0  0.00000000000E+00 -0.00000000000E+00 -0.58827546816E+03  0.58827546816E+03  0.00000000000E+00 0. -1.
        -24    2    1    2    0    0 -0.19004867143E+03 -0.28016543420E+03  0.27198425571E+03  0.44082786857E+03  0.75779986310E+02 0.  0.
        254    2    1    2    0    0  0.19004867143E+03  0.28016543420E+03 -0.37592320159E+02  0.97011500331E+03  0.90834947519E+03 0.  0.
         23    2    4    4    0    0  0.41809544209E+03  0.18079784382E+03 -0.33379281054E+03  0.57284261760E+03  0.96121616417E+02 0.  0.
         23    2    4    4    0    0 -0.22804677066E+03  0.99367590376E+02  0.29620049038E+03  0.39727238571E+03  0.90616611682E+02 0.  0.
          1    1    3    3  502    0 -0.34873123119E+01 -0.40576947735E+02  0.16320951466E+02  0.43875089646E+02  0.00000000000E+00 0. -1.
         -2    1    3    3    0  502 -0.18656135911E+03 -0.23958848646E+03  0.25566330424E+03  0.39695277892E+03  0.00000000000E+00 0.  1.
         13    1    5    5    0    0  0.15784344685E+03  0.65684756801E+02 -0.18431945050E+03  0.25140147339E+03  0.00000000000E+00 0.  1.
        -13    1    5    5    0    0  0.26025199524E+03  0.11511308702E+03 -0.14947336004E+03  0.32144114421E+03  0.00000000000E+00 0. -1.
          4    1    6    6  503    0 -0.18862698907E+03  0.86902945162E+02  0.18316956713E+03  0.27691759281E+03  0.00000000000E+00 0. -1.
         -4    1    6    6    0  503 -0.39419781590E+02  0.12464645214E+02  0.11303092326E+03  0.12035479290E+03  0.00000000000E+00 0.  1.
<mgrwt>
<rscale>  0 0.13913376E+04</rscale>
<asrwt>0</asrwt>
<pdfrwt beam="1">  1        1 0.90503918E-01 0.13913376E+04</pdfrwt>
<pdfrwt beam="2">  1       -2 0.12656422E+00 0.13913376E+04</pdfrwt>
<totfact> 0.13976117E+01</totfact>
</mgrwt>
</event>
<event>
12    5  0.5095719E-008  0.2865271E+04  0.7818608E-02  0.8283286E-01
         -2   -1    0    0    0  501 -0.00000000000E+00  0.00000000000E+00  0.11322844878E+04  0.11322844878E+04  0.00000000000E+00 0.  1.
          1   -1    0    0  501    0  0.00000000000E+00 -0.00000000000E+00 -0.18126584494E+04  0.18126584494E+04  0.00000000000E+00 0. -1.
        -24    2    1    2    0    0  0.55544451506E+02 -0.59812463536E+03  0.86741967174E+03  0.10581473170E+04  0.80128597416E+02 0.  0.
        254    2    1    2    0    0 -0.55544451506E+02  0.59812463536E+03 -0.15477936333E+04  0.18867956202E+04  0.89637844437E+03 0.  0.
         23    2    4    4    0    0  0.86325406806E+02 -0.16469293274E+03 -0.76282618202E+02  0.22090732001E+03  0.91679704610E+02 0.  0.
         23    2    4    4    0    0 -0.14186985831E+03  0.76281756810E+03 -0.14715110151E+04  0.16658883002E+04  0.88439030985E+02 0.  0.
          3    1    3    3  502    0 -0.60249397978E+01 -0.21477988984E+03  0.35971972111E+03  0.41900474786E+03  0.00000000000E+00 0. -1.
         -4    1    3    3    0  502  0.61569391304E+02 -0.38334474551E+03  0.50769995064E+03  0.63914256918E+03  0.00000000000E+00 0.  1.
         13    1    5    5    0    0  0.82871194938E+01 -0.63601834550E+02 -0.67169824479E+02  0.92874404591E+02  0.00000000000E+00 0.  1.
        -13    1    5    5    0    0  0.78038287312E+02 -0.10109109819E+03 -0.91127937228E+01  0.12803291542E+03  0.00000000000E+00 0. -1.
          3    1    6    6  503    0 -0.13630118153E+03  0.75889476362E+03 -0.14377657811E+04  0.16314624469E+04  0.00000000000E+00 0. -1.
         -3    1    6    6    0  503 -0.55686767845E+01  0.39228044789E+01 -0.33745234005E+02  0.34425853281E+02  0.00000000000E+00 0.  1.
<mgrwt>
<rscale>  0 0.28652714E+04</rscale>
<asrwt>0</asrwt>
<pdfrwt beam="1">  1        1 0.27887053E+00 0.28652714E+04</pdfrwt>
<pdfrwt beam="2">  1       -2 0.17419762E+00 0.28652714E+04</pdfrwt>
<totfact> 0.60150662E-01</totfact>
</mgrwt>
</event>
<event>
12    5  0.5095719E-008  0.1682957E+04  0.7818608E-02  0.8771145E-01
         -2   -1    0    0    0  501 -0.00000000000E+00  0.00000000000E+00  0.49267913576E+03  0.49267913576E+03  0.00000000000E+00 0.  1.
          1   -1    0    0  501    0  0.00000000000E+00 -0.00000000000E+00 -0.14372153633E+04  0.14372153633E+04  0.00000000000E+00 0. -1.
        -24    2    1    2    0    0  0.59677687431E+03 -0.41374691919E+01 -0.28342781621E+03  0.66517519171E+03  0.77246050458E+02 0.  0.
        254    2    1    2    0    0 -0.59677687431E+03  0.41374691919E+01 -0.66110841134E+03  0.12647193073E+04  0.89793699026E+03 0.  0.
         23    2    4    4    0    0 -0.98106463456E+02 -0.30241678853E+03 -0.57851415025E+03  0.66630167766E+03  0.90545631949E+02 0.  0.
         23    2    4    4    0    0 -0.49867041085E+03  0.30655425772E+03 -0.82594261092E+02  0.59841762969E+03  0.92920159128E+02 0.  0.
          3    1    3    3  502    0  0.24422290404E+03  0.70664771149E+01 -0.15724651446E+03  0.29055331399E+03  0.00000000000E+00 0. -1.
         -4    1    3    3    0  502  0.35255397026E+03 -0.11203946307E+02 -0.12618130175E+03  0.37462187773E+03  0.00000000000E+00 0.  1.
         13    1    5    5    0    0 -0.99910293993E+02 -0.20454072861E+03 -0.45437583969E+03  0.50820899264E+03  0.00000000000E+00 0.  1.
        -13    1    5    5    0    0  0.18038305368E+01 -0.97876059918E+02 -0.12413831055E+03  0.15809268502E+03  0.00000000000E+00 0. -1.
          4    1    6    6  503    0 -0.44760984372E+03  0.30220931583E+03 -0.63796691597E+02  0.54383367000E+03  0.00000000000E+00 0.  1.
         -4    1    6    6    0  503 -0.51060567131E+02  0.43449418828E+01 -0.18797569495E+02  0.54583959682E+02  0.00000000000E+00 0. -1.
<mgrwt>
<rscale>  0 0.16829569E+04</rscale>
<asrwt>0</asrwt>
<pdfrwt beam="1">  1        1 0.22111005E+00 0.16829569E+04</pdfrwt>
<pdfrwt beam="2">  1       -2 0.75796791E-01 0.16829569E+04</pdfrwt>
<totfact> 0.94356166E+00</totfact>
</mgrwt>
</event>
<event>
12    5  0.5095719E-008  0.3408150E+04  0.7818608E-02  0.8135909E-01
         -2   -1    0    0    0  501 -0.00000000000E+00  0.00000000000E+00  0.12557846973E+04  0.12557846973E+04  0.00000000000E+00 0.  1.
          1   -1    0    0  501    0  0.00000000000E+00 -0.00000000000E+00 -0.23123963561E+04  0.23123963561E+04  0.00000000000E+00 0. -1.
        -24    2    1    2    0    0 -0.69733516972E+03  0.77161949457E+02 -0.19701097775E+04  0.20928386046E+04  0.80066125111E+02 0.  0.
        254    2    1    2    0    0  0.69733516972E+03 -0.77161949457E+02  0.91349811872E+03  0.14753424488E+04  0.92191443359E+03 0.  0.
         23    2    4    4    0    0  0.58201291131E+03 -0.45199162551E+03  0.70292574675E+03  0.10220895336E+04  0.86758001895E+02 0.  0.
         23    2    4    4    0    0  0.11532225841E+03  0.37482967606E+03  0.21057237197E+03  0.45325291512E+03  0.85445724816E+02 0.  0.
          3    1    3    3  502    0 -0.30760180832E+03  0.70042480951E+02 -0.93317798805E+03  0.98506140874E+03  0.00000000000E+00 0. -1.
         -4    1    3    3    0  502 -0.38973336140E+03  0.71194685065E+01 -0.10369317894E+04  0.11077771959E+04  0.00000000000E+00 0.  1.
         13    1    5    5    0    0  0.14341564034E+03 -0.13317844628E+03  0.23542014502E+03  0.30614896558E+03  0.00000000000E+00 0. -1.
        -13    1    5    5    0    0  0.43859727097E+03 -0.31881317924E+03  0.46750560173E+03  0.71594056807E+03  0.00000000000E+00 0.  1.
          1    1    6    6  503    0  0.57828597387E+00 -0.55588491685E+00 -0.52441026769E+01  0.53050952484E+01  0.00000000000E+00 0. -1.
         -1    1    6    6    0  503  0.11474397244E+03  0.37538556097E+03  0.21581647465E+03  0.44794781987E+03  0.00000000000E+00 0.  1.
<mgrwt>
<rscale>  0 0.34081502E+04</rscale>
<asrwt>0</asrwt>
<pdfrwt beam="1">  1        1 0.35575328E+00 0.34081502E+04</pdfrwt>
<pdfrwt beam="2">  1       -2 0.19319765E+00 0.34081502E+04</pdfrwt>
<totfact> 0.19474125E-01</totfact>
</mgrwt>
</event>
<event>
12    5  0.5095719E-008  0.3356509E+04  0.7818608E-02  0.8148664E-01
         -2   -1    0    0    0  501 -0.00000000000E+00  0.00000000000E+00  0.67108350831E+03  0.67108350831E+03  0.00000000000E+00 0.  1.
          1   -1    0    0  501    0  0.00000000000E+00 -0.00000000000E+00 -0.41970010897E+04  0.41970010897E+04  0.00000000000E+00 0. -1.
        -24    2    1    2    0    0 -0.34368694687E+03  0.14089247343E+04 -0.24418604084E+04  0.28413574459E+04  0.86256924189E+02 0.  0.
        254    2    1    2    0    0  0.34368694687E+03 -0.14089247343E+04 -0.10840571730E+04  0.20267271521E+04  0.91063349938E+03 0.  0.
         23    2    4    4    0    0  0.36371441323E+03 -0.13364886201E+04 -0.57257038270E+03  0.15019115864E+04  0.97013217099E+02 0.  0.
         23    2    4    4    0    0 -0.20027466360E+02 -0.72436114253E+02 -0.51148679030E+03  0.52481556566E+03  0.90357906409E+02 0.  0.
          3    1    3    3  502    0 -0.12206423561E+03  0.52017711815E+03 -0.98161452869E+03  0.11176095001E+04  0.00000000000E+00 0. -1.
         -2    1    3    3    0  502 -0.22162271126E+03  0.88874761619E+03 -0.14602458797E+04  0.17237479458E+04  0.00000000000E+00 0.  1.
         13    1    5    5    0    0  0.28481561968E+03 -0.11700207085E+04 -0.49102899911E+03  0.13004529494E+04  0.00000000000E+00 0.  1.
        -13    1    5    5    0    0  0.78898793546E+02 -0.16646791157E+03 -0.81541383592E+02  0.20145863705E+03  0.00000000000E+00 0. -1.
          1    1    6    6  503    0  0.15683695614E+02  0.12335090982E+02 -0.43276596858E+02  0.47654974696E+02  0.00000000000E+00 0. -1.
         -1    1    6    6    0  503 -0.35711161973E+02 -0.84771205235E+02 -0.46821019344E+03  0.47716059096E+03  0.00000000000E+00 0.  1.
<mgrwt>
<rscale>  0 0.33565090E+04</rscale>
<asrwt>0</asrwt>
<pdfrwt beam="1">  1        1 0.64569246E+00 0.33565090E+04</pdfrwt>
<pdfrwt beam="2">  1       -2 0.10324362E+00 0.33565090E+04</pdfrwt>
<totfact> 0.35351890E-02</totfact>
</mgrwt>
</event>
<event>
12    5  0.5095719E-008  0.3002890E+04  0.7818608E-02  0.8242906E-01
          1   -1    0    0  501    0  0.00000000000E+00  0.00000000000E+00  0.22437379750E+04  0.22437379750E+04  0.00000000000E+00 0. -1.
         -2   -1    0    0    0  501 -0.00000000000E+00 -0.00000000000E+00 -0.10047240571E+04  0.10047240571E+04  0.00000000000E+00 0.  1.
        -24    2    1    2    0    0  0.80499557767E+03 -0.78345234767E+03  0.13990856609E+04  0.17973906678E+04  0.10656953055E+03 0.  0.
        254    2    1    2    0    0 -0.80499557767E+03  0.78345234767E+03 -0.16007174304E+03  0.14510713644E+04  0.90452732431E+03 0.  0.
         23    2    4    4    0    0 -0.46288899633E+02  0.65372871097E+03 -0.13581701155E+03  0.67532839982E+03  0.90101593803E+02 0.  0.
         23    2    4    4    0    0 -0.75870667803E+03  0.12972363670E+03 -0.24254731488E+02  0.77574296454E+03  0.93406690488E+02 0.  0.
          3    1    3    3  502    0  0.73188160795E+03 -0.66358060960E+03  0.12216395149E+04  0.15711120322E+04  0.00000000000E+00 0. -1.
         -2    1    3    3    0  502  0.73113969711E+02 -0.11987173807E+03  0.17744614604E+03  0.22627863554E+03  0.00000000000E+00 0.  1.
         13    1    5    5    0    0 -0.12482453891E+01 -0.29971977614E+01 -0.98592232842E+00  0.33931333322E+01  0.00000000000E+00 0. -1.
        -13    1    5    5    0    0 -0.45040654244E+02  0.65672590873E+03 -0.13483108922E+03  0.67193526649E+03  0.00000000000E+00 0.  1.
          2    1    6    6  503    0 -0.14447367394E+03  0.22452175031E+02  0.32039284102E+02  0.14967718046E+03  0.00000000000E+00 0. -1.
         -2    1    6    6    0  503 -0.61423300409E+03  0.10727146167E+03 -0.56294015589E+02  0.62606578408E+03  0.00000000000E+00 0.  1.
<mgrwt>
<rscale>  0 0.30028903E+04</rscale>
<asrwt>0</asrwt>
<pdfrwt beam="1">  1        1 0.34519046E+00 0.30028903E+04</pdfrwt>
<pdfrwt beam="2">  1       -2 0.15457293E+00 0.30028903E+04</pdfrwt>
<totfact> 0.42083249E-01</totfact>
</mgrwt>
</event>
<event>
12    5  0.5095719E-008  0.2129750E+04  0.7818608E-02  0.8548250E-01
          1   -1    0    0  501    0  0.00000000000E+00  0.00000000000E+00  0.12974602030E+04  0.12974602030E+04  0.00000000000E+00 0. -1.
         -2   -1    0    0    0  501 -0.00000000000E+00 -0.00000000000E+00 -0.87398382489E+03  0.87398382489E+03  0.00000000000E+00 0.  1.
        -24    2    1    2    0    0  0.76862605717E+02  0.70515306030E+03 -0.34494263964E+03  0.79276221667E+03  0.79610356897E+02 0.  0.
        254    2    1    2    0    0 -0.76862605717E+02 -0.70515306030E+03  0.76841901777E+03  0.13786818112E+04  0.89841363035E+03 0.  0.
         23    2    4    4    0    0 -0.28705355403E+02  0.13956640503E+03  0.42964274232E+03  0.46183280211E+03  0.91618078096E+02 0.  0.
         23    2    4    4    0    0 -0.48157250313E+02 -0.84471946533E+03  0.33877627544E+03  0.91684900913E+03  0.99863130733E+02 0.  0.
          1    1    3    3  502    0  0.30486950289E+02  0.92084990650E+02 -0.27475177771E+02  0.10081659107E+03  0.00000000000E+00 0. -1.
         -2    1    3    3    0  502  0.46375655428E+02  0.61306806965E+03 -0.31746746187E+03  0.69194562560E+03  0.00000000000E+00 0.  1.
         13    1    5    5    0    0 -0.26442759974E+02  0.11209982697E+03  0.20200656855E+03  0.23253439423E+03  0.00000000000E+00 0.  1.
        -13    1    5    5    0    0 -0.22625954299E+01  0.27466578064E+02  0.22763617377E+03  0.22929840789E+03  0.00000000000E+00 0. -1.
          2    1    6    6  503    0 -0.37680878494E+02 -0.41175008561E+03  0.11400514912E+03  0.42889993662E+03  0.00000000000E+00 0. -1.
         -2    1    6    6    0  503 -0.10476371819E+02 -0.43296937972E+03  0.22477112632E+03  0.48794907251E+03  0.00000000000E+00 0.  1.
<mgrwt>
<rscale>  0 0.21297504E+04</rscale>
<asrwt>0</asrwt>
<pdfrwt beam="1">  1        1 0.19960926E+00 0.21297504E+04</pdfrwt>
<pdfrwt beam="2">  1       -2 0.13445905E+00 0.21297504E+04</pdfrwt>
<totfact> 0.29143175E+00</totfact>
</mgrwt>
</event>
<event>
12    5  0.5095719E-008  0.1720516E+04  0.7818608E-02  0.8749749E-01
         -2   -1    0    0    0  501 -0.00000000000E+00  0.00000000000E+00  0.55978415369E+03  0.55978415369E+03  0.00000000000E+00 0.  1.
          1   -1    0    0  501    0  0.00000000000E+00 -0.00000000000E+00 -0.13220156897E+04  0.13220156897E+04  0.00000000000E+00 0. -1.
        -24    2    1    2    0    0 -0.60225230143E+02 -0.14166305529E+03 -0.94209533064E+03  0.95787709687E+03  0.79305870579E+02 0.  0.
        254    2    1    2    0    0  0.60225230143E+02  0.14166305529E+03  0.17986379465E+03  0.92392274650E+03  0.89307712841E+03 0.  0.
         23    2    4    4    0    0  0.35328408179E+03 -0.92420249238E+02  0.33845260548E+03  0.50648152443E+03  0.92855928812E+02 0.  0.
         23    2    4    4    0    0 -0.29305885165E+03  0.23408330453E+03 -0.15858881083E+03  0.41744122207E+03  0.91805658742E+02 0.  0.
          1    1    3    3  502    0 -0.48061794995E+02 -0.12848369370E+03 -0.60724262727E+03  0.62254445950E+03  0.00000000000E+00 0. -1.
         -2    1    3    3    0  502 -0.12163435149E+02 -0.13179361589E+02 -0.33485270338E+03  0.33533263737E+03  0.00000000000E+00 0.  1.
         13    1    5    5    0    0  0.25611501274E+03 -0.93747855550E+02  0.28926223099E+03  0.39756282327E+03  0.00000000000E+00 0. -1.
        -13    1    5    5    0    0  0.97169069058E+02  0.13276063118E+01  0.49190374489E+02  0.10891870116E+03  0.00000000000E+00 0.  1.
          4    1    6    6  503    0 -0.29023508755E+03  0.23798695234E+03 -0.14388216188E+03  0.40196551100E+03  0.00000000000E+00 0. -1.
         -4    1    6    6    0  503 -0.28237641012E+01 -0.39036478071E+01 -0.14706648950E+02  0.15475711074E+02  0.00000000000E+00 0.  1.
<mgrwt>
<rscale>  0 0.17205155E+04</rscale>
<asrwt>0</asrwt>
<pdfrwt beam="1">  1        1 0.20338703E+00 0.17205155E+04</pdfrwt>
<pdfrwt beam="2">  1       -2 0.86120638E-01 0.17205155E+04</pdfrwt>
<totfact> 0.85025595E+00</totfact>
</mgrwt>
</event>
<event>
12    5  0.5095719E-008  0.2189118E+04  0.7818608E-02  0.8522971E-01
         -2   -1    0    0    0  501 -0.00000000000E+00  0.00000000000E+00  0.12947864350E+04  0.12947864350E+04  0.00000000000E+00 0.  1.
          1   -1    0    0  501    0  0.00000000000E+00 -0.00000000000E+00 -0.92529524269E+03  0.92529524269E+03  0.00000000000E+00 0. -1.
        -24    2    1    2    0    0 -0.66053451357E+03 -0.29387956757E+03 -0.40360662391E+03  0.83176281185E+03  0.79120316291E+02 0.  0.
        254    2    1    2    0    0  0.66053451357E+03  0.29387956757E+03  0.77309781619E+03  0.13883188658E+04  0.89837519774E+03 0.  0.
         23    2    4    4    0    0  0.80384041854E+03  0.58577322947E+02  0.73721255372E+03  0.10960097642E+04  0.90356696770E+02 0.  0.
         23    2    4    4    0    0 -0.14330590496E+03  0.23530224463E+03  0.35885262467E+02  0.29230910160E+03  0.90846739576E+02 0.  0.
          3    1    3    3  502    0 -0.64679273141E+03 -0.29108523351E+03 -0.38091709639E+03  0.80508961296E+03  0.00000000000E+00 0. -1.
         -4    1    3    3    0  502 -0.13741782161E+02 -0.27943340579E+01 -0.22689527514E+02  0.26673198882E+02  0.00000000000E+00 0.  1.
         13    1    5    5    0    0  0.72011434550E+03  0.54963133208E+02  0.69446944642E+03  0.10019348425E+04  0.00000000000E+00 0.  1.
        -13    1    5    5    0    0  0.83726073036E+02  0.36141897383E+01  0.42743107304E+02  0.94074921714E+02  0.00000000000E+00 0. -1.
          3    1    6    6  503    0 -0.32217961503E+02  0.39157880463E+02 -0.28116432925E+02  0.57981638872E+02  0.00000000000E+00 0. -1.
         -3    1    6    6    0  503 -0.11108794346E+03  0.19614436416E+03  0.64001695392E+02  0.23432746273E+03  0.00000000000E+00 0.  1.
<mgrwt>
<rscale>  0 0.21891183E+04</rscale>
<asrwt>0</asrwt>
<pdfrwt beam="1">  1        1 0.14235311E+00 0.21891183E+04</pdfrwt>
<pdfrwt beam="2">  1       -2 0.19919791E+00 0.21891183E+04</pdfrwt>
<totfact> 0.18683541E+00</totfact>
</mgrwt>
</event>
<event>
12    5  0.5095719E-008  0.1595036E+04  0.7818608E-02  0.8823603E-01
         -2   -1    0    0    0  501 -0.00000000000E+00  0.00000000000E+00  0.50757066663E+03  0.50757066663E+03  0.00000000000E+00 0.  1.
          1   -1    0    0  501    0  0.00000000000E+00 -0.00000000000E+00 -0.12530965256E+04  0.12530965256E+04  0.00000000000E+00 0. -1.
        -24    2    1    2    0    0 -0.38708104807E+02 -0.53072122621E+03 -0.18811171452E+03  0.57015880610E+03  0.80818993528E+02 0.  0.
        254    2    1    2    0    0  0.38708104807E+02  0.53072122621E+03 -0.55741414442E+03  0.11905083861E+04  0.90743393790E+03 0.  0.
         23    2    4    4    0    0 -0.37600206923E+03  0.74737574484E+02 -0.36816148520E+03  0.53942955818E+03  0.92076641735E+02 0.  0.
         23    2    4    4    0    0  0.41471017404E+03  0.45598365172E+03 -0.18925265922E+03  0.65107882791E+03  0.90451379474E+02 0.  0.
          3    1    3    3  502    0  0.12817068152E+02 -0.28694193714E+03 -0.12417944616E+03  0.31292249419E+03  0.00000000000E+00 0. -1.
         -4    1    3    3    0  502 -0.51525172959E+02 -0.24377928907E+03 -0.63932268360E+02  0.25723631191E+03  0.00000000000E+00 0.  1.
         13    1    5    5    0    0 -0.35541823282E+03  0.80882710214E+02 -0.36797440359E+03  0.51794719299E+03  0.00000000000E+00 0.  1.
        -13    1    5    5    0    0 -0.20583836413E+02 -0.61451357304E+01 -0.18708160613E+00  0.21482365190E+02  0.00000000000E+00 0. -1.
          2    1    6    6  503    0  0.36444509296E+03  0.39967193396E+03 -0.19598182930E+03  0.57529710411E+03  0.00000000000E+00 0. -1.
         -2    1    6    6    0  503  0.50265081071E+02  0.56311717763E+02  0.67291700849E+01  0.75781723802E+02  0.00000000000E+00 0.  1.
<mgrwt>
<rscale>  0 0.15950361E+04</rscale>
<asrwt>0</asrwt>
<pdfrwt beam="1">  1        1 0.19278408E+00 0.15950361E+04</pdfrwt>
<pdfrwt beam="2">  1       -2 0.78087794E-01 0.15950361E+04</pdfrwt>
<totfact> 0.12013802E+01</totfact>
</mgrwt>
</event>
<event>
12    5  0.5095719E-008  0.1232877E+04  0.7818608E-02  0.9084556E-01
         -2   -1    0    0    0  501 -0.00000000000E+00  0.00000000000E+00  0.71019672555E+03  0.71019672555E+03  0.00000000000E+00 0.  1.
          1   -1    0    0  501    0  0.00000000000E+00 -0.00000000000E+00 -0.53505816108E+03  0.53505816108E+03  0.00000000000E+00 0. -1.
        -24    2    1    2    0    0 -0.22672214266E+03 -0.13488258433E+03  0.14878260306E+03  0.31366909066E+03  0.81583049311E+02 0.  0.
        254    2    1    2    0    0  0.22672214266E+03  0.13488258433E+03  0.26355961410E+02  0.93158579596E+03  0.89306282926E+03 0.  0.
         23    2    4    4    0    0  0.46937673024E+03  0.35212083890E+03  0.15715590443E+02  0.59340854582E+03  0.87081125391E+02 0.  0.
         23    2    4    4    0    0 -0.24265458758E+03 -0.21723825456E+03  0.10640370967E+02  0.33817725014E+03  0.90426361752E+02 0.  0.
          3    1    3    3  502    0 -0.15159502549E+03 -0.99682395432E+02  0.57519117606E+02  0.19033150186E+03  0.00000000000E+00 0. -1.
         -4    1    3    3    0  502 -0.75127117171E+02 -0.35200188900E+02  0.91263485453E+02  0.12333758880E+03  0.00000000000E+00 0.  1.
         13    1    5    5    0    0  0.24278952308E+03  0.20616204003E+03 -0.30416130281E+02  0.31996043544E+03  0.00000000000E+00 0. -1.
        -13    1    5    5    0    0  0.22658720716E+03  0.14595879887E+03  0.46131720724E+02  0.27344811038E+03  0.00000000000E+00 0.  1.
          1    1    6    6  503    0 -0.24999289889E+03 -0.20365708945E+03  0.82273570173E+01  0.32255286231E+03  0.00000000000E+00 0.  1.
         -1    1    6    6    0  503  0.73383113150E+01 -0.13581165112E+02  0.24130139495E+01  0.15624387831E+02  0.00000000000E+00 0. -1.
<mgrwt>
<rscale>  0 0.12328772E+04</rscale>
<asrwt>0</asrwt>
<pdfrwt beam="1">  1        1 0.82316640E-01 0.12328772E+04</pdfrwt>
<pdfrwt beam="2">  1       -2 0.10926104E+00 0.12328772E+04</pdfrwt>
<totfact> 0.23259490E+01</totfact>
</mgrwt>
</event>
<event>
12    5  0.5095719E-008  0.1228337E+04  0.7818608E-02  0.9088409E-01
          1   -1    0    0  501    0  0.00000000000E+00  0.00000000000E+00  0.17474195918E+03  0.17474195918E+03  0.00000000000E+00 0. -1.
         -2   -1    0    0    0  501 -0.00000000000E+00 -0.00000000000E+00 -0.21586273914E+04  0.21586273914E+04  0.00000000000E+00 0.  1.
        -24    2    1    2    0    0 -0.19651320395E+02 -0.19122906168E+03 -0.81614928464E+02  0.22057680579E+03  0.70981703862E+02 0.  0.
        254    2    1    2    0    0  0.19651320395E+02  0.19122906168E+03 -0.19022705037E+04  0.21127925448E+04  0.89905758405E+03 0.  0.
         23    2    4    4    0    0 -0.30818166677E+03 -0.14737252095E+01 -0.15612254521E+04  0.15940386836E+04  0.92500275960E+02 0.  0.
         23    2    4    4    0    0  0.32783298717E+03  0.19270278689E+03 -0.34104505163E+03  0.51875386113E+03  0.90471043134E+02 0.  0.
          1    1    3    3  502    0 -0.28797162767E+02 -0.16230782931E+03 -0.40964190090E+02  0.16985633020E+03  0.00000000000E+00 0. -1.
         -2    1    3    3    0  502  0.91458423724E+01 -0.28921232367E+02 -0.40650738374E+02  0.50720475595E+02  0.00000000000E+00 0.  1.
         13    1    5    5    0    0 -0.21269384209E+03 -0.23040816301E+02 -0.12367573164E+04  0.12551247784E+04  0.00000000000E+00 0. -1.
        -13    1    5    5    0    0 -0.95487824685E+02  0.21567091092E+02 -0.32446813567E+03  0.33891390521E+03  0.00000000000E+00 0.  1.
          4    1    6    6  503    0  0.79411844503E+01  0.26828805578E+02 -0.10858664471E+02  0.30012627565E+02  0.00000000000E+00 0. -1.
         -4    1    6    6    0  503  0.31989180272E+03  0.16587398131E+03 -0.33018638716E+03  0.48874123357E+03  0.00000000000E+00 0.  1.
<mgrwt>
<rscale>  0 0.12283367E+04</rscale>
<asrwt>0</asrwt>
<pdfrwt beam="1">  1        1 0.26883378E-01 0.12283367E+04</pdfrwt>
<pdfrwt beam="2">  1       -2 0.33209652E+00 0.12283367E+04</pdfrwt>
<totfact> 0.31133432E+00</totfact>
</mgrwt>
</event>
<event>
12    5  0.5095719E-008  0.2760660E+04  0.7818608E-02  0.8315587E-01
         -2   -1    0    0    0  501 -0.00000000000E+00  0.00000000000E+00  0.97685193484E+03  0.97685193484E+03  0.00000000000E+00 0.  1.
          1   -1    0    0  501    0  0.00000000000E+00 -0.00000000000E+00 -0.19504609943E+04  0.19504609943E+04  0.00000000000E+00 0. -1.
        -24    2    1    2    0    0  0.83529519308E+03  0.88779123595E+03 -0.61711489011E+03  0.13684696228E+04  0.77375595799E+02 0.  0.
        254    2    1    2    0    0 -0.83529519308E+03 -0.88779123595E+03 -0.35649416934E+03  0.15588433063E+04  0.90388772677E+03 0.  0.
         23    2    4    4    0    0 -0.29346415043E+02  0.16247794842E+03 -0.71321449970E+02  0.20153061990E+03  0.90926045402E+02 0.  0.
         23    2    4    4    0    0 -0.80594877804E+03 -0.10502691844E+04 -0.28517271937E+03  0.13573126864E+04  0.91408185283E+02 0.  0.
          1    1    3    3  502    0  0.17785173990E+03  0.18596679810E+03 -0.16631734115E+03  0.30639247599E+03  0.00000000000E+00 0. -1.
         -2    1    3    3    0  502  0.65744345318E+03  0.70182443786E+03 -0.45079754896E+03  0.10620771468E+04  0.00000000000E+00 0.  1.
         13    1    5    5    0    0  0.23180696051E+02  0.60899480320E+02 -0.56447477714E+02  0.86211421012E+02  0.00000000000E+00 0. -1.
        -13    1    5    5    0    0 -0.52527111094E+02  0.10157846810E+03 -0.14873972256E+02  0.11531919889E+03  0.00000000000E+00 0.  1.
          1    1    6    6  503    0 -0.16141649141E+03 -0.16692606169E+03 -0.27088938134E+02  0.23378067572E+03  0.00000000000E+00 0. -1.
         -1    1    6    6    0  503 -0.64453228663E+03 -0.88334312268E+03 -0.25808378124E+03  0.11235320107E+04  0.00000000000E+00 0.  1.
<mgrwt>
<rscale>  0 0.27606605E+04</rscale>
<asrwt>0</asrwt>
<pdfrwt beam="1">  1        1 0.30007092E+00 0.27606605E+04</pdfrwt>
<pdfrwt beam="2">  1       -2 0.15028491E+00 0.27606605E+04</pdfrwt>
<totfact> 0.73285287E-01</totfact>
</mgrwt>
</event>
<event>
12    5  0.5095719E-008  0.1519774E+04  0.7818608E-02  0.8871409E-01
          1   -1    0    0  501    0  0.00000000000E+00  0.00000000000E+00  0.12431765391E+04  0.12431765391E+04  0.00000000000E+00 0. -1.
         -2   -1    0    0    0  501 -0.00000000000E+00 -0.00000000000E+00 -0.46447797855E+03  0.46447797855E+03  0.00000000000E+00 0.  1.
        -24    2    1    2    0    0 -0.30973941327E+03  0.55268719000E+02  0.62339060965E+03  0.70261509751E+03  0.77839499129E+02 0.  0.
        254    2    1    2    0    0  0.30973941327E+03 -0.55268719000E+02  0.15530795091E+03  0.10050394201E+04  0.94180175248E+03 0.  0.
         23    2    4    4    0    0  0.23004288109E+03 -0.11124428780E+03 -0.37192585243E+03  0.46050333369E+03  0.91866544110E+02 0.  0.
         23    2    4    4    0    0  0.79696532179E+02  0.55975568801E+02  0.52723380334E+03  0.54453608644E+03  0.95180168714E+02 0.  0.
          1    1    3    3  502    0 -0.27635974147E+03  0.70735285949E+02  0.52374174061E+03  0.59639215139E+03  0.00000000000E+00 0. -1.
         -2    1    3    3    0  502 -0.33379671804E+02 -0.15466566950E+02  0.99648869031E+02  0.10622294612E+03  0.00000000000E+00 0.  1.
         13    1    5    5    0    0  0.20969184716E+03 -0.11055858247E+03 -0.37081441370E+03  0.44011044106E+03  0.00000000000E+00 0. -1.
        -13    1    5    5    0    0  0.20351033928E+02 -0.68570532676E+00 -0.11114387307E+01  0.20392892630E+02  0.00000000000E+00 0.  1.
          1    1    6    6  503    0  0.94312503934E+02  0.18973261533E+02  0.38577174063E+03  0.39758605222E+03  0.00000000000E+00 0. -1.
         -1    1    6    6    0  503 -0.14615971755E+02  0.37002307268E+02  0.14146206271E+03  0.14695003423E+03  0.00000000000E+00 0.  1.
<mgrwt>
<rscale>  0 0.15197738E+04</rscale>
<asrwt>0</asrwt>
<pdfrwt beam="1">  1        1 0.19125793E+00 0.15197738E+04</pdfrwt>
<pdfrwt beam="2">  1       -2 0.71458151E-01 0.15197738E+04</pdfrwt>
<totfact> 0.14960452E+01</totfact>
</mgrwt>
</event>
<event>
12    5  0.5095719E-008  0.3296064E+04  0.7818608E-02  0.8163898E-01
          1   -1    0    0  501    0  0.00000000000E+00  0.00000000000E+00  0.39126932602E+04  0.39126932602E+04  0.00000000000E+00 0. -1.
         -2   -1    0    0    0  501 -0.00000000000E+00 -0.00000000000E+00 -0.69415323816E+03  0.69415323816E+03  0.00000000000E+00 0.  1.
        -24    2    1    2    0    0 -0.16172087695E+03 -0.69662680737E+03  0.33787129606E+04  0.34545289265E+04  0.81401981185E+02 0.  0.
        254    2    1    2    0    0  0.16172087695E+03  0.69662680737E+03 -0.16017293860E+03  0.11523175719E+04  0.88923442661E+03 0.  0.
         23    2    4    4    0    0  0.22461547599E+02  0.75975609397E+03 -0.39171238334E+03  0.86040785359E+03  0.95547055485E+02 0.  0.
         23    2    4    4    0    0  0.13925932935E+03 -0.63129286602E+02  0.23153944474E+03  0.29190971831E+03  0.90676907382E+02 0.  0.
          3    1    3    3  502    0 -0.14625084869E+03 -0.68493411716E+03  0.32895292517E+04  0.33632613269E+04  0.00000000000E+00 0. -1.
         -4    1    3    3    0  502 -0.15470028265E+02 -0.11692690216E+02  0.89183708946E+02  0.91267599510E+02  0.00000000000E+00 0.  1.
         13    1    5    5    0    0 -0.25651339260E+02  0.31998529422E+03 -0.20031924131E+03  0.37838654596E+03  0.00000000000E+00 0.  1.
        -13    1    5    5    0    0  0.48112886859E+02  0.43977079975E+03 -0.19139314203E+03  0.48202130763E+03  0.00000000000E+00 0. -1.
          3    1    6    6  503    0  0.14136109933E+03 -0.46946522829E+02  0.23186566704E+03  0.27558777904E+03  0.00000000000E+00 0.  1.
         -3    1    6    6    0  503 -0.21017699719E+01 -0.16182763772E+02 -0.32622229505E+00  0.16321939263E+02  0.00000000000E+00 0. -1.
<mgrwt>
<rscale>  0 0.32960635E+04</rscale>
<asrwt>0</asrwt>
<pdfrwt beam="1">  1        1 0.60195279E+00 0.32960635E+04</pdfrwt>
<pdfrwt beam="2">  1       -2 0.10679281E+00 0.32960635E+04</pdfrwt>
<totfact> 0.58859375E-02</totfact>
</mgrwt>
</event>
<event>
12    5  0.5095719E-008  0.3264846E+04  0.7818608E-02  0.8171898E-01
          1   -1    0    0  501    0  0.00000000000E+00  0.00000000000E+00  0.25909051746E+04  0.25909051746E+04  0.00000000000E+00 0. -1.
         -2   -1    0    0    0  501 -0.00000000000E+00 -0.00000000000E+00 -0.10285228253E+04  0.10285228253E+04  0.00000000000E+00 0.  1.
        -24    2    1    2    0    0  0.68702773396E+03 -0.88375389249E+03  0.18448631293E+04  0.21593807725E+04  0.79858030548E+02 0.  0.
        254    2    1    2    0    0 -0.68702773396E+03  0.88375389249E+03 -0.28248078003E+03  0.14600472275E+04  0.89382015284E+03 0.  0.
         23    2    4    4    0    0 -0.40087003945E+03  0.34456954658E+03  0.29667472437E+03  0.61294725364E+03  0.90903700209E+02 0.  0.
         23    2    4    4    0    0 -0.28615769450E+03  0.53918434591E+03 -0.57915550439E+03  0.84709997382E+03  0.97730662446E+02 0.  0.
          1    1    3    3  502    0  0.60899661396E+03 -0.76771672811E+03  0.16588820577E+04  0.19266954953E+04  0.00000000000E+00 0. -1.
         -2    1    3    3    0  502  0.78031119992E+02 -0.11603716438E+03  0.18598107156E+03  0.23268527711E+03  0.00000000000E+00 0.  1.
         13    1    5    5    0    0 -0.34605463985E+02  0.36287399800E+01  0.29945342835E+02  0.45906747315E+02  0.00000000000E+00 0. -1.
        -13    1    5    5    0    0 -0.36626457547E+03  0.34094080660E+03  0.26672938153E+03  0.56704050633E+03  0.00000000000E+00 0.  1.
          3    1    6    6  503    0 -0.14678007578E+03  0.37131684684E+03 -0.39393260368E+03  0.56089525550E+03  0.00000000000E+00 0. -1.
         -3    1    6    6    0  503 -0.13937761872E+03  0.16786749907E+03 -0.18522290071E+03  0.28620471832E+03  0.00000000000E+00 0.  1.
<mgrwt>
<rscale>  0 0.32648462E+04</rscale>
<asrwt>0</asrwt>
<pdfrwt beam="1">  1        1 0.39860079E+00 0.32648462E+04</pdfrwt>
<pdfrwt beam="2">  1       -2 0.15823428E+00 0.32648462E+04</pdfrwt>
<totfact> 0.22250604E-01</totfact>
</mgrwt>
</event>
<event>
12    5  0.5095719E-008  0.1731634E+04  0.7818608E-02  0.8743525E-01
         -2   -1    0    0    0  501 -0.00000000000E+00  0.00000000000E+00  0.26773644271E+03  0.26773644271E+03  0.00000000000E+00 0.  1.
          1   -1    0    0  501    0  0.00000000000E+00 -0.00000000000E+00 -0.27999155598E+04  0.27999155598E+04  0.00000000000E+00 0. -1.
        -24    2    1    2    0    0  0.50941051560E+03 -0.38253739326E+03 -0.93471195584E+03  0.11339645384E+04  0.79719529294E+02 0.  0.
        254    2    1    2    0    0 -0.50941051560E+03  0.38253739326E+03 -0.15974671613E+04  0.19336874641E+04  0.88397508271E+03 0.  0.
         23    2    4    4    0    0  0.52742557210E+02  0.15164930648E+03  0.36956359968E+02  0.18748337813E+03  0.89470414306E+02 0.  0.
         23    2    4    4    0    0 -0.56215307281E+03  0.23088808678E+03 -0.16344235212E+04  0.17462040860E+04  0.92536896552E+02 0.  0.
          3    1    3    3  502    0  0.10565144361E+03 -0.10757420673E+03 -0.26712367197E+03  0.30674010762E+03  0.00000000000E+00 0. -1.
         -4    1    3    3    0  502  0.40375907199E+03 -0.27496318653E+03 -0.66758828386E+03  0.82722443080E+03  0.00000000000E+00 0.  1.
         13    1    5    5    0    0  0.61973655488E+02  0.13397215818E+03  0.57902480372E+02  0.15856219718E+03  0.00000000000E+00 0. -1.
        -13    1    5    5    0    0 -0.92310982778E+01  0.17677148297E+02 -0.20946120404E+02  0.28921180946E+02  0.00000000000E+00 0.  1.
          1    1    6    6  503    0 -0.51517174092E+03  0.19655168843E+03 -0.15346510568E+04  0.16307017983E+04  0.00000000000E+00 0. -1.
         -1    1    6    6    0  503 -0.46981331888E+02  0.34336398347E+02 -0.99772464474E+02  0.11550228770E+03  0.00000000000E+00 0.  1.
<mgrwt>
<rscale>  0 0.17316344E+04</rscale>
<asrwt>0</asrwt>
<pdfrwt beam="1">  1        1 0.43075625E+00 0.17316344E+04</pdfrwt>
<pdfrwt beam="2">  1       -2 0.41190221E-01 0.17316344E+04</pdfrwt>
<totfact> 0.38891946E+00</totfact>
</mgrwt>
</event>
<event>
12    5  0.5095719E-008  0.1872721E+04  0.7818608E-02  0.8668555E-01
         -2   -1    0    0    0  501 -0.00000000000E+00  0.00000000000E+00  0.36447459838E+03  0.36447459838E+03  0.00000000000E+00 0.  1.
          1   -1    0    0  501    0  0.00000000000E+00 -0.00000000000E+00 -0.24055761500E+04  0.24055761500E+04  0.00000000000E+00 0. -1.
        -24    2    1    2    0    0 -0.22846723418E+02  0.61876061534E+03 -0.13260332078E+04  0.14657299267E+04  0.81323292498E+02 0.  0.
        254    2    1    2    0    0  0.22846723418E+02 -0.61876061534E+03 -0.71506834384E+03  0.13043208217E+04  0.89807761231E+03 0.  0.
         23    2    4    4    0    0  0.22718713971E+03  0.12149330687E+03 -0.36577338009E+02  0.27542562484E+03  0.90259365705E+02 0.  0.
         23    2    4    4    0    0 -0.20434041629E+03 -0.74025392221E+03 -0.67849100583E+03  0.10288951969E+04  0.92435956694E+02 0.  0.
          3    1    3    3  502    0  0.22602763696E+02  0.98540200753E+02 -0.18328507895E+03  0.20931907762E+03  0.00000000000E+00 0. -1.
         -4    1    3    3    0  502 -0.45449487114E+02  0.52022041459E+03 -0.11427481288E+04  0.12564108491E+04  0.00000000000E+00 0.  1.
         13    1    5    5    0    0  0.23574902917E+03  0.11543415512E+03 -0.34889014327E+02  0.26480160922E+03  0.00000000000E+00 0. -1.
        -13    1    5    5    0    0 -0.85618894605E+01  0.60591517472E+01 -0.16883236827E+01  0.10624015620E+02  0.00000000000E+00 0.  1.
          3    1    6    6  503    0 -0.20149405679E+03 -0.69191831179E+03 -0.60529579583E+03  0.94113431855E+03  0.00000000000E+00 0. -1.
         -3    1    6    6    0  503 -0.28463594952E+01 -0.48335610425E+02 -0.73195210003E+02  0.87760878328E+02  0.00000000000E+00 0.  1.
<mgrwt>
<rscale>  0 0.18727214E+04</rscale>
<asrwt>0</asrwt>
<pdfrwt beam="1">  1        1 0.37008864E+00 0.18727214E+04</pdfrwt>
<pdfrwt beam="2">  1       -2 0.56073015E-01 0.18727214E+04</pdfrwt>
<totfact> 0.38755607E+00</totfact>
</mgrwt>
</event>
<event>
12    5  0.5095719E-008  0.1671690E+04  0.7818608E-02  0.8777677E-01
         -2   -1    0    0    0  501 -0.00000000000E+00  0.00000000000E+00  0.90320853986E+03  0.90320853986E+03  0.00000000000E+00 0.  1.
          1   -1    0    0  501    0  0.00000000000E+00 -0.00000000000E+00 -0.77350541998E+03  0.77350541998E+03  0.00000000000E+00 0. -1.
        -24    2    1    2    0    0  0.28642903047E+03  0.25965174024E+03  0.49207008707E+03  0.63538490912E+03  0.11009267205E+03 0.  0.
        254    2    1    2    0    0 -0.28642903047E+03 -0.25965174024E+03 -0.36236696719E+03  0.10413290507E+04  0.89643502678E+03 0.  0.
         23    2    4    4    0    0 -0.11081933788E+03 -0.45097705083E+03 -0.53593232704E+03  0.71492325860E+03  0.90722546790E+02 0.  0.
         23    2    4    4    0    0 -0.17560969259E+03  0.19132531059E+03  0.17356535985E+03  0.32640579212E+03  0.94718891375E+02 0.  0.
          1    1    3    3  502    0  0.10220428962E+03  0.14750656893E+03  0.16611112429E+03  0.24453386331E+03  0.00000000000E+00 0. -1.
         -2    1    3    3    0  502  0.18422474086E+03  0.11214517131E+03  0.32595896278E+03  0.39085104581E+03  0.00000000000E+00 0.  1.
         13    1    5    5    0    0 -0.61176184866E+02 -0.17609087887E+03 -0.15432454010E+03  0.24200534476E+03  0.00000000000E+00 0.  1.
        -13    1    5    5    0    0 -0.49643153016E+02 -0.27488617196E+03 -0.38160778694E+03  0.47291791384E+03  0.00000000000E+00 0. -1.
          2    1    6    6  503    0 -0.49894860711E+02  0.12389769588E+03  0.90306939565E+02  0.16123113689E+03  0.00000000000E+00 0. -1.
         -2    1    6    6    0  503 -0.12571483188E+03  0.67427614708E+02  0.83258420283E+02  0.16517465522E+03  0.00000000000E+00 0.  1.
<mgrwt>
<rscale>  0 0.16716898E+04</rscale>
<asrwt>0</asrwt>
<pdfrwt beam="1">  1        1 0.11900083E+00 0.16716898E+04</pdfrwt>
<pdfrwt beam="2">  1       -2 0.13895516E+00 0.16716898E+04</pdfrwt>
<totfact> 0.71363001E+00</totfact>
</mgrwt>
</event>
<event>
12    5  0.5095719E-008  0.1988044E+04  0.7818608E-02  0.8612231E-01
         -2   -1    0    0    0  501 -0.00000000000E+00  0.00000000000E+00  0.14020760062E+04  0.14020760062E+04  0.00000000000E+00 0.  1.
          1   -1    0    0  501    0  0.00000000000E+00 -0.00000000000E+00 -0.70472644092E+03  0.70472644092E+03  0.00000000000E+00 0. -1.
        -24    2    1    2    0    0 -0.22031165110E+03 -0.69698630336E+03 -0.56352700514E+02  0.73717917296E+03  0.77008931336E+02 0.  0.
        254    2    1    2    0    0  0.22031165110E+03  0.69698630336E+03  0.75370226579E+03  0.13696232742E+04  0.87947352260E+03 0.  0.
         23    2    4    4    0    0  0.32282651947E+03  0.63880960848E+03  0.13677680934E+03  0.73446521106E+03  0.91850820003E+02 0.  0.
         23    2    4    4    0    0 -0.10251486837E+03  0.58176694885E+02  0.61692545645E+03  0.63515806309E+03  0.94524706945E+02 0.  0.
          1    1    3    3  502    0 -0.17551877297E+03 -0.51209599998E+03 -0.72878857888E+02  0.54622383762E+03  0.00000000000E+00 0. -1.
         -2    1    3    3    0  502 -0.44792878128E+02 -0.18489030339E+03  0.16526157375E+02  0.19095533534E+03  0.00000000000E+00 0.  1.
         13    1    5    5    0    0 -0.26086465523E+01  0.30710786928E+02 -0.21934227626E+01  0.30899329669E+02  0.00000000000E+00 0.  1.
        -13    1    5    5    0    0  0.32543516602E+03  0.60809882155E+03  0.13897023210E+03  0.70356588140E+03  0.00000000000E+00 0. -1.
          4    1    6    6  503    0 -0.92464136427E+02  0.80658031056E+02  0.55729759472E+03  0.57064519938E+03  0.00000000000E+00 0. -1.
         -4    1    6    6    0  503 -0.10050731943E+02 -0.22481336171E+02  0.59627861729E+02  0.64512863702E+02  0.00000000000E+00 0.  1.
<mgrwt>
<rscale>  0 0.19880443E+04</rscale>
<asrwt>0</asrwt>
<pdfrwt beam="1">  1        1 0.10841945E+00 0.19880443E+04</pdfrwt>
<pdfrwt beam="2">  1       -2 0.21570400E+00 0.19880443E+04</pdfrwt>
<totfact> 0.23074426E+00</totfact>
</mgrwt>
</event>
<event>
12    5  0.5095719E-008  0.2384115E+04  0.7818608E-02  0.8445475E-01
          1   -1    0    0  501    0  0.00000000000E+00  0.00000000000E+00  0.25082166099E+04  0.25082166099E+04  0.00000000000E+00 0. -1.
         -2   -1    0    0    0  501 -0.00000000000E+00 -0.00000000000E+00 -0.56653860223E+03  0.56653860223E+03  0.00000000000E+00 0.  1.
        -24    2    1    2    0    0  0.32098429996E+03 -0.16570235056E+02 -0.41490066774E+03  0.53099373405E+03  0.80661564538E+02 0.  0.
        254    2    1    2    0    0 -0.32098429996E+03  0.16570235056E+02  0.23565786754E+04  0.25437614781E+04  0.90219394279E+03 0.  0.
         23    2    4    4    0    0  0.26441900977E+03 -0.17777977988E+03  0.75737609017E+03  0.82741904066E+03  0.97368701416E+02 0.  0.
         23    2    4    4    0    0 -0.58540330973E+03  0.19435001494E+03  0.15992025852E+04  0.17163424374E+04  0.88957801713E+02 0.  0.
          1    1    3    3  502    0  0.25988713477E+02 -0.28313175742E+01 -0.63793332126E+01  0.26909579700E+02  0.00000000000E+00 0. -1.
         -2    1    3    3    0  502  0.29499558648E+03 -0.13738917482E+02 -0.40852133453E+03  0.50408415435E+03  0.00000000000E+00 0.  1.
         13    1    5    5    0    0  0.26239487420E+03 -0.17258921270E+03  0.75916684292E+03  0.82156704032E+03  0.00000000000E+00 0. -1.
        -13    1    5    5    0    0  0.20241355705E+01 -0.51905671828E+01 -0.17907527543E+01  0.58520003344E+01  0.00000000000E+00 0.  1.
          4    1    6    6  503    0 -0.51212574960E+03  0.19594466878E+03  0.14470496922E+04  0.15474559471E+04  0.00000000000E+00 0. -1.
         -4    1    6    6    0  503 -0.73277560128E+02 -0.15946538388E+01  0.15215289307E+03  0.16888649031E+03  0.00000000000E+00 0.  1.
<mgrwt>
<rscale>  0 0.23841154E+04</rscale>
<asrwt>0</asrwt>
<pdfrwt beam="1">  1        1 0.38587947E+00 0.23841154E+04</pdfrwt>
<pdfrwt beam="2">  1       -2 0.87159786E-01 0.23841154E+04</pdfrwt>
<totfact> 0.11997092E+00</totfact>
</mgrwt>
</event>
<event>
12    5  0.5095719E-008  0.1614874E+04  0.7818608E-02  0.8811462E-01
          1   -1    0    0  501    0  0.00000000000E+00  0.00000000000E+00  0.12293018108E+04  0.12293018108E+04  0.00000000000E+00 0. -1.
         -2   -1    0    0    0  501 -0.00000000000E+00 -0.00000000000E+00 -0.53034562565E+03  0.53034562565E+03  0.00000000000E+00 0.  1.
        -24    2    1    2    0    0 -0.14441265697E+03 -0.34986438637E+03  0.67431245250E+03  0.77749928536E+03  0.80918173475E+02 0.  0.
        254    2    1    2    0    0  0.14441265697E+03  0.34986438637E+03  0.24643732673E+02  0.98214815112E+03  0.90595119782E+03 0.  0.
         23    2    4    4    0    0 -0.34578521962E+03  0.28328337438E+03 -0.95175291521E+02  0.46497317746E+03  0.85585228482E+02 0.  0.
         23    2    4    4    0    0  0.49019787658E+03  0.66581011992E+02  0.11981902419E+03  0.51717497366E+03  0.91577101150E+02 0.  0.
          1    1    3    3  502    0 -0.11245218216E+03 -0.30191036143E+03  0.61794509595E+03  0.69688700750E+03  0.00000000000E+00 0. -1.
         -2    1    3    3    0  502 -0.31960474804E+02 -0.47954024944E+02  0.56367356550E+02  0.80612277864E+02  0.00000000000E+00 0.  1.
         13    1    5    5    0    0 -0.33303587964E+03  0.27700860262E+03 -0.73977743737E+02  0.43945348971E+03  0.00000000000E+00 0. -1.
        -13    1    5    5    0    0 -0.12749339975E+02  0.62747717588E+01 -0.21197547785E+02  0.25519687743E+02  0.00000000000E+00 0.  1.
          3    1    6    6  503    0  0.24305905168E+03  0.34981222212E+02  0.10651475390E+03  0.26766916391E+03  0.00000000000E+00 0. -1.
         -3    1    6    6    0  503  0.24713882490E+03  0.31599789780E+02  0.13304270293E+02  0.24950580975E+03  0.00000000000E+00 0.  1.
<mgrwt>
<rscale>  0 0.16148744E+04</rscale>
<asrwt>0</asrwt>
<pdfrwt beam="1">  1        1 0.18912336E+00 0.16148744E+04</pdfrwt>
<pdfrwt beam="2">  1       -2 0.81591635E-01 0.16148744E+04</pdfrwt>
<totfact> 0.11306218E+01</totfact>
</mgrwt>
</event>
<event>
12    5  0.5095719E-008  0.2243102E+04  0.7818608E-02  0.8500699E-01
         -4   -1    0    0    0  501 -0.00000000000E+00  0.00000000000E+00  0.10846749395E+04  0.10846749395E+04  0.00000000000E+00 0.  1.
          3   -1    0    0  501    0  0.00000000000E+00 -0.00000000000E+00 -0.11596807217E+04  0.11596807217E+04  0.00000000000E+00 0. -1.
        -24    2    1    2    0    0 -0.13125114619E+03 -0.77048186797E+03  0.45823511693E+03  0.90968290224E+03  0.81696927732E+02 0.  0.
        254    2    1    2    0    0  0.13125114619E+03  0.77048186797E+03 -0.53324089915E+03  0.13346727590E+04  0.94134815287E+03 0.  0.
         23    2    4    4    0    0 -0.98988718185E+02 -0.11833958259E+03 -0.35317902535E+03  0.39458539497E+03  0.84611978081E+02 0.  0.
         23    2    4    4    0    0  0.23023986438E+03  0.88882145056E+03 -0.18006187379E+03  0.94008736406E+03  0.91257917661E+02 0.  0.
          1    1    3    3  502    0 -0.44902560406E+02 -0.10092201037E+03  0.56191848561E+02  0.12393149702E+03  0.00000000000E+00 0. -1.
         -2    1    3    3    0  502 -0.86348585788E+02 -0.66955985760E+03  0.40204326837E+03  0.78575140522E+03  0.00000000000E+00 0.  1.
         13    1    5    5    0    0 -0.59596888395E+02 -0.13526360023E+02 -0.16039881437E+03  0.17164652975E+03  0.00000000000E+00 0. -1.
        -13    1    5    5    0    0 -0.39391829790E+02 -0.10481322257E+03 -0.19278021098E+03  0.22293886522E+03  0.00000000000E+00 0.  1.
          2    1    6    6  503    0  0.71781754981E+02  0.35341652971E+03 -0.11182369899E+03  0.37757171964E+03  0.00000000000E+00 0. -1.
         -2    1    6    6    0  503  0.15845810940E+03  0.53540492086E+03 -0.68238174807E+02  0.56251564441E+03  0.00000000000E+00 0.  1.
<mgrwt>
<rscale>  0 0.22431020E+04</rscale>
<asrwt>0</asrwt>
<pdfrwt beam="1">  1        3 0.17841242E+00 0.22431020E+04</pdfrwt>
<pdfrwt beam="2">  1       -4 0.16687307E+00 0.22431020E+04</pdfrwt>
<totfact> 0.94343739E-02</totfact>
</mgrwt>
</event>
<event>
12    5  0.5095719E-008  0.1683406E+04  0.7818608E-02  0.8770886E-01
         -2   -1    0    0    0  501 -0.00000000000E+00  0.00000000000E+00  0.11173752376E+04  0.11173752376E+04  0.00000000000E+00 0.  1.
          1   -1    0    0  501    0  0.00000000000E+00 -0.00000000000E+00 -0.63404295695E+03  0.63404295695E+03  0.00000000000E+00 0. -1.
        -24    2    1    2    0    0  0.24906722972E+03 -0.20518074997E+02  0.73684475735E+03  0.78212892630E+03  0.79561200285E+02 0.  0.
        254    2    1    2    0    0 -0.24906722972E+03  0.20518074997E+02 -0.25351247672E+03  0.96928926824E+03  0.90155290103E+03 0.  0.
         23    2    4    4    0    0 -0.12760345199E+03 -0.39406981835E+03 -0.30656426906E+03  0.52443192804E+03  0.97332077914E+02 0.  0.
         23    2    4    4    0    0 -0.12146377773E+03  0.41458789335E+03  0.53051792343E+02  0.44485734020E+03  0.91907507022E+02 0.  0.
          3    1    3    3  502    0  0.86811801454E+02  0.15797906711E+02  0.17188921465E+03  0.19321429772E+03  0.00000000000E+00 0. -1.
         -4    1    3    3    0  502  0.16225542827E+03 -0.36315981708E+02  0.56495554270E+03  0.58891462858E+03  0.00000000000E+00 0.  1.
         13    1    5    5    0    0 -0.70890107523E+02 -0.32979224103E+03 -0.26606147116E+03  0.42962429636E+03  0.00000000000E+00 0.  1.
        -13    1    5    5    0    0 -0.56713344471E+02 -0.64277577321E+02 -0.40502797899E+02  0.94807631681E+02  0.00000000000E+00 0. -1.
          1    1    6    6  503    0 -0.34716481977E+01  0.49691515115E+02 -0.21371365091E+02  0.54203636976E+02  0.00000000000E+00 0. -1.
         -1    1    6    6    0  503 -0.11799212953E+03  0.36489637823E+03  0.74423157434E+02  0.39065370322E+03  0.00000000000E+00 0.  1.
<mgrwt>
<rscale>  0 0.16834060E+04</rscale>
<asrwt>0</asrwt>
<pdfrwt beam="1">  1        1 0.97545070E-01 0.16834060E+04</pdfrwt>
<pdfrwt beam="2">  1       -2 0.17190388E+00 0.16834060E+04</pdfrwt>
<totfact> 0.54413413E+00</totfact>
</mgrwt>
</event>
<event>
12    5  0.5095719E-008  0.2244341E+04  0.7818608E-02  0.8500196E-01
          1   -1    0    0  501    0  0.00000000000E+00  0.00000000000E+00  0.15762193408E+04  0.15762193408E+04  0.00000000000E+00 0. -1.
         -2   -1    0    0    0  501 -0.00000000000E+00 -0.00000000000E+00 -0.79891603018E+03  0.79891603018E+03  0.00000000000E+00 0.  1.
        -24    2    1    2    0    0 -0.76512594630E+03 -0.23907583301E+03 -0.19651954165E+03  0.82854278456E+03  0.72720340809E+02 0.  0.
        254    2    1    2    0    0  0.76512594630E+03  0.23907583301E+03  0.97382285227E+03  0.15465925864E+04  0.89500989554E+03 0.  0.
         23    2    4    4    0    0  0.23044337937E+03  0.47200391847E+03  0.73969557318E+03  0.91174170361E+03  0.90727851133E+02 0.  0.
         23    2    4    4    0    0  0.53468256693E+03 -0.23292808546E+03  0.23412727909E+03  0.63485088281E+03  0.89883926341E+02 0.  0.
          3    1    3    3  502    0 -0.15889746540E+03 -0.25929646195E+02 -0.20754932403E+02  0.16233150736E+03  0.00000000000E+00 0. -1.
         -4    1    3    3    0  502 -0.60622848090E+03 -0.21314618681E+03 -0.17576460925E+03  0.66621127720E+03  0.00000000000E+00 0.  1.
         13    1    5    5    0    0  0.31913612363E+02  0.32324303259E+02  0.10590242239E+03  0.11523307816E+03  0.00000000000E+00 0. -1.
        -13    1    5    5    0    0  0.19852976701E+03  0.43967961521E+03  0.63379315079E+03  0.79650862544E+03  0.00000000000E+00 0.  1.
          4    1    6    6  503    0  0.15772772778E+03 -0.30702184511E+02  0.43138508214E+02  0.16637785650E+03  0.00000000000E+00 0. -1.
         -4    1    6    6    0  503  0.37695483915E+03 -0.20222590095E+03  0.19098877088E+03  0.46847302630E+03  0.00000000000E+00 0.  1.
<mgrwt>
<rscale>  0 0.22443412E+04</rscale>
<asrwt>0</asrwt>
<pdfrwt beam="1">  1        1 0.24249528E+00 0.22443412E+04</pdfrwt>
<pdfrwt beam="2">  1       -2 0.12291016E+00 0.22443412E+04</pdfrwt>
<totfact> 0.23112825E+00</totfact>
</mgrwt>
</event>
<event>
12    5  0.5095719E-008  0.1058106E+04  0.7818608E-02  0.9247015E-01
          1   -1    0    0  501    0  0.00000000000E+00  0.00000000000E+00  0.17650417575E+04  0.17650417575E+04  0.00000000000E+00 0. -1.
         -2   -1    0    0    0  501 -0.00000000000E+00 -0.00000000000E+00 -0.15857823581E+03  0.15857823581E+03  0.00000000000E+00 0.  1.
        -24    2    1    2    0    0  0.35103803802E+02 -0.29540723050E+02  0.44881831099E+03  0.45787831851E+03  0.78164870162E+02 0.  0.
        254    2    1    2    0    0 -0.35103803802E+02  0.29540723050E+02  0.11576452107E+04  0.14657416748E+04  0.89785928297E+03 0.  0.
         23    2    4    4    0    0  0.14440789898E+03 -0.30930924110E+03  0.15230407721E+03  0.38566081806E+03  0.94930957724E+02 0.  0.
         23    2    4    4    0    0 -0.17951170278E+03  0.33884996415E+03  0.10053411335E+04  0.10800808568E+04  0.93915455407E+02 0.  0.
          3    1    3    3  502    0 -0.20011627785E+02 -0.26329056032E+02  0.22129958398E+03  0.22375698941E+03  0.00000000000E+00 0. -1.
         -4    1    3    3    0  502  0.55115431588E+02 -0.32116670182E+01  0.22751872700E+03  0.23412132910E+03  0.00000000000E+00 0.  1.
         13    1    5    5    0    0  0.35610354930E+02 -0.15113088658E+03  0.30320012232E+02  0.15820222944E+03  0.00000000000E+00 0.  1.
        -13    1    5    5    0    0  0.10879754405E+03 -0.15817835452E+03  0.12198406498E+03  0.22745858862E+03  0.00000000000E+00 0. -1.
          3    1    6    6  503    0 -0.12525698480E+03  0.13707902018E+03  0.45725452157E+03  0.49351967287E+03  0.00000000000E+00 0. -1.
         -3    1    6    6    0  503 -0.54254717986E+02  0.20177094397E+03  0.54808661193E+03  0.58656118388E+03  0.00000000000E+00 0.  1.
<mgrwt>
<rscale>  0 0.10581062E+04</rscale>
<asrwt>0</asrwt>
<pdfrwt beam="1">  1        1 0.27154487E+00 0.10581062E+04</pdfrwt>
<pdfrwt beam="2">  1       -2 0.24396653E-01 0.10581062E+04</pdfrwt>
<totfact> 0.56673490E+01</totfact>
</mgrwt>
</event>
<event>
12    5  0.5095719E-008  0.2016636E+04  0.7818608E-02  0.8598882E-01
          1   -1    0    0  501    0  0.00000000000E+00  0.00000000000E+00  0.77201651000E+03  0.77201651000E+03  0.00000000000E+00 0. -1.
         -2   -1    0    0    0  501 -0.00000000000E+00 -0.00000000000E+00 -0.13169479300E+04  0.13169479300E+04  0.00000000000E+00 0.  1.
        -24    2    1    2    0    0  0.51473326580E+03 -0.58647083168E+03 -0.26890558258E+03  0.82924662384E+03  0.80258205019E+02 0.  0.
        254    2    1    2    0    0 -0.51473326580E+03  0.58647083168E+03 -0.27602583745E+03  0.12597178162E+04  0.94963168762E+03 0.  0.
         23    2    4    4    0    0 -0.56212185055E+03  0.54680401206E+03 -0.55142951905E+03  0.96309352793E+03  0.92190165397E+02 0.  0.
         23    2    4    4    0    0  0.47388584753E+02  0.39666819624E+02  0.27540368160E+03  0.29662428825E+03  0.91212093464E+02 0.  0.
          1    1    3    3  502    0  0.39844317516E+03 -0.41929779716E+03 -0.17017041524E+03  0.60293082254E+03  0.00000000000E+00 0. -1.
         -2    1    3    3    0  502  0.11629009063E+03 -0.16717303452E+03 -0.98735167337E+02  0.22631580130E+03  0.00000000000E+00 0.  1.
         13    1    5    5    0    0 -0.11544786248E+03  0.10350047312E+03 -0.66927211120E+02  0.16887808761E+03  0.00000000000E+00 0.  1.
        -13    1    5    5    0    0 -0.44667398807E+03  0.44330353894E+03 -0.48450230793E+03  0.79421544033E+03  0.00000000000E+00 0. -1.
          3    1    6    6  503    0 -0.36959239170E+01  0.56322592962E+02  0.14039787478E+03  0.15131905886E+03  0.00000000000E+00 0. -1.
         -3    1    6    6    0  503  0.51084508670E+02 -0.16655773338E+02  0.13500580682E+03  0.14530522939E+03  0.00000000000E+00 0.  1.
<mgrwt>
<rscale>  0 0.20166364E+04</rscale>
<asrwt>0</asrwt>
<pdfrwt beam="1">  1        1 0.11877177E+00 0.20166364E+04</pdfrwt>
<pdfrwt beam="2">  1       -2 0.20260738E+00 0.20166364E+04</pdfrwt>
<totfact> 0.24274334E+00</totfact>
</mgrwt>
</event>
<event>
12    5  0.5095719E-008  0.1651740E+04  0.7818608E-02  0.8789378E-01
          1   -1    0    0  501    0  0.00000000000E+00  0.00000000000E+00  0.33796900259E+04  0.33796900259E+04  0.00000000000E+00 0. -1.
         -2   -1    0    0    0  501 -0.00000000000E+00 -0.00000000000E+00 -0.20181187755E+03  0.20181187755E+03  0.00000000000E+00 0.  1.
        -24    2    1    2    0    0  0.42425773117E+03 -0.31590112033E+03  0.15278937980E+04  0.16187982072E+04  0.79120398499E+02 0.  0.
        254    2    1    2    0    0 -0.42425773117E+03  0.31590112033E+03  0.16499843503E+04  0.19627036962E+04  0.92193779751E+03 0.  0.
         23    2    4    4    0    0 -0.58330026245E+03 -0.54916145897E+02  0.12654103873E+04  0.13975472957E+04  0.92844042846E+02 0.  0.
         23    2    4    4    0    0  0.15904253128E+03  0.37081726623E+03  0.38457396300E+03  0.56515640044E+03  0.93298725867E+02 0.  0.
          3    1    3    3  502    0  0.37310886995E+03 -0.28514893606E+03  0.14181281759E+04  0.14938566424E+04  0.00000000000E+00 0. -1.
         -4    1    3    3    0  502  0.51148861216E+02 -0.30752184271E+02  0.10976562210E+03  0.12494156489E+03  0.00000000000E+00 0.  1.
         13    1    5    5    0    0 -0.21151600383E+03  0.22978245512E+02  0.42517725961E+03  0.47543950375E+03  0.00000000000E+00 0.  1.
        -13    1    5    5    0    0 -0.37178425862E+03 -0.77894391408E+02  0.84023312769E+03  0.92210779199E+03  0.00000000000E+00 0. -1.
          4    1    6    6  503    0  0.46164291811E+02  0.18480551555E+03  0.22797079621E+03  0.29707726998E+03  0.00000000000E+00 0. -1.
         -4    1    6    6    0  503  0.11287823947E+03  0.18601175068E+03  0.15660316679E+03  0.26807913046E+03  0.00000000000E+00 0.  1.
<mgrwt>
<rscale>  0 0.16517404E+04</rscale>
<asrwt>0</asrwt>
<pdfrwt beam="1">  1        1 0.51995227E+00 0.16517404E+04</pdfrwt>
<pdfrwt beam="2">  1       -2 0.31047984E-01 0.16517404E+04</pdfrwt>
<totfact> 0.25221976E+00</totfact>
</mgrwt>
</event>
<event>
12    5  0.5095719E-008  0.1693679E+04  0.7818608E-02  0.8764978E-01
          1   -1    0    0  501    0  0.00000000000E+00  0.00000000000E+00  0.33261408506E+04  0.33261408506E+04  0.00000000000E+00 0. -1.
         -2   -1    0    0    0  501 -0.00000000000E+00 -0.00000000000E+00 -0.21560627000E+03  0.21560627000E+03  0.00000000000E+00 0.  1.
        -24    2    1    2    0    0  0.16532575711E+03 -0.48143215336E+02 -0.80605586704E+02  0.20639856489E+03  0.80328897876E+02 0.  0.
        254    2    1    2    0    0 -0.16532575711E+03  0.48143215336E+02  0.31911401673E+04  0.33353485557E+04  0.95473768418E+03 0.  0.
         23    2    4    4    0    0 -0.20143487197E+03 -0.78127145137E+02  0.12593391768E+03  0.26597569101E+03  0.90575151860E+02 0.  0.
         23    2    4    4    0    0  0.36109114864E+02  0.12627036047E+03  0.30652062496E+04  0.30693728647E+04  0.91172132354E+02 0.  0.
          1    1    3    3  502    0  0.18283827798E+02  0.26667327078E+01  0.14997767839E+02  0.23797959207E+02  0.00000000000E+00 0. -1.
         -2    1    3    3    0  502  0.14704192931E+03 -0.50809948043E+02 -0.95603354543E+02  0.18260060568E+03  0.00000000000E+00 0.  1.
         13    1    5    5    0    0  0.84134982599E+01 -0.65797385825E+00 -0.14409204722E+01  0.85613161591E+01  0.00000000000E+00 0. -1.
        -13    1    5    5    0    0 -0.20984837023E+03 -0.77469171278E+02  0.12737483815E+03  0.25741437485E+03  0.00000000000E+00 0.  1.
          1    1    6    6  503    0  0.11949453528E+01  0.66786518202E+01  0.13353461832E+02  0.14978225110E+02  0.00000000000E+00 0. -1.
         -1    1    6    6    0  503  0.34914169511E+02  0.11959170865E+03  0.30518527878E+04  0.30543946396E+04  0.00000000000E+00 0.  1.
<mgrwt>
<rscale>  0 0.16936786E+04</rscale>
<asrwt>0</asrwt>
<pdfrwt beam="1">  1        1 0.51171394E+00 0.16936786E+04</pdfrwt>
<pdfrwt beam="2">  1       -2 0.33170198E-01 0.16936786E+04</pdfrwt>
<totfact> 0.24364683E+00</totfact>
</mgrwt>
</event>
<event>
12    5  0.5095719E-008  0.2180468E+04  0.7818608E-02  0.8526602E-01
          1   -1    0    0  501    0  0.00000000000E+00  0.00000000000E+00  0.83952288517E+03  0.83952288517E+03  0.00000000000E+00 0. -1.
         -2   -1    0    0    0  501 -0.00000000000E+00 -0.00000000000E+00 -0.14158165446E+04  0.14158165446E+04  0.00000000000E+00 0.  1.
        -24    2    1    2    0    0  0.36500387384E+03 -0.70670128865E+03 -0.67869303286E+03  0.10485629152E+04  0.78774456686E+02 0.  0.
        254    2    1    2    0    0 -0.36500387384E+03  0.70670128865E+03  0.10239937339E+03  0.12067765146E+04  0.90175905051E+03 0.  0.
         23    2    4    4    0    0  0.15269480241E+03  0.27096676878E+02 -0.22383756375E+03  0.28767744334E+03  0.92763806962E+02 0.  0.
         23    2    4    4    0    0 -0.51769867625E+03  0.67960461177E+03  0.32623693714E+03  0.91909907124E+03  0.91859761991E+02 0.  0.
          3    1    3    3  502    0  0.20999526472E+03 -0.39404346315E+03 -0.32983181711E+03  0.55511916706E+03  0.00000000000E+00 0. -1.
         -4    1    3    3    0  502  0.15500860913E+03 -0.31265782550E+03 -0.34886121575E+03  0.49344374816E+03  0.00000000000E+00 0.  1.
         13    1    5    5    0    0  0.20492206273E+02  0.42047328065E+02 -0.71255980891E+02  0.85236864842E+02  0.00000000000E+00 0.  1.
        -13    1    5    5    0    0  0.13220259613E+03 -0.14950651187E+02 -0.15258158286E+03  0.20244057850E+03  0.00000000000E+00 0. -1.
          1    1    6    6  503    0 -0.13765892107E+03  0.16619350616E+03  0.41549052715E+02  0.21976483755E+03  0.00000000000E+00 0. -1.
         -1    1    6    6    0  503 -0.38003975518E+03  0.51341110561E+03  0.28468788442E+03  0.69933423369E+03  0.00000000000E+00 0.  1.
<mgrwt>
<rscale>  0 0.21804682E+04</rscale>
<asrwt>0</asrwt>
<pdfrwt beam="1">  1        1 0.12915737E+00 0.21804682E+04</pdfrwt>
<pdfrwt beam="2">  1       -2 0.21781793E+00 0.21804682E+04</pdfrwt>
<totfact> 0.16690850E+00</totfact>
</mgrwt>
</event>
<event>
12    5  0.5095719E-008  0.1275249E+04  0.7818608E-02  0.9049426E-01
          1   -1    0    0  501    0  0.00000000000E+00  0.00000000000E+00  0.11412338719E+04  0.11412338719E+04  0.00000000000E+00 0. -1.
         -2   -1    0    0    0  501 -0.00000000000E+00 -0.00000000000E+00 -0.35625064140E+03  0.35625064140E+03  0.00000000000E+00 0.  1.
        -24    2    1    2    0    0 -0.27882516904E+03 -0.21414978041E+02  0.35832009080E+03  0.46163575508E+03  0.80698244832E+02 0.  0.
        254    2    1    2    0    0  0.27882516904E+03  0.21414978041E+02  0.42666313967E+03  0.10358487582E+04  0.90152045951E+03 0.  0.
         23    2    4    4    0    0 -0.29383991830E+03  0.16065983680E+03  0.16365768800E+03  0.38396642095E+03  0.92156892445E+02 0.  0.
         23    2    4    4    0    0  0.57266508735E+03 -0.13924485876E+03  0.26300545167E+03  0.65188233724E+03  0.91892769248E+02 0.  0.
          3    1    3    3  502    0 -0.22672617946E+03 -0.48246035293E+02  0.29794830227E+03  0.37749918039E+03  0.00000000000E+00 0. -1.
         -4    1    3    3    0  502 -0.52098989590E+02  0.26831057252E+02  0.60371788525E+02  0.84136574682E+02  0.00000000000E+00 0.  1.
         13    1    5    5    0    0 -0.95909158599E+02  0.76489235506E+02  0.17489208718E+02  0.12391546422E+03  0.00000000000E+00 0.  1.
        -13    1    5    5    0    0 -0.19793075971E+03  0.84170601293E+02  0.14616847928E+03  0.26005095673E+03  0.00000000000E+00 0. -1.
          3    1    6    6  503    0  0.11764072048E+03  0.64674782986E+01  0.66270729948E+02  0.13517757595E+03  0.00000000000E+00 0. -1.
         -3    1    6    6    0  503  0.45502436687E+03 -0.14571233706E+03  0.19673472172E+03  0.51670476130E+03  0.00000000000E+00 0.  1.
<mgrwt>
<rscale>  0 0.12752495E+04</rscale>
<asrwt>0</asrwt>
<pdfrwt beam="1">  1        1 0.17557444E+00 0.12752495E+04</pdfrwt>
<pdfrwt beam="2">  1       -2 0.54807792E-01 0.12752495E+04</pdfrwt>
<totfact> 0.31919386E+01</totfact>
</mgrwt>
</event>
<event>
12    5  0.5095719E-008  0.2066541E+04  0.7818608E-02  0.8576127E-01
          1   -1    0    0  501    0  0.00000000000E+00  0.00000000000E+00  0.12195551068E+04  0.12195551068E+04  0.00000000000E+00 0. -1.
         -2   -1    0    0    0  501 -0.00000000000E+00 -0.00000000000E+00 -0.87544027448E+03  0.87544027448E+03  0.00000000000E+00 0.  1.
        -24    2    1    2    0    0 -0.13449236021E+03 -0.52669128346E+03 -0.50241669208E+03  0.74458155939E+03  0.80543547645E+02 0.  0.
        254    2    1    2    0    0  0.13449236021E+03  0.52669128346E+03  0.84653152436E+03  0.13504138218E+04  0.90083847913E+03 0.  0.
         23    2    4    4    0    0  0.40991731496E+03  0.18109820335E+03  0.76677343960E+03  0.89212436093E+03  0.84354035575E+02 0.  0.
         23    2    4    4    0    0 -0.27542495475E+03  0.34559308011E+03  0.79758084759E+02  0.45828946092E+03  0.91511721577E+02 0.  0.
          1    1    3    3  502    0  0.82536844737E+01 -0.69827985180E+02 -0.53415870277E+02  0.88302468930E+02  0.00000000000E+00 0. -1.
         -2    1    3    3    0  502 -0.14274604468E+03 -0.45686329828E+03 -0.44900082181E+03  0.65627909046E+03  0.00000000000E+00 0.  1.
         13    1    5    5    0    0  0.27056443644E+02  0.36862229289E+02  0.97790954790E+02  0.10795344334E+03  0.00000000000E+00 0. -1.
        -13    1    5    5    0    0  0.38286087132E+03  0.14423597407E+03  0.66898248481E+03  0.78417091759E+03  0.00000000000E+00 0.  1.
          3    1    6    6  503    0 -0.46896930941E+02  0.42227698931E+02 -0.18897437232E+02  0.65875745329E+02  0.00000000000E+00 0. -1.
         -3    1    6    6    0  503 -0.22852802381E+03  0.30336538118E+03  0.98655521992E+02  0.39241371559E+03  0.00000000000E+00 0.  1.
<mgrwt>
<rscale>  0 0.20665407E+04</rscale>
<asrwt>0</asrwt>
<pdfrwt beam="1">  1        1 0.18762386E+00 0.20665407E+04</pdfrwt>
<pdfrwt beam="2">  1       -2 0.13468312E+00 0.20665407E+04</pdfrwt>
<totfact> 0.33206142E+00</totfact>
</mgrwt>
</event>
<event>
12    5  0.5095719E-008  0.2537525E+04  0.7818608E-02  0.8389738E-01
          1   -1    0    0  501    0  0.00000000000E+00  0.00000000000E+00  0.12421830595E+04  0.12421830595E+04  0.00000000000E+00 0. -1.
         -2   -1    0    0    0  501 -0.00000000000E+00 -0.00000000000E+00 -0.12959108187E+04  0.12959108187E+04  0.00000000000E+00 0.  1.
        -24    2    1    2    0    0 -0.84982695723E+03 -0.28898884688E+03 -0.61007768923E+03  0.10878872666E+04  0.74722868912E+02 0.  0.
        254    2    1    2    0    0  0.84982695723E+03  0.28898884688E+03  0.55634993006E+03  0.14502066116E+04  0.99390822558E+03 0.  0.
         23    2    4    4    0    0  0.53653752647E+03  0.65155298062E+03  0.32432028555E+03  0.90867846898E+03  0.90106095869E+02 0.  0.
         23    2    4    4    0    0  0.31328943076E+03 -0.36256413374E+03  0.23202964452E+03  0.54152814264E+03  0.99055312027E+02 0.  0.
          1    1    3    3  502    0 -0.11402654081E+03 -0.65668714960E+02 -0.81214698522E+02  0.15462942601E+03  0.00000000000E+00 0. -1.
         -2    1    3    3    0  502 -0.73580041642E+03 -0.22332013192E+03 -0.52886299071E+03  0.93325784061E+03  0.00000000000E+00 0.  1.
         13    1    5    5    0    0  0.52877582780E+02  0.11278892196E+03  0.39879838397E+02  0.13079671704E+03  0.00000000000E+00 0. -1.
        -13    1    5    5    0    0  0.48365994369E+03  0.53876405865E+03  0.28444044715E+03  0.77788175194E+03  0.00000000000E+00 0.  1.
          3    1    6    6  503    0  0.76713765215E+02 -0.11289593763E+03  0.21272056697E+02  0.13814121363E+03  0.00000000000E+00 0. -1.
         -3    1    6    6    0  503  0.23657566555E+03 -0.24966819611E+03  0.21075758782E+03  0.40338692902E+03  0.00000000000E+00 0.  1.
<mgrwt>
<rscale>  0 0.25375251E+04</rscale>
<asrwt>0</asrwt>
<pdfrwt beam="1">  1        1 0.19110509E+00 0.25375251E+04</pdfrwt>
<pdfrwt beam="2">  1       -2 0.19937089E+00 0.25375251E+04</pdfrwt>
<totfact> 0.10388042E+00</totfact>
</mgrwt>
</event>
<event>
12    5  0.5095719E-008  0.1516780E+04  0.7818608E-02  0.8873370E-01
          1   -1    0    0  501    0  0.00000000000E+00  0.00000000000E+00  0.52390824595E+03  0.52390824595E+03  0.00000000000E+00 0. -1.
         -2   -1    0    0    0  501 -0.00000000000E+00 -0.00000000000E+00 -0.10978170200E+04  0.10978170200E+04  0.00000000000E+00 0.  1.
        -24    2    1    2    0    0  0.50152424263E+03 -0.53486041993E+02 -0.13671672268E+03  0.52927708256E+03  0.83996697749E+02 0.  0.
        254    2    1    2    0    0 -0.50152424263E+03  0.53486041993E+02 -0.43719205138E+03  0.10924481834E+04  0.86482299980E+03 0.  0.
         23    2    4    4    0    0 -0.25982880528E+03 -0.38920355939E+03 -0.29445682125E+03  0.56017090752E+03  0.89978927331E+02 0.  0.
         23    2    4    4    0    0 -0.24169543735E+03  0.44268960138E+03 -0.14273523013E+03  0.53227727587E+03  0.92493161252E+02 0.  0.
          1    1    3    3  502    0  0.42307257844E+03 -0.53688749551E+02 -0.83729290573E+02  0.43460727394E+03  0.00000000000E+00 0. -1.
         -2    1    3    3    0  502  0.78451664189E+02  0.20270755828E+00 -0.52987432109E+02  0.94669808629E+02  0.00000000000E+00 0.  1.
         13    1    5    5    0    0 -0.24720992592E+03 -0.33556019781E+03 -0.23249950774E+03  0.47725194073E+03  0.00000000000E+00 0. -1.
        -13    1    5    5    0    0 -0.12618879358E+02 -0.53643361576E+02 -0.61957313506E+02  0.82918966794E+02  0.00000000000E+00 0.  1.
          3    1    6    6  503    0 -0.22718280511E+03  0.44203651639E+03 -0.13204749927E+03  0.51424201580E+03  0.00000000000E+00 0. -1.
         -3    1    6    6    0  503 -0.14512632246E+02  0.65308499635E+00 -0.10687730860E+02  0.18035260066E+02  0.00000000000E+00 0.  1.
<mgrwt>
<rscale>  0 0.15167800E+04</rscale>
<asrwt>0</asrwt>
<pdfrwt beam="1">  1        1 0.80601269E-01 0.15167800E+04</pdfrwt>
<pdfrwt beam="2">  1       -2 0.16889493E+00 0.15167800E+04</pdfrwt>
<totfact> 0.76105106E+00</totfact>
</mgrwt>
</event>
<event>
12    5  0.5095719E-008  0.2287347E+04  0.7818608E-02  0.8482927E-01
         -2   -1    0    0    0  501 -0.00000000000E+00  0.00000000000E+00  0.74962355720E+03  0.74962355720E+03  0.00000000000E+00 0.  1.
          1   -1    0    0  501    0  0.00000000000E+00 -0.00000000000E+00 -0.17448606986E+04  0.17448606986E+04  0.00000000000E+00 0. -1.
        -24    2    1    2    0    0 -0.35690820423E+02 -0.85097109329E+02  0.63614393662E+03  0.64761682429E+03  0.78823158632E+02 0.  0.
        254    2    1    2    0    0  0.35690820423E+02  0.85097109329E+02 -0.16313810780E+04  0.18468674315E+04  0.86081341486E+03 0.  0.
         23    2    4    4    0    0 -0.36027199541E+03  0.18938695006E+03 -0.57996960751E+03  0.71485490193E+03  0.94812750488E+02 0.  0.
         23    2    4    4    0    0  0.39596281583E+03 -0.10428984073E+03 -0.10514114705E+04  0.11320125296E+04  0.91232474591E+02 0.  0.
          1    1    3    3  502    0 -0.15142686547E+02 -0.27171274846E+02  0.54639974103E+02  0.62873729829E+02  0.00000000000E+00 0. -1.
         -2    1    3    3    0  502 -0.20548133877E+02 -0.57925834483E+02  0.58150396251E+03  0.58474309447E+03  0.00000000000E+00 0.  1.
         13    1    5    5    0    0 -0.29026975910E+03  0.17714328604E+03 -0.52272975333E+03  0.62360457973E+03  0.00000000000E+00 0. -1.
        -13    1    5    5    0    0 -0.70002236303E+02  0.12243664019E+02 -0.57239854174E+02  0.91250322202E+02  0.00000000000E+00 0.  1.
          2    1    6    6  503    0  0.16182040828E+03 -0.29248322346E+02 -0.54148481975E+03  0.56590380712E+03  0.00000000000E+00 0.  1.
         -2    1    6    6    0  503  0.23414240755E+03 -0.75041518385E+02 -0.50992665077E+03  0.56610872247E+03  0.00000000000E+00 0. -1.
<mgrwt>
<rscale>  0 0.22873467E+04</rscale>
<asrwt>0</asrwt>
<pdfrwt beam="1">  1        1 0.26844010E+00 0.22873467E+04</pdfrwt>
<pdfrwt beam="2">  1       -2 0.11532670E+00 0.22873467E+04</pdfrwt>
<totfact> 0.20670930E+00</totfact>
</mgrwt>
</event>
<event>
12    5  0.5095719E-008  0.2086554E+04  0.7818608E-02  0.8567190E-01
         -2   -1    0    0    0  501 -0.00000000000E+00  0.00000000000E+00  0.46896029236E+03  0.46896029236E+03  0.00000000000E+00 0.  1.
          1   -1    0    0  501    0  0.00000000000E+00 -0.00000000000E+00 -0.23209366034E+04  0.23209366034E+04  0.00000000000E+00 0. -1.
        -24    2    1    2    0    0 -0.99978641699E+01  0.41317408435E+03  0.22873747528E+03  0.47887885843E+03  0.78685114163E+02 0.  0.
        254    2    1    2    0    0  0.99978641699E+01 -0.41317408435E+03 -0.20807137863E+04  0.23110180373E+04  0.91685425618E+03 0.  0.
         23    2    4    4    0    0  0.25624809902E+03 -0.55360112909E+03 -0.17869925035E+04  0.18903216795E+04  0.88524269422E+02 0.  0.
         23    2    4    4    0    0 -0.24625023485E+03  0.14042704475E+03 -0.29372128283E+03  0.42069635779E+03  0.10175608290E+03 0.  0.
          1    1    3    3  502    0 -0.32920236455E+02  0.32808847773E+03  0.15677264657E+03  0.36510745528E+03  0.00000000000E+00 0. -1.
         -2    1    3    3    0  502  0.22922372285E+02  0.85085606621E+02  0.71964828701E+02  0.11377140315E+03  0.00000000000E+00 0.  1.
         13    1    5    5    0    0  0.86010117416E+02 -0.27115363987E+03 -0.74905371038E+03  0.80125120764E+03  0.00000000000E+00 0. -1.
        -13    1    5    5    0    0  0.17023798161E+03 -0.28244748923E+03 -0.10379387931E+04  0.10890704719E+04  0.00000000000E+00 0.  1.
          2    1    6    6  503    0 -0.48666779757E+02 -0.76854368964E+01 -0.80820652082E+02  0.94654631134E+02  0.00000000000E+00 0. -1.
         -2    1    6    6    0  503 -0.19758345510E+03  0.14811248164E+03 -0.21290063075E+03  0.32604172665E+03  0.00000000000E+00 0.  1.
<mgrwt>
<rscale>  0 0.20865542E+04</rscale>
<asrwt>0</asrwt>
<pdfrwt beam="1">  1        1 0.35706717E+00 0.20865542E+04</pdfrwt>
<pdfrwt beam="2">  1       -2 0.72147738E-01 0.20865542E+04</pdfrwt>
<totfact> 0.25340674E+00</totfact>
</mgrwt>
</event>
<event>
12    5  0.5095719E-008  0.1634611E+04  0.7818608E-02  0.8799563E-01
         -2   -1    0    0    0  501 -0.00000000000E+00  0.00000000000E+00  0.10819183976E+04  0.10819183976E+04  0.00000000000E+00 0.  1.
          1   -1    0    0  501    0  0.00000000000E+00 -0.00000000000E+00 -0.61741104049E+03  0.61741104049E+03  0.00000000000E+00 0. -1.
        -24    2    1    2    0    0  0.66765056615E+02 -0.47252856866E+03 -0.15561775619E+03  0.50827106834E+03  0.79885993048E+02 0.  0.
        254    2    1    2    0    0 -0.66765056615E+02  0.47252856866E+03  0.62012511328E+03  0.11910583697E+04  0.89795549055E+03 0.  0.
         23    2    4    4    0    0  0.35979859890E+03  0.65862676819E+02  0.78190738166E+02  0.38492336111E+03  0.90880572296E+02 0.  0.
         23    2    4    4    0    0 -0.42656365552E+03  0.40666589184E+03  0.54193437511E+03  0.80613500863E+03  0.93952570007E+02 0.  0.
          3    1    3    3  502    0  0.60812472217E+01 -0.27281223031E+03 -0.11233964240E+03  0.29509945752E+03  0.00000000000E+00 0. -1.
         -4    1    3    3    0  502  0.60683809393E+02 -0.19971633835E+03 -0.43278113796E+02  0.21317161082E+03  0.00000000000E+00 0.  1.
         13    1    5    5    0    0  0.30418460729E+03  0.80110681142E+02  0.88106874094E+02  0.32666315649E+03  0.00000000000E+00 0. -1.
        -13    1    5    5    0    0  0.55613991616E+02 -0.14248004323E+02 -0.99161359283E+01  0.58260204621E+02  0.00000000000E+00 0.  1.
          4    1    6    6  503    0 -0.15150431060E+03  0.16517920655E+03  0.26545923653E+03  0.34742816907E+03  0.00000000000E+00 0. -1.
         -4    1    6    6    0  503 -0.27505934492E+03  0.24148668529E+03  0.27647513858E+03  0.45870683955E+03  0.00000000000E+00 0.  1.
<mgrwt>
<rscale>  0 0.16346111E+04</rscale>
<asrwt>0</asrwt>
<pdfrwt beam="1">  1        1 0.94986314E-01 0.16346111E+04</pdfrwt>
<pdfrwt beam="2">  1       -2 0.16644898E+00 0.16346111E+04</pdfrwt>
<totfact> 0.62130127E+00</totfact>
</mgrwt>
</event>
<event>
12    5  0.5095719E-008  0.2049510E+04  0.7818608E-02  0.8583816E-01
          1   -1    0    0  501    0  0.00000000000E+00  0.00000000000E+00  0.24677791770E+04  0.24677791770E+04  0.00000000000E+00 0. -1.
         -2   -1    0    0    0  501 -0.00000000000E+00 -0.00000000000E+00 -0.42553374488E+03  0.42553374488E+03  0.00000000000E+00 0.  1.
        -24    2    1    2    0    0 -0.59600368773E+03  0.63547743484E+02  0.21930862254E+02  0.60511607869E+03  0.80161053431E+02 0.  0.
        254    2    1    2    0    0  0.59600368773E+03 -0.63547743484E+02  0.20203145698E+04  0.22881968431E+04  0.89158012567E+03 0.  0.
         23    2    4    4    0    0  0.40393485309E+03 -0.42686217181E+03  0.15316217010E+04  0.16429530708E+04  0.89750089702E+02 0.  0.
         23    2    4    4    0    0  0.19206883463E+03  0.36331442832E+03  0.48869286882E+03  0.64524377235E+03  0.92903146668E+02 0.  0.
          3    1    3    3  502    0 -0.49007882103E+02  0.10279158737E+02 -0.20033016043E+02  0.53932878139E+02  0.00000000000E+00 0. -1.
         -2    1    3    3    0  502 -0.54699580562E+03  0.53268584748E+02  0.41963878297E+02  0.55118320055E+03  0.00000000000E+00 0.  1.
         13    1    5    5    0    0  0.38439643993E+02 -0.87408535128E+02  0.23085990710E+03  0.24982825091E+03  0.00000000000E+00 0. -1.
        -13    1    5    5    0    0  0.36549520910E+03 -0.33945363668E+03  0.13007617939E+04  0.13931248199E+04  0.00000000000E+00 0.  1.
          1    1    6    6  503    0  0.60934038247E+02  0.13552149441E+03  0.24655675375E+03  0.28787022299E+03  0.00000000000E+00 0. -1.
         -1    1    6    6    0  503  0.13113479639E+03  0.22779293391E+03  0.24213611507E+03  0.35737354936E+03  0.00000000000E+00 0.  1.
<mgrwt>
<rscale>  0 0.20495105E+04</rscale>
<asrwt>0</asrwt>
<pdfrwt beam="1">  1        1 0.37965833E+00 0.20495105E+04</pdfrwt>
<pdfrwt beam="2">  1       -2 0.65466732E-01 0.20495105E+04</pdfrwt>
<totfact> 0.24889523E+00</totfact>
</mgrwt>
</event>
<event>
12    5  0.5095719E-008  0.1641026E+04  0.7818608E-02  0.8795733E-01
         -2   -1    0    0    0  501 -0.00000000000E+00  0.00000000000E+00  0.45011697914E+03  0.45011697914E+03  0.00000000000E+00 0.  1.
          1   -1    0    0  501    0  0.00000000000E+00 -0.00000000000E+00 -0.14957041082E+04  0.14957041082E+04  0.00000000000E+00 0. -1.
        -24    2    1    2    0    0  0.13945109054E+03  0.16558353026E+03 -0.87157589010E+03  0.90162310507E+03  0.80094814028E+02 0.  0.
        254    2    1    2    0    0 -0.13945109054E+03 -0.16558353026E+03 -0.17401123893E+03  0.10441979823E+04  0.10065808476E+04 0.  0.
         23    2    4    4    0    0 -0.38699747477E+03 -0.88379249464E+00  0.28540965017E+03  0.48944197935E+03  0.91252157105E+02 0.  0.
         23    2    4    4    0    0  0.24754638423E+03 -0.16469973776E+03 -0.45942088910E+03  0.55475600290E+03  0.91002491478E+02 0.  0.
          3    1    3    3  502    0  0.57156850189E+02  0.10249436596E+03 -0.59005949026E+03  0.60161632510E+03  0.00000000000E+00 0. -1.
         -4    1    3    3    0  502  0.82294240352E+02  0.63089164295E+02 -0.28151639984E+03  0.30000677996E+03  0.00000000000E+00 0.  1.
         13    1    5    5    0    0 -0.35846129185E+03  0.22837700053E+02  0.24625743504E+03  0.43549831528E+03  0.00000000000E+00 0. -1.
        -13    1    5    5    0    0 -0.28536182921E+02 -0.23721492548E+02  0.39152215126E+02  0.53943664073E+02  0.00000000000E+00 0.  1.
          1    1    6    6  503    0  0.24613981933E+03 -0.15412877549E+03 -0.39955699893E+03  0.49394967911E+03  0.00000000000E+00 0. -1.
         -1    1    6    6    0  503  0.14065649000E+01 -0.10570962271E+02 -0.59863890161E+02  0.60806323794E+02  0.00000000000E+00 0.  1.
<mgrwt>
<rscale>  0 0.16410263E+04</rscale>
<asrwt>0</asrwt>
<pdfrwt beam="1">  1        1 0.23010833E+00 0.16410263E+04</pdfrwt>
<pdfrwt beam="2">  1       -2 0.69248765E-01 0.16410263E+04</pdfrwt>
<totfact> 0.10519493E+01</totfact>
</mgrwt>
</event>
<event>
12    5  0.5095719E-008  0.1616397E+04  0.7818608E-02  0.8810538E-01
         -2   -1    0    0    0  501 -0.00000000000E+00  0.00000000000E+00  0.55142304660E+03  0.55142304660E+03  0.00000000000E+00 0.  1.
          1   -1    0    0  501    0  0.00000000000E+00 -0.00000000000E+00 -0.11845435324E+04  0.11845435324E+04  0.00000000000E+00 0. -1.
        -24    2    1    2    0    0  0.41597726331E+03  0.25955381666E+02 -0.60616134971E+03  0.74000824387E+03  0.80435400694E+02 0.  0.
        254    2    1    2    0    0 -0.41597726331E+03 -0.25955381666E+02 -0.26959136042E+02  0.99595833509E+03  0.90415454696E+03 0.  0.
         23    2    4    4    0    0 -0.48698136906E+03  0.33106418251E+03 -0.12361567976E+03  0.60832560256E+03  0.89581558857E+02 0.  0.
         23    2    4    4    0    0  0.71004105753E+02 -0.35701956417E+03  0.96656543717E+02  0.38763273253E+03  0.91717477326E+02 0.  0.
          3    1    3    3  502    0  0.14955586950E+03  0.18209398145E+02 -0.28741746353E+03  0.32451092219E+03  0.00000000000E+00 0. -1.
         -4    1    3    3    0  502  0.26642139381E+03  0.77459835206E+01 -0.31874388618E+03  0.41549732168E+03  0.00000000000E+00 0.  1.
         13    1    5    5    0    0 -0.21259900936E+02  0.23423148773E+01  0.87543550291E+01  0.23110788796E+02  0.00000000000E+00 0. -1.
        -13    1    5    5    0    0 -0.46572146813E+03  0.32872186763E+03 -0.13237003479E+03  0.58521481376E+03  0.00000000000E+00 0.  1.
          2    1    6    6  503    0  0.53946831832E+02 -0.88739256233E+02  0.63377299685E+01  0.10404365950E+03  0.00000000000E+00 0. -1.
         -2    1    6    6    0  503  0.17057273921E+02 -0.26828030794E+03  0.90318813748E+02  0.28358907303E+03  0.00000000000E+00 0.  1.
<mgrwt>
<rscale>  0 0.16163967E+04</rscale>
<asrwt>0</asrwt>
<pdfrwt beam="1">  1        1 0.18223747E+00 0.16163967E+04</pdfrwt>
<pdfrwt beam="2">  1       -2 0.84834315E-01 0.16163967E+04</pdfrwt>
<totfact> 0.11156676E+01</totfact>
</mgrwt>
</event>
<event>
12    5  0.5095719E-008  0.1917527E+04  0.7818608E-02  0.8646181E-01
          1   -1    0    0  501    0  0.00000000000E+00  0.00000000000E+00  0.28468273249E+04  0.28468273249E+04  0.00000000000E+00 0. -1.
         -2   -1    0    0    0  501 -0.00000000000E+00 -0.00000000000E+00 -0.32289542005E+03  0.32289542005E+03  0.00000000000E+00 0.  1.
        -24    2    1    2    0    0 -0.56467672870E+03  0.40543746838E+03  0.54197865156E+03  0.88498283471E+03  0.78831531076E+02 0.  0.
        254    2    1    2    0    0  0.56467672870E+03 -0.40543746838E+03  0.19819532533E+04  0.22847399102E+04  0.89925436364E+03 0.  0.
         23    2    4    4    0    0  0.37804489176E+02 -0.20135095333E+03  0.28035186910E+01  0.22458603097E+03  0.91976300111E+02 0.  0.
         23    2    4    4    0    0  0.52687223953E+03 -0.20408651505E+03  0.19791497346E+04  0.20601538793E+04  0.89188967354E+02 0.  0.
          1    1    3    3  502    0 -0.53004999994E+03  0.39180355492E+03  0.53029938638E+03  0.84597899931E+03  0.00000000000E+00 0. -1.
         -2    1    3    3    0  502 -0.34626728766E+02  0.13633913462E+02  0.11679265182E+02  0.39003835408E+02  0.00000000000E+00 0.  1.
         13    1    5    5    0    0  0.39828807041E+02 -0.32080776115E+02 -0.17583825093E+02  0.54080504540E+02  0.00000000000E+00 0.  1.
        -13    1    5    5    0    0 -0.20243178654E+01 -0.16927017722E+03  0.20387343784E+02  0.17050552643E+03  0.00000000000E+00 0. -1.
          1    1    6    6  503    0  0.17667151143E+03 -0.48560634569E+02  0.51223342664E+03  0.54401658205E+03  0.00000000000E+00 0. -1.
         -1    1    6    6    0  503  0.35020072810E+03 -0.15552588048E+03  0.14669163080E+04  0.15161372972E+04  0.00000000000E+00 0.  1.
<mgrwt>
<rscale>  0 0.19175271E+04</rscale>
<asrwt>0</asrwt>
<pdfrwt beam="1">  1        1 0.43797342E+00 0.19175271E+04</pdfrwt>
<pdfrwt beam="2">  1       -2 0.49676220E-01 0.19175271E+04</pdfrwt>
<totfact> 0.24323056E+00</totfact>
</mgrwt>
</event>
<event>
12    5  0.5095719E-008  0.3645215E+04  0.7818608E-02  0.8080212E-01
         -2   -1    0    0    0  501 -0.00000000000E+00  0.00000000000E+00  0.17302630710E+04  0.17302630710E+04  0.00000000000E+00 0.  1.
          1   -1    0    0  501    0  0.00000000000E+00 -0.00000000000E+00 -0.19198805485E+04  0.19198805485E+04  0.00000000000E+00 0. -1.
        -24    2    1    2    0    0  0.91706890996E+03 -0.79375877951E+03  0.11191506297E+04  0.16522879432E+04  0.80553892643E+02 0.  0.
        254    2    1    2    0    0 -0.91706890996E+03  0.79375877951E+03 -0.13087681072E+04  0.19978556763E+04  0.89860166892E+03 0.  0.
         23    2    4    4    0    0 -0.10647518260E+04  0.72310581454E+03 -0.98371596271E+03  0.16224621381E+04  0.90043457398E+02 0.  0.
         23    2    4    4    0    0  0.14768291604E+03  0.70652964974E+02 -0.32505214449E+03  0.37539353826E+03  0.91974598576E+02 0.  0.
          1    1    3    3  502    0  0.26903978637E+03 -0.19329475256E+03  0.27866133905E+03  0.43289422484E+03  0.00000000000E+00 0. -1.
         -2    1    3    3    0  502  0.64802912359E+03 -0.60046402696E+03  0.84048929061E+03  0.12193937183E+04  0.00000000000E+00 0.  1.
         13    1    5    5    0    0 -0.71146549748E+03  0.43282489926E+03 -0.62126074771E+03  0.10389828989E+04  0.00000000000E+00 0. -1.
        -13    1    5    5    0    0 -0.35328632852E+03  0.29028091527E+03 -0.36245521501E+03  0.58347923920E+03  0.00000000000E+00 0.  1.
          1    1    6    6  503    0  0.14175342770E+02  0.47275528799E+02 -0.11820574661E+03  0.12809572396E+03  0.00000000000E+00 0. -1.
         -1    1    6    6    0  503  0.13350757327E+03  0.23377436175E+02 -0.20684639788E+03  0.24729781430E+03  0.00000000000E+00 0.  1.
<mgrwt>
<rscale>  0 0.36452152E+04</rscale>
<asrwt>0</asrwt>
<pdfrwt beam="1">  1        1 0.29536624E+00 0.36452152E+04</pdfrwt>
<pdfrwt beam="2">  1       -2 0.26619432E+00 0.36452152E+04</pdfrwt>
<totfact> 0.12236295E-01</totfact>
</mgrwt>
</event>
<event>
12    5  0.5095719E-008  0.1347055E+04  0.7818608E-02  0.8993060E-01
         -2   -1    0    0    0  501 -0.00000000000E+00  0.00000000000E+00  0.70738524627E+03  0.70738524627E+03  0.00000000000E+00 0.  1.
          1   -1    0    0  501    0  0.00000000000E+00 -0.00000000000E+00 -0.64129055769E+03  0.64129055769E+03  0.00000000000E+00 0. -1.
        -24    2    1    2    0    0  0.25477539864E+03  0.14187314178E+03  0.27652198590E+03  0.40961054520E+03  0.79233187146E+02 0.  0.
        254    2    1    2    0    0 -0.25477539864E+03 -0.14187314178E+03 -0.21042729733E+03  0.93906525876E+03  0.86748223073E+03 0.  0.
         23    2    4    4    0    0 -0.30560751155E+03  0.24745641994E+03 -0.32480962497E+03  0.51828322442E+03  0.92117193595E+02 0.  0.
         23    2    4    4    0    0  0.50832112911E+02 -0.38932956171E+03  0.11438232765E+03  0.42078203434E+03  0.99059538760E+02 0.  0.
          1    1    3    3  502    0  0.63742007241E+02  0.23869585085E+02  0.11270557297E+03  0.13166376403E+03  0.00000000000E+00 0. -1.
         -2    1    3    3    0  502  0.19103339139E+03  0.11800355669E+03  0.16381641293E+03  0.27794678117E+03  0.00000000000E+00 0.  1.
         13    1    5    5    0    0 -0.90769370759E+01 -0.52816159630E+01 -0.23515695819E+02  0.25754110424E+02  0.00000000000E+00 0. -1.
        -13    1    5    5    0    0 -0.29653057447E+03  0.25273803590E+03 -0.30129392915E+03  0.49252911399E+03  0.00000000000E+00 0.  1.
          4    1    6    6  503    0 -0.14887138378E+01  0.56534110911E+01 -0.11038712275E+01  0.59494417841E+01  0.00000000000E+00 0. -1.
         -4    1    6    6    0  503  0.52320826749E+02 -0.39498297280E+03  0.11548619887E+03  0.41483259256E+03  0.00000000000E+00 0.  1.
<mgrwt>
<rscale>  0 0.13470553E+04</rscale>
<asrwt>0</asrwt>
<pdfrwt beam="1">  1        1 0.98660086E-01 0.13470553E+04</pdfrwt>
<pdfrwt beam="2">  1       -2 0.10882850E+00 0.13470553E+04</pdfrwt>
<totfact> 0.17953677E+01</totfact>
</mgrwt>
</event>
<event>
12    5  0.5095719E-008  0.1927635E+04  0.7818608E-02  0.8641222E-01
          1   -1    0    0  501    0  0.00000000000E+00  0.00000000000E+00  0.12155504244E+04  0.12155504244E+04  0.00000000000E+00 0. -1.
         -2   -1    0    0    0  501 -0.00000000000E+00 -0.00000000000E+00 -0.76421677930E+03  0.76421677930E+03  0.00000000000E+00 0.  1.
        -24    2    1    2    0    0  0.31610212550E+03 -0.34034193417E+03  0.79405288765E+03  0.92382482842E+03  0.84729801854E+02 0.  0.
        254    2    1    2    0    0 -0.31610212550E+03  0.34034193417E+03 -0.34271924260E+03  0.10559423752E+04  0.88419716957E+03 0.  0.
         23    2    4    4    0    0  0.18040645119E+03  0.39254123063E+03 -0.32597185124E+03  0.54874758213E+03  0.90725716986E+02 0.  0.
         23    2    4    4    0    0 -0.49650857668E+03 -0.52199296461E+02 -0.16747391362E+02  0.50719479311E+03  0.87866659023E+02 0.  0.
          3    1    3    3  502    0  0.22709925081E+03 -0.29075519413E+03  0.59228292984E+03  0.69779060011E+03  0.00000000000E+00 0. -1.
         -4    1    3    3    0  502  0.89002874685E+02 -0.49586740046E+02  0.20176995782E+03  0.22603422831E+03  0.00000000000E+00 0.  1.
         13    1    5    5    0    0  0.95232924739E+00  0.52272600635E+02 -0.67109740770E+02  0.85070847030E+02  0.00000000000E+00 0.  1.
        -13    1    5    5    0    0  0.17945412194E+03  0.34026863000E+03 -0.25886211047E+03  0.46367673510E+03  0.00000000000E+00 0. -1.
          2    1    6    6  503    0 -0.24698827236E+03 -0.63356476773E+02  0.14945698875E+02  0.25542244175E+03  0.00000000000E+00 0. -1.
         -2    1    6    6    0  503 -0.24952030432E+03  0.11157180312E+02 -0.31693090237E+02  0.25177235136E+03  0.00000000000E+00 0.  1.
<mgrwt>
<rscale>  0 0.19276349E+04</rscale>
<asrwt>0</asrwt>
<pdfrwt beam="1">  1        1 0.18700776E+00 0.19276349E+04</pdfrwt>
<pdfrwt beam="2">  1       -2 0.11757181E+00 0.19276349E+04</pdfrwt>
<totfact> 0.47608784E+00</totfact>
</mgrwt>
</event>
<event>
12    5  0.5095719E-008  0.1566788E+04  0.7818608E-02  0.8841215E-01
          1   -1    0    0  501    0  0.00000000000E+00  0.00000000000E+00  0.24717595419E+04  0.24717595419E+04  0.00000000000E+00 0. -1.
         -2   -1    0    0    0  501 -0.00000000000E+00 -0.00000000000E+00 -0.24828708726E+03  0.24828708726E+03  0.00000000000E+00 0.  1.
        -24    2    1    2    0    0 -0.38463307961E+02 -0.20951963521E+02  0.15863428818E+04  0.15891085337E+04  0.82847947754E+02 0.  0.
        254    2    1    2    0    0  0.38463307961E+02  0.20951963521E+02  0.63712957288E+03  0.11309380955E+04  0.93336406206E+03 0.  0.
         23    2    4    4    0    0  0.43570324902E+02  0.84488727641E+02  0.86626963342E+03  0.87638003907E+03  0.92640038743E+02 0.  0.
         23    2    4    4    0    0 -0.51070169410E+01 -0.63536764120E+02 -0.22914006054E+03  0.25455805642E+03  0.90728356785E+02 0.  0.
          3    1    3    3  502    0 -0.42770251159E+02  0.22795336114E+02  0.69961949903E+03  0.70129620358E+03  0.00000000000E+00 0. -1.
         -4    1    3    3    0  502  0.43069431983E+01 -0.43747299634E+02  0.88672338273E+03  0.88781233010E+03  0.00000000000E+00 0.  1.
         13    1    5    5    0    0 -0.25019555343E+02  0.36422104209E+01  0.22343910498E+03  0.22486502058E+03  0.00000000000E+00 0. -1.
        -13    1    5    5    0    0  0.68589880245E+02  0.80846517220E+02  0.64283052844E+03  0.65151501849E+03  0.00000000000E+00 0.  1.
          2    1    6    6  503    0  0.28956186771E+02 -0.26781313960E+02 -0.30964733236E+02  0.50144932288E+02  0.00000000000E+00 0. -1.
         -2    1    6    6    0  503 -0.34063203712E+02 -0.36755450160E+02 -0.19817532730E+03  0.20441312413E+03  0.00000000000E+00 0.  1.
<mgrwt>
<rscale>  0 0.15667878E+04</rscale>
<asrwt>0</asrwt>
<pdfrwt beam="1">  1        1 0.38027068E+00 0.15667878E+04</pdfrwt>
<pdfrwt beam="2">  1       -2 0.38198015E-01 0.15667878E+04</pdfrwt>
<totfact> 0.77644687E+00</totfact>
</mgrwt>
</event>
<event>
12    5  0.5095719E-008  0.1264222E+04  0.7818608E-02  0.9058429E-01
         -2   -1    0    0    0  501 -0.00000000000E+00  0.00000000000E+00  0.66814769602E+03  0.66814769602E+03  0.00000000000E+00 0.  1.
          1   -1    0    0  501    0  0.00000000000E+00 -0.00000000000E+00 -0.59801812375E+03  0.59801812375E+03  0.00000000000E+00 0. -1.
        -24    2    1    2    0    0 -0.25360463400E+03 -0.17000007508E+03  0.27150710380E+01  0.31532680058E+03  0.78792662343E+02 0.  0.
        254    2    1    2    0    0  0.25360463400E+03  0.17000007508E+03  0.67414501231E+02  0.95083901918E+03  0.89796146327E+03 0.  0.
         23    2    4    4    0    0  0.18214439828E+03 -0.27425773694E+03 -0.22303521887E+03  0.40788931642E+03  0.90747437941E+02 0.  0.
         23    2    4    4    0    0  0.71460235720E+02  0.44425781202E+03  0.29044972010E+03  0.54294970277E+03  0.89228756572E+02 0.  0.
          3    1    3    3  502    0 -0.11675490412E+03 -0.64315302702E+02  0.38518543211E+02  0.13875101430E+03  0.00000000000E+00 0. -1.
         -4    1    3    3    0  502 -0.13684972988E+03 -0.10568477238E+03 -0.35803472173E+02  0.17657578628E+03  0.00000000000E+00 0.  1.
         13    1    5    5    0    0  0.65257247862E+02 -0.40004844676E+02 -0.28293952002E+02  0.81605414746E+02  0.00000000000E+00 0. -1.
        -13    1    5    5    0    0  0.11688715042E+03 -0.23425289226E+03 -0.19474126687E+03  0.32628390167E+03  0.00000000000E+00 0.  1.
          1    1    6    6  503    0  0.17773732998E+02  0.34644615604E+02  0.17958997835E+01  0.38979228200E+02  0.00000000000E+00 0. -1.
         -1    1    6    6    0  503  0.53686502722E+02  0.40961319642E+03  0.28865382032E+03  0.50397047457E+03  0.00000000000E+00 0.  1.
<mgrwt>
<rscale>  0 0.12642222E+04</rscale>
<asrwt>0</asrwt>
<pdfrwt beam="1">  1        1 0.92002788E-01 0.12642222E+04</pdfrwt>
<pdfrwt beam="2">  1       -2 0.10279195E+00 0.12642222E+04</pdfrwt>
<totfact> 0.22949594E+01</totfact>
</mgrwt>
</event>
<event>
12    5  0.5095719E-008  0.1792619E+04  0.7818608E-02  0.8710235E-01
         -2   -1    0    0    0  501 -0.00000000000E+00  0.00000000000E+00  0.48461032709E+03  0.48461032709E+03  0.00000000000E+00 0.  1.
          1   -1    0    0  501    0  0.00000000000E+00 -0.00000000000E+00 -0.16577655868E+04  0.16577655868E+04  0.00000000000E+00 0. -1.
        -24    2    1    2    0    0  0.36929733778E+03  0.27594567209E+03  0.13674339936E+03  0.48842886091E+03  0.85658959046E+02 0.  0.
        254    2    1    2    0    0 -0.36929733778E+03 -0.27594567209E+03 -0.13098986591E+04  0.16539470530E+04  0.89843186689E+03 0.  0.
         23    2    4    4    0    0 -0.43425715475E+02  0.10810773249E+03  0.81898641077E+02  0.17094989944E+03  0.94569583473E+02 0.  0.
         23    2    4    4    0    0 -0.32587162231E+03 -0.38405340458E+03 -0.13917973002E+04  0.14829971536E+04  0.92149340589E+02 0.  0.
          1    1    3    3  502    0  0.71501930708E+02  0.98153295162E+02  0.46641020697E+02  0.13008451198E+03  0.00000000000E+00 0. -1.
         -2    1    3    3    0  502  0.29779540708E+03  0.17779237692E+03  0.90102378658E+02  0.35834434893E+03  0.00000000000E+00 0.  1.
         13    1    5    5    0    0 -0.69754836990E+02  0.67695762900E+02  0.73795033292E+02  0.12204163444E+03  0.00000000000E+00 0. -1.
        -13    1    5    5    0    0  0.26329121514E+02  0.40411969591E+02  0.81036077857E+01  0.48908264997E+02  0.00000000000E+00 0.  1.
          3    1    6    6  503    0 -0.24401913745E+03 -0.30478074959E+03 -0.11735744968E+04  0.12368159703E+04  0.00000000000E+00 0. -1.
         -3    1    6    6    0  503 -0.81852484861E+02 -0.79272654990E+02 -0.21822280333E+03  0.24618118328E+03  0.00000000000E+00 0.  1.
<mgrwt>
<rscale>  0 0.17926186E+04</rscale>
<asrwt>0</asrwt>
<pdfrwt beam="1">  1        1 0.25504086E+00 0.17926186E+04</pdfrwt>
<pdfrwt beam="2">  1       -2 0.74555436E-01 0.17926186E+04</pdfrwt>
<totfact> 0.68301886E+00</totfact>
</mgrwt>
</event>
<event>
12    5  0.5095719E-008  0.1668644E+04  0.7818608E-02  0.8779452E-01
          3   -1    0    0  501    0  0.00000000000E+00  0.00000000000E+00  0.14998289444E+04  0.14998289444E+04  0.00000000000E+00 0. -1.
         -4   -1    0    0    0  501 -0.00000000000E+00 -0.00000000000E+00 -0.46411529524E+03  0.46411529524E+03  0.00000000000E+00 0.  1.
        -24    2    1    2    0    0 -0.13202764670E+03 -0.39377538718E+03 -0.11871438331E+03  0.43938487559E+03  0.80471169066E+02 0.  0.
        254    2    1    2    0    0  0.13202764670E+03  0.39377538718E+03  0.11544280324E+04  0.15245593640E+04  0.90503415255E+03 0.  0.
         23    2    4    4    0    0  0.34966761434E+03  0.28184618820E+03  0.11765997144E+04  0.12626623793E+04  0.90690031056E+02 0.  0.
         23    2    4    4    0    0 -0.21763996764E+03  0.11192919899E+03 -0.22171681998E+02  0.26189698473E+03  0.90571220742E+02 0.  0.
          1    1    3    3  502    0 -0.71704582875E+02 -0.10670783181E+03 -0.21423695605E+02  0.13033450544E+03  0.00000000000E+00 0. -1.
         -2    1    3    3    0  502 -0.60323063820E+02 -0.28706755538E+03 -0.97290687707E+02  0.30905037015E+03  0.00000000000E+00 0.  1.
         13    1    5    5    0    0  0.67983886340E+02  0.32516542834E+02  0.28843264613E+03  0.29811495386E+03  0.00000000000E+00 0. -1.
        -13    1    5    5    0    0  0.28168372800E+03  0.24932964536E+03  0.88816706829E+03  0.96454742542E+03  0.00000000000E+00 0.  1.
          2    1    6    6  503    0 -0.51665968041E+02  0.73908359159E+02  0.75330141954E-01  0.90176623811E+02  0.00000000000E+00 0. -1.
         -2    1    6    6    0  503 -0.16597399960E+03  0.38020839826E+02 -0.22247012140E+02  0.17172036092E+03  0.00000000000E+00 0.  1.
<mgrwt>
<rscale>  0 0.16686444E+04</rscale>
<asrwt>0</asrwt>
<pdfrwt beam="1">  1        3 0.23074291E+00 0.16686444E+04</pdfrwt>
<pdfrwt beam="2">  1       -4 0.71402354E-01 0.16686444E+04</pdfrwt>
<totfact> 0.37510292E-01</totfact>
</mgrwt>
</event>
<event>
12    5  0.5095719E-008  0.1439477E+04  0.7818608E-02  0.8925728E-01
          1   -1    0    0  501    0  0.00000000000E+00  0.00000000000E+00  0.20609480059E+04  0.20609480059E+04  0.00000000000E+00 0. -1.
         -2   -1    0    0    0  501 -0.00000000000E+00 -0.00000000000E+00 -0.25135211036E+03  0.25135211036E+03  0.00000000000E+00 0.  1.
        -24    2    1    2    0    0 -0.18797561508E+03  0.31435710561E+03  0.18420679731E+03  0.41764916787E+03  0.79645850716E+02 0.  0.
        254    2    1    2    0    0  0.18797561508E+03 -0.31435710561E+03  0.16253890983E+04  0.18946509484E+04  0.90202953051E+03 0.  0.
         23    2    4    4    0    0  0.52424355701E+03 -0.26093834733E+03  0.12364025681E+04  0.13711054892E+04  0.91207587281E+02 0.  0.
         23    2    4    4    0    0 -0.33626794192E+03 -0.53418758271E+02  0.38898653016E+03  0.52354545921E+03  0.82822911738E+02 0.  0.
          3    1    3    3  502    0 -0.59883231614E+02  0.17607148819E+03  0.82338482957E+02  0.20338828913E+03  0.00000000000E+00 0. -1.
         -4    1    3    3    0  502 -0.12809238347E+03  0.13828561742E+03  0.10186831435E+03  0.21426087873E+03  0.00000000000E+00 0.  1.
         13    1    5    5    0    0  0.15902414120E+03 -0.79379165079E+02  0.28379217598E+03  0.33485478716E+03  0.00000000000E+00 0. -1.
        -13    1    5    5    0    0  0.36521941580E+03 -0.18155918226E+03  0.95261039213E+03  0.10362507021E+04  0.00000000000E+00 0.  1.
          4    1    6    6  503    0 -0.43431795454E+02  0.19054700265E+02  0.69494412361E+02  0.84136055339E+02  0.00000000000E+00 0. -1.
         -4    1    6    6    0  503 -0.29283614647E+03 -0.72473458537E+02  0.31949211780E+03  0.43940940387E+03  0.00000000000E+00 0.  1.
<mgrwt>
<rscale>  0 0.14394772E+04</rscale>
<asrwt>0</asrwt>
<pdfrwt beam="1">  1        1 0.31706891E+00 0.14394772E+04</pdfrwt>
<pdfrwt beam="2">  1       -2 0.38669557E-01 0.14394772E+04</pdfrwt>
<totfact> 0.14622033E+01</totfact>
</mgrwt>
</event>
<event>
12    5  0.5095719E-008  0.4066713E+04  0.7818608E-02  0.7991222E-01
         -2   -1    0    0    0  501 -0.00000000000E+00  0.00000000000E+00  0.23526350149E+04  0.23526350149E+04  0.00000000000E+00 0.  1.
          1   -1    0    0  501    0  0.00000000000E+00 -0.00000000000E+00 -0.17574073957E+04  0.17574073957E+04  0.00000000000E+00 0. -1.
        -24    2    1    2    0    0 -0.11940558289E+04  0.12714949634E+03  0.17931999278E+04  0.21596728606E+04  0.81759199911E+02 0.  0.
        254    2    1    2    0    0  0.11940558289E+04 -0.12714949634E+03 -0.11979723086E+04  0.19503695499E+04  0.96273953483E+03 0.  0.
         23    2    4    4    0    0  0.12438056462E+03 -0.22987329163E+03 -0.71849238267E+03  0.76998903306E+03  0.91321147724E+02 0.  0.
         23    2    4    4    0    0  0.10696752643E+04  0.10272379529E+03 -0.47947992596E+03  0.11803805168E+04  0.92950610232E+02 0.  0.
          1    1    3    3  502    0 -0.28632271482E+03  0.34238402206E+02  0.49509680761E+03  0.57295184275E+03  0.00000000000E+00 0. -1.
         -2    1    3    3    0  502 -0.90773311411E+03  0.92911094134E+02  0.12981031202E+04  0.15867210179E+04  0.00000000000E+00 0.  1.
         13    1    5    5    0    0  0.10347214819E+03 -0.23275260994E+03 -0.67911700098E+03  0.72531383822E+03  0.00000000000E+00 0.  1.
        -13    1    5    5    0    0  0.20908416425E+02  0.28793183128E+01 -0.39375381690E+02  0.44675194846E+02  0.00000000000E+00 0. -1.
          1    1    6    6  503    0  0.23051077200E+03  0.10045245086E+01 -0.13829464722E+03  0.26881524237E+03  0.00000000000E+00 0. -1.
         -1    1    6    6    0  503  0.83916449232E+03  0.10171927078E+03 -0.34118527874E+03  0.91156527448E+03  0.00000000000E+00 0.  1.
<mgrwt>
<rscale>  0 0.40667128E+04</rscale>
<asrwt>0</asrwt>
<pdfrwt beam="1">  1        1 0.27037037E+00 0.40667128E+04</pdfrwt>
<pdfrwt beam="2">  1       -2 0.36194385E+00 0.40667128E+04</pdfrwt>
<totfact> 0.38909520E-02</totfact>
</mgrwt>
</event>
<event>
12    5  0.5095719E-008  0.1889913E+04  0.7818608E-02  0.8659894E-01
          1   -1    0    0  501    0  0.00000000000E+00  0.00000000000E+00  0.95443700440E+03  0.95443700440E+03  0.00000000000E+00 0. -1.
         -2   -1    0    0    0  501 -0.00000000000E+00 -0.00000000000E+00 -0.93557016436E+03  0.93557016436E+03  0.00000000000E+00 0.  1.
        -24    2    1    2    0    0 -0.27095948371E+02 -0.28848726468E+03 -0.66578027108E+03  0.73050327918E+03  0.80078581610E+02 0.  0.
        254    2    1    2    0    0  0.27095948371E+02  0.28848726468E+03  0.68464711111E+03  0.11595038896E+04  0.88980251230E+03 0.  0.
         23    2    4    4    0    0 -0.16619373954E+03  0.23182293788E+03 -0.12162039708E+03  0.32319851961E+03  0.91123698892E+02 0.  0.
         23    2    4    4    0    0  0.19328968791E+03  0.56664326793E+02  0.80626750819E+03  0.83630536998E+03  0.93635611283E+02 0.  0.
          1    1    3    3  502    0  0.78964066170E+01  0.16978602127E+01 -0.23334056966E+02  0.24692391161E+02  0.00000000000E+00 0. -1.
         -2    1    3    3    0  502 -0.34992354988E+02 -0.29018512489E+03 -0.64244621411E+03  0.70581088801E+03  0.00000000000E+00 0.  1.
         13    1    5    5    0    0 -0.36086942517E+02  0.73326896120E+02  0.55400172613E+01  0.81913325571E+02  0.00000000000E+00 0.  1.
        -13    1    5    5    0    0 -0.13010679702E+03  0.15849604176E+03 -0.12716041434E+03  0.24128519404E+03  0.00000000000E+00 0. -1.
          3    1    6    6  503    0  0.15734906314E+03  0.40207970670E+02  0.75098186698E+03  0.76834183350E+03  0.00000000000E+00 0. -1.
         -3    1    6    6    0  503  0.35940624770E+02  0.16456356122E+02  0.55285641210E+02  0.67963536471E+02  0.00000000000E+00 0.  1.
<mgrwt>
<rscale>  0 0.18899130E+04</rscale>
<asrwt>0</asrwt>
<pdfrwt beam="1">  1        1 0.14683646E+00 0.18899130E+04</pdfrwt>
<pdfrwt beam="2">  1       -2 0.14393387E+00 0.18899130E+04</pdfrwt>
<totfact> 0.45073891E+00</totfact>
</mgrwt>
</event>
<event>
12    5  0.5095719E-008  0.1040780E+04  0.7818608E-02  0.9264916E-01
          1   -1    0    0  501    0  0.00000000000E+00  0.00000000000E+00  0.19806528708E+03  0.19806528708E+03  0.00000000000E+00 0. -1.
         -2   -1    0    0    0  501 -0.00000000000E+00 -0.00000000000E+00 -0.13672537524E+04  0.13672537524E+04  0.00000000000E+00 0.  1.
        -24    2    1    2    0    0  0.25033563642E+02  0.69814526827E+02 -0.28455518099E+03  0.30486076581E+03  0.80421937533E+02 0.  0.
        254    2    1    2    0    0 -0.25033563642E+02 -0.69814526827E+02 -0.88463328432E+03  0.12604582737E+04  0.89480627202E+03 0.  0.
         23    2    4    4    0    0  0.22866669095E+03 -0.35450887486E+03 -0.20909208249E+03  0.47956351073E+03  0.91086025075E+02 0.  0.
         23    2    4    4    0    0 -0.25370025459E+03  0.28469434803E+03 -0.67554120182E+03  0.78089476293E+03  0.89588081981E+02 0.  0.
          1    1    3    3  502    0  0.47980716641E+01  0.38831081936E+02 -0.34752000084E+02  0.52331404776E+02  0.00000000000E+00 0. -1.
         -2    1    3    3    0  502  0.20235491978E+02  0.30983444891E+02 -0.24980318091E+03  0.25252936103E+03  0.00000000000E+00 0.  1.
         13    1    5    5    0    0  0.17597486997E+03 -0.28208274346E+03 -0.20353456066E+03  0.38982578981E+03  0.00000000000E+00 0.  1.
        -13    1    5    5    0    0  0.52691820981E+02 -0.72426131392E+02 -0.55575218303E+01  0.89737720918E+02  0.00000000000E+00 0. -1.
          3    1    6    6  503    0 -0.25675543805E+03  0.27858497228E+03 -0.63226980525E+03  0.73708754458E+03  0.00000000000E+00 0. -1.
         -3    1    6    6    0  503  0.30551834580E+01  0.61093757505E+01 -0.43271396578E+02  0.43807218353E+02  0.00000000000E+00 0.  1.
<mgrwt>
<rscale>  0 0.10407795E+04</rscale>
<asrwt>0</asrwt>
<pdfrwt beam="1">  1        1 0.30471583E-01 0.10407795E+04</pdfrwt>
<pdfrwt beam="2">  1       -2 0.21034673E+00 0.10407795E+04</pdfrwt>
<totfact> 0.14976388E+01</totfact>
</mgrwt>
</event>
<event>
12    5  0.5095719E-008  0.1195123E+04  0.7818608E-02  0.9117136E-01
          1   -1    0    0  501    0  0.00000000000E+00  0.00000000000E+00  0.18068522769E+04  0.18068522769E+04  0.00000000000E+00 0. -1.
         -2   -1    0    0    0  501 -0.00000000000E+00 -0.00000000000E+00 -0.19762520489E+03  0.19762520489E+03  0.00000000000E+00 0.  1.
        -24    2    1    2    0    0 -0.70261281789E+02  0.20142440690E+03  0.15036450321E+03  0.27219460558E+03  0.77278587390E+02 0.  0.
        254    2    1    2    0    0  0.70261281789E+02 -0.20142440690E+03  0.14588625688E+04  0.17322828762E+04  0.90940394168E+03 0.  0.
         23    2    4    4    0    0  0.34943990433E+03 -0.49273778314E+01  0.12925372107E+04  0.13419358459E+04  0.89480991524E+02 0.  0.
         23    2    4    4    0    0 -0.27917862254E+03 -0.19649702907E+03  0.16632535812E+03  0.39034703027E+03  0.90304449323E+02 0.  0.
          3    1    3    3  502    0 -0.66926286850E+00 -0.17108262213E+01  0.21895001277E+02  0.21971934828E+02  0.00000000000E+00 0. -1.
         -4    1    3    3    0  502 -0.69592018921E+02  0.20313523312E+03  0.12846950193E+03  0.25022267076E+03  0.00000000000E+00 0.  1.
         13    1    5    5    0    0  0.11633828288E+03  0.19153779284E+02  0.30553238508E+03  0.32749275055E+03  0.00000000000E+00 0. -1.
        -13    1    5    5    0    0  0.23310162145E+03 -0.24081157115E+02  0.98700482558E+03  0.10144430954E+04  0.00000000000E+00 0.  1.
          2    1    6    6  503    0 -0.73482941077E+01 -0.36896104647E+02  0.12899348106E+02  0.39770757422E+02  0.00000000000E+00 0. -1.
         -2    1    6    6    0  503 -0.27183032843E+03 -0.15960092443E+03  0.15342601002E+03  0.35057627285E+03  0.00000000000E+00 0.  1.
<mgrwt>
<rscale>  0 0.11951227E+04</rscale>
<asrwt>0</asrwt>
<pdfrwt beam="1">  1        1 0.27797726E+00 0.11951227E+04</pdfrwt>
<pdfrwt beam="2">  1       -2 0.30403879E-01 0.11951227E+04</pdfrwt>
<totfact> 0.35060402E+01</totfact>
</mgrwt>
</event>
<event>
12    5  0.5095719E-008  0.2597664E+04  0.7818608E-02  0.8368995E-01
          1   -1    0    0  501    0  0.00000000000E+00  0.00000000000E+00  0.11861288139E+04  0.11861288139E+04  0.00000000000E+00 0. -1.
         -2   -1    0    0    0  501 -0.00000000000E+00 -0.00000000000E+00 -0.14222443074E+04  0.14222443074E+04  0.00000000000E+00 0.  1.
        -24    2    1    2    0    0 -0.55437893968E+03  0.97026376327E+03  0.77335433976E+02  0.11229185933E+04  0.78851878614E+02 0.  0.
        254    2    1    2    0    0  0.55437893968E+03 -0.97026376327E+03 -0.31345092752E+03  0.14854545280E+04  0.92713315749E+03 0.  0.
         23    2    4    4    0    0  0.51049355395E+03 -0.57254997118E+03  0.22872456435E+03  0.80551941343E+03  0.90163523429E+02 0.  0.
         23    2    4    4    0    0  0.43885385731E+02 -0.39771379209E+03 -0.54217549186E+03  0.67993511457E+03  0.90858728483E+02 0.  0.
          3    1    3    3  502    0 -0.64636291604E+02  0.10389159841E+03  0.32950891425E+02  0.12671651692E+03  0.00000000000E+00 0. -1.
         -4    1    3    3    0  502 -0.48974264808E+03  0.86637216486E+03  0.44384542551E+02  0.99620207639E+03  0.00000000000E+00 0.  1.
         13    1    5    5    0    0  0.41055351287E+03 -0.50511517148E+03  0.20679151253E+03  0.68297749088E+03  0.00000000000E+00 0.  1.
        -13    1    5    5    0    0  0.99940041076E+02 -0.67434799696E+02  0.21933051817E+02  0.12254192255E+03  0.00000000000E+00 0. -1.
          3    1    6    6  503    0 -0.35432174548E+01 -0.15582068833E+03 -0.14739629778E+03  0.21451878682E+03  0.00000000000E+00 0. -1.
         -3    1    6    6    0  503  0.47428603186E+02 -0.24189310377E+03 -0.39477919408E+03  0.46541632774E+03  0.00000000000E+00 0.  1.
<mgrwt>
<rscale>  0 0.25976643E+04</rscale>
<asrwt>0</asrwt>
<pdfrwt beam="1">  1        1 0.18248136E+00 0.25976643E+04</pdfrwt>
<pdfrwt beam="2">  1       -2 0.21880682E+00 0.25976643E+04</pdfrwt>
<totfact> 0.85040217E-01</totfact>
</mgrwt>
</event>
<event>
12    5  0.5095719E-008  0.2256859E+04  0.7818608E-02  0.8495128E-01
          1   -1    0    0  501    0  0.00000000000E+00  0.00000000000E+00  0.28922966693E+04  0.28922966693E+04  0.00000000000E+00 0. -1.
         -2   -1    0    0    0  501 -0.00000000000E+00 -0.00000000000E+00 -0.44025686066E+03  0.44025686066E+03  0.00000000000E+00 0.  1.
        -24    2    1    2    0    0 -0.19140735699E+03 -0.40073098340E+03 -0.19549647551E+03  0.49172437909E+03  0.79698780973E+02 0.  0.
        254    2    1    2    0    0  0.19140735699E+03  0.40073098340E+03  0.26475362841E+04  0.28408291508E+04  0.92932222137E+03 0.  0.
         23    2    4    4    0    0 -0.27772112234E+03 -0.12614897313E+03  0.81371555580E+03  0.87379689730E+03  0.91353307340E+02 0.  0.
         23    2    4    4    0    0  0.46912847933E+03  0.52687995654E+03  0.18338207283E+04  0.19670322535E+04  0.92916113308E+02 0.  0.
          1    1    3    3  502    0 -0.37271295919E+02 -0.15765698643E+03 -0.88921671470E+02  0.18480243106E+03  0.00000000000E+00 0. -1.
         -4    1    3    3    0  502 -0.15413606107E+03 -0.24307399698E+03 -0.10657480404E+03  0.30692194803E+03  0.00000000000E+00 0.  1.
         13    1    5    5    0    0  0.68108912702E+01 -0.45315583434E+01  0.32922606509E+02  0.33923756871E+02  0.00000000000E+00 0.  1.
        -13    1    5    5    0    0 -0.28453201361E+03 -0.12161741479E+03  0.78079294929E+03  0.83987314043E+03  0.00000000000E+00 0. -1.
          3    1    6    6  503    0  0.33071619831E+03  0.42405889054E+03  0.13345765472E+04  0.14388515235E+04  0.00000000000E+00 0. -1.
         -3    1    6    6    0  503  0.13841228102E+03  0.10282106599E+03  0.49924418115E+03  0.52818073002E+03  0.00000000000E+00 0.  1.
<mgrwt>
<rscale>  0 0.22568593E+04</rscale>
<asrwt>0</asrwt>
<pdfrwt beam="1">  1        1 0.44496871E+00 0.22568593E+04</pdfrwt>
<pdfrwt beam="2">  1       -2 0.67731827E-01 0.22568593E+04</pdfrwt>
<totfact> 0.11401618E+00</totfact>
</mgrwt>
</event>
<event>
12    5  0.5095719E-008  0.1846631E+04  0.7818608E-02  0.8681887E-01
         -2   -1    0    0    0  501 -0.00000000000E+00  0.00000000000E+00  0.87504410189E+03  0.87504410189E+03  0.00000000000E+00 0.  1.
          1   -1    0    0  501    0  0.00000000000E+00 -0.00000000000E+00 -0.97424936116E+03  0.97424936116E+03  0.00000000000E+00 0. -1.
        -24    2    1    2    0    0  0.79174742921E+02 -0.24702296599E+03  0.62025696158E+03  0.67688310982E+03  0.78505161130E+02 0.  0.
        254    2    1    2    0    0 -0.79174742921E+02  0.24702296599E+03 -0.71946222085E+03  0.11724103532E+04  0.88861193075E+03 0.  0.
         23    2    4    4    0    0  0.23793198817E+03  0.41869206273E+03 -0.19115980446E+03  0.52615929541E+03  0.91579795337E+02 0.  0.
         23    2    4    4    0    0 -0.31710673109E+03 -0.17166909674E+03 -0.52830241639E+03  0.64625105782E+03  0.92249817833E+02 0.  0.
          3    1    3    3  502    0  0.11252280487E+02 -0.13350387526E+00  0.98954322856E+01  0.14985033185E+02  0.00000000000E+00 0. -1.
         -4    1    3    3    0  502  0.67922462435E+02 -0.24688946212E+03  0.61036152929E+03  0.66189807663E+03  0.00000000000E+00 0.  1.
         13    1    5    5    0    0  0.15151567678E+03  0.23235614942E+03 -0.15449296381E+03  0.31751292312E+03  0.00000000000E+00 0. -1.
        -13    1    5    5    0    0  0.86416311390E+02  0.18633591331E+03 -0.36666840649E+02  0.20864637229E+03  0.00000000000E+00 0.  1.
          3    1    6    6  503    0 -0.31823976999E+03 -0.16407127935E+03 -0.48821118181E+03  0.60543050299E+03  0.00000000000E+00 0. -1.
         -3    1    6    6    0  503  0.11330388973E+01 -0.75978173914E+01 -0.40091234578E+02  0.40820554825E+02  0.00000000000E+00 0.  1.
<mgrwt>
<rscale>  0 0.18466306E+04</rscale>
<asrwt>0</asrwt>
<pdfrwt beam="1">  1        1 0.14988452E+00 0.18466306E+04</pdfrwt>
<pdfrwt beam="2">  1       -2 0.13462217E+00 0.18466306E+04</pdfrwt>
<totfact> 0.51894744E+00</totfact>
</mgrwt>
</event>
<event>
12    5  0.5095719E-008  0.3867662E+04  0.7818608E-02  0.8031789E-01
          1   -1    0    0  501    0  0.00000000000E+00  0.00000000000E+00  0.26369476533E+04  0.26369476533E+04  0.00000000000E+00 0. -1.
         -2   -1    0    0    0  501 -0.00000000000E+00 -0.00000000000E+00 -0.14181938610E+04  0.14181938610E+04  0.00000000000E+00 0.  1.
        -24    2    1    2    0    0 -0.82931705735E+03 -0.63027142736E+03 -0.99770374817E+03  0.14445528944E+04  0.79444582866E+02 0.  0.
        254    2    1    2    0    0  0.82931705735E+03  0.63027142736E+03  0.22164575405E+04  0.26105886199E+04  0.90414603891E+03 0.  0.
         23    2    4    4    0    0  0.78834690827E+03  0.21708765998E+03  0.86555645681E+03  0.11944011778E+04  0.93745899622E+02 0.  0.
         23    2    4    4    0    0  0.40970149077E+02  0.41318376738E+03  0.13509010836E+04  0.14161874421E+04  0.90850176027E+02 0.  0.
          1    1    3    3  502    0 -0.37802130729E+03 -0.29233939607E+03 -0.51239788505E+03  0.70065257002E+03  0.00000000000E+00 0. -1.
         -2    1    3    3    0  502 -0.45129575006E+03 -0.33793203129E+03 -0.48530586312E+03  0.74390032435E+03  0.00000000000E+00 0.  1.
         13    1    5    5    0    0  0.36426156871E+03  0.64107658823E+02  0.34541386806E+03  0.50607017557E+03  0.00000000000E+00 0.  1.
        -13    1    5    5    0    0  0.42408533957E+03  0.15298000116E+03  0.52014258875E+03  0.68833100223E+03  0.00000000000E+00 0. -1.
          4    1    6    6  503    0 -0.23972249478E+02  0.15980068756E+03  0.58176598292E+03  0.60379018490E+03  0.00000000000E+00 0. -1.
         -4    1    6    6    0  503  0.64942398555E+02  0.25338307982E+03  0.76913510073E+03  0.81239725716E+03  0.00000000000E+00 0.  1.
<mgrwt>
<rscale>  0 0.38676623E+04</rscale>
<asrwt>0</asrwt>
<pdfrwt beam="1">  1        1 0.40568426E+00 0.38676623E+04</pdfrwt>
<pdfrwt beam="2">  1       -2 0.21818367E+00 0.38676623E+04</pdfrwt>
<totfact> 0.76815123E-02</totfact>
</mgrwt>
</event>
<event>
12    5  0.5095719E-008  0.2069632E+04  0.7818608E-02  0.8574740E-01
          1   -1    0    0  501    0  0.00000000000E+00  0.00000000000E+00  0.13708051157E+04  0.13708051157E+04  0.00000000000E+00 0. -1.
         -2   -1    0    0    0  501 -0.00000000000E+00 -0.00000000000E+00 -0.78117932455E+03  0.78117932455E+03  0.00000000000E+00 0.  1.
        -24    2    1    2    0    0 -0.25633359464E+03  0.35552413153E+03  0.97543668424E+03  0.10723371543E+04  0.79535701436E+02 0.  0.
        254    2    1    2    0    0  0.25633359464E+03 -0.35552413153E+03 -0.38581089309E+03  0.10796472859E+04  0.90812108052E+03 0.  0.
         23    2    4    4    0    0 -0.18763862513E+03 -0.46634396975E+03 -0.67938791746E+02  0.51526102759E+03  0.90516823671E+02 0.  0.
         23    2    4    4    0    0  0.44397221977E+03  0.11081983822E+03 -0.31787210134E+03  0.56438625831E+03  0.89982260960E+02 0.  0.
          3    1    3    3  502    0 -0.16870346309E+03  0.16625366494E+03  0.52448164665E+03  0.57548426324E+03  0.00000000000E+00 0. -1.
         -4    1    3    3    0  502 -0.87630131547E+02  0.18927046659E+03  0.45095503759E+03  0.49685289111E+03  0.00000000000E+00 0.  1.
         13    1    5    5    0    0 -0.13215985076E+03 -0.34387181788E+03 -0.89452733708E+02  0.37909872705E+03  0.00000000000E+00 0. -1.
        -13    1    5    5    0    0 -0.55478774365E+02 -0.12247215187E+03  0.21513941962E+02  0.13616230054E+03  0.00000000000E+00 0.  1.
          3    1    6    6  503    0  0.35810390199E+03  0.59693403383E+02 -0.27593910652E+03  0.45600887879E+03  0.00000000000E+00 0. -1.
         -3    1    6    6    0  503  0.85868317778E+02  0.51126434833E+02 -0.41932994828E+02  0.10837737952E+03  0.00000000000E+00 0.  1.
<mgrwt>
<rscale>  0 0.20696324E+04</rscale>
<asrwt>0</asrwt>
<pdfrwt beam="1">  1        1 0.21089309E+00 0.20696324E+04</pdfrwt>
<pdfrwt beam="2">  1       -2 0.12018143E+00 0.20696324E+04</pdfrwt>
<totfact> 0.34485619E+00</totfact>
</mgrwt>
</event>
<event>
12    5  0.5095719E-008  0.1392206E+04  0.7818608E-02  0.8959480E-01
          1   -1    0    0  501    0  0.00000000000E+00  0.00000000000E+00  0.23023395528E+04  0.23023395528E+04  0.00000000000E+00 0. -1.
         -2   -1    0    0    0  501 -0.00000000000E+00 -0.00000000000E+00 -0.21046387902E+03  0.21046387902E+03  0.00000000000E+00 0.  1.
        -24    2    1    2    0    0 -0.39186056135E+03  0.66612025553E+02  0.51219537317E+03  0.65313418638E+03  0.79046212035E+02 0.  0.
        254    2    1    2    0    0  0.39186056135E+03 -0.66612025553E+02  0.15796803006E+04  0.18596692454E+04  0.89721122864E+03 0.  0.
         23    2    4    4    0    0  0.60469468469E+02 -0.18650775367E+03  0.14608870800E+04  0.14768147875E+04  0.91373722434E+02 0.  0.
         23    2    4    4    0    0  0.33139109288E+03  0.11989572811E+03  0.11879322058E+03  0.38285445795E+03  0.90943194661E+02 0.  0.
          1    1    3    3  502    0 -0.11839392322E+03  0.24110923586E+02  0.21788314098E+03  0.24914156781E+03  0.00000000000E+00 0. -1.
         -2    1    3    3    0  502 -0.27346663814E+03  0.42501101967E+02  0.29431223219E+03  0.40399261857E+03  0.00000000000E+00 0.  1.
         13    1    5    5    0    0  0.13547448813E+02 -0.16898052383E+02  0.44006699699E+02  0.49047600982E+02  0.00000000000E+00 0.  1.
        -13    1    5    5    0    0  0.46922019656E+02 -0.16960970128E+03  0.14168803803E+04  0.14277671865E+04  0.00000000000E+00 0. -1.
          4    1    6    6  503    0  0.25804167479E+03  0.88455237121E+02  0.49649417664E+02  0.27726323156E+03  0.00000000000E+00 0. -1.
         -4    1    6    6    0  503  0.73349418097E+02  0.31440490992E+02  0.69143802918E+02  0.10559122639E+03  0.00000000000E+00 0.  1.
<mgrwt>
<rscale>  0 0.13922059E+04</rscale>
<asrwt>0</asrwt>
<pdfrwt beam="1">  1        1 0.35420607E+00 0.13922059E+04</pdfrwt>
<pdfrwt beam="2">  1       -2 0.32379060E-01 0.13922059E+04</pdfrwt>
<totfact> 0.14144708E+01</totfact>
</mgrwt>
</event>
<event>
12    5  0.5095719E-008  0.1263471E+04  0.7818608E-02  0.9059045E-01
         -4   -1    0    0    0  501 -0.00000000000E+00  0.00000000000E+00  0.18136549531E+04  0.18136549531E+04  0.00000000000E+00 0.  1.
          3   -1    0    0  501    0  0.00000000000E+00 -0.00000000000E+00 -0.22004716238E+03  0.22004716238E+03  0.00000000000E+00 0. -1.
        -24    2    1    2    0    0  0.19350747597E+03 -0.21485665584E+02  0.78067002562E+03  0.80860753667E+03  0.80583387735E+02 0.  0.
        254    2    1    2    0    0 -0.19350747597E+03  0.21485665584E+02  0.81293776516E+03  0.12250945789E+04  0.89559038631E+03 0.  0.
         23    2    4    4    0    0  0.28454857263E+03  0.14985106405E+02  0.64374332353E+03  0.71000340113E+03  0.92232962809E+02 0.  0.
         23    2    4    4    0    0 -0.47805604860E+03  0.65005591795E+01  0.16919444163E+03  0.51509117773E+03  0.90068415204E+02 0.  0.
          3    1    3    3  502    0 -0.50732337533E+01  0.23041179671E+01  0.73175380391E+02  0.73387212481E+02  0.00000000000E+00 0. -1.
         -4    1    3    3    0  502  0.19858070973E+03 -0.23789783551E+02  0.70749464522E+03  0.73522032419E+03  0.00000000000E+00 0.  1.
         13    1    5    5    0    0  0.42165425651E+02 -0.11575051622E+02  0.18922099836E+03  0.19420734065E+03  0.00000000000E+00 0.  1.
        -13    1    5    5    0    0  0.24238314698E+03  0.26560158026E+02  0.45452232517E+03  0.51579606048E+03  0.00000000000E+00 0. -1.
          4    1    6    6  503    0 -0.38708549999E+03 -0.26890814085E+02  0.15170373778E+03  0.41662011982E+03  0.00000000000E+00 0. -1.
         -4    1    6    6    0  503 -0.90970548617E+02  0.33391373265E+02  0.17490703849E+02  0.98471057907E+02  0.00000000000E+00 0.  1.
<mgrwt>
<rscale>  0 0.12634708E+04</rscale>
<asrwt>0</asrwt>
<pdfrwt beam="1">  1        3 0.33853411E-01 0.12634708E+04</pdfrwt>
<pdfrwt beam="2">  1       -4 0.27902383E+00 0.12634708E+04</pdfrwt>
<totfact> 0.81298778E-01</totfact>
</mgrwt>
</event>
<event>
12    5  0.5095719E-008  0.1463043E+04  0.7818608E-02  0.8909408E-01
          1   -1    0    0  501    0  0.00000000000E+00  0.00000000000E+00  0.17287594225E+04  0.17287594225E+04  0.00000000000E+00 0. -1.
         -2   -1    0    0    0  501 -0.00000000000E+00 -0.00000000000E+00 -0.30954212733E+03  0.30954212733E+03  0.00000000000E+00 0.  1.
        -24    2    1    2    0    0 -0.24860485594E+03 -0.36777539224E+03  0.59064240915E+03  0.74325121083E+03  0.80627497677E+02 0.  0.
        254    2    1    2    0    0  0.24860485594E+03  0.36777539224E+03  0.82857488598E+03  0.12950503390E+04  0.89081756002E+03 0.  0.
         23    2    4    4    0    0  0.37496975610E+03  0.32583319486E+03  0.96114701670E+03  0.10858151680E+04  0.91768199497E+02 0.  0.
         23    2    4    4    0    0 -0.12636490016E+03  0.41942197382E+02 -0.13257213072E+03  0.20923517099E+03  0.92069272954E+02 0.  0.
          1    1    3    3  502    0 -0.20833406781E+03 -0.32469037512E+03  0.54927096248E+03  0.67121197377E+03  0.00000000000E+00 0. -1.
         -2    1    3    3    0  502 -0.40270788130E+02 -0.43085017121E+02  0.41371446662E+02  0.72039237058E+02  0.00000000000E+00 0.  1.
         13    1    5    5    0    0  0.21431909012E+02  0.57386619572E+02  0.11687786036E+03  0.13195827019E+03  0.00000000000E+00 0. -1.
        -13    1    5    5    0    0  0.35353784709E+03  0.26844657528E+03  0.84426915634E+03  0.95385689778E+03  0.00000000000E+00 0.  1.
          3    1    6    6  503    0 -0.12540823852E+02 -0.26199796570E+02 -0.20242733179E+02  0.35404376138E+02  0.00000000000E+00 0. -1.
         -3    1    6    6    0  503 -0.11382407631E+03  0.68141993952E+02 -0.11232939754E+03  0.17383079485E+03  0.00000000000E+00 0.  1.
<mgrwt>
<rscale>  0 0.14630432E+04</rscale>
<asrwt>0</asrwt>
<pdfrwt beam="1">  1        1 0.26596298E+00 0.14630432E+04</pdfrwt>
<pdfrwt beam="2">  1       -2 0.47621867E-01 0.14630432E+04</pdfrwt>
<totfact> 0.16211925E+01</totfact>
</mgrwt>
</event>
<event>
12    5  0.5095719E-008  0.1127576E+04  0.7818608E-02  0.9178723E-01
          1   -1    0    0  501    0  0.00000000000E+00  0.00000000000E+00  0.21897203338E+03  0.21897203338E+03  0.00000000000E+00 0. -1.
         -2   -1    0    0    0  501 -0.00000000000E+00 -0.00000000000E+00 -0.14515875305E+04  0.14515875305E+04  0.00000000000E+00 0.  1.
        -24    2    1    2    0    0  0.39285220230E+02 -0.13096455655E+03 -0.36638862564E+03  0.39901355411E+03  0.79222141900E+02 0.  0.
        254    2    1    2    0    0 -0.39285220230E+02  0.13096455655E+03 -0.86622687150E+03  0.12715460098E+04  0.92075252837E+03 0.  0.
         23    2    4    4    0    0 -0.34375044235E+03  0.37952195720E+03 -0.56506126981E+03  0.76786994530E+03  0.90159478917E+02 0.  0.
         23    2    4    4    0    0  0.30446522212E+03 -0.24855740064E+03 -0.30116560169E+03  0.50367606449E+03  0.92244270310E+02 0.  0.
          3    1    3    3  502    0 -0.24151579996E+01  0.28796186253E+01  0.24127581563E+01  0.44661609365E+01  0.00000000000E+00 0. -1.
         -4    1    3    3    0  502  0.41700378230E+02 -0.13384417518E+03 -0.36880138379E+03  0.39454739318E+03  0.00000000000E+00 0.  1.
         13    1    5    5    0    0 -0.12932873405E+03  0.87137418429E+02 -0.14465518570E+03  0.21270630900E+03  0.00000000000E+00 0. -1.
        -13    1    5    5    0    0 -0.21442170831E+03  0.29238453877E+03 -0.42040608412E+03  0.55516363630E+03  0.00000000000E+00 0.  1.
          2    1    6    6  503    0  0.64046606497E+02 -0.96269309704E+01 -0.48430714998E+02  0.80871377873E+02  0.00000000000E+00 0. -1.
         -2    1    6    6    0  503  0.24041861563E+03 -0.23893046967E+03 -0.25273488669E+03  0.42280468662E+03  0.00000000000E+00 0.  1.
<mgrwt>
<rscale>  0 0.11275763E+04</rscale>
<asrwt>0</asrwt>
<pdfrwt beam="1">  1        1 0.33688007E-01 0.11275763E+04</pdfrwt>
<pdfrwt beam="2">  1       -2 0.22332115E+00 0.11275763E+04</pdfrwt>
<totfact> 0.10806076E+01</totfact>
</mgrwt>
</event>
<event>
12    5  0.5095719E-008  0.1186981E+04  0.7818608E-02  0.9124329E-01
          1   -1    0    0  501    0  0.00000000000E+00  0.00000000000E+00  0.10188992130E+04  0.10188992130E+04  0.00000000000E+00 0. -1.
         -2   -1    0    0    0  501 -0.00000000000E+00 -0.00000000000E+00 -0.34569745959E+03  0.34569745959E+03  0.00000000000E+00 0.  1.
        -24    2    1    2    0    0 -0.15901942599E+03  0.30812772409E+02  0.35192190037E+03  0.39490761197E+03  0.76592383736E+02 0.  0.
        254    2    1    2    0    0  0.15901942599E+03 -0.30812772409E+02  0.32127985302E+03  0.96968906060E+03  0.90046628226E+03 0.  0.
         23    2    4    4    0    0  0.20568444580E+03  0.27290209917E+03 -0.16263928798E+03  0.38911920880E+03  0.90446523892E+02 0.  0.
         23    2    4    4    0    0 -0.46665019808E+02 -0.30371487158E+03  0.48391914101E+03  0.58056985180E+03  0.91996035197E+02 0.  0.
          3    1    3    3  502    0 -0.45075567654E+02  0.13769413878E+02  0.19266434688E+03  0.19834554222E+03  0.00000000000E+00 0. -1.
         -4    1    3    3    0  502 -0.11394385834E+03  0.17043358531E+02  0.15925755349E+03  0.19656206975E+03  0.00000000000E+00 0.  1.
         13    1    5    5    0    0  0.18656833847E+03  0.24836986815E+03 -0.11301934949E+03  0.33055817897E+03  0.00000000000E+00 0. -1.
        -13    1    5    5    0    0  0.19116107330E+02  0.24532231017E+02 -0.49619938496E+02  0.58561029827E+02  0.00000000000E+00 0.  1.
          3    1    6    6  503    0 -0.70684791036E+02 -0.19777531781E+03  0.28649289902E+03  0.35523175141E+03  0.00000000000E+00 0. -1.
         -3    1    6    6    0  503  0.24019771228E+02 -0.10593955376E+03  0.19742624199E+03  0.22533810039E+03  0.00000000000E+00 0.  1.
<mgrwt>
<rscale>  0 0.11869808E+04</rscale>
<asrwt>0</asrwt>
<pdfrwt beam="1">  1        1 0.15675372E+00 0.11869808E+04</pdfrwt>
<pdfrwt beam="2">  1       -2 0.53184225E-01 0.11869808E+04</pdfrwt>
<totfact> 0.42339171E+01</totfact>
</mgrwt>
</event>
<event>
12    5  0.5095719E-008  0.1730497E+04  0.7818608E-02  0.8744159E-01
          1   -1    0    0  501    0  0.00000000000E+00  0.00000000000E+00  0.45150716805E+03  0.45150716805E+03  0.00000000000E+00 0. -1.
         -2   -1    0    0    0  501 -0.00000000000E+00 -0.00000000000E+00 -0.16581241092E+04  0.16581241092E+04  0.00000000000E+00 0.  1.
        -24    2    1    2    0    0 -0.19331620514E+03  0.30970192510E+03  0.23532687616E+03  0.44177293456E+03  0.80611100260E+02 0.  0.
        254    2    1    2    0    0  0.19331620514E+03 -0.30970192510E+03 -0.14419438173E+04  0.16678583427E+04  0.75449522296E+03 0.  0.
         23    2    4    4    0    0 -0.67418275524E+02  0.20506189521E+03 -0.26044798607E+03  0.34980036603E+03  0.89059181916E+02 0.  0.
         23    2    4    4    0    0  0.26073448067E+03 -0.51476382032E+03 -0.11814958313E+04  0.13180579767E+04  0.91543271311E+02 0.  0.
          1    1    3    3  502    0 -0.91920320952E+02  0.22011446830E+03  0.15316102412E+03  0.28347490871E+03  0.00000000000E+00 0. -1.
         -2    1    3    3    0  502 -0.10139588419E+03  0.89587456805E+02  0.82165852036E+02  0.15829802585E+03  0.00000000000E+00 0.  1.
         13    1    5    5    0    0 -0.51955551046E+02  0.17506652943E+03 -0.25783442083E+03  0.31595293569E+03  0.00000000000E+00 0. -1.
        -13    1    5    5    0    0 -0.15462724479E+02  0.29995365787E+02 -0.26135652397E+01  0.33847430334E+02  0.00000000000E+00 0.  1.
          1    1    6    6  503    0  0.17178980671E+03 -0.24029043500E+03 -0.62010685594E+03  0.68686515680E+03  0.00000000000E+00 0. -1.
         -1    1    6    6    0  503  0.88944673952E+02 -0.27447338532E+03 -0.56138897532E+03  0.63119281989E+03  0.00000000000E+00 0.  1.
<mgrwt>
<rscale>  0 0.17304969E+04</rscale>
<asrwt>0</asrwt>
<pdfrwt beam="1">  1        1 0.69462641E-01 0.17304969E+04</pdfrwt>
<pdfrwt beam="2">  1       -2 0.25509602E+00 0.17304969E+04</pdfrwt>
<totfact> 0.25309018E+00</totfact>
</mgrwt>
</event>
<event>
12    5  0.5095719E-008  0.1395299E+04  0.7818608E-02  0.8957228E-01
         -2   -1    0    0    0  501 -0.00000000000E+00  0.00000000000E+00  0.64418039419E+03  0.64418039419E+03  0.00000000000E+00 0.  1.
          1   -1    0    0  501    0  0.00000000000E+00 -0.00000000000E+00 -0.75555668194E+03  0.75555668194E+03  0.00000000000E+00 0. -1.
        -24    2    1    2    0    0 -0.67464441277E+02 -0.20298368020E+03 -0.38380272556E+03  0.44692513772E+03  0.81754029336E+02 0.  0.
        254    2    1    2    0    0  0.67464441277E+02  0.20298368020E+03  0.27242643781E+03  0.95281193841E+03  0.88762638576E+03 0.  0.
         23    2    4    4    0    0 -0.58359070519E+02 -0.25538434313E+03 -0.14575329917E+03  0.31313152861E+03  0.90445487236E+02 0.  0.
         23    2    4    4    0    0  0.12582351180E+03  0.45836802334E+03  0.41817973697E+03  0.63968040980E+03  0.91563821095E+02 0.  0.
          3    1    3    3  502    0 -0.73507252824E+02 -0.12356071706E+03 -0.29134530460E+03  0.32488867867E+03  0.00000000000E+00 0. -1.
         -4    1    3    3    0  502  0.60428115473E+01 -0.79422963144E+02 -0.92457420965E+02  0.12203645905E+03  0.00000000000E+00 0.  1.
         13    1    5    5    0    0 -0.24510321805E+02 -0.23674480708E+03 -0.13167117816E+03  0.27200396819E+03  0.00000000000E+00 0. -1.
        -13    1    5    5    0    0 -0.33848748714E+02 -0.18639536056E+02 -0.14082121001E+02  0.41127560416E+02  0.00000000000E+00 0.  1.
          2    1    6    6  503    0  0.89850791174E+02  0.27548307323E+03  0.30926214279E+03  0.42380085096E+03  0.00000000000E+00 0.  1.
         -2    1    6    6    0  503  0.35972720622E+02  0.18288495010E+03  0.10891759418E+03  0.21587955884E+03  0.00000000000E+00 0. -1.
<mgrwt>
<rscale>  0 0.13952990E+04</rscale>
<asrwt>0</asrwt>
<pdfrwt beam="1">  1        1 0.11623949E+00 0.13952990E+04</pdfrwt>
<pdfrwt beam="2">  1       -2 0.99104676E-01 0.13952990E+04</pdfrwt>
<totfact> 0.17454070E+01</totfact>
</mgrwt>
</event>
<event>
12    5  0.5095719E-008  0.2101007E+04  0.7818608E-02  0.8560800E-01
          1   -1    0    0  501    0  0.00000000000E+00  0.00000000000E+00  0.19499053260E+04  0.19499053260E+04  0.00000000000E+00 0. -1.
         -2   -1    0    0    0  501 -0.00000000000E+00 -0.00000000000E+00 -0.56595468421E+03  0.56595468421E+03  0.00000000000E+00 0.  1.
        -24    2    1    2    0    0  0.53768023894E+03  0.13555092511E+03 -0.21353614890E+03  0.59931514924E+03  0.78146455929E+02 0.  0.
        254    2    1    2    0    0 -0.53768023894E+03 -0.13555092511E+03  0.15974867907E+04  0.19165448610E+04  0.90205657531E+03 0.  0.
         23    2    4    4    0    0 -0.48007046977E+03  0.84698789360E+02  0.26602209461E+03  0.56282651931E+03  0.91457067276E+02 0.  0.
         23    2    4    4    0    0 -0.57609769169E+02 -0.22024971446E+03  0.13314646961E+04  0.13537183417E+04  0.89029710900E+02 0.  0.
          3    1    3    3  502    0  0.29321610968E+03  0.77361835683E+02 -0.75094109162E+02  0.31240945220E+03  0.00000000000E+00 0. -1.
         -4    1    3    3    0  502  0.24446412926E+03  0.58189089422E+02 -0.13844203974E+03  0.28690569703E+03  0.00000000000E+00 0.  1.
         13    1    5    5    0    0 -0.38340274865E+03  0.45796834919E+02  0.17287567415E+03  0.42306148072E+03  0.00000000000E+00 0. -1.
        -13    1    5    5    0    0 -0.96667721121E+02  0.38901954441E+02  0.93146420466E+02  0.13976503859E+03  0.00000000000E+00 0.  1.
          3    1    6    6  503    0 -0.61190136197E+02 -0.18214922805E+03  0.12363642357E+04  0.12512070561E+04  0.00000000000E+00 0. -1.
         -3    1    6    6    0  503  0.35803670284E+01 -0.38100486412E+02  0.95100460404E+02  0.10251128553E+03  0.00000000000E+00 0.  1.
<mgrwt>
<rscale>  0 0.21010074E+04</rscale>
<asrwt>0</asrwt>
<pdfrwt beam="1">  1        1 0.29998543E+00 0.21010074E+04</pdfrwt>
<pdfrwt beam="2">  1       -2 0.87069952E-01 0.21010074E+04</pdfrwt>
<totfact> 0.29682579E+00</totfact>
</mgrwt>
</event>
<event>
12    5  0.5095719E-008  0.2237886E+04  0.7818608E-02  0.8502823E-01
          1   -1    0    0  501    0  0.00000000000E+00  0.00000000000E+00  0.14247315279E+04  0.14247315279E+04  0.00000000000E+00 0. -1.
         -2   -1    0    0    0  501 -0.00000000000E+00 -0.00000000000E+00 -0.87878555962E+03  0.87878555962E+03  0.00000000000E+00 0.  1.
        -24    2    1    2    0    0  0.12346384582E+03  0.80048775581E+03 -0.23994581094E+03  0.84851915198E+03  0.79917398994E+02 0.  0.
        254    2    1    2    0    0 -0.12346384582E+03 -0.80048775581E+03  0.78589177924E+03  0.14549979356E+04  0.91835131371E+03 0.  0.
         23    2    4    4    0    0  0.31143931112E+03 -0.12115623424E+03  0.47050385333E+03  0.58405532393E+03  0.89852477994E+02 0.  0.
         23    2    4    4    0    0 -0.43490315694E+03 -0.67933152156E+03  0.31538792591E+03  0.87094261164E+03  0.91866298728E+02 0.  0.
          1    1    3    3  502    0  0.12322526076E+02  0.13304661864E+03 -0.10436083587E+02  0.13402298019E+03  0.00000000000E+00 0. -1.
         -2    1    3    3    0  502  0.11114131975E+03  0.66744113717E+03 -0.22950972736E+03  0.71449617178E+03  0.00000000000E+00 0.  1.
         13    1    5    5    0    0  0.19594506436E+03 -0.33857625942E+02  0.30580921181E+03  0.36477401375E+03  0.00000000000E+00 0.  1.
        -13    1    5    5    0    0  0.11549424677E+03 -0.87298608303E+02  0.16469464152E+03  0.21928131018E+03  0.00000000000E+00 0. -1.
          1    1    6    6  503    0 -0.18310417655E+02 -0.57988307701E+01  0.22989139251E+01  0.19343806198E+02  0.00000000000E+00 0. -1.
         -1    1    6    6    0  503 -0.41659273929E+03 -0.67353269079E+03  0.31308901199E+03  0.85159880544E+03  0.00000000000E+00 0.  1.
<mgrwt>
<rscale>  0 0.22378860E+04</rscale>
<asrwt>0</asrwt>
<pdfrwt beam="1">  1        1 0.21918947E+00 0.22378860E+04</pdfrwt>
<pdfrwt beam="2">  1       -2 0.13519778E+00 0.22378860E+04</pdfrwt>
<totfact> 0.23144142E+00</totfact>
</mgrwt>
</event>
<event>
12    5  0.5095719E-008  0.1931612E+04  0.7818608E-02  0.8639279E-01
          1   -1    0    0  501    0  0.00000000000E+00  0.00000000000E+00  0.21141212111E+04  0.21141212111E+04  0.00000000000E+00 0. -1.
         -2   -1    0    0    0  501 -0.00000000000E+00 -0.00000000000E+00 -0.44121479777E+03  0.44121479777E+03  0.00000000000E+00 0.  1.
        -24    2    1    2    0    0  0.52341192805E+03  0.13733966810E+03  0.13458187544E+04  0.14527325139E+04  0.79883705237E+02 0.  0.
        254    2    1    2    0    0 -0.52341192805E+03 -0.13733966810E+03  0.32708765887E+03  0.11026034949E+04  0.90328616706E+03 0.  0.
         23    2    4    4    0    0 -0.14596138271E+03  0.33784129902E+03  0.30816919398E+03  0.48867253540E+03  0.91603090406E+02 0.  0.
         23    2    4    4    0    0 -0.37745054533E+03 -0.47518096712E+03  0.18918464890E+02  0.61393095953E+03  0.91035427535E+02 0.  0.
          1    1    3    3  502    0  0.34108362325E+03  0.11566853608E+03  0.96331607798E+03  0.10284430535E+04  0.00000000000E+00 0. -1.
         -2    1    3    3    0  502  0.18232830479E+03  0.21671132018E+02  0.38250267647E+03  0.42428946039E+03  0.00000000000E+00 0.  1.
         13    1    5    5    0    0 -0.14136438471E+03  0.33452714140E+03  0.27636130289E+03  0.45636374454E+03  0.00000000000E+00 0.  1.
        -13    1    5    5    0    0 -0.45969980050E+01  0.33141576225E+01  0.31807891091E+02  0.32308790863E+02  0.00000000000E+00 0. -1.
          3    1    6    6  503    0 -0.68158708822E+01  0.38818985724E+01  0.14720688470E+01  0.79807405108E+01  0.00000000000E+00 0. -1.
         -3    1    6    6    0  503 -0.37063467445E+03 -0.47906286569E+03  0.17446396043E+02  0.60595021902E+03  0.00000000000E+00 0.  1.
<mgrwt>
<rscale>  0 0.19316123E+04</rscale>
<asrwt>0</asrwt>
<pdfrwt beam="1">  1        1 0.32524941E+00 0.19316123E+04</pdfrwt>
<pdfrwt beam="2">  1       -2 0.67879201E-01 0.19316123E+04</pdfrwt>
<totfact> 0.40609994E+00</totfact>
</mgrwt>
</event>
<event>
12    5  0.5095719E-008  0.1363674E+04  0.7818608E-02  0.8980541E-01
          1   -1    0    0  501    0  0.00000000000E+00  0.00000000000E+00  0.43432317778E+03  0.43432317778E+03  0.00000000000E+00 0. -1.
         -2   -1    0    0    0  501 -0.00000000000E+00 -0.00000000000E+00 -0.10704049927E+04  0.10704049927E+04  0.00000000000E+00 0.  1.
        -24    2    1    2    0    0 -0.32794413657E+03 -0.10869519660E+03 -0.35194440176E+03  0.49952097409E+03  0.79336871311E+02 0.  0.
        254    2    1    2    0    0  0.32794413657E+03  0.10869519660E+03 -0.28413741316E+03  0.10052071964E+04  0.90019188823E+03 0.  0.
         23    2    4    4    0    0 -0.80030319491E+02 -0.33233389547E+03 -0.66840536378E+02  0.35997711261E+03  0.90913113368E+02 0.  0.
         23    2    4    4    0    0  0.40797445606E+03  0.44102909208E+03 -0.21729687679E+03  0.64523008377E+03  0.90300119005E+02 0.  0.
          3    1    3    3  502    0 -0.10687803299E+02  0.58470408036E+01 -0.33505373510E+02  0.35651466724E+02  0.00000000000E+00 0. -1.
         -2    1    3    3    0  502 -0.31725633327E+03 -0.11454223741E+03 -0.31843902825E+03  0.46386950736E+03  0.00000000000E+00 0.  1.
         13    1    5    5    0    0 -0.51861181142E+02 -0.31767635671E+03 -0.63030055503E+02  0.32799487438E+03  0.00000000000E+00 0. -1.
        -13    1    5    5    0    0 -0.28169138349E+02 -0.14657538766E+02 -0.38104808745E+01  0.31982238235E+02  0.00000000000E+00 0.  1.
          2    1    6    6  503    0  0.39727747611E+03  0.42699255309E+03 -0.19127835185E+03  0.61379104042E+03  0.00000000000E+00 0. -1.
         -2    1    6    6    0  503  0.10696979948E+02  0.14036538985E+02 -0.26018524941E+02  0.31439043350E+02  0.00000000000E+00 0.  1.
<mgrwt>
<rscale>  0 0.13636740E+04</rscale>
<asrwt>0</asrwt>
<pdfrwt beam="1">  1        1 0.66818952E-01 0.13636740E+04</pdfrwt>
<pdfrwt beam="2">  1       -2 0.16467769E+00 0.13636740E+04</pdfrwt>
<totfact> 0.10675798E+01</totfact>
</mgrwt>
</event>
<event>
12    5  0.5095719E-008  0.1314318E+04  0.7818608E-02  0.9018287E-01
         -2   -1    0    0    0  501 -0.00000000000E+00  0.00000000000E+00  0.35643788303E+03  0.35643788303E+03  0.00000000000E+00 0.  1.
          1   -1    0    0  501    0  0.00000000000E+00 -0.00000000000E+00 -0.12115935349E+04  0.12115935349E+04  0.00000000000E+00 0. -1.
        -24    2    1    2    0    0  0.69120365644E+02 -0.26295065732E+02 -0.63208068440E+03  0.64139923781E+03  0.79987094251E+02 0.  0.
        254    2    1    2    0    0 -0.69120365644E+02  0.26295065732E+02 -0.22307496746E+03  0.92663218011E+03  0.89633459192E+03 0.  0.
         23    2    4    4    0    0  0.18874377081E+03  0.14698955456E+03  0.25544227597E+03  0.36206490258E+03  0.92790609244E+02 0.  0.
         23    2    4    4    0    0 -0.25786413645E+03 -0.12069448882E+03 -0.47851724342E+03  0.56456727752E+03  0.93254415962E+02 0.  0.
          3    1    3    3  502    0  0.33737177444E+02 -0.44431828306E+02 -0.50917427070E+03  0.51222145841E+03  0.00000000000E+00 0. -1.
         -4    1    3    3    0  502  0.35383188200E+02  0.18136762574E+02 -0.12290641369E+03  0.12917777940E+03  0.00000000000E+00 0.  1.
         13    1    5    5    0    0  0.47634948935E+02  0.20858325339E+02  0.11555199528E+03  0.12671393653E+03  0.00000000000E+00 0. -1.
        -13    1    5    5    0    0  0.14110882187E+03  0.12613122922E+03  0.13989028068E+03  0.23535096606E+03  0.00000000000E+00 0.  1.
          1    1    6    6  503    0 -0.11705871347E+03 -0.47969039283E+02 -0.30155518463E+03  0.32701574963E+03  0.00000000000E+00 0. -1.
         -1    1    6    6    0  503 -0.14080542298E+03 -0.72725449541E+02 -0.17696205879E+03  0.23755152789E+03  0.00000000000E+00 0.  1.
<mgrwt>
<rscale>  0 0.13143178E+04</rscale>
<asrwt>0</asrwt>
<pdfrwt beam="1">  1        1 0.18639901E+00 0.13143178E+04</pdfrwt>
<pdfrwt beam="2">  1       -2 0.54836597E-01 0.13143178E+04</pdfrwt>
<totfact> 0.28217226E+01</totfact>
</mgrwt>
</event>
<event>
12    5  0.5095719E-008  0.3056462E+04  0.7818608E-02  0.8227789E-01
          1   -1    0    0  501    0  0.00000000000E+00  0.00000000000E+00  0.13385893553E+04  0.13385893553E+04  0.00000000000E+00 0. -1.
         -4   -1    0    0    0  501 -0.00000000000E+00 -0.00000000000E+00 -0.17447400004E+04  0.17447400004E+04  0.00000000000E+00 0.  1.
        -24    2    1    2    0    0 -0.77892853669E+03 -0.14841913997E+03 -0.13439211394E+04  0.15625928879E+04  0.82550578308E+02 0.  0.
        254    2    1    2    0    0  0.77892853669E+03  0.14841913997E+03  0.93777049434E+03  0.15207364678E+04  0.89692140010E+03 0.  0.
         23    2    4    4    0    0 -0.79502442869E+01  0.22341982687E+03 -0.55832514429E+02  0.24768807663E+03  0.90843206771E+02 0.  0.
         23    2    4    4    0    0  0.78687878098E+03 -0.75000686898E+02  0.99360300877E+03  0.12730483911E+04  0.92746688044E+02 0.  0.
          1    1    3    3  502    0 -0.58653924094E+03 -0.98321890257E+02 -0.93885976243E+03  0.11113744323E+04  0.00000000000E+00 0. -1.
         -2    1    3    3    0  502 -0.19238929574E+03 -0.50097249714E+02 -0.40506137701E+03  0.45121845562E+03  0.00000000000E+00 0.  1.
         13    1    5    5    0    0 -0.18273073695E+02  0.22082687885E+03 -0.35047270850E+02  0.22433619155E+03  0.00000000000E+00 0.  1.
        -13    1    5    5    0    0  0.10322829408E+02  0.25929480210E+01 -0.20785243579E+02  0.23351885086E+02  0.00000000000E+00 0. -1.
          1    1    6    6  503    0  0.36391033121E+02 -0.24046402619E+02  0.57174505221E+02  0.71912869625E+02  0.00000000000E+00 0. -1.
         -1    1    6    6    0  503  0.75048774785E+03 -0.50954284279E+02  0.93642850355E+03  0.12011355215E+04  0.00000000000E+00 0.  1.
<mgrwt>
<rscale>  0 0.30564623E+04</rscale>
<asrwt>0</asrwt>
<pdfrwt beam="1">  1        1 0.20593683E+00 0.30564623E+04</pdfrwt>
<pdfrwt beam="2">  1       -4 0.26842154E+00 0.30564623E+04</pdfrwt>
<totfact> 0.16827549E-01</totfact>
</mgrwt>
</event>
<event>
12    5  0.5095719E-008  0.2648793E+04  0.7818608E-02  0.8351814E-01
          1   -1    0    0  501    0  0.00000000000E+00  0.00000000000E+00  0.24569806763E+04  0.24569806763E+04  0.00000000000E+00 0. -1.
         -2   -1    0    0    0  501 -0.00000000000E+00 -0.00000000000E+00 -0.71389486125E+03  0.71389486125E+03  0.00000000000E+00 0.  1.
        -24    2    1    2    0    0  0.44156442128E+03  0.99200534426E+03  0.25030963502E+03  0.11171488652E+04  0.79453963976E+02 0.  0.
        254    2    1    2    0    0 -0.44156442128E+03 -0.99200534426E+03  0.14927761800E+04  0.20537266723E+04  0.90019930011E+03 0.  0.
         23    2    4    4    0    0 -0.40648690079E+03 -0.11220092184E+04  0.14585197350E+04  0.18867282309E+04  0.91254112685E+02 0.  0.
         23    2    4    4    0    0 -0.35077520490E+02  0.13000387410E+03  0.34256444964E+02  0.16699844147E+03  0.92647372902E+02 0.  0.
          3    1    3    3  502    0  0.44225828874E+03  0.96346195657E+03  0.24163056076E+03  0.10873070696E+04  0.00000000000E+00 0. -1.
         -4    1    3    3    0  502 -0.69386745354E+00  0.28543387700E+02  0.86790742616E+01  0.29841795580E+02  0.00000000000E+00 0.  1.
         13    1    5    5    0    0 -0.40930275736E+03 -0.11047680638E+04  0.14462010192E+04  0.18653521410E+04  0.00000000000E+00 0.  1.
        -13    1    5    5    0    0  0.28158565629E+01 -0.17241154526E+02  0.12318715803E+02  0.21376089834E+02  0.00000000000E+00 0. -1.
          3    1    6    6  503    0 -0.11385087228E+02 -0.10077784190E+02  0.18665318660E+02  0.24074386099E+02  0.00000000000E+00 0. -1.
         -3    1    6    6    0  503 -0.23692433262E+02  0.14008165829E+03  0.15591126304E+02  0.14292405537E+03  0.00000000000E+00 0.  1.
<mgrwt>
<rscale>  0 0.26487928E+04</rscale>
<asrwt>0</asrwt>
<pdfrwt beam="1">  1        1 0.37799702E+00 0.26487928E+04</pdfrwt>
<pdfrwt beam="2">  1       -2 0.10982998E+00 0.26487928E+04</pdfrwt>
<totfact> 0.73776019E-01</totfact>
</mgrwt>
</event>
<event>
12    5  0.5095719E-008  0.2643483E+04  0.7818608E-02  0.8353579E-01
         -2   -1    0    0    0  501 -0.00000000000E+00  0.00000000000E+00  0.86777921979E+03  0.86777921979E+03  0.00000000000E+00 0.  1.
          1   -1    0    0  501    0  0.00000000000E+00 -0.00000000000E+00 -0.20131848248E+04  0.20131848248E+04  0.00000000000E+00 0. -1.
        -24    2    1    2    0    0  0.65257216603E+03  0.65494612946E+03  0.25983586362E+03  0.96365596521E+03  0.79456144468E+02 0.  0.
        254    2    1    2    0    0 -0.65257216603E+03 -0.65494612946E+03 -0.14052414687E+04  0.19173080794E+04  0.92008794240E+03 0.  0.
         23    2    4    4    0    0 -0.17981174233E+02 -0.24778883423E+03 -0.10425131337E+04  0.10755942138E+04  0.91360001985E+02 0.  0.
         23    2    4    4    0    0 -0.63459099180E+03 -0.40715729523E+03 -0.36272833499E+03  0.84171386557E+03  0.91801942015E+02 0.  0.
          3    1    3    3  502    0  0.30424232202E+02  0.11004621770E+02  0.52789149738E+01  0.32781130985E+02  0.00000000000E+00 0. -1.
         -4    1    3    3    0  502  0.62214793383E+03  0.64394150769E+03  0.25455694865E+03  0.93087483423E+03  0.00000000000E+00 0.  1.
         13    1    5    5    0    0 -0.22089087695E+02 -0.24878458813E+03 -0.92859898067E+03  0.96160166700E+03  0.00000000000E+00 0. -1.
        -13    1    5    5    0    0  0.41079134627E+01  0.99575389736E+00 -0.11391415301E+03  0.11399254684E+03  0.00000000000E+00 0.  1.
          1    1    6    6  503    0 -0.22717542833E+03 -0.10017008768E+03 -0.97292234252E+02  0.26666177182E+03  0.00000000000E+00 0. -1.
         -1    1    6    6    0  503 -0.40741556347E+03 -0.30698720755E+03 -0.26543610074E+03  0.57505209376E+03  0.00000000000E+00 0.  1.
<mgrwt>
<rscale>  0 0.26434825E+04</rscale>
<asrwt>0</asrwt>
<pdfrwt beam="1">  1        1 0.30972074E+00 0.26434825E+04</pdfrwt>
<pdfrwt beam="2">  1       -2 0.13350450E+00 0.26434825E+04</pdfrwt>
<totfact> 0.91374380E-01</totfact>
</mgrwt>
</event>
<event>
12    5  0.5095719E-008  0.1916757E+04  0.7818608E-02  0.8646560E-01
          1   -1    0    0  501    0  0.00000000000E+00  0.00000000000E+00  0.25104278496E+04  0.25104278496E+04  0.00000000000E+00 0. -1.
         -2   -1    0    0    0  501 -0.00000000000E+00 -0.00000000000E+00 -0.36586964959E+03  0.36586964959E+03  0.00000000000E+00 0.  1.
        -24    2    1    2    0    0  0.32133115933E+03  0.15410272819E+03 -0.14078014223E+03  0.39140207853E+03  0.79844685722E+02 0.  0.
        254    2    1    2    0    0 -0.32133115933E+03 -0.15410272819E+03  0.22853383422E+04  0.24848954206E+04  0.90825797456E+03 0.  0.
         23    2    4    4    0    0 -0.15944509533E+03 -0.52187401985E+03  0.14917741341E+04  0.15910613132E+04  0.91163613100E+02 0.  0.
         23    2    4    4    0    0 -0.16188606399E+03  0.36777129166E+03  0.79356420811E+03  0.89383410739E+03  0.87934284822E+02 0.  0.
          1    1    3    3  502    0  0.12808841394E+03  0.48960722706E+02 -0.14886664280E+02  0.13793261734E+03  0.00000000000E+00 0. -1.
         -2    1    3    3    0  502  0.19324274538E+03  0.10514200548E+03 -0.12589347795E+03  0.25346946118E+03  0.00000000000E+00 0.  1.
         13    1    5    5    0    0 -0.11515682624E+03 -0.31474487381E+03  0.79367752711E+03  0.86153899926E+03  0.00000000000E+00 0.  1.
        -13    1    5    5    0    0 -0.44288269097E+02 -0.20712914604E+03  0.69809660697E+03  0.72952231397E+03  0.00000000000E+00 0. -1.
          4    1    6    6  503    0 -0.90984399727E+02  0.28582776352E+03  0.62804049997E+03  0.69599607829E+03  0.00000000000E+00 0.  1.
         -4    1    6    6    0  503 -0.70901664266E+02  0.81943528135E+02  0.16552370814E+03  0.19783802909E+03  0.00000000000E+00 0. -1.
<mgrwt>
<rscale>  0 0.19167570E+04</rscale>
<asrwt>0</asrwt>
<pdfrwt beam="1">  1        1 0.38621966E+00 0.19167570E+04</pdfrwt>
<pdfrwt beam="2">  1       -2 0.56287640E-01 0.19167570E+04</pdfrwt>
<totfact> 0.32414901E+00</totfact>
</mgrwt>
</event>
<event>
12    5  0.5095719E-008  0.2614065E+04  0.7818608E-02  0.8363439E-01
         -2   -1    0    0    0  501 -0.00000000000E+00  0.00000000000E+00  0.82585257097E+03  0.82585257097E+03  0.00000000000E+00 0.  1.
          1   -1    0    0  501    0  0.00000000000E+00 -0.00000000000E+00 -0.20685707824E+04  0.20685707824E+04  0.00000000000E+00 0. -1.
        -24    2    1    2    0    0 -0.92917507991E+03 -0.69082090846E+03 -0.62778358647E+03  0.13195562954E+04  0.80726257004E+02 0.  0.
        254    2    1    2    0    0  0.92917507991E+03  0.69082090846E+03 -0.61493462495E+03  0.15748670580E+04  0.87261778610E+03 0.  0.
         23    2    4    4    0    0  0.57399322414E+03  0.82984349425E+03 -0.60989178392E+03  0.11824927852E+04  0.90624239355E+02 0.  0.
         23    2    4    4    0    0  0.35518185577E+03 -0.13902258579E+03 -0.50428410362E+01  0.39237427273E+03  0.91927741313E+02 0.  0.
          1    1    3    3  502    0 -0.67643689102E+03 -0.46523683641E+03 -0.42055195208E+03  0.92242946933E+03  0.00000000000E+00 0. -1.
         -4    1    3    3    0  502 -0.25273818889E+03 -0.22558407205E+03 -0.20723163439E+03  0.39712682606E+03  0.00000000000E+00 0.  1.
         13    1    5    5    0    0  0.29153821991E+03  0.49428992230E+03 -0.36589047763E+03  0.68058276688E+03  0.00000000000E+00 0. -1.
        -13    1    5    5    0    0  0.28245500423E+03  0.33555357195E+03 -0.24400130628E+03  0.50191001836E+03  0.00000000000E+00 0.  1.
          3    1    6    6  503    0  0.31836235774E+03 -0.10838441547E+03 -0.31283469752E+02  0.33775794265E+03  0.00000000000E+00 0. -1.
         -3    1    6    6    0  503  0.36819498029E+02 -0.30638170312E+02  0.26240628716E+02  0.54616330073E+02  0.00000000000E+00 0.  1.
<mgrwt>
<rscale>  0 0.26140654E+04</rscale>
<asrwt>0</asrwt>
<pdfrwt beam="1">  1        1 0.31824166E+00 0.26140654E+04</pdfrwt>
<pdfrwt beam="2">  1       -2 0.12705424E+00 0.26140654E+04</pdfrwt>
<totfact> 0.95246554E-01</totfact>
</mgrwt>
</event>
<event>
12    5  0.5095719E-008  0.1446035E+04  0.7818608E-02  0.8921154E-01
         -2   -1    0    0    0  501 -0.00000000000E+00  0.00000000000E+00  0.39964468679E+03  0.39964468679E+03  0.00000000000E+00 0.  1.
          1   -1    0    0  501    0  0.00000000000E+00 -0.00000000000E+00 -0.13080470929E+04  0.13080470929E+04  0.00000000000E+00 0. -1.
        -24    2    1    2    0    0  0.43032022835E+03 -0.19777122333E+03 -0.15060497394E+03  0.50369869039E+03  0.82106984011E+02 0.  0.
        254    2    1    2    0    0 -0.43032022835E+03  0.19777122333E+03 -0.75779743217E+03  0.12039930893E+04  0.80687883549E+03 0.  0.
         23    2    4    4    0    0 -0.44496874103E+02  0.25669621521E+03  0.69494257554E+02  0.28492309766E+03  0.92080405274E+02 0.  0.
         23    2    4    4    0    0 -0.38582335425E+03 -0.58924991884E+02 -0.82729168973E+03  0.91906999164E+03  0.89141989507E+02 0.  0.
          3    1    3    3  502    0  0.32178804516E+03 -0.15664395436E+03 -0.14888397701E+03  0.38762264260E+03  0.00000000000E+00 0. -1.
         -4    1    3    3    0  502  0.10853218319E+03 -0.41127268968E+02 -0.17209969300E+01  0.11607604779E+03  0.00000000000E+00 0.  1.
         13    1    5    5    0    0  0.18966642164E+01  0.21147424884E+03  0.50937146515E+02  0.21753056832E+03  0.00000000000E+00 0.  1.
        -13    1    5    5    0    0 -0.46393538319E+02  0.45221966371E+02  0.18557111039E+02  0.67392529336E+02  0.00000000000E+00 0. -1.
          3    1    6    6  503    0 -0.45184847991E+01  0.11628506867E+02 -0.22489854396E+02  0.25718328631E+02  0.00000000000E+00 0. -1.
         -3    1    6    6    0  503 -0.38130486945E+03 -0.70553498750E+02 -0.80480183533E+03  0.89335166301E+03  0.00000000000E+00 0.  1.
<mgrwt>
<rscale>  0 0.14460347E+04</rscale>
<asrwt>0</asrwt>
<pdfrwt beam="1">  1        1 0.20123801E+00 0.14460347E+04</pdfrwt>
<pdfrwt beam="2">  1       -2 0.61483799E-01 0.14460347E+04</pdfrwt>
<totfact> 0.18707251E+01</totfact>
</mgrwt>
</event>
<event>
12    5  0.5095719E-008  0.1210671E+04  0.7818608E-02  0.9103567E-01
          1   -1    0    0  501    0  0.00000000000E+00  0.00000000000E+00  0.10541242984E+04  0.10541242984E+04  0.00000000000E+00 0. -1.
         -2   -1    0    0    0  501 -0.00000000000E+00 -0.00000000000E+00 -0.34761681042E+03  0.34761681042E+03  0.00000000000E+00 0.  1.
        -24    2    1    2    0    0 -0.17203310030E+03 -0.11288415826E+03 -0.33080949464E+02  0.22273010110E+03  0.78588344784E+02 0.  0.
        254    2    1    2    0    0  0.17203310030E+03  0.11288415826E+03  0.73958843743E+03  0.11790110077E+04  0.89483947093E+03 0.  0.
         23    2    4    4    0    0  0.49104381589E+03 -0.11843935497E+03  0.43596585626E+03  0.67323469834E+03  0.89592529243E+02 0.  0.
         23    2    4    4    0    0 -0.31901071559E+03  0.23132351322E+03  0.30362258117E+03  0.50577630937E+03  0.91348776088E+02 0.  0.
          1    1    3    3  502    0 -0.37758007999E+02 -0.30578444584E+02  0.25281693085E+02  0.54771091339E+02  0.00000000000E+00 0. -1.
         -2    1    3    3    0  502 -0.13427509230E+03 -0.82305713671E+02 -0.58362642549E+02  0.16795900977E+03  0.00000000000E+00 0.  1.
         13    1    5    5    0    0  0.18660837451E+03 -0.33702608968E+02  0.10993898790E+03  0.21919199882E+03  0.00000000000E+00 0. -1.
        -13    1    5    5    0    0  0.30443544138E+03 -0.84736746001E+02  0.32602686836E+03  0.45404269951E+03  0.00000000000E+00 0.  1.
          4    1    6    6  503    0 -0.15139253352E+03  0.11645408338E+03  0.20403117235E+03  0.27948161305E+03  0.00000000000E+00 0. -1.
         -4    1    6    6    0  503 -0.16761818207E+03  0.11486942985E+03  0.99591408820E+02  0.22629469632E+03  0.00000000000E+00 0.  1.
<mgrwt>
<rscale>  0 0.12106714E+04</rscale>
<asrwt>0</asrwt>
<pdfrwt beam="1">  1        1 0.16217297E+00 0.12106714E+04</pdfrwt>
<pdfrwt beam="2">  1       -2 0.53479510E-01 0.12106714E+04</pdfrwt>
<totfact> 0.39254696E+01</totfact>
</mgrwt>
</event>
<event>
12    5  0.5095719E-008  0.1073947E+04  0.7818608E-02  0.9230963E-01
          1   -1    0    0  501    0  0.00000000000E+00  0.00000000000E+00  0.12223551834E+04  0.12223551834E+04  0.00000000000E+00 0. -1.
         -2   -1    0    0    0  501 -0.00000000000E+00 -0.00000000000E+00 -0.23588949498E+03  0.23588949498E+03  0.00000000000E+00 0.  1.
        -24    2    1    2    0    0 -0.68211005882E+02 -0.87534141937E+02  0.27646045441E+03  0.30943935672E+03  0.83710007220E+02 0.  0.
        254    2    1    2    0    0  0.68211005882E+02  0.87534141937E+02  0.71000523399E+03  0.11488053216E+04  0.89628749150E+03 0.  0.
         23    2    4    4    0    0  0.97943379165E+01 -0.27184526139E+02  0.89809757502E+03  0.90318397938E+03  0.91253048380E+02 0.  0.
         23    2    4    4    0    0  0.58416667966E+02  0.11471866808E+03 -0.18809234103E+03  0.24562134226E+03  0.91532699703E+02 0.  0.
          1    1    3    3  502    0 -0.71016035077E+02 -0.10041040151E+03  0.22611343549E+03  0.25739621535E+03  0.00000000000E+00 0. -1.
         -2    1    3    3    0  502  0.28050291948E+01  0.12876259575E+02  0.50347018920E+02  0.52043141369E+02  0.00000000000E+00 0.  1.
         13    1    5    5    0    0 -0.28216726312E+02 -0.30877154043E+02  0.21567412097E+03  0.21969275988E+03  0.00000000000E+00 0.  1.
        -13    1    5    5    0    0  0.38011064229E+02  0.36926279039E+01  0.68242345405E+03  0.68349121951E+03  0.00000000000E+00 0. -1.
          4    1    6    6  503    0  0.56479696643E+02  0.22518618532E+02 -0.10577655352E+03  0.12200706368E+03  0.00000000000E+00 0. -1.
         -4    1    6    6    0  503  0.19369713229E+01  0.92200049544E+02 -0.82315787514E+02  0.12361427858E+03  0.00000000000E+00 0.  1.
<mgrwt>
<rscale>  0 0.10739474E+04</rscale>
<asrwt>0</asrwt>
<pdfrwt beam="1">  1        1 0.18805464E+00 0.10739474E+04</pdfrwt>
<pdfrwt beam="2">  1       -2 0.36290692E-01 0.10739474E+04</pdfrwt>
<totfact> 0.64349958E+01</totfact>
</mgrwt>
</event>
<event>
12    5  0.5095719E-008  0.1192848E+04  0.7818608E-02  0.9119140E-01
          1   -1    0    0  501    0  0.00000000000E+00  0.00000000000E+00  0.42851709599E+04  0.42851709599E+04  0.00000000000E+00 0. -1.
         -2   -1    0    0    0  501 -0.00000000000E+00 -0.00000000000E+00 -0.83012189909E+02  0.83012189909E+02  0.00000000000E+00 0.  1.
        -24    2    1    2    0    0 -0.13963636705E+03  0.29541431093E+02  0.16766291158E+03  0.23283604001E+03  0.75701773132E+02 0.  0.
        254    2    1    2    0    0  0.13963636705E+03 -0.29541431093E+02  0.40344958585E+04  0.41353471098E+04  0.89641947536E+03 0.  0.
         23    2    4    4    0    0  0.46566572615E+03 -0.17521089637E+03  0.17626147896E+04  0.18337438897E+04  0.90897359810E+02 0.  0.
         23    2    4    4    0    0 -0.32602935910E+03  0.14566946527E+03  0.22718810689E+04  0.23016032201E+04  0.91755411343E+02 0.  0.
          3    1    3    3  502    0 -0.49857320403E+02  0.37626518707E+02  0.10792223944E+03  0.12469449496E+03  0.00000000000E+00 0. -1.
         -4    1    3    3    0  502 -0.89779046649E+02 -0.80850876145E+01  0.59740672144E+02  0.10814154506E+03  0.00000000000E+00 0.  1.
         13    1    5    5    0    0  0.29614097706E+03 -0.11224595267E+03  0.95548904850E+03  0.10066071498E+04  0.00000000000E+00 0. -1.
        -13    1    5    5    0    0  0.16952474909E+03 -0.62964943700E+02  0.80712574108E+03  0.82713673996E+03  0.00000000000E+00 0.  1.
          3    1    6    6  503    0 -0.11991940299E+03  0.34667539380E+02  0.10594408845E+04  0.10667696515E+04  0.00000000000E+00 0. -1.
         -3    1    6    6    0  503 -0.20610995611E+03  0.11100192589E+03  0.12124401844E+04  0.12348335686E+04  0.00000000000E+00 0.  1.
<mgrwt>
<rscale>  0 0.11928477E+04</rscale>
<asrwt>0</asrwt>
<pdfrwt beam="1">  1        1 0.65925690E+00 0.11928477E+04</pdfrwt>
<pdfrwt beam="2">  1       -2 0.12771110E-01 0.11928477E+04</pdfrwt>
<totfact> 0.21961152E+00</totfact>
</mgrwt>
</event>
<event>
12    5  0.5095719E-008  0.1292741E+04  0.7818608E-02  0.9035342E-01
          1   -1    0    0  501    0  0.00000000000E+00  0.00000000000E+00  0.13993020120E+04  0.13993020120E+04  0.00000000000E+00 0. -1.
         -2   -1    0    0    0  501 -0.00000000000E+00 -0.00000000000E+00 -0.29857356488E+03  0.29857356488E+03  0.00000000000E+00 0.  1.
        -24    2    1    2    0    0 -0.17176522733E+03  0.19584624512E+02 -0.77032948613E+02  0.20612779469E+03  0.81656241241E+02 0.  0.
        254    2    1    2    0    0  0.17176522733E+03 -0.19584624512E+02  0.11777613957E+04  0.14917477822E+04  0.89905655527E+03 0.  0.
         23    2    4    4    0    0 -0.34127320523E+03 -0.86288641108E+02  0.30895222764E+03  0.47642812569E+03  0.87287741353E+02 0.  0.
         23    2    4    4    0    0  0.51303843256E+03  0.66704016596E+02  0.86880916811E+03  0.10153196565E+04  0.91579338312E+02 0.  0.
          1    1    3    3  502    0 -0.91203641942E+01 -0.10391742428E+02  0.11994375610E+02  0.18303944930E+02  0.00000000000E+00 0. -1.
         -2    1    3    3    0  502 -0.16264486314E+03  0.29976366941E+02 -0.89027324223E+02  0.18782384976E+03  0.00000000000E+00 0.  1.
         13    1    5    5    0    0 -0.52881178664E+02 -0.44973792318E+02  0.79804923261E+02  0.10577280761E+03  0.00000000000E+00 0.  1.
        -13    1    5    5    0    0 -0.28839202657E+03 -0.41314848790E+02  0.22914730438E+03  0.37065531808E+03  0.00000000000E+00 0. -1.
          4    1    6    6  503    0  0.16568069982E+03 -0.21300621365E+02  0.27186538335E+03  0.31908399745E+03  0.00000000000E+00 0. -1.
         -4    1    6    6    0  503  0.34735773274E+03  0.88004637960E+02  0.59694378476E+03  0.69623565907E+03  0.00000000000E+00 0.  1.
<mgrwt>
<rscale>  0 0.12927406E+04</rscale>
<asrwt>0</asrwt>
<pdfrwt beam="1">  1        1 0.21527723E+00 0.12927406E+04</pdfrwt>
<pdfrwt beam="2">  1       -2 0.45934396E-01 0.12927406E+04</pdfrwt>
<totfact> 0.29808025E+01</totfact>
</mgrwt>
</event>
<event>
12    5  0.5095719E-008  0.2118168E+04  0.7818608E-02  0.8553282E-01
          1   -1    0    0  501    0  0.00000000000E+00  0.00000000000E+00  0.24590133902E+04  0.24590133902E+04  0.00000000000E+00 0. -1.
         -2   -1    0    0    0  501 -0.00000000000E+00 -0.00000000000E+00 -0.45614200119E+03  0.45614200119E+03  0.00000000000E+00 0.  1.
        -24    2    1    2    0    0 -0.44535445652E+03 -0.32938379248E+02 -0.19899322350E+03  0.49500936939E+03  0.77527053453E+02 0.  0.
        254    2    1    2    0    0  0.44535445652E+03  0.32938379248E+02  0.22018646125E+04  0.24201460220E+04  0.89970743422E+03 0.  0.
         23    2    4    4    0    0  0.31221093070E+03  0.11444468565E+03  0.22113400240E+04  0.22379140319E+04  0.87528631963E+02 0.  0.
         23    2    4    4    0    0  0.13314352582E+03 -0.81506306404E+02 -0.94754114584E+01  0.18223199006E+03  0.93532017661E+02 0.  0.
          1    1    3    3  502    0 -0.25887807417E+02 -0.17710311711E+02 -0.27032122617E+02  0.41407358850E+02  0.00000000000E+00 0. -1.
         -2    1    3    3    0  502 -0.41946664910E+03 -0.15228067537E+02 -0.17196110088E+03  0.45360201054E+03  0.00000000000E+00 0.  1.
         13    1    5    5    0    0 -0.18922604861E+01  0.54194065115E+01  0.94065279054E+01  0.11019681661E+02  0.00000000000E+00 0. -1.
        -13    1    5    5    0    0  0.31410319118E+03  0.10902527914E+03  0.22019334961E+04  0.22268943503E+04  0.00000000000E+00 0.  1.
          3    1    6    6  503    0  0.42201584062E+02 -0.36986478451E+01  0.34591752228E+02  0.54692257363E+02  0.00000000000E+00 0. -1.
         -3    1    6    6    0  503  0.90941941757E+02 -0.77807658559E+02 -0.44067163687E+02  0.12753973270E+03  0.00000000000E+00 0.  1.
<mgrwt>
<rscale>  0 0.21181683E+04</rscale>
<asrwt>0</asrwt>
<pdfrwt beam="1">  1        1 0.37830975E+00 0.21181683E+04</pdfrwt>
<pdfrwt beam="2">  1       -2 0.70175694E-01 0.21181683E+04</pdfrwt>
<totfact> 0.21576049E+00</totfact>
</mgrwt>
</event>
<event>
12    5  0.5095719E-008  0.2943783E+04  0.7818608E-02  0.8259969E-01
          1   -1    0    0  501    0  0.00000000000E+00  0.00000000000E+00  0.29183968416E+04  0.29183968416E+04  0.00000000000E+00 0. -1.
         -2   -1    0    0    0  501 -0.00000000000E+00 -0.00000000000E+00 -0.74234767267E+03  0.74234767267E+03  0.00000000000E+00 0.  1.
        -24    2    1    2    0    0 -0.48253413744E+03  0.60145851998E+03  0.23282448171E+04  0.24539925790E+04  0.82244177388E+02 0.  0.
        254    2    1    2    0    0  0.48253413744E+03 -0.60145851998E+03 -0.15219564810E+03  0.12067519353E+04  0.91569382050E+03 0.  0.
         23    2    4    4    0    0 -0.33747067631E+02  0.52427944443E+02 -0.33133168153E+03  0.34969674370E+03  0.92841668626E+02 0.  0.
         23    2    4    4    0    0  0.51628120507E+03 -0.65388646442E+03  0.17913603343E+03  0.85705519156E+03  0.91324103284E+02 0.  0.
          3    1    3    3  502    0 -0.41804269046E+03  0.52794518643E+03  0.21095961096E+04  0.22144709428E+04  0.00000000000E+00 0. -1.
         -4    1    3    3    0  502 -0.64491446978E+02  0.73513333551E+02  0.21864870751E+03  0.23952163627E+03  0.00000000000E+00 0.  1.
         13    1    5    5    0    0 -0.83379617954E+01 -0.25163782207E+02 -0.12537868234E+03  0.12815050342E+03  0.00000000000E+00 0. -1.
        -13    1    5    5    0    0 -0.25409105836E+02  0.77591726651E+02 -0.20595299919E+03  0.22154624027E+03  0.00000000000E+00 0.  1.
          4    1    6    6  503    0  0.40533707513E+03 -0.54764921108E+03  0.11676220222E+03  0.69126783141E+03  0.00000000000E+00 0.  1.
         -4    1    6    6    0  503  0.11094412994E+03 -0.10623725334E+03  0.62373831211E+02  0.16578736015E+03  0.00000000000E+00 0. -1.
<mgrwt>
<rscale>  0 0.29437834E+04</rscale>
<asrwt>0</asrwt>
<pdfrwt beam="1">  1        1 0.44898412E+00 0.29437834E+04</pdfrwt>
<pdfrwt beam="2">  1       -2 0.11420734E+00 0.29437834E+04</pdfrwt>
<totfact> 0.30902377E-01</totfact>
</mgrwt>
</event>
<event>
12    5  0.5095719E-008  0.1431205E+04  0.7818608E-02  0.8931535E-01
         -2   -1    0    0    0  501 -0.00000000000E+00  0.00000000000E+00  0.67124253302E+03  0.67124253302E+03  0.00000000000E+00 0.  1.
          1   -1    0    0  501    0  0.00000000000E+00 -0.00000000000E+00 -0.76289406543E+03  0.76289406543E+03  0.00000000000E+00 0. -1.
        -24    2    1    2    0    0 -0.17955450062E+03  0.34879072269E+03 -0.18529790928E+03  0.44117293734E+03  0.80021612920E+02 0.  0.
        254    2    1    2    0    0  0.17955450062E+03 -0.34879072269E+03  0.93646376868E+02  0.99296366110E+03  0.90736563824E+03 0.  0.
         23    2    4    4    0    0  0.20647057907E+01 -0.33304663810E+03 -0.35845619416E+03  0.49781147503E+03  0.91657489483E+02 0.  0.
         23    2    4    4    0    0  0.17748979483E+03 -0.15744084585E+02  0.45210257103E+03  0.49515218607E+03  0.95018151816E+02 0.  0.
          3    1    3    3  502    0 -0.16687043407E+03  0.33592393718E+03 -0.19264737948E+03  0.42166769636E+03  0.00000000000E+00 0. -1.
         -4    1    3    3    0  502 -0.12684066551E+02  0.12866785511E+02  0.73494701951E+01  0.19505240983E+02  0.00000000000E+00 0.  1.
         13    1    5    5    0    0 -0.40448502688E+02 -0.13022839728E+03 -0.11752217307E+03  0.18001938227E+03  0.00000000000E+00 0. -1.
        -13    1    5    5    0    0  0.42513208478E+02 -0.20281824082E+03 -0.24093402109E+03  0.31779209276E+03  0.00000000000E+00 0.  1.
          3    1    6    6  503    0 -0.32298208625E+01 -0.12933017637E+02  0.84215072761E+02  0.85263551229E+02  0.00000000000E+00 0. -1.
         -3    1    6    6    0  503  0.18071961569E+03 -0.28110669481E+01  0.36788749827E+03  0.40988863485E+03  0.00000000000E+00 0.  1.
<mgrwt>
<rscale>  0 0.14312050E+04</rscale>
<asrwt>0</asrwt>
<pdfrwt beam="1">  1        1 0.11736832E+00 0.14312050E+04</pdfrwt>
<pdfrwt beam="2">  1       -2 0.10326808E+00 0.14312050E+04</pdfrwt>
<totfact> 0.15541875E+01</totfact>
</mgrwt>
</event>
<event>
12    5  0.5095719E-008  0.1795134E+04  0.7818608E-02  0.8708891E-01
          1   -1    0    0  501    0  0.00000000000E+00  0.00000000000E+00  0.11122159743E+04  0.11122159743E+04  0.00000000000E+00 0. -1.
         -2   -1    0    0    0  501 -0.00000000000E+00 -0.00000000000E+00 -0.72434398198E+03  0.72434398198E+03  0.00000000000E+00 0.  1.
        -24    2    1    2    0    0  0.58807738165E+02  0.46868663689E+02  0.82606048832E+03  0.83344365414E+03  0.81224211578E+02 0.  0.
        254    2    1    2    0    0 -0.58807738165E+02 -0.46868663689E+02 -0.43818849604E+03  0.10031163021E+04  0.89920972847E+03 0.  0.
         23    2    4    4    0    0 -0.22242423506E+03  0.36881443344E+03 -0.15740134846E+03  0.46754305064E+03  0.91239755855E+02 0.  0.
         23    2    4    4    0    0  0.16361649690E+03 -0.41568309712E+03 -0.28078714758E+03  0.53557325146E+03  0.91839480297E+02 0.  0.
          3    1    3    3  502    0  0.18889701508E+02 -0.18665112050E+02  0.37185133679E+03  0.37279836897E+03  0.00000000000E+00 0. -1.
         -4    1    3    3    0  502  0.39918036657E+02  0.65533775738E+02  0.45420915153E+03  0.46064528517E+03  0.00000000000E+00 0.  1.
         13    1    5    5    0    0  0.60751783064E+01  0.32481987811E+02 -0.55747604324E+01  0.33512166112E+02  0.00000000000E+00 0.  1.
        -13    1    5    5    0    0 -0.22849941337E+03  0.33633244562E+03 -0.15182658803E+03  0.43403088453E+03  0.00000000000E+00 0. -1.
          4    1    6    6  503    0  0.89013141588E+02 -0.32133774733E+03 -0.18166708332E+03  0.37971596806E+03  0.00000000000E+00 0. -1.
         -4    1    6    6    0  503  0.74603355310E+02 -0.94345349794E+02 -0.99120064256E+02  0.15585728340E+03  0.00000000000E+00 0.  1.
<mgrwt>
<rscale>  0 0.17951345E+04</rscale>
<asrwt>0</asrwt>
<pdfrwt beam="1">  1        1 0.17111015E+00 0.17951345E+04</pdfrwt>
<pdfrwt beam="2">  1       -2 0.11143754E+00 0.17951345E+04</pdfrwt>
<totfact> 0.65421512E+00</totfact>
</mgrwt>
</event>
<event>
12    5  0.5095719E-008  0.1965878E+04  0.7818608E-02  0.8622742E-01
          1   -1    0    0  501    0  0.00000000000E+00  0.00000000000E+00  0.45029982195E+04  0.45029982195E+04  0.00000000000E+00 0. -1.
         -2   -1    0    0    0  501 -0.00000000000E+00 -0.00000000000E+00 -0.21456130508E+03  0.21456130508E+03  0.00000000000E+00 0.  1.
        -24    2    1    2    0    0  0.51144393868E+03  0.12191197639E+03  0.33343050027E+03  0.62905423813E+03  0.89977239312E+02 0.  0.
        254    2    1    2    0    0 -0.51144393868E+03 -0.12191197639E+03  0.39550064141E+04  0.40885052864E+04  0.89295145951E+03 0.  0.
         23    2    4    4    0    0 -0.40531597665E+03 -0.43766879214E+03  0.32171154580E+04  0.32733034723E+04  0.94067738053E+02 0.  0.
         23    2    4    4    0    0 -0.10612796204E+03  0.31575681575E+03  0.73789095613E+03  0.81520181411E+03  0.95422343117E+02 0.  0.
          1    1    3    3  502    0  0.34366076216E+03  0.64624371174E+02  0.26605173958E+03  0.43938884480E+03  0.00000000000E+00 0. -1.
         -2    1    3    3    0  502  0.16778317652E+03  0.57287605215E+02  0.67378760688E+02  0.18966539333E+03  0.00000000000E+00 0.  1.
         13    1    5    5    0    0 -0.16139830371E+03 -0.13899525657E+03  0.94599561425E+03  0.96967870760E+03  0.00000000000E+00 0.  1.
        -13    1    5    5    0    0 -0.24391767293E+03 -0.29867353558E+03  0.22711198437E+04  0.23036247647E+04  0.00000000000E+00 0. -1.
          3    1    6    6  503    0 -0.19906504494E+02  0.66780015636E+01  0.87213851741E+02  0.89705744306E+02  0.00000000000E+00 0. -1.
         -3    1    6    6    0  503 -0.86221457544E+02  0.30907881419E+03  0.65067710439E+03  0.72549606980E+03  0.00000000000E+00 0.  1.
<mgrwt>
<rscale>  0 0.19658781E+04</rscale>
<asrwt>0</asrwt>
<pdfrwt beam="1">  1        1 0.69276889E+00 0.19658781E+04</pdfrwt>
<pdfrwt beam="2">  1       -2 0.33009435E-01 0.19658781E+04</pdfrwt>
<totfact> 0.22722111E-01</totfact>
</mgrwt>
</event>
<event>
12    5  0.5095719E-008  0.2008449E+04  0.7818608E-02  0.8602681E-01
         -2   -1    0    0    0  501 -0.00000000000E+00  0.00000000000E+00  0.60209227815E+03  0.60209227815E+03  0.00000000000E+00 0.  1.
          1   -1    0    0  501    0  0.00000000000E+00 -0.00000000000E+00 -0.16749375181E+04  0.16749375181E+04  0.00000000000E+00 0. -1.
        -24    2    1    2    0    0  0.62859728077E+03  0.18328637084E+03  0.81469723834E+02  0.66471633121E+03  0.80511178993E+02 0.  0.
        254    2    1    2    0    0 -0.62859728077E+03 -0.18328637084E+03 -0.11543149638E+04  0.16123134650E+04  0.91563269863E+03 0.  0.
         23    2    4    4    0    0  0.31952039985E+02 -0.27862115843E+03 -0.23822725959E+02  0.29620762975E+03  0.92307935007E+02 0.  0.
         23    2    4    4    0    0 -0.66054932076E+03  0.95334787587E+02 -0.11304922378E+04  0.13161058353E+04  0.93315288276E+02 0.  0.
          3    1    3    3  502    0  0.36920881506E+02  0.18507708232E+02 -0.13006538380E+02  0.43299616579E+02  0.00000000000E+00 0. -1.
         -4    1    3    3    0  502  0.59167639927E+03  0.16477866261E+03  0.94476262213E+02  0.62141671463E+03  0.00000000000E+00 0.  1.
         13    1    5    5    0    0 -0.25684441662E+02 -0.17155468372E+03 -0.19191131006E+02  0.17452506857E+03  0.00000000000E+00 0. -1.
        -13    1    5    5    0    0  0.57636481647E+02 -0.10706647471E+03 -0.46315949531E+01  0.12168256118E+03  0.00000000000E+00 0.  1.
          1    1    6    6  503    0 -0.22576489883E+03  0.76864538437E+02 -0.41633438909E+03  0.47980440844E+03  0.00000000000E+00 0. -1.
         -1    1    6    6    0  503 -0.43478442193E+03  0.18470249151E+02 -0.71415784874E+03  0.83630142686E+03  0.00000000000E+00 0.  1.
<mgrwt>
<rscale>  0 0.20084491E+04</rscale>
<asrwt>0</asrwt>
<pdfrwt beam="1">  1        1 0.25768269E+00 0.20084491E+04</pdfrwt>
<pdfrwt beam="2">  1       -2 0.92629583E-01 0.20084491E+04</pdfrwt>
<totfact> 0.39885564E+00</totfact>
</mgrwt>
</event>
<event>
12    5  0.5095719E-008  0.2018376E+04  0.7818608E-02  0.8598077E-01
         -2   -1    0    0    0  501 -0.00000000000E+00  0.00000000000E+00  0.55207687285E+03  0.55207687285E+03  0.00000000000E+00 0.  1.
          1   -1    0    0  501    0  0.00000000000E+00 -0.00000000000E+00 -0.18447808172E+04  0.18447808172E+04  0.00000000000E+00 0. -1.
        -24    2    1    2    0    0  0.44822723546E+03 -0.16842891540E+02 -0.12853433096E+04  0.13637258009E+04  0.80307526761E+02 0.  0.
        254    2    1    2    0    0 -0.44822723546E+03  0.16842891540E+02 -0.73606347440E+01  0.10331318892E+04  0.93065352514E+03 0.  0.
         23    2    4    4    0    0 -0.15556124243E+03  0.45853442342E+03  0.29637035824E+02  0.49361442655E+03  0.91234481392E+02 0.  0.
         23    2    4    4    0    0 -0.29266599303E+03 -0.44169153188E+03 -0.36997670568E+02  0.53951746262E+03  0.94686176523E+02 0.  0.
          1    1    3    3  502    0  0.40328759410E+03 -0.32030135990E+02 -0.11960046829E+04  0.12625743600E+04  0.00000000000E+00 0. -1.
         -2    1    3    3    0  502  0.44939641360E+02  0.15187244450E+02 -0.89338626710E+02  0.10115144083E+03  0.00000000000E+00 0.  1.
         13    1    5    5    0    0  0.78587323109E+01  0.37093343098E+02  0.16650902804E+02  0.41411693275E+02  0.00000000000E+00 0. -1.
        -13    1    5    5    0    0 -0.16341997474E+03  0.42144108033E+03  0.12986133020E+02  0.45220273327E+03  0.00000000000E+00 0.  1.
          3    1    6    6  503    0 -0.61426166360E+02 -0.64066169222E+02 -0.38418422408E+02  0.96714130988E+02  0.00000000000E+00 0. -1.
         -3    1    6    6    0  503 -0.23123982667E+03 -0.37762536266E+03  0.14207518397E+01  0.44280333163E+03  0.00000000000E+00 0.  1.
<mgrwt>
<rscale>  0 0.20183764E+04</rscale>
<asrwt>0</asrwt>
<pdfrwt beam="1">  1        1 0.28381243E+00 0.20183764E+04</pdfrwt>
<pdfrwt beam="2">  1       -2 0.84934904E-01 0.20183764E+04</pdfrwt>
<totfact> 0.37284808E+00</totfact>
</mgrwt>
</event>
<event>
12    5  0.5095719E-008  0.1614531E+04  0.7818608E-02  0.8811671E-01
         -2   -1    0    0    0  501 -0.00000000000E+00  0.00000000000E+00  0.29730437095E+03  0.29730437095E+03  0.00000000000E+00 0.  1.
          1   -1    0    0  501    0  0.00000000000E+00 -0.00000000000E+00 -0.21919537541E+04  0.21919537541E+04  0.00000000000E+00 0. -1.
        -24    2    1    2    0    0  0.17791968900E+03  0.49503678283E+03 -0.39142515214E+03  0.66054488857E+03  0.79931645817E+02 0.  0.
        254    2    1    2    0    0 -0.17791968900E+03 -0.49503678283E+03 -0.15032242310E+04  0.18287132365E+04  0.89877259664E+03 0.  0.
         23    2    4    4    0    0 -0.34555420374E+03 -0.48479898482E+03 -0.15245971109E+04  0.16392696466E+04  0.91492406987E+02 0.  0.
         23    2    4    4    0    0  0.16763451474E+03 -0.10237798002E+02  0.21372879869E+02  0.18944358982E+03  0.85005474480E+02 0.  0.
          1    1    3    3  502    0  0.84653958900E+01  0.89277585467E+02 -0.92524805183E+02  0.12885258930E+03  0.00000000000E+00 0. -1.
         -2    1    3    3    0  502  0.16945429311E+03  0.40575919736E+03 -0.29890034696E+03  0.53169229927E+03  0.00000000000E+00 0.  1.
         13    1    5    5    0    0 -0.33327796480E+03 -0.48018418829E+03 -0.15121538069E+04  0.16211909796E+04  0.00000000000E+00 0. -1.
        -13    1    5    5    0    0 -0.12276238939E+02 -0.46147965363E+01 -0.12443303950E+02  0.18078667062E+02  0.00000000000E+00 0.  1.
          1    1    6    6  503    0  0.12607912874E+03  0.55795614802E+00  0.52333286923E+02  0.13651018621E+03  0.00000000000E+00 0. -1.
         -1    1    6    6    0  503  0.41555386003E+02 -0.10795754150E+02 -0.30960407054E+02  0.52933403617E+02  0.00000000000E+00 0.  1.
<mgrwt>
<rscale>  0 0.16145308E+04</rscale>
<asrwt>0</asrwt>
<pdfrwt beam="1">  1        1 0.33722365E+00 0.16145308E+04</pdfrwt>
<pdfrwt beam="2">  1       -2 0.45739135E-01 0.16145308E+04</pdfrwt>
<totfact> 0.84222212E+00</totfact>
</mgrwt>
</event>
<event>
12    5  0.5095719E-008  0.1257377E+04  0.7818608E-02  0.9064066E-01
         -4   -1    0    0    0  501 -0.00000000000E+00  0.00000000000E+00  0.20256819022E+04  0.20256819022E+04  0.00000000000E+00 0.  1.
          3   -1    0    0  501    0  0.00000000000E+00 -0.00000000000E+00 -0.19511907163E+03  0.19511907163E+03  0.00000000000E+00 0. -1.
        -24    2    1    2    0    0  0.26769514373E+03  0.10929192051E+03  0.32880206793E+03  0.44596472847E+03  0.84665963052E+02 0.  0.
        254    2    1    2    0    0 -0.26769514373E+03 -0.10929192051E+03  0.15017607626E+04  0.17748362454E+04  0.90064026992E+03 0.  0.
         23    2    4    4    0    0 -0.36930883528E+03 -0.18734384402E+03  0.20961454382E+03  0.47316010477E+03  0.91953771322E+02 0.  0.
         23    2    4    4    0    0  0.10161369155E+03  0.78051923516E+02  0.12921462188E+04  0.13016761406E+04  0.91112453132E+02 0.  0.
          3    1    3    3  502    0  0.36055982848E+02 -0.23259511725E+01  0.12272930144E+02  0.38158469077E+02  0.00000000000E+00 0. -1.
         -4    1    3    3    0  502  0.23163916088E+03  0.11161787168E+03  0.31652913778E+03  0.40780625939E+03  0.00000000000E+00 0.  1.
         13    1    5    5    0    0 -0.15188510720E+03 -0.29301666271E+02  0.63429259875E+02  0.16718535954E+03  0.00000000000E+00 0. -1.
        -13    1    5    5    0    0 -0.21742372808E+03 -0.15804217775E+03  0.14618528395E+03  0.30597474524E+03  0.00000000000E+00 0.  1.
          3    1    6    6  503    0  0.39990678069E+02 -0.23568046587E+01  0.15744179257E+03  0.16245838516E+03  0.00000000000E+00 0. -1.
         -3    1    6    6    0  503  0.61623013481E+02  0.80408728175E+02  0.11347044262E+04  0.11392177554E+04  0.00000000000E+00 0.  1.
<mgrwt>
<rscale>  0 0.12573769E+04</rscale>
<asrwt>0</asrwt>
<pdfrwt beam="1">  1        3 0.30018320E-01 0.12573769E+04</pdfrwt>
<pdfrwt beam="2">  1       -4 0.31164336E+00 0.12573769E+04</pdfrwt>
<totfact> 0.64342509E-01</totfact>
</mgrwt>
</event>
<event>
12    5  0.5095719E-008  0.2539228E+04  0.7818608E-02  0.8389142E-01
          1   -1    0    0  501    0  0.00000000000E+00  0.00000000000E+00  0.17186243104E+04  0.17186243104E+04  0.00000000000E+00 0. -1.
         -2   -1    0    0    0  501 -0.00000000000E+00 -0.00000000000E+00 -0.93791244487E+03  0.93791244487E+03  0.00000000000E+00 0.  1.
        -24    2    1    2    0    0  0.28483556069E+03  0.67387787557E+03  0.12171381814E+04  0.14223509660E+04  0.80088888499E+02 0.  0.
        254    2    1    2    0    0 -0.28483556069E+03 -0.67387787557E+03 -0.43642631589E+03  0.12341857892E+04  0.89303076394E+03 0.  0.
         23    2    4    4    0    0  0.17879692133E+03 -0.45909543971E+01 -0.35790644910E+03  0.41121821841E+03  0.94941987032E+02 0.  0.
         23    2    4    4    0    0 -0.46363248201E+03 -0.66928692118E+03 -0.78519866792E+02  0.82296757083E+03  0.90610109408E+02 0.  0.
          1    1    3    3  502    0  0.22253025353E+03  0.43158523520E+03  0.78666436931E+03  0.92446003641E+03  0.00000000000E+00 0. -1.
         -2    1    3    3    0  502  0.62305307157E+02  0.24229264037E+03  0.43047381212E+03  0.49789092962E+03  0.00000000000E+00 0.  1.
         13    1    5    5    0    0  0.83811482082E+02 -0.65344184370E+00 -0.26637395825E+03  0.27924877287E+03  0.00000000000E+00 0. -1.
        -13    1    5    5    0    0  0.94985439247E+02 -0.39375125534E+01 -0.91532490854E+02  0.13196944554E+03  0.00000000000E+00 0.  1.
          1    1    6    6  503    0 -0.16766714646E+03 -0.22736890761E+03  0.15151891485E+02  0.28291071377E+03  0.00000000000E+00 0. -1.
         -1    1    6    6    0  503 -0.29596533556E+03 -0.44191801356E+03 -0.93671758277E+02  0.54005685706E+03  0.00000000000E+00 0.  1.
<mgrwt>
<rscale>  0 0.25392275E+04</rscale>
<asrwt>0</asrwt>
<pdfrwt beam="1">  1        1 0.26440374E+00 0.25392275E+04</pdfrwt>
<pdfrwt beam="2">  1       -2 0.14429422E+00 0.25392275E+04</pdfrwt>
<totfact> 0.11948790E+00</totfact>
</mgrwt>
</event>
<event>
12    5  0.5095719E-008  0.1504610E+04  0.7818608E-02  0.8881393E-01
         -2   -1    0    0    0  501 -0.00000000000E+00  0.00000000000E+00  0.47172784928E+03  0.47172784928E+03  0.00000000000E+00 0.  1.
          1   -1    0    0  501    0  0.00000000000E+00 -0.00000000000E+00 -0.11997661367E+04  0.11997661367E+04  0.00000000000E+00 0. -1.
        -24    2    1    2    0    0 -0.21669537452E+03  0.36178123841E+03 -0.50071562082E+03  0.65903401279E+03  0.75941736021E+02 0.  0.
        254    2    1    2    0    0  0.21669537452E+03 -0.36178123841E+03 -0.22732266657E+03  0.10124599732E+04  0.89194004995E+03 0.  0.
         23    2    4    4    0    0 -0.25308266369E+03 -0.42399423343E+03 -0.82374741851E+02  0.50899541885E+03  0.92026048834E+02 0.  0.
         23    2    4    4    0    0  0.46977803822E+03  0.62212995025E+02 -0.14494792471E+03  0.50346455431E+03  0.88908911981E+02 0.  0.
          1    1    3    3  502    0 -0.19904234066E+03  0.27243313160E+03 -0.39708235211E+03  0.52106819029E+03  0.00000000000E+00 0. -1.
         -2    1    3    3    0  502 -0.17653033864E+02  0.89348106808E+02 -0.10363326871E+03  0.13796582250E+03  0.00000000000E+00 0.  1.
         13    1    5    5    0    0  0.49785916805E+01 -0.39067214776E+01 -0.83060848722E+01  0.10442216897E+02  0.00000000000E+00 0. -1.
        -13    1    5    5    0    0 -0.25806125537E+03 -0.42008751196E+03 -0.74068656979E+02  0.49855320195E+03  0.00000000000E+00 0.  1.
          4    1    6    6  503    0  0.19247647079E+03  0.26002756994E+02 -0.10553491600E+03  0.22104513945E+03  0.00000000000E+00 0. -1.
         -4    1    6    6    0  503  0.27730156743E+03  0.36210238031E+02 -0.39413008715E+02  0.28241941487E+03  0.00000000000E+00 0.  1.
<mgrwt>
<rscale>  0 0.15046104E+04</rscale>
<asrwt>0</asrwt>
<pdfrwt beam="1">  1        1 0.18457940E+00 0.15046104E+04</pdfrwt>
<pdfrwt beam="2">  1       -2 0.72573516E-01 0.15046104E+04</pdfrwt>
<totfact> 0.15569286E+01</totfact>
</mgrwt>
</event>
<event>
12    5  0.5095719E-008  0.1485038E+04  0.7818608E-02  0.8894464E-01
          1   -1    0    0  501    0  0.00000000000E+00  0.00000000000E+00  0.23503244074E+04  0.23503244074E+04  0.00000000000E+00 0. -1.
         -2   -1    0    0    0  501 -0.00000000000E+00 -0.00000000000E+00 -0.23457792795E+03  0.23457792795E+03  0.00000000000E+00 0.  1.
        -24    2    1    2    0    0 -0.14865642993E+03 -0.43388326333E+03  0.84656221441E+03  0.96613280611E+03  0.79947456659E+02 0.  0.
        254    2    1    2    0    0  0.14865642993E+03  0.43388326333E+03  0.12691842650E+04  0.16187695292E+04  0.89399813745E+03 0.  0.
         23    2    4    4    0    0  0.35504459572E+03 -0.10352105948E+03  0.73481494930E+03  0.82786582723E+03  0.92927624932E+02 0.  0.
         23    2    4    4    0    0 -0.20638816579E+03  0.53740432282E+03  0.53436931574E+03  0.79090370200E+03  0.92620834935E+02 0.  0.
          1    1    3    3  502    0 -0.10306859566E+03 -0.21916565894E+03  0.38170627943E+03  0.45205796667E+03  0.00000000000E+00 0. -1.
         -2    1    3    3    0  502 -0.45587834273E+02 -0.21471760439E+03  0.46485593497E+03  0.51407483945E+03  0.00000000000E+00 0.  1.
         13    1    5    5    0    0  0.49874867253E+02 -0.51316278119E+02  0.14757734979E+03  0.16401200247E+03  0.00000000000E+00 0. -1.
        -13    1    5    5    0    0  0.30516972847E+03 -0.52204781363E+02  0.58723759950E+03  0.66385382476E+03  0.00000000000E+00 0.  1.
          1    1    6    6  503    0 -0.11099272376E+02  0.15469655127E+02  0.46506159849E+02  0.50252631582E+02  0.00000000000E+00 0. -1.
         -1    1    6    6    0  503 -0.19528889342E+03  0.52193466769E+03  0.48786315589E+03  0.74065107041E+03  0.00000000000E+00 0.  1.
<mgrwt>
<rscale>  0 0.14850377E+04</rscale>
<asrwt>0</asrwt>
<pdfrwt beam="1">  1        1 0.36158835E+00 0.14850377E+04</pdfrwt>
<pdfrwt beam="2">  1       -2 0.36088914E-01 0.14850377E+04</pdfrwt>
<totfact> 0.10578743E+01</totfact>
</mgrwt>
</event>
<event>
12    5  0.5095719E-008  0.1403060E+04  0.7818608E-02  0.8951607E-01
         -2   -1    0    0    0  501 -0.00000000000E+00  0.00000000000E+00  0.45934001846E+03  0.45934001846E+03  0.00000000000E+00 0.  1.
          1   -1    0    0  501    0  0.00000000000E+00 -0.00000000000E+00 -0.10714156728E+04  0.10714156728E+04  0.00000000000E+00 0. -1.
        -24    2    1    2    0    0 -0.23554839311E+03 -0.63770755276E+02  0.17607835612E+03  0.31281511411E+03  0.85439764695E+02 0.  0.
        254    2    1    2    0    0  0.23554839311E+03  0.63770755276E+02 -0.78815401049E+03  0.12179405772E+04  0.89590331541E+03 0.  0.
         23    2    4    4    0    0  0.54384346393E+03  0.69731144025E+02 -0.67891517971E+03  0.87756687635E+03  0.92572433892E+02 0.  0.
         23    2    4    4    0    0 -0.30829507082E+03 -0.59603887481E+01 -0.10923883077E+03  0.34037370083E+03  0.94019982656E+02 0.  0.
          1    1    3    3  502    0 -0.28021561528E+02 -0.18507403078E+02 -0.46809355495E+01  0.33906386371E+02  0.00000000000E+00 0. -1.
         -2    1    3    3    0  502 -0.20752683158E+03 -0.45263352198E+02  0.18075929167E+03  0.27890872773E+03  0.00000000000E+00 0.  1.
         13    1    5    5    0    0  0.27335865429E+03  0.81697356304E+02 -0.34783107285E+03  0.44987316784E+03  0.00000000000E+00 0. -1.
        -13    1    5    5    0    0  0.27048480965E+03 -0.11966212280E+02 -0.33108410686E+03  0.42769370851E+03  0.00000000000E+00 0.  1.
          1    1    6    6  503    0 -0.84710994219E+02 -0.28538036484E+02 -0.67015129712E+02  0.11172018474E+03  0.00000000000E+00 0. -1.
         -1    1    6    6    0  503 -0.22358407660E+03  0.22577647736E+02 -0.42223701063E+02  0.22865351609E+03  0.00000000000E+00 0.  1.
<mgrwt>
<rscale>  0 0.14030596E+04</rscale>
<asrwt>0</asrwt>
<pdfrwt beam="1">  1        1 0.16483318E+00 0.14030596E+04</pdfrwt>
<pdfrwt beam="2">  1       -2 0.70667696E-01 0.14030596E+04</pdfrwt>
<totfact> 0.20741075E+01</totfact>
</mgrwt>
</event>
<event>
12    5  0.5095719E-008  0.1121901E+04  0.7818608E-02  0.9184105E-01
         -2   -1    0    0    0  501 -0.00000000000E+00  0.00000000000E+00  0.21153250015E+03  0.21153250015E+03  0.00000000000E+00 0.  1.
          1   -1    0    0  501    0  0.00000000000E+00 -0.00000000000E+00 -0.14875518784E+04  0.14875518784E+04  0.00000000000E+00 0. -1.
        -24    2    1    2    0    0 -0.88545423577E+02  0.16122663119E+03 -0.17314115006E+03  0.26502395017E+03  0.80159326828E+02 0.  0.
        254    2    1    2    0    0  0.88545423577E+02 -0.16122663119E+03 -0.11028782282E+04  0.14340604284E+04  0.89797249814E+03 0.  0.
         23    2    4    4    0    0 -0.16469365368E+03  0.17805216680E+02 -0.10943341742E+04  0.11106006548E+04  0.91790546450E+02 0.  0.
         23    2    4    4    0    0  0.25323907726E+03 -0.17903184787E+03 -0.85440540637E+01  0.32345977360E+03  0.91492029590E+02 0.  0.
          3    1    3    3  502    0  0.36914472137E+01 -0.72045443234E+01 -0.11225801830E+02  0.13840190322E+02  0.00000000000E+00 0. -1.
         -4    1    3    3    0  502 -0.92236870791E+02  0.16843117551E+03 -0.16191534823E+03  0.25118375984E+03  0.00000000000E+00 0.  1.
         13    1    5    5    0    0 -0.96623101118E+02  0.43207560267E+02 -0.82021652099E+03  0.82701756828E+03  0.00000000000E+00 0.  1.
        -13    1    5    5    0    0 -0.68070552566E+02 -0.25402343587E+02 -0.27411765319E+03  0.28358308654E+03  0.00000000000E+00 0. -1.
          4    1    6    6  503    0  0.12435223303E+03 -0.39496746527E+02 -0.24811529854E+02  0.13281220900E+03  0.00000000000E+00 0. -1.
         -4    1    6    6    0  503  0.12888684423E+03 -0.13953510134E+03  0.16267475790E+02  0.19064756461E+03  0.00000000000E+00 0.  1.
<mgrwt>
<rscale>  0 0.11219012E+04</rscale>
<asrwt>0</asrwt>
<pdfrwt beam="1">  1        1 0.22885414E+00 0.11219012E+04</pdfrwt>
<pdfrwt beam="2">  1       -2 0.32543461E-01 0.11219012E+04</pdfrwt>
<totfact> 0.51262731E+01</totfact>
</mgrwt>
</event>
<event>
12    5  0.5095719E-008  0.1471663E+04  0.7818608E-02  0.8903518E-01
          1   -1    0    0  501    0  0.00000000000E+00  0.00000000000E+00  0.11419187814E+04  0.11419187814E+04  0.00000000000E+00 0. -1.
         -2   -1    0    0    0  501 -0.00000000000E+00 -0.00000000000E+00 -0.47415644669E+03  0.47415644669E+03  0.00000000000E+00 0.  1.
        -24    2    1    2    0    0 -0.12068779942E+03  0.34404130902E+03 -0.14005687823E+03  0.39890759132E+03  0.81125643494E+02 0.  0.
        254    2    1    2    0    0  0.12068779942E+03 -0.34404130902E+03  0.80781921293E+03  0.12171676368E+04  0.83426327257E+03 0.  0.
         23    2    4    4    0    0 -0.33885200871E+03 -0.25212861491E+03  0.35939407733E+03  0.56182237379E+03  0.89948622050E+02 0.  0.
         23    2    4    4    0    0  0.45953980812E+03 -0.91912694116E+02  0.44842513560E+03  0.65534526297E+03  0.93635104908E+02 0.  0.
          1    1    3    3  502    0 -0.87064822354E+02  0.13503737729E+03 -0.45003923090E+02  0.16685541541E+03  0.00000000000E+00 0. -1.
         -2    1    3    3    0  502 -0.33622977064E+02  0.20900393173E+03 -0.95052955141E+02  0.23205217592E+03  0.00000000000E+00 0.  1.
         13    1    5    5    0    0 -0.32328371034E+03 -0.22602641065E+03  0.35579805567E+03  0.53121798925E+03  0.00000000000E+00 0. -1.
        -13    1    5    5    0    0 -0.15568298363E+02 -0.26102204259E+02  0.35960216584E+01  0.30604384537E+02  0.00000000000E+00 0.  1.
          3    1    6    6  503    0  0.45861744132E+03 -0.80197463957E+02  0.43183113341E+03  0.63501158925E+03  0.00000000000E+00 0. -1.
         -3    1    6    6    0  503  0.92236680864E+00 -0.11715230159E+02  0.16594002189E+02  0.20333673717E+02  0.00000000000E+00 0.  1.
<mgrwt>
<rscale>  0 0.14716632E+04</rscale>
<asrwt>0</asrwt>
<pdfrwt beam="1">  1        1 0.17567981E+00 0.14716632E+04</pdfrwt>
<pdfrwt beam="2">  1       -2 0.72947146E-01 0.14716632E+04</pdfrwt>
<totfact> 0.17027793E+01</totfact>
</mgrwt>
</event>
<event>
12    5  0.5095719E-008  0.2849355E+04  0.7818608E-02  0.8288107E-01
         -2   -1    0    0    0  501 -0.00000000000E+00  0.00000000000E+00  0.12377028538E+04  0.12377028538E+04  0.00000000000E+00 0.  1.
          1   -1    0    0  501    0  0.00000000000E+00 -0.00000000000E+00 -0.16398978540E+04  0.16398978540E+04  0.00000000000E+00 0. -1.
        -24    2    1    2    0    0 -0.12015462597E+04 -0.73614170175E+02  0.26893259797E+03  0.12361214019E+04  0.80863575362E+02 0.  0.
        254    2    1    2    0    0  0.12015462597E+04  0.73614170175E+02 -0.67112759818E+03  0.16414793058E+04  0.89157702872E+03 0.  0.
         23    2    4    4    0    0  0.49652433230E+03  0.15415114740E+03 -0.75553214474E+03  0.92162497693E+03  0.90910876977E+02 0.  0.
         23    2    4    4    0    0  0.70502192739E+03 -0.80536977223E+02  0.84404546564E+02  0.71985432888E+03  0.86741019849E+02 0.  0.
          3    1    3    3  502    0 -0.12443053678E+03 -0.32260960025E+02  0.24919258556E+02  0.13093776182E+03  0.00000000000E+00 0. -1.
         -4    1    3    3    0  502 -0.10771157229E+04 -0.41353210150E+02  0.24401333941E+03  0.11051836401E+04  0.00000000000E+00 0.  1.
         13    1    5    5    0    0  0.33259839256E+03  0.63522088257E+02 -0.52281012032E+03  0.62288616001E+03  0.00000000000E+00 0.  1.
        -13    1    5    5    0    0  0.16392593975E+03  0.90629059141E+02 -0.23272202443E+03  0.29873881692E+03  0.00000000000E+00 0. -1.
          4    1    6    6  503    0  0.65322958436E+03 -0.90102823557E+02  0.61031733361E+02  0.66223279984E+03  0.00000000000E+00 0. -1.
         -4    1    6    6    0  503  0.51792343023E+02  0.95658463344E+01  0.23372813204E+02  0.57621529041E+02  0.00000000000E+00 0.  1.
<mgrwt>
<rscale>  0 0.28493552E+04</rscale>
<asrwt>0</asrwt>
<pdfrwt beam="1">  1        1 0.25229198E+00 0.28493552E+04</pdfrwt>
<pdfrwt beam="2">  1       -2 0.19041582E+00 0.28493552E+04</pdfrwt>
<totfact> 0.61110161E-01</totfact>
</mgrwt>
</event>
<event>
12    5  0.5095719E-008  0.1257348E+04  0.7818608E-02  0.9064089E-01
         -2   -1    0    0    0  501 -0.00000000000E+00  0.00000000000E+00  0.11126145444E+04  0.11126145444E+04  0.00000000000E+00 0.  1.
          1   -1    0    0  501    0  0.00000000000E+00 -0.00000000000E+00 -0.35522746409E+03  0.35522746409E+03  0.00000000000E+00 0. -1.
        -24    2    1    2    0    0  0.43295642869E+02  0.26449991995E+02  0.52675143046E+03  0.53507725242E+03  0.79161112950E+02 0.  0.
        254    2    1    2    0    0 -0.43295642869E+02 -0.26449991995E+02  0.23063564987E+03  0.93276475608E+03  0.90237640285E+03 0.  0.
         23    2    4    4    0    0 -0.23307664128E+03 -0.38272363629E+03 -0.31576785522E+01  0.45742934939E+03  0.91812506052E+02 0.  0.
         23    2    4    4    0    0  0.18978099841E+03  0.35627364429E+03  0.23379332842E+03  0.47533540668E+03  0.91305484285E+02 0.  0.
          1    1    3    3  502    0 -0.14277411214E+02 -0.15738953827E+02  0.86161691508E+02  0.88743429177E+02  0.00000000000E+00 0. -1.
         -2    1    3    3    0  502  0.57573054083E+02  0.42188945822E+02  0.44058973895E+03  0.44633382324E+03  0.00000000000E+00 0.  1.
         13    1    5    5    0    0 -0.10226357174E+03 -0.13888010689E+03 -0.43288602731E+02  0.17781851794E+03  0.00000000000E+00 0.  1.
        -13    1    5    5    0    0 -0.13081306954E+03 -0.24384352939E+03  0.40130924179E+02  0.27961083145E+03  0.00000000000E+00 0. -1.
          4    1    6    6  503    0  0.17598604547E+03  0.34061413349E+03  0.19235796030E+03  0.42894132585E+03  0.00000000000E+00 0. -1.
         -4    1    6    6    0  503  0.13794952941E+02  0.15659510805E+02  0.41435368122E+02  0.46394080837E+02  0.00000000000E+00 0.  1.
<mgrwt>
<rscale>  0 0.12573484E+04</rscale>
<asrwt>0</asrwt>
<pdfrwt beam="1">  1        1 0.54650379E-01 0.12573484E+04</pdfrwt>
<pdfrwt beam="2">  1       -2 0.17117147E+00 0.12573484E+04</pdfrwt>
<totfact> 0.12625727E+01</totfact>
</mgrwt>
</event>
<event>
12    5  0.5095719E-008  0.1566891E+04  0.7818608E-02  0.8841150E-01
         -2   -1    0    0    0  501 -0.00000000000E+00  0.00000000000E+00  0.57198907197E+03  0.57198907197E+03  0.00000000000E+00 0.  1.
          1   -1    0    0  501    0  0.00000000000E+00 -0.00000000000E+00 -0.10730741205E+04  0.10730741205E+04  0.00000000000E+00 0. -1.
        -24    2    1    2    0    0  0.10444616277E+03 -0.22932757409E+03  0.31096157149E+03  0.40848333218E+03  0.81617379114E+02 0.  0.
        254    2    1    2    0    0 -0.10444616277E+03  0.22932757409E+03 -0.81204662004E+03  0.12365798603E+04  0.89789192036E+03 0.  0.
         23    2    4    4    0    0 -0.40594260323E+03  0.35895300944E+03 -0.67552285541E+03  0.86977917052E+03  0.80919819509E+02 0.  0.
         23    2    4    4    0    0  0.30149644046E+03 -0.12962543535E+03 -0.13652376463E+03  0.36680068979E+03  0.90560204377E+02 0.  0.
          1    1    3    3  502    0 -0.78490975860E+01 -0.15496513011E+02  0.49880902137E+02  0.52819074646E+02  0.00000000000E+00 0. -1.
         -2    1    3    3    0  502  0.11229526036E+03 -0.21383106108E+03  0.26108066935E+03  0.35566425754E+03  0.00000000000E+00 0.  1.
         13    1    5    5    0    0 -0.20941605488E+03  0.15156265767E+03 -0.27092753826E+03  0.37447036495E+03  0.00000000000E+00 0.  1.
        -13    1    5    5    0    0 -0.19652654836E+03  0.20739035177E+03 -0.40459531716E+03  0.49530880557E+03  0.00000000000E+00 0. -1.
          1    1    6    6  503    0  0.17368736057E+02 -0.27458508927E+02  0.57934158415E+01  0.33003126697E+02  0.00000000000E+00 0. -1.
         -1    1    6    6    0  503  0.28412770441E+03 -0.10216692642E+03 -0.14231718047E+03  0.33379756309E+03  0.00000000000E+00 0.  1.
<mgrwt>
<rscale>  0 0.15668908E+04</rscale>
<asrwt>0</asrwt>
<pdfrwt beam="1">  1        1 0.16508833E+00 0.15668908E+04</pdfrwt>
<pdfrwt beam="2">  1       -2 0.87998319E-01 0.15668908E+04</pdfrwt>
<totfact> 0.12477682E+01</totfact>
</mgrwt>
</event>
<event>
12    5  0.5095719E-008  0.1323171E+04  0.7818608E-02  0.9011389E-01
          1   -1    0    0  501    0  0.00000000000E+00  0.00000000000E+00  0.17447704404E+04  0.17447704404E+04  0.00000000000E+00 0. -1.
         -2   -1    0    0    0  501 -0.00000000000E+00 -0.00000000000E+00 -0.25086144994E+03  0.25086144994E+03  0.00000000000E+00 0.  1.
        -24    2    1    2    0    0 -0.40312646739E+02 -0.30059695560E+02 -0.76842924536E+02  0.12103877057E+03  0.78847030039E+02 0.  0.
        254    2    1    2    0    0  0.40312646739E+02  0.30059695560E+02  0.15707519150E+04  0.18745931198E+04  0.10219144247E+04 0.  0.
         23    2    4    4    0    0  0.24150378616E+03  0.29165848154E+03  0.15322881230E+03  0.41624208779E+03  0.79935337264E+02 0.  0.
         23    2    4    4    0    0 -0.20119113942E+03 -0.26159878598E+03  0.14175231027E+04  0.14583510320E+04  0.92218145736E+02 0.  0.
          1    1    3    3  502    0 -0.35271018073E+02 -0.36552157842E+02 -0.76598203826E+01  0.51369035490E+02  0.00000000000E+00 0. -1.
         -2    1    3    3    0  502 -0.50416286661E+01  0.64924622825E+01 -0.69183104153E+02  0.69669735082E+02  0.00000000000E+00 0.  1.
         13    1    5    5    0    0  0.18462333717E+03  0.26770392289E+03  0.12530580318E+03  0.34850066179E+03  0.00000000000E+00 0. -1.
        -13    1    5    5    0    0  0.56880448997E+02  0.23954558649E+02  0.27923009117E+02  0.67741425998E+02  0.00000000000E+00 0.  1.
          2    1    6    6  503    0 -0.20582071290E+03 -0.26153914665E+03  0.13407928491E+04  0.13814812179E+04  0.00000000000E+00 0. -1.
         -2    1    6    6    0  503  0.46295734745E+01 -0.59639332847E-01  0.76730253597E+02  0.76869814131E+02  0.00000000000E+00 0.  1.
<mgrwt>
<rscale>  0 0.13231714E+04</rscale>
<asrwt>0</asrwt>
<pdfrwt beam="1">  1        1 0.26842621E+00 0.13231714E+04</pdfrwt>
<pdfrwt beam="2">  1       -2 0.38594070E-01 0.13231714E+04</pdfrwt>
<totfact> 0.24263915E+01</totfact>
</mgrwt>
</event>
<event>
12    5  0.5095719E-008  0.2372894E+04  0.7818608E-02  0.8449722E-01
          1   -1    0    0  501    0  0.00000000000E+00  0.00000000000E+00  0.20547167429E+04  0.20547167429E+04  0.00000000000E+00 0. -1.
         -2   -1    0    0    0  501 -0.00000000000E+00 -0.00000000000E+00 -0.68508540404E+03  0.68508540404E+03  0.00000000000E+00 0.  1.
        -24    2    1    2    0    0 -0.53282626945E+03 -0.13866376846E+03 -0.39520730032E+03  0.68233794668E+03  0.79150421101E+02 0.  0.
        254    2    1    2    0    0  0.53282626945E+03  0.13866376846E+03  0.17648386392E+04  0.20574642003E+04  0.90297953405E+03 0.  0.
         23    2    4    4    0    0  0.53016577214E+03  0.26326173932E+03  0.48973299171E+03  0.77334358474E+03  0.88540428850E+02 0.  0.
         23    2    4    4    0    0  0.26604973083E+01 -0.12459797087E+03  0.12751056475E+04  0.12841206156E+04  0.86830929960E+02 0.  0.
          3    1    3    3  502    0 -0.19218954366E+03 -0.86694376843E+02 -0.16811007153E+03  0.26965483830E+03  0.00000000000E+00 0. -1.
         -4    1    3    3    0  502 -0.34063672579E+03 -0.51969391612E+02 -0.22709722878E+03  0.41268310838E+03  0.00000000000E+00 0.  1.
         13    1    5    5    0    0  0.22438806366E+03  0.11058306726E+03  0.15127644746E+03  0.29234086514E+03  0.00000000000E+00 0.  1.
        -13    1    5    5    0    0  0.30577770849E+03  0.15267867206E+03  0.33845654426E+03  0.48100271960E+03  0.00000000000E+00 0. -1.
          2    1    6    6  503    0 -0.16300563349E+02 -0.12862546742E+03  0.11769007139E+04  0.11840209076E+04  0.00000000000E+00 0. -1.
         -2    1    6    6    0  503  0.18961060657E+02  0.40274965518E+01  0.98204933644E+02  0.10009970800E+03  0.00000000000E+00 0.  1.
<mgrwt>
<rscale>  0 0.23728940E+04</rscale>
<asrwt>0</asrwt>
<pdfrwt beam="1">  1        1 0.31611027E+00 0.23728940E+04</pdfrwt>
<pdfrwt beam="2">  1       -2 0.10539776E+00 0.23728940E+04</pdfrwt>
<totfact> 0.15726183E+00</totfact>
</mgrwt>
</event>
<event>
12    5  0.5095719E-008  0.1585223E+04  0.7818608E-02  0.8829678E-01
         -2   -1    0    0    0  501 -0.00000000000E+00  0.00000000000E+00  0.93261912058E+03  0.93261912058E+03  0.00000000000E+00 0.  1.
          1   -1    0    0  501    0  0.00000000000E+00 -0.00000000000E+00 -0.67362202751E+03  0.67362202751E+03  0.00000000000E+00 0. -1.
        -24    2    1    2    0    0 -0.11118067691E+02 -0.47804721752E+03 -0.15418229404E+03  0.50883257941E+03  0.80533598327E+02 0.  0.
        254    2    1    2    0    0  0.11118067691E+02  0.47804721752E+03  0.41317938711E+03  0.10974085687E+04  0.89718203675E+03 0.  0.
         23    2    4    4    0    0 -0.18669801319E+03  0.68186430395E+03  0.34304307174E+03  0.79115079779E+03  0.91901896886E+02 0.  0.
         23    2    4    4    0    0  0.19781608088E+03 -0.20381708643E+03  0.70136315372E+02  0.30625777088E+03  0.90565517267E+02 0.  0.
          3    1    3    3  502    0 -0.27709923369E+02 -0.56169640474E+02 -0.22921376448E+02  0.66695261169E+02  0.00000000000E+00 0. -1.
         -4    1    3    3    0  502  0.16591855678E+02 -0.42187757705E+03 -0.13126091759E+03  0.44213731824E+03  0.00000000000E+00 0.  1.
         13    1    5    5    0    0 -0.75357560017E+02  0.14119680038E+03  0.93457598159E+02  0.18533650732E+03  0.00000000000E+00 0.  1.
        -13    1    5    5    0    0 -0.11134045317E+03  0.54066750357E+03  0.24958547358E+03  0.60581429048E+03  0.00000000000E+00 0. -1.
          2    1    6    6  503    0  0.17726781483E+03 -0.15469072713E+03  0.25269689162E+02  0.23662556165E+03  0.00000000000E+00 0.  1.
         -2    1    6    6    0  503  0.20548266048E+02 -0.49126359294E+02  0.44866626209E+02  0.69632209231E+02  0.00000000000E+00 0. -1.
<mgrwt>
<rscale>  0 0.15852227E+04</rscale>
<asrwt>0</asrwt>
<pdfrwt beam="1">  1        1 0.10363416E+00 0.15852227E+04</pdfrwt>
<pdfrwt beam="2">  1       -2 0.14347987E+00 0.15852227E+04</pdfrwt>
<totfact> 0.81767618E+00</totfact>
</mgrwt>
</event>
<event>
12    5  0.5095719E-008  0.1417581E+04  0.7818608E-02  0.8941190E-01
         -2   -1    0    0    0  501 -0.00000000000E+00  0.00000000000E+00  0.30577933575E+03  0.30577933575E+03  0.00000000000E+00 0.  1.
          1   -1    0    0  501    0  0.00000000000E+00 -0.00000000000E+00 -0.16429620884E+04  0.16429620884E+04  0.00000000000E+00 0. -1.
        -24    2    1    2    0    0 -0.40755023728E+03  0.36327994718E+02 -0.57242741794E+03  0.70759889428E+03  0.74874076076E+02 0.  0.
        254    2    1    2    0    0  0.40755023728E+03 -0.36327994718E+02 -0.76475533470E+03  0.12411425299E+04  0.88778777776E+03 0.  0.
         23    2    4    4    0    0  0.51351739626E+03 -0.25026317613E+03 -0.18388531369E+03  0.60635821918E+03  0.86745073558E+02 0.  0.
         23    2    4    4    0    0 -0.10596715898E+03  0.21393518141E+03 -0.58087002101E+03  0.63478431067E+03  0.92432889892E+02 0.  0.
          1    1    3    3  502    0 -0.88584661757E+00  0.50246596032E+01 -0.48954533753E+00  0.51255812348E+01  0.00000000000E+00 0. -1.
         -2    1    3    3    0  502 -0.40666439067E+03  0.31303335114E+02 -0.57193787260E+03  0.70247331305E+03  0.00000000000E+00 0.  1.
         13    1    5    5    0    0  0.45738569263E+02  0.15294035662E+01 -0.23438077425E+02  0.51416916155E+02  0.00000000000E+00 0. -1.
        -13    1    5    5    0    0  0.46777882700E+03 -0.25179257970E+03 -0.16044723627E+03  0.55494130303E+03  0.00000000000E+00 0.  1.
          4    1    6    6  503    0 -0.47307397797E+02  0.54134590689E+02 -0.89715148607E+02  0.11496674165E+03  0.00000000000E+00 0. -1.
         -4    1    6    6    0  503 -0.58659761183E+02  0.15980059073E+03 -0.49115487241E+03  0.51981756903E+03  0.00000000000E+00 0.  1.
<mgrwt>
<rscale>  0 0.14175808E+04</rscale>
<asrwt>0</asrwt>
<pdfrwt beam="1">  1        1 0.25276340E+00 0.14175808E+04</pdfrwt>
<pdfrwt beam="2">  1       -2 0.47042975E-01 0.14175808E+04</pdfrwt>
<totfact> 0.19085108E+01</totfact>
</mgrwt>
</event>
<event>
12    5  0.5095719E-008  0.1693923E+04  0.7818608E-02  0.8764838E-01
          3   -1    0    0  501    0  0.00000000000E+00  0.00000000000E+00  0.13588673807E+04  0.13588673807E+04  0.00000000000E+00 0. -1.
         -4   -1    0    0    0  501 -0.00000000000E+00 -0.00000000000E+00 -0.52789851348E+03  0.52789851348E+03  0.00000000000E+00 0.  1.
        -24    2    1    2    0    0 -0.35918977578E+03  0.23251213728E+03  0.82407173685E+03  0.93185129485E+03  0.78571109384E+02 0.  0.
        254    2    1    2    0    0  0.35918977578E+03 -0.23251213728E+03  0.68971304084E+01  0.95491459937E+03  0.85365984600E+03 0.  0.
         23    2    4    4    0    0 -0.16421604596E+02 -0.35754117585E+03  0.28187122507E+03  0.46433958248E+03  0.89746859592E+02 0.  0.
         23    2    4    4    0    0  0.37561138037E+03  0.12502903858E+03 -0.27497409467E+03  0.49057501688E+03  0.91306762621E+02 0.  0.
          3    1    3    3  502    0 -0.27964510442E+03  0.14915331664E+03  0.64920202691E+03  0.72243433475E+03  0.00000000000E+00 0. -1.
         -4    1    3    3    0  502 -0.79544671352E+02  0.83358820638E+02  0.17486970994E+03  0.20941696009E+03  0.00000000000E+00 0.  1.
         13    1    5    5    0    0 -0.10389467673E+02 -0.40087550384E+01  0.24787727799E+02  0.27174300450E+02  0.00000000000E+00 0.  1.
        -13    1    5    5    0    0 -0.60321369231E+01 -0.35353242082E+03  0.25708349727E+03  0.43716528203E+03  0.00000000000E+00 0. -1.
          4    1    6    6  503    0  0.80036881794E+02 -0.11137972358E+02 -0.52429686557E+02  0.96326678070E+02  0.00000000000E+00 0. -1.
         -4    1    6    6    0  503  0.29557449858E+03  0.13616701093E+03 -0.22254440811E+03  0.39424833881E+03  0.00000000000E+00 0.  1.
<mgrwt>
<rscale>  0 0.16939233E+04</rscale>
<asrwt>0</asrwt>
<pdfrwt beam="1">  1        3 0.20905652E+00 0.16939233E+04</pdfrwt>
<pdfrwt beam="2">  1       -4 0.81215156E-01 0.16939233E+04</pdfrwt>
<totfact> 0.37844620E-01</totfact>
</mgrwt>
</event>
<event>
12    5  0.5095719E-008  0.1177836E+04  0.7818608E-02  0.9132481E-01
         -2   -1    0    0    0  501 -0.00000000000E+00  0.00000000000E+00  0.13793052438E+03  0.13793052438E+03  0.00000000000E+00 0.  1.
          1   -1    0    0  501    0  0.00000000000E+00 -0.00000000000E+00 -0.25144857797E+04  0.25144857797E+04  0.00000000000E+00 0. -1.
        -24    2    1    2    0    0  0.17814624864E+03 -0.94964962065E+02 -0.51988126552E+03  0.56338911015E+03  0.79851920881E+02 0.  0.
        254    2    1    2    0    0 -0.17814624864E+03  0.94964962065E+02 -0.18566739898E+04  0.20890271939E+04  0.93597109071E+03 0.  0.
         23    2    4    4    0    0 -0.78130743822E+02  0.48326431609E+03 -0.13345219934E+04  0.14243598532E+04  0.90571673176E+02 0.  0.
         23    2    4    4    0    0 -0.10001550481E+03 -0.38829935402E+03 -0.52215199633E+03  0.66466734074E+03  0.91435644242E+02 0.  0.
          3    1    3    3  502    0 -0.63048149922E+00  0.57543371235E+01 -0.54140310467E+02  0.54448903755E+02  0.00000000000E+00 0. -1.
         -4    1    3    3    0  502  0.17877673014E+03 -0.10071929919E+03 -0.46574095505E+03  0.50894020639E+03  0.00000000000E+00 0.  1.
         13    1    5    5    0    0 -0.75391367466E+02  0.21844191940E+03 -0.55977851203E+03  0.60560111705E+03  0.00000000000E+00 0. -1.
        -13    1    5    5    0    0 -0.27393763554E+01  0.26482239669E+03 -0.77474348141E+03  0.81875873611E+03  0.00000000000E+00 0.  1.
          3    1    6    6  503    0 -0.65645612170E+01 -0.20871755942E+03 -0.26653214925E+03  0.33859341349E+03  0.00000000000E+00 0. -1.
         -3    1    6    6    0  503 -0.93450943597E+02 -0.17958179460E+03 -0.25561984708E+03  0.32607392725E+03  0.00000000000E+00 0.  1.
<mgrwt>
<rscale>  0 0.11778359E+04</rscale>
<asrwt>0</asrwt>
<pdfrwt beam="1">  1        1 0.38684395E+00 0.11778359E+04</pdfrwt>
<pdfrwt beam="2">  1       -2 0.21220081E-01 0.11778359E+04</pdfrwt>
<totfact> 0.22334425E+01</totfact>
</mgrwt>
</event>
<event>
12    5  0.5095719E-008  0.1860884E+04  0.7818608E-02  0.8674576E-01
         -2   -1    0    0    0  501 -0.00000000000E+00  0.00000000000E+00  0.38773829322E+03  0.38773829322E+03  0.00000000000E+00 0.  1.
          1   -1    0    0  501    0  0.00000000000E+00 -0.00000000000E+00 -0.22327479201E+04  0.22327479201E+04  0.00000000000E+00 0. -1.
        -24    2    1    2    0    0 -0.67588393453E+02 -0.21718799009E+03  0.24006423370E+03  0.34013176535E+03  0.79498223412E+02 0.  0.
        254    2    1    2    0    0  0.67588393453E+02  0.21718799009E+03 -0.20850738606E+04  0.22803544479E+04  0.89484333284E+03 0.  0.
         23    2    4    4    0    0 -0.38548566307E+03  0.15116041291E+03 -0.12948235684E+04  0.13624459451E+04  0.90786635024E+02 0.  0.
         23    2    4    4    0    0  0.45307405652E+03  0.66027577179E+02 -0.79025029212E+03  0.91790850284E+03  0.91786457295E+02 0.  0.
          3    1    3    3  502    0  0.94796439027E+01 -0.98961820448E+02  0.10907691780E+03  0.14758414397E+03  0.00000000000E+00 0. -1.
         -4    1    3    3    0  502 -0.77068037356E+02 -0.11822616965E+03  0.13098731590E+03  0.19254762138E+03  0.00000000000E+00 0.  1.
         13    1    5    5    0    0 -0.16304397301E+02  0.29344155810E+02 -0.13892473266E+03  0.14292303592E+03  0.00000000000E+00 0. -1.
        -13    1    5    5    0    0 -0.36918126577E+03  0.12181625710E+03 -0.11558988358E+04  0.12195229092E+04  0.00000000000E+00 0.  1.
          4    1    6    6  503    0  0.12517151983E+03 -0.22202964638E+02 -0.20136160729E+03  0.23813310963E+03  0.00000000000E+00 0. -1.
         -4    1    6    6    0  503  0.32790253670E+03  0.88230541817E+02 -0.58888868483E+03  0.67977539320E+03  0.00000000000E+00 0.  1.
<mgrwt>
<rscale>  0 0.18608835E+04</rscale>
<asrwt>0</asrwt>
<pdfrwt beam="1">  1        1 0.34349968E+00 0.18608835E+04</pdfrwt>
<pdfrwt beam="2">  1       -2 0.59652044E-01 0.18608835E+04</pdfrwt>
<totfact> 0.44743912E+00</totfact>
</mgrwt>
</event>
<event>
12    5  0.5095719E-008  0.1346242E+04  0.7818608E-02  0.8993678E-01
          1   -1    0    0  501    0  0.00000000000E+00  0.00000000000E+00  0.94848478813E+03  0.94848478813E+03  0.00000000000E+00 0. -1.
         -2   -1    0    0    0  501 -0.00000000000E+00 -0.00000000000E+00 -0.47770048515E+03  0.47770048515E+03  0.00000000000E+00 0.  1.
        -24    2    1    2    0    0  0.82386917939E+02  0.19897072581E+03  0.44352257240E+03  0.49906932094E+03  0.77336672415E+02 0.  0.
        254    2    1    2    0    0 -0.82386917939E+02 -0.19897072581E+03  0.27261730582E+02  0.92711595233E+03  0.90134556810E+03 0.  0.
         23    2    4    4    0    0 -0.40353229674E+03 -0.24748085484E+03 -0.19801984629E+03  0.52139232649E+03  0.92482487908E+02 0.  0.
         23    2    4    4    0    0  0.32114537880E+03  0.48510129020E+02  0.22528157687E+03  0.40572362584E+03  0.91500189852E+02 0.  0.
          3    1    3    3  502    0  0.21426653001E+02  0.41273796795E+02  0.39200649287E+02  0.60822024508E+02  0.00000000000E+00 0. -1.
         -4    1    3    3    0  502  0.60960264937E+02  0.15769692902E+03  0.40432192311E+03  0.43824729644E+03  0.00000000000E+00 0.  1.
         13    1    5    5    0    0 -0.37017146639E+03 -0.25127387438E+03 -0.19373756145E+03  0.48754457970E+03  0.00000000000E+00 0. -1.
        -13    1    5    5    0    0 -0.33360830354E+02  0.37930195494E+01 -0.42822848421E+01  0.33847746789E+02  0.00000000000E+00 0.  1.
          4    1    6    6  503    0  0.30098176526E+03  0.53383606258E+02  0.23218425582E+03  0.38386112213E+03  0.00000000000E+00 0. -1.
         -4    1    6    6    0  503  0.20163613547E+02 -0.48734772378E+01 -0.69026789498E+01  0.21862503707E+02  0.00000000000E+00 0.  1.
<mgrwt>
<rscale>  0 0.13462416E+04</rscale>
<asrwt>0</asrwt>
<pdfrwt beam="1">  1        1 0.14592074E+00 0.13462416E+04</pdfrwt>
<pdfrwt beam="2">  1       -2 0.73492382E-01 0.13462416E+04</pdfrwt>
<totfact> 0.23828298E+01</totfact>
</mgrwt>
</event>
<event>
12    5  0.5095719E-008  0.2228064E+04  0.7818608E-02  0.8506837E-01
         -2   -1    0    0    0  501 -0.00000000000E+00  0.00000000000E+00  0.12245509130E+04  0.12245509130E+04  0.00000000000E+00 0.  1.
          1   -1    0    0  501    0  0.00000000000E+00 -0.00000000000E+00 -0.10134877557E+04  0.10134877557E+04  0.00000000000E+00 0. -1.
        -24    2    1    2    0    0 -0.30472436297E+03 -0.62197685458E+03  0.71365990713E+03  0.99745126781E+03  0.76723031670E+02 0.  0.
        254    2    1    2    0    0  0.30472436297E+03  0.62197685458E+03 -0.50259674983E+03  0.12405874009E+04  0.89818787639E+03 0.  0.
         23    2    4    4    0    0  0.57369875907E+03  0.60887525954E+03 -0.43941790140E+03  0.94926923025E+03  0.90358351024E+02 0.  0.
         23    2    4    4    0    0 -0.26897439610E+03  0.13101595038E+02 -0.63178848434E+02  0.29131817064E+03  0.91410240713E+02 0.  0.
          3    1    3    3  502    0 -0.22566874756E+03 -0.43186900799E+03  0.45330464569E+03  0.66552409836E+03  0.00000000000E+00 0. -1.
         -4    1    3    3    0  502 -0.79055615414E+02 -0.19010784659E+03  0.26035526143E+03  0.33192716945E+03  0.00000000000E+00 0.  1.
         13    1    5    5    0    0  0.39022050009E+03  0.46598060389E+03 -0.29591547726E+03  0.67599994939E+03  0.00000000000E+00 0. -1.
        -13    1    5    5    0    0  0.18347825898E+03  0.14289465565E+03 -0.14350242413E+03  0.27326928086E+03  0.00000000000E+00 0.  1.
          2    1    6    6  503    0 -0.29913223597E+02  0.12034279393E+02 -0.39641566866E+02  0.51098714759E+02  0.00000000000E+00 0. -1.
         -2    1    6    6    0  503 -0.23906117250E+03  0.10673156444E+01 -0.23537281567E+02  0.24021945588E+03  0.00000000000E+00 0.  1.
<mgrwt>
<rscale>  0 0.22280641E+04</rscale>
<asrwt>0</asrwt>
<pdfrwt beam="1">  1        1 0.15592119E+00 0.22280641E+04</pdfrwt>
<pdfrwt beam="2">  1       -2 0.18839245E+00 0.22280641E+04</pdfrwt>
<totfact> 0.18713614E+00</totfact>
</mgrwt>
</event>
<event>
12    5  0.5095719E-008  0.2427452E+04  0.7818608E-02  0.8429297E-01
         -2   -1    0    0    0  501 -0.00000000000E+00  0.00000000000E+00  0.92969651680E+03  0.92969651680E+03  0.00000000000E+00 0.  1.
          1   -1    0    0  501    0  0.00000000000E+00 -0.00000000000E+00 -0.15845281123E+04  0.15845281123E+04  0.00000000000E+00 0. -1.
        -24    2    1    2    0    0 -0.24769947168E+03 -0.76798422514E+03 -0.96843320304E+03  0.12630956632E+04  0.79956159331E+02 0.  0.
        254    2    1    2    0    0  0.24769947168E+03  0.76798422514E+03  0.31360160755E+03  0.12511289659E+04  0.90322916395E+03 0.  0.
         23    2    4    4    0    0  0.46020311622E+03  0.23693851711E+03  0.40843118071E+03  0.66500914441E+03  0.86569993111E+02 0.  0.
         23    2    4    4    0    0 -0.21250364454E+03  0.53104570802E+03 -0.94829573162E+02  0.58611982144E+03  0.85886286378E+02 0.  0.
          3    1    3    3  502    0 -0.25112596059E+03 -0.75753041969E+03 -0.96333134505E+03  0.12509691704E+04  0.00000000000E+00 0. -1.
         -4    1    3    3    0  502  0.34264889140E+01 -0.10453805445E+02 -0.51018579926E+01  0.12126492879E+02  0.00000000000E+00 0.  1.
         13    1    5    5    0    0  0.29743989498E+03  0.16108904815E+03  0.21363980437E+03  0.40007766567E+03  0.00000000000E+00 0.  1.
        -13    1    5    5    0    0  0.16276322124E+03  0.75849468964E+02  0.19479137634E+03  0.26493147874E+03  0.00000000000E+00 0. -1.
          2    1    6    6  503    0 -0.35828407500E+02  0.15110043976E+03  0.50282102806E+01  0.15537149216E+03  0.00000000000E+00 0.  1.
         -2    1    6    6    0  503 -0.17667523704E+03  0.37994526827E+03 -0.99857783442E+02  0.43074832927E+03  0.00000000000E+00 0. -1.
<mgrwt>
<rscale>  0 0.24274516E+04</rscale>
<asrwt>0</asrwt>
<pdfrwt beam="1">  1        1 0.24377355E+00 0.24274516E+04</pdfrwt>
<pdfrwt beam="2">  1       -2 0.14303024E+00 0.24274516E+04</pdfrwt>
<totfact> 0.15249080E+00</totfact>
</mgrwt>
</event>
<event>
12    5  0.5095719E-008  0.1726054E+04  0.7818608E-02  0.8746643E-01
          1   -1    0    0  501    0  0.00000000000E+00  0.00000000000E+00  0.20644740198E+04  0.20644740198E+04  0.00000000000E+00 0. -1.
         -2   -1    0    0    0  501 -0.00000000000E+00 -0.00000000000E+00 -0.36077741817E+03  0.36077741817E+03  0.00000000000E+00 0.  1.
        -24    2    1    2    0    0 -0.26642008767E+03 -0.21868698931E+03  0.13519864815E+04  0.13975038657E+04  0.79661446962E+02 0.  0.
        254    2    1    2    0    0  0.26642008767E+03  0.21868698931E+03  0.35171012009E+03  0.10277475722E+04  0.90208724699E+03 0.  0.
         23    2    4    4    0    0 -0.60356905581E+02 -0.59979499631E+02 -0.25196405070E+03  0.28249160393E+03  0.95263461076E+02 0.  0.
         23    2    4    4    0    0  0.32677699325E+03  0.27866648894E+03  0.60367417079E+03  0.74525596828E+03  0.80905737734E+02 0.  0.
          1    1    3    3  502    0 -0.19734445654E+03 -0.12128095446E+03  0.97078513989E+03  0.99803691929E+03  0.00000000000E+00 0. -1.
         -2    1    3    3    0  502 -0.69075631127E+02 -0.97406034847E+02  0.38120134162E+03  0.39946694643E+03  0.00000000000E+00 0.  1.
         13    1    5    5    0    0 -0.39553874444E+02 -0.63079808438E+02 -0.25058647158E+03  0.26141375433E+03  0.00000000000E+00 0.  1.
        -13    1    5    5    0    0 -0.20803031137E+02  0.31003088076E+01 -0.13775791203E+01  0.21077849592E+02  0.00000000000E+00 0. -1.
          4    1    6    6  503    0  0.20455643757E+03  0.22142653898E+03  0.39854293278E+03  0.49970943316E+03  0.00000000000E+00 0. -1.
         -4    1    6    6    0  503  0.12222055569E+03  0.57239949957E+02  0.20513123801E+03  0.24554653512E+03  0.00000000000E+00 0.  1.
<mgrwt>
<rscale>  0 0.17260540E+04</rscale>
<asrwt>0</asrwt>
<pdfrwt beam="1">  1        1 0.31761138E+00 0.17260540E+04</pdfrwt>
<pdfrwt beam="2">  1       -2 0.55504220E-01 0.17260540E+04</pdfrwt>
<totfact> 0.68541852E+00</totfact>
</mgrwt>
</event>
<event>
12    5  0.5095719E-008  0.3119659E+04  0.7818608E-02  0.8210363E-01
         -2   -1    0    0    0  501 -0.00000000000E+00  0.00000000000E+00  0.11599287597E+04  0.11599287597E+04  0.00000000000E+00 0.  1.
          1   -1    0    0  501    0  0.00000000000E+00 -0.00000000000E+00 -0.20976013507E+04  0.20976013507E+04  0.00000000000E+00 0. -1.
        -24    2    1    2    0    0 -0.94160700904E+03  0.25929101398E+03  0.66172219870E+03  0.11824167655E+04  0.79859561869E+02 0.  0.
        254    2    1    2    0    0  0.94160700904E+03 -0.25929101398E+03 -0.15993947897E+04  0.20751133449E+04  0.89116559143E+03 0.  0.
         23    2    4    4    0    0  0.89907895601E+02  0.27429802933E+03 -0.48964368871E+03  0.57514836407E+03  0.87874115688E+02 0.  0.
         23    2    4    4    0    0  0.85169911344E+03 -0.53358904331E+03 -0.11097511010E+04  0.14999649808E+04  0.90767783594E+02 0.  0.
          1    1    3    3  502    0 -0.41776416930E+03  0.77756806913E+02  0.26718685926E+03  0.50195800615E+03  0.00000000000E+00 0. -1.
         -2    1    3    3    0  502 -0.52384283974E+03  0.18153420707E+03  0.39453533944E+03  0.68045875933E+03  0.00000000000E+00 0.  1.
         13    1    5    5    0    0  0.72589730015E+02  0.10394939473E+03 -0.25375448469E+03  0.28366544391E+03  0.00000000000E+00 0.  1.
        -13    1    5    5    0    0  0.17318165586E+02  0.17034863460E+03 -0.23588920402E+03  0.29148292016E+03  0.00000000000E+00 0. -1.
          3    1    6    6  503    0  0.75684698405E+03 -0.47560865871E+03 -0.10260505338E+04  0.13608088225E+04  0.00000000000E+00 0. -1.
         -3    1    6    6    0  503  0.94852129386E+02 -0.57980384598E+02 -0.83700567243E+02  0.13915615834E+03  0.00000000000E+00 0.  1.
<mgrwt>
<rscale>  0 0.31196590E+04</rscale>
<asrwt>0</asrwt>
<pdfrwt beam="1">  1        1 0.32270789E+00 0.31196590E+04</pdfrwt>
<pdfrwt beam="2">  1       -2 0.17845058E+00 0.31196590E+04</pdfrwt>
<totfact> 0.35219584E-01</totfact>
</mgrwt>
</event>
<event>
12    5  0.5095719E-008  0.1961750E+04  0.7818608E-02  0.8624715E-01
         -2   -1    0    0    0  501 -0.00000000000E+00  0.00000000000E+00  0.57327026480E+03  0.57327026480E+03  0.00000000000E+00 0.  1.
          1   -1    0    0  501    0  0.00000000000E+00 -0.00000000000E+00 -0.16782938543E+04  0.16782938543E+04  0.00000000000E+00 0. -1.
        -24    2    1    2    0    0 -0.50342865057E+03 -0.12326524821E+03  0.22454059962E+03  0.57049632074E+03  0.80080231479E+02 0.  0.
        254    2    1    2    0    0  0.50342865057E+03  0.12326524821E+03 -0.13295641891E+04  0.16810677983E+04  0.88860186924E+03 0.  0.
         23    2    4    4    0    0 -0.10931622194E+03  0.15902320915E+03 -0.90316012557E+03  0.92799350712E+03  0.90748660672E+02 0.  0.
         23    2    4    4    0    0  0.61274487251E+03 -0.35757960938E+02 -0.42640406350E+03  0.75307429119E+03  0.92550268095E+02 0.  0.
          1    1    3    3  502    0 -0.16301938590E+03 -0.24500102285E+01  0.62587062424E+02  0.17463809181E+03  0.00000000000E+00 0. -1.
         -4    1    3    3    0  502 -0.34040926467E+03 -0.12081523799E+03  0.16195353719E+03  0.39585822893E+03  0.00000000000E+00 0.  1.
         13    1    5    5    0    0 -0.22259820374E+02  0.40036128834E+02 -0.84067451702E+02  0.95737806799E+02  0.00000000000E+00 0. -1.
        -13    1    5    5    0    0 -0.87056401563E+02  0.11898708032E+03 -0.81909267387E+03  0.83225570032E+03  0.00000000000E+00 0.  1.
          2    1    6    6  503    0  0.31774880715E+03 -0.61878640480E+02 -0.24242471688E+03  0.40442924467E+03  0.00000000000E+00 0.  1.
         -2    1    6    6    0  503  0.29499606536E+03  0.26120679542E+02 -0.18397934662E+03  0.34864504652E+03  0.00000000000E+00 0. -1.
<mgrwt>
<rscale>  0 0.19617502E+04</rscale>
<asrwt>0</asrwt>
<pdfrwt beam="1">  1        1 0.25819905E+00 0.19617502E+04</pdfrwt>
<pdfrwt beam="2">  1       -2 0.88195427E-01 0.19617502E+04</pdfrwt>
<totfact> 0.44616313E+00</totfact>
</mgrwt>
</event>
<event>
12    5  0.5095719E-008  0.2358922E+04  0.7818608E-02  0.8455045E-01
         -2   -1    0    0    0  501 -0.00000000000E+00  0.00000000000E+00  0.12552871437E+04  0.12552871437E+04  0.00000000000E+00 0.  1.
          1   -1    0    0  501    0  0.00000000000E+00 -0.00000000000E+00 -0.11082149972E+04  0.11082149972E+04  0.00000000000E+00 0. -1.
        -24    2    1    2    0    0  0.78166319955E+03 -0.55298769348E+03 -0.25772748584E+03  0.99478646991E+03  0.79899418500E+02 0.  0.
        254    2    1    2    0    0 -0.78166319955E+03  0.55298769348E+03  0.40479963239E+03  0.13687156710E+04  0.89035223305E+03 0.  0.
         23    2    4    4    0    0 -0.14280917128E+03 -0.20072687970E+03  0.25574022544E+03  0.36549242440E+03  0.86578922120E+02 0.  0.
         23    2    4    4    0    0 -0.63885402828E+03  0.75371457318E+03  0.14905940695E+03  0.10032232466E+04  0.89543555718E+02 0.  0.
          1    1    3    3  502    0  0.75169581905E+03 -0.52067337073E+03 -0.23061462944E+03  0.94304319661E+03  0.00000000000E+00 0. -1.
         -2    1    3    3    0  502  0.29967380504E+02 -0.32314322747E+02 -0.27112856405E+02  0.51743273295E+02  0.00000000000E+00 0.  1.
         13    1    5    5    0    0 -0.30113501570E+02 -0.84501590573E+02  0.46823580591E+02  0.10119184496E+03  0.00000000000E+00 0. -1.
        -13    1    5    5    0    0 -0.11269566971E+03 -0.11622528913E+03  0.20891664485E+03  0.26430057945E+03  0.00000000000E+00 0.  1.
          2    1    6    6  503    0 -0.27068008462E+03  0.33616438319E+03  0.10871410897E+03  0.44507635101E+03  0.00000000000E+00 0. -1.
         -2    1    6    6    0  503 -0.36817394366E+03  0.41755018999E+03  0.40345297977E+02  0.55814689555E+03  0.00000000000E+00 0.  1.
<mgrwt>
<rscale>  0 0.23589218E+04</rscale>
<asrwt>0</asrwt>
<pdfrwt beam="1">  1        1 0.17049462E+00 0.23589218E+04</pdfrwt>
<pdfrwt beam="2">  1       -2 0.19312110E+00 0.23589218E+04</pdfrwt>
<totfact> 0.14563685E+00</totfact>
</mgrwt>
</event>
<event>
12    5  0.5095719E-008  0.2609972E+04  0.7818608E-02  0.8364822E-01
          1   -1    0    0  501    0  0.00000000000E+00  0.00000000000E+00  0.14964994728E+04  0.14964994728E+04  0.00000000000E+00 0. -1.
         -2   -1    0    0    0  501 -0.00000000000E+00 -0.00000000000E+00 -0.11379812523E+04  0.11379812523E+04  0.00000000000E+00 0.  1.
        -24    2    1    2    0    0 -0.27936845124E+03  0.10074493590E+04  0.65005331292E+03  0.12335393610E+04  0.77775979883E+02 0.  0.
        254    2    1    2    0    0  0.27936845124E+03 -0.10074493590E+04 -0.29153509244E+03  0.14009413640E+04  0.88580079739E+03 0.  0.
         23    2    4    4    0    0  0.21708059506E+03 -0.82473611318E+03 -0.58470621731E+03  0.10381494160E+04  0.92515989124E+02 0.  0.
         23    2    4    4    0    0  0.62287856177E+02 -0.18271324586E+03  0.29317112486E+03  0.36279194800E+03  0.91677597261E+02 0.  0.
          1    1    3    3  502    0 -0.21029440751E+03  0.75217795551E+03  0.44497178041E+03  0.89888558779E+03  0.00000000000E+00 0. -1.
         -2    1    3    3    0  502 -0.69074043727E+02  0.25527140352E+03  0.20508153251E+03  0.33465377325E+03  0.00000000000E+00 0.  1.
         13    1    5    5    0    0  0.14512070424E+03 -0.66145515884E+03 -0.49217636957E+03  0.83715024023E+03  0.00000000000E+00 0. -1.
        -13    1    5    5    0    0  0.71959890820E+02 -0.16328095433E+03 -0.92529847741E+02  0.20099917576E+03  0.00000000000E+00 0.  1.
          4    1    6    6  503    0  0.42855344071E+02 -0.13336209100E+03  0.12959627824E+03  0.19083297190E+03  0.00000000000E+00 0. -1.
         -4    1    6    6    0  503  0.19432512107E+02 -0.49351154861E+02  0.16357484662E+03  0.17195897610E+03  0.00000000000E+00 0.  1.
<mgrwt>
<rscale>  0 0.26099719E+04</rscale>
<asrwt>0</asrwt>
<pdfrwt beam="1">  1        1 0.23023069E+00 0.26099719E+04</pdfrwt>
<pdfrwt beam="2">  1       -2 0.17507404E+00 0.26099719E+04</pdfrwt>
<totfact> 0.99761506E-01</totfact>
</mgrwt>
</event>
<event>
12    5  0.5095719E-008  0.1421618E+04  0.7818608E-02  0.8938317E-01
         -2   -1    0    0    0  501 -0.00000000000E+00  0.00000000000E+00  0.56827320509E+03  0.56827320509E+03  0.00000000000E+00 0.  1.
          1   -1    0    0  501    0  0.00000000000E+00 -0.00000000000E+00 -0.88909578056E+03  0.88909578056E+03  0.00000000000E+00 0. -1.
        -24    2    1    2    0    0 -0.27827859000E+03  0.26138545703E+02  0.22307523963E+03  0.36645048437E+03  0.80007485518E+02 0.  0.
        254    2    1    2    0    0  0.27827859000E+03 -0.26138545703E+02 -0.54389781509E+03  0.10909185013E+04  0.90341360735E+03 0.  0.
         23    2    4    4    0    0  0.26074425076E+03 -0.12898353277E+03  0.17972047590E+03  0.35408109824E+03  0.91922024779E+02 0.  0.
         23    2    4    4    0    0  0.17534339239E+02  0.10284498707E+03 -0.72361829100E+03  0.73683740304E+03  0.91768093807E+02 0.  0.
          1    1    3    3  502    0 -0.14934159901E+03  0.36752200405E+02  0.79302748892E+02  0.17303919617E+03  0.00000000000E+00 0. -1.
         -2    1    3    3    0  502 -0.12893699099E+03 -0.10613654702E+02  0.14377249074E+03  0.19341128820E+03  0.00000000000E+00 0.  1.
         13    1    5    5    0    0  0.69619849015E+02  0.60807189829E+01  0.54716855531E+02  0.88757156328E+02  0.00000000000E+00 0. -1.
        -13    1    5    5    0    0  0.19112440175E+03 -0.13506425175E+03  0.12500362037E+03  0.26532394191E+03  0.00000000000E+00 0.  1.
          1    1    6    6  503    0 -0.72817732053E+00  0.50793344524E+02 -0.59134202542E+03  0.59351991131E+03  0.00000000000E+00 0. -1.
         -1    1    6    6    0  503  0.18262516559E+02  0.52051642542E+02 -0.13227626557E+03  0.14331749173E+03  0.00000000000E+00 0.  1.
<mgrwt>
<rscale>  0 0.14216178E+04</rscale>
<asrwt>0</asrwt>
<pdfrwt beam="1">  1        1 0.13678397E+00 0.14216178E+04</pdfrwt>
<pdfrwt beam="2">  1       -2 0.87426647E-01 0.14216178E+04</pdfrwt>
<totfact> 0.17905562E+01</totfact>
</mgrwt>
</event>
<event>
12    5  0.5095719E-008  0.2059552E+04  0.7818608E-02  0.8579273E-01
          1   -1    0    0  501    0  0.00000000000E+00  0.00000000000E+00  0.67503715666E+03  0.67503715666E+03  0.00000000000E+00 0. -1.
         -2   -1    0    0    0  501 -0.00000000000E+00 -0.00000000000E+00 -0.15709332899E+04  0.15709332899E+04  0.00000000000E+00 0.  1.
        -24    2    1    2    0    0 -0.33656435406E+03  0.63096134635E+02 -0.11859712249E+04  0.12370921935E+04  0.81318277893E+02 0.  0.
        254    2    1    2    0    0  0.33656435406E+03 -0.63096134635E+02  0.29007509165E+03  0.10088782531E+04  0.90356797425E+03 0.  0.
         23    2    4    4    0    0  0.45535591305E+03 -0.12838432117E+03 -0.17789472043E+03  0.51323748021E+03  0.89076585392E+02 0.  0.
         23    2    4    4    0    0 -0.11879155899E+03  0.65288186531E+02  0.46796981208E+03  0.49564077286E+03  0.91049705755E+02 0.  0.
          3    1    3    3  502    0 -0.27449302977E+02  0.49547840351E+01 -0.40178277457E+02  0.48911226709E+02  0.00000000000E+00 0. -1.
         -4    1    3    3    0  502 -0.30911505109E+03  0.58141350600E+02 -0.11457929474E+04  0.11881809668E+04  0.00000000000E+00 0.  1.
         13    1    5    5    0    0  0.29563164902E+02  0.49974143958E+01 -0.31866938239E+02  0.43754504025E+02  0.00000000000E+00 0. -1.
        -13    1    5    5    0    0  0.42579274815E+03 -0.13338173556E+03 -0.14602778219E+03  0.46948297619E+03  0.00000000000E+00 0.  1.
          2    1    6    6  503    0 -0.11901228156E+03  0.28756964670E+02  0.30565462215E+03  0.32926529459E+03  0.00000000000E+00 0.  1.
         -2    1    6    6    0  503  0.22072256927E+00  0.36531221861E+02  0.16231518992E+03  0.16637547827E+03  0.00000000000E+00 0. -1.
<mgrwt>
<rscale>  0 0.20595517E+04</rscale>
<asrwt>0</asrwt>
<pdfrwt beam="1">  1        1 0.10385187E+00 0.20595517E+04</pdfrwt>
<pdfrwt beam="2">  1       -2 0.24168204E+00 0.20595517E+04</pdfrwt>
<totfact> 0.16823668E+00</totfact>
</mgrwt>
</event>
<event>
12    5  0.5095719E-008  0.1528103E+04  0.7818608E-02  0.8865977E-01
          1   -1    0    0  501    0  0.00000000000E+00  0.00000000000E+00  0.62113284607E+03  0.62113284607E+03  0.00000000000E+00 0. -1.
         -2   -1    0    0    0  501 -0.00000000000E+00 -0.00000000000E+00 -0.93985511692E+03  0.93985511692E+03  0.00000000000E+00 0.  1.
        -24    2    1    2    0    0 -0.40976674155E+03  0.27025045630E+03 -0.17185898589E+03  0.52592795343E+03  0.78234324657E+02 0.  0.
        254    2    1    2    0    0  0.40976674155E+03 -0.27025045630E+03 -0.14686328496E+03  0.10350600096E+04  0.89935327169E+03 0.  0.
         23    2    4    4    0    0  0.78989757656E+02  0.31874519443E+03 -0.88988194808E+02  0.35065469577E+03  0.84864221342E+02 0.  0.
         23    2    4    4    0    0  0.33077698390E+03 -0.58899565073E+03 -0.57875090150E+02  0.68440531379E+03  0.93444196287E+02 0.  0.
          1    1    3    3  502    0 -0.35339675437E+01 -0.36634738435E+01 -0.76517716877E+01  0.91901891799E+01  0.00000000000E+00 0. -1.
         -2    1    3    3    0  502 -0.40623277401E+03  0.27391393015E+03 -0.16420721421E+03  0.51673776425E+03  0.00000000000E+00 0.  1.
         13    1    5    5    0    0  0.83083624992E+02  0.19788139830E+03 -0.32077586395E+02  0.21699978821E+03  0.00000000000E+00 0.  1.
        -13    1    5    5    0    0 -0.40938673358E+01  0.12086379613E+03 -0.56910608412E+02  0.13365490756E+03  0.00000000000E+00 0. -1.
          1    1    6    6  503    0  0.13484399431E+03 -0.15320680112E+03 -0.21063408414E+02  0.20518014983E+03  0.00000000000E+00 0. -1.
         -1    1    6    6    0  503  0.19593298959E+03 -0.43578884961E+03 -0.36811681736E+02  0.47922516396E+03  0.00000000000E+00 0.  1.
<mgrwt>
<rscale>  0 0.15281032E+04</rscale>
<asrwt>0</asrwt>
<pdfrwt beam="1">  1        1 0.95558900E-01 0.15281032E+04</pdfrwt>
<pdfrwt beam="2">  1       -2 0.14459309E+00 0.15281032E+04</pdfrwt>
<totfact> 0.90754581E+00</totfact>
</mgrwt>
</event>
<event>
12    5  0.5095719E-008  0.2332265E+04  0.7818608E-02  0.8465307E-01
         -2   -1    0    0    0  501 -0.00000000000E+00  0.00000000000E+00  0.58883051350E+03  0.58883051350E+03  0.00000000000E+00 0.  1.
          1   -1    0    0  501    0  0.00000000000E+00 -0.00000000000E+00 -0.23094344710E+04  0.23094344710E+04  0.00000000000E+00 0. -1.
        -24    2    1    2    0    0  0.27700803343E+03 -0.16576841524E+03  0.42916615027E+03  0.54288649027E+03  0.79558398098E+02 0.  0.
        254    2    1    2    0    0 -0.27700803343E+03  0.16576841524E+03 -0.21497701078E+04  0.23553784942E+04  0.90668832392E+03 0.  0.
         23    2    4    4    0    0 -0.16662608818E+03 -0.36281442748E+03 -0.10200141274E+04  0.10992011798E+04  0.91737950864E+02 0.  0.
         23    2    4    4    0    0 -0.11038194525E+03  0.52858284272E+03 -0.11297559804E+04  0.12561773144E+04  0.10024407479E+03 0.  0.
          1    1    3    3  502    0  0.22398824845E+02 -0.18099151801E+01  0.73954223690E+01  0.23657460122E+02  0.00000000000E+00 0. -1.
         -2    1    3    3    0  502  0.25460920859E+03 -0.16395850006E+03  0.42177072790E+03  0.51922903015E+03  0.00000000000E+00 0.  1.
         13    1    5    5    0    0  0.96333559831E+01 -0.17965150047E+02 -0.31412984279E+02  0.37447613342E+02  0.00000000000E+00 0.  1.
        -13    1    5    5    0    0 -0.17625944416E+03 -0.34484927743E+03 -0.98860114311E+03  0.10617535665E+04  0.00000000000E+00 0. -1.
          1    1    6    6  503    0 -0.10262008689E+03  0.43520028851E+03 -0.83923273829E+03  0.95091627517E+03  0.00000000000E+00 0. -1.
         -1    1    6    6    0  503 -0.77618583601E+01  0.93382554212E+02 -0.29052324209E+03  0.30526103923E+03  0.00000000000E+00 0.  1.
<mgrwt>
<rscale>  0 0.23322654E+04</rscale>
<asrwt>0</asrwt>
<pdfrwt beam="1">  1        1 0.35529761E+00 0.23322654E+04</pdfrwt>
<pdfrwt beam="2">  1       -2 0.90589310E-01 0.23322654E+04</pdfrwt>
<totfact> 0.15118417E+00</totfact>
</mgrwt>
</event>
<event>
12    5  0.5095719E-008  0.1450576E+04  0.7818608E-02  0.8918001E-01
         -2   -1    0    0    0  501 -0.00000000000E+00  0.00000000000E+00  0.33395691813E+03  0.33395691813E+03  0.00000000000E+00 0.  1.
          1   -1    0    0  501    0  0.00000000000E+00 -0.00000000000E+00 -0.15751814241E+04  0.15751814241E+04  0.00000000000E+00 0. -1.
        -24    2    1    2    0    0  0.36687001609E+03  0.10391489074E+03 -0.53923021228E+02  0.39316042145E+03  0.79218126396E+02 0.  0.
        254    2    1    2    0    0 -0.36687001609E+03 -0.10391489074E+03 -0.11873014847E+04  0.15159779208E+04  0.86203963217E+03 0.  0.
         23    2    4    4    0    0 -0.30882191522E+02  0.23073513699E+03 -0.94179152348E+03  0.97439228789E+03  0.90976061669E+02 0.  0.
         23    2    4    4    0    0 -0.33598782457E+03 -0.33465002773E+03 -0.24550996125E+03  0.54158563290E+03  0.90340452548E+02 0.  0.
          1    1    3    3  502    0  0.38147098959E+02  0.28550380958E+02  0.12876302008E+02  0.49357112610E+02  0.00000000000E+00 0. -1.
         -2    1    3    3    0  502  0.32872291713E+03  0.75364509785E+02 -0.66799323236E+02  0.34380330884E+03  0.00000000000E+00 0.  1.
         13    1    5    5    0    0  0.24681512038E+02  0.10931659174E+03 -0.34108663503E+03  0.35902560752E+03  0.00000000000E+00 0. -1.
        -13    1    5    5    0    0 -0.55563703560E+02  0.12141854525E+03 -0.60070488846E+03  0.61536668036E+03  0.00000000000E+00 0.  1.
          2    1    6    6  503    0 -0.17472225533E+03 -0.13341469703E+03 -0.15203731773E+03  0.26728766128E+03  0.00000000000E+00 0. -1.
         -2    1    6    6    0  503 -0.16126556924E+03 -0.20123533070E+03 -0.93472643526E+02  0.27429797162E+03  0.00000000000E+00 0.  1.
<mgrwt>
<rscale>  0 0.14505761E+04</rscale>
<asrwt>0</asrwt>
<pdfrwt beam="1">  1        1 0.24233561E+00 0.14505761E+04</pdfrwt>
<pdfrwt beam="2">  1       -2 0.51377987E-01 0.14505761E+04</pdfrwt>
<totfact> 0.17704771E+01</totfact>
</mgrwt>
</event>
<event>
12    5  0.5095719E-008  0.1355169E+04  0.7818608E-02  0.8986924E-01
          1   -1    0    0  501    0  0.00000000000E+00  0.00000000000E+00  0.13901580687E+04  0.13901580687E+04  0.00000000000E+00 0. -1.
         -2   -1    0    0    0  501 -0.00000000000E+00 -0.00000000000E+00 -0.33026518266E+03  0.33026518266E+03  0.00000000000E+00 0.  1.
        -24    2    1    2    0    0  0.14859019689E+03 -0.33464110820E+02  0.69254759804E+03  0.71358160075E+03  0.79860077961E+02 0.  0.
        254    2    1    2    0    0 -0.14859019689E+03  0.33464110820E+02  0.36734528801E+03  0.10068416506E+04  0.92498035409E+03 0.  0.
         23    2    4    4    0    0  0.22575265150E+03  0.57446407564E+02 -0.20061359621E+03  0.32037515790E+03  0.90166941905E+02 0.  0.
         23    2    4    4    0    0 -0.37434284839E+03 -0.23982296744E+02  0.56795888422E+03  0.68646649271E+03  0.89169685166E+02 0.  0.
          1    1    3    3  502    0  0.15230789888E+03 -0.45095507261E+02  0.62063410628E+03  0.64063873963E+03  0.00000000000E+00 0. -1.
         -2    1    3    3    0  502 -0.37177019879E+01  0.11631396441E+02  0.71913491756E+02  0.72942861116E+02  0.00000000000E+00 0.  1.
         13    1    5    5    0    0  0.55351971302E+02  0.20019874789E+02 -0.10764710886E+03  0.12268877765E+03  0.00000000000E+00 0.  1.
        -13    1    5    5    0    0  0.17040068020E+03  0.37426532775E+02 -0.92966487345E+02  0.19768638025E+03  0.00000000000E+00 0. -1.
          4    1    6    6  503    0 -0.48219852248E+00  0.58391220678E+01  0.10430422072E-01  0.58590076576E+01  0.00000000000E+00 0.  1.
         -4    1    6    6    0  503 -0.37386064987E+03 -0.29821418812E+02  0.56794845380E+03  0.68060748505E+03  0.00000000000E+00 0. -1.
<mgrwt>
<rscale>  0 0.13551691E+04</rscale>
<asrwt>0</asrwt>
<pdfrwt beam="1">  1        1 0.21387047E+00 0.13551691E+04</pdfrwt>
<pdfrwt beam="2">  1       -2 0.50810029E-01 0.13551691E+04</pdfrwt>
<totfact> 0.24536220E+01</totfact>
</mgrwt>
</event>
<event>
12    5  0.5095719E-008  0.1318748E+04  0.7818608E-02  0.9014828E-01
         -2   -1    0    0    0  501 -0.00000000000E+00  0.00000000000E+00  0.63053635387E+03  0.63053635387E+03  0.00000000000E+00 0.  1.
          1   -1    0    0  501    0  0.00000000000E+00 -0.00000000000E+00 -0.68953074620E+03  0.68953074620E+03  0.00000000000E+00 0. -1.
        -24    2    1    2    0    0 -0.12743167657E+03 -0.26305343858E+03  0.14450020342E+03  0.33553454257E+03  0.79165502136E+02 0.  0.
        254    2    1    2    0    0  0.12743167657E+03  0.26305343858E+03 -0.20349459575E+03  0.98453255750E+03  0.91785530588E+03 0.  0.
         23    2    4    4    0    0  0.13456947199E+03 -0.17064865408E+03  0.25353845927E+03  0.34646375748E+03  0.92333520367E+02 0.  0.
         23    2    4    4    0    0 -0.71377954214E+01  0.43370209266E+03 -0.45703305502E+03  0.63806880002E+03  0.10051928608E+03 0.  0.
          3    1    3    3  502    0 -0.54898992478E+02 -0.18807351599E+03  0.11475339294E+03  0.22705481272E+03  0.00000000000E+00 0. -1.
         -4    1    3    3    0  502 -0.72532684095E+02 -0.74979922597E+02  0.29746810479E+02  0.10847972985E+03  0.00000000000E+00 0.  1.
         13    1    5    5    0    0  0.10719917236E+03 -0.17653661279E+03  0.20882389314E+03  0.29370777408E+03  0.00000000000E+00 0. -1.
        -13    1    5    5    0    0  0.27370299633E+02  0.58879587089E+01  0.44714566128E+02  0.52755983393E+02  0.00000000000E+00 0.  1.
          3    1    6    6  503    0 -0.50699201027E+02  0.22487960971E+03 -0.26270668375E+03  0.34950829681E+03  0.00000000000E+00 0. -1.
         -3    1    6    6    0  503  0.43561405605E+02  0.20882248295E+03 -0.19432637127E+03  0.28856050321E+03  0.00000000000E+00 0.  1.
<mgrwt>
<rscale>  0 0.13187482E+04</rscale>
<asrwt>0</asrwt>
<pdfrwt beam="1">  1        1 0.10608165E+00 0.13187482E+04</pdfrwt>
<pdfrwt beam="2">  1       -2 0.97005592E-01 0.13187482E+04</pdfrwt>
<totfact> 0.21254273E+01</totfact>
</mgrwt>
</event>
<event>
12    5  0.5095719E-008  0.2969159E+04  0.7818608E-02  0.8252593E-01
         -4   -1    0    0    0  501 -0.00000000000E+00  0.00000000000E+00  0.12274642935E+04  0.12274642935E+04  0.00000000000E+00 0.  1.
          3   -1    0    0  501    0  0.00000000000E+00 -0.00000000000E+00 -0.17955527412E+04  0.17955527412E+04  0.00000000000E+00 0. -1.
        -24    2    1    2    0    0 -0.12239909862E+04  0.48908111424E+03 -0.54033227088E+03  0.14267152578E+04  0.78760352618E+02 0.  0.
        254    2    1    2    0    0  0.12239909862E+04 -0.48908111424E+03 -0.27756176861E+02  0.15963017769E+04  0.90003038110E+03 0.  0.
         23    2    4    4    0    0  0.10820846777E+04 -0.24264614716E+03 -0.34030630997E+03  0.11636860758E+04  0.92587774856E+02 0.  0.
         23    2    4    4    0    0  0.14190630858E+03 -0.24643496708E+03  0.31255013310E+03  0.43261570111E+03  0.92742469933E+02 0.  0.
          3    1    3    3  502    0 -0.11991084562E+04  0.46789883077E+03 -0.52002826748E+03  0.13882434241E+04  0.00000000000E+00 0. -1.
         -4    1    3    3    0  502 -0.24882530084E+02  0.21182283472E+02 -0.20304003401E+02  0.38471833730E+02  0.00000000000E+00 0.  1.
         13    1    5    5    0    0  0.87456659646E+03 -0.20325528799E+03 -0.31218257581E+03  0.95059844539E+03  0.00000000000E+00 0. -1.
        -13    1    5    5    0    0  0.20751808119E+03 -0.39390859178E+02 -0.28123734152E+02  0.21308763041E+03  0.00000000000E+00 0.  1.
          1    1    6    6  503    0  0.32845727048E+02 -0.48302480847E+02  0.12803954156E+03  0.14073413106E+03  0.00000000000E+00 0.  1.
         -1    1    6    6    0  503  0.10906058153E+03 -0.19813248623E+03  0.18451059154E+03  0.29188157005E+03  0.00000000000E+00 0. -1.
<mgrwt>
<rscale>  0 0.29691594E+04</rscale>
<asrwt>0</asrwt>
<pdfrwt beam="1">  1        3 0.27623888E+00 0.29691594E+04</pdfrwt>
<pdfrwt beam="2">  1       -4 0.18884066E+00 0.29691594E+04</pdfrwt>
<totfact> 0.15993995E-02</totfact>
</mgrwt>
</event>
<event>
12    5  0.5095719E-008  0.1445171E+04  0.7818608E-02  0.8921755E-01
         -2   -1    0    0    0  501 -0.00000000000E+00  0.00000000000E+00  0.33774865105E+03  0.33774865105E+03  0.00000000000E+00 0.  1.
          1   -1    0    0  501    0  0.00000000000E+00 -0.00000000000E+00 -0.15459116550E+04  0.15459116550E+04  0.00000000000E+00 0. -1.
        -24    2    1    2    0    0  0.41173088268E+03 -0.11016344301E+03 -0.48415792536E+03  0.65004952555E+03  0.80605117962E+02 0.  0.
        254    2    1    2    0    0 -0.41173088268E+03  0.11016344301E+03 -0.72400507860E+03  0.12336107805E+04  0.90330166614E+03 0.  0.
         23    2    4    4    0    0 -0.37764779254E+03  0.19937316123E+03  0.57589885797E+02  0.44063250659E+03  0.92048347563E+02 0.  0.
         23    2    4    4    0    0 -0.34083090141E+02 -0.89209718224E+02 -0.78159496439E+03  0.79297827393E+03  0.93828693355E+02 0.  0.
          1    1    3    3  502    0  0.36477287616E+03 -0.96239724349E+02 -0.46152895485E+03  0.59609589152E+03  0.00000000000E+00 0. -1.
         -2    1    3    3    0  502  0.46958006522E+02 -0.13923718660E+02 -0.22628970511E+02  0.53953634023E+02  0.00000000000E+00 0.  1.
         13    1    5    5    0    0 -0.19765348294E+03  0.84894200436E+02 -0.14145669547E+02  0.21557834899E+03  0.00000000000E+00 0.  1.
        -13    1    5    5    0    0 -0.17999430960E+03  0.11447896080E+03  0.71735555345E+02  0.22505415760E+03  0.00000000000E+00 0. -1.
          1    1    6    6  503    0 -0.39880298749E+02 -0.56609026522E+02 -0.22536126150E+03  0.23575987423E+03  0.00000000000E+00 0. -1.
         -1    1    6    6    0  503  0.57972086076E+01 -0.32600691702E+02 -0.55623370289E+03  0.55721839969E+03  0.00000000000E+00 0.  1.
<mgrwt>
<rscale>  0 0.14451707E+04</rscale>
<asrwt>0</asrwt>
<pdfrwt beam="1">  1        1 0.23783256E+00 0.14451707E+04</pdfrwt>
<pdfrwt beam="2">  1       -2 0.51961331E-01 0.14451707E+04</pdfrwt>
<totfact> 0.18128347E+01</totfact>
</mgrwt>
</event>
<event>
12    5  0.5095719E-008  0.1308252E+04  0.7818608E-02  0.9023046E-01
         -2   -1    0    0    0  501 -0.00000000000E+00  0.00000000000E+00  0.13886951859E+04  0.13886951859E+04  0.00000000000E+00 0.  1.
          1   -1    0    0  501    0  0.00000000000E+00 -0.00000000000E+00 -0.30811732442E+03  0.30811732442E+03  0.00000000000E+00 0. -1.
        -24    2    1    2    0    0 -0.71336605351E+02 -0.24418627620E+03  0.13792549162E+01  0.26698297951E+03  0.81007161765E+02 0.  0.
        254    2    1    2    0    0  0.71336605351E+02  0.24418627620E+03  0.10791986065E+04  0.14298295308E+04  0.90278846139E+03 0.  0.
         23    2    4    4    0    0  0.10097925276E+03 -0.10632517438E+03 -0.96468086025E+02  0.19930261589E+03  0.94411804792E+02 0.  0.
         23    2    4    4    0    0 -0.29642647406E+02  0.35051145058E+03  0.11756666926E+04  0.12305269149E+04  0.90924984314E+02 0.  0.
          1    1    3    3  502    0 -0.79142860340E+02 -0.13094360595E+03  0.85828609737E+01  0.15324322427E+03  0.00000000000E+00 0. -1.
         -2    1    3    3    0  502  0.78062549889E+01 -0.11324267025E+03 -0.72036060575E+01  0.11373975524E+03  0.00000000000E+00 0.  1.
         13    1    5    5    0    0  0.20770888984E+02  0.97132911812E+01  0.74350070023E+01  0.24105127751E+02  0.00000000000E+00 0. -1.
        -13    1    5    5    0    0  0.80208363773E+02 -0.11603846556E+03 -0.10390309303E+03  0.17519748814E+03  0.00000000000E+00 0.  1.
          4    1    6    6  503    0 -0.15182579174E+02  0.16264895766E+03  0.70210621337E+03  0.72085943775E+03  0.00000000000E+00 0. -1.
         -4    1    6    6    0  503 -0.14460068233E+02  0.18786249291E+03  0.47356047920E+03  0.50966747716E+03  0.00000000000E+00 0.  1.
<mgrwt>
<rscale>  0 0.13082523E+04</rscale>
<asrwt>0</asrwt>
<pdfrwt beam="1">  1        1 0.47402666E-01 0.13082523E+04</pdfrwt>
<pdfrwt beam="2">  1       -2 0.21364541E+00 0.13082523E+04</pdfrwt>
<totfact> 0.78714202E+00</totfact>
</mgrwt>
</event>
<event>
12    5  0.5095719E-008  0.2878357E+04  0.7818608E-02  0.8279346E-01
          1   -1    0    0  501    0  0.00000000000E+00  0.00000000000E+00  0.23017293443E+04  0.23017293443E+04  0.00000000000E+00 0. -1.
         -2   -1    0    0    0  501 -0.00000000000E+00 -0.00000000000E+00 -0.89986031974E+03  0.89986031974E+03  0.00000000000E+00 0.  1.
        -24    2    1    2    0    0 -0.98874596145E+03  0.33666597744E+03 -0.22175417903E+03  0.10708061709E+04  0.80550500661E+02 0.  0.
        254    2    1    2    0    0  0.98874596145E+03 -0.33666597744E+03  0.16236232036E+04  0.21307834931E+04  0.90173356960E+03 0.  0.
         23    2    4    4    0    0  0.68712031329E+03 -0.50018952758E+03  0.15478002941E+04  0.17680686410E+04  0.89761241822E+02 0.  0.
         23    2    4    4    0    0  0.30162564817E+03  0.16352355014E+03  0.75822909476E+02  0.36271485205E+03  0.89972035748E+02 0.  0.
          1    1    3    3  502    0 -0.15777766093E+03  0.75288935278E+02 -0.14747722225E+02  0.17544146994E+03  0.00000000000E+00 0. -1.
         -2    1    3    3    0  502 -0.83096830052E+03  0.26137704217E+03 -0.20700645681E+03  0.89536470100E+03  0.00000000000E+00 0.  1.
         13    1    5    5    0    0  0.35786631864E+02 -0.51246661397E+01  0.76269784015E+02  0.84403940530E+02  0.00000000000E+00 0. -1.
        -13    1    5    5    0    0  0.65133368142E+03 -0.49506486145E+03  0.14715305101E+04  0.16836647005E+04  0.00000000000E+00 0.  1.
          1    1    6    6  503    0  0.12801372487E+01  0.12647338779E+02  0.17422871233E+02  0.21567345028E+02  0.00000000000E+00 0. -1.
         -1    1    6    6    0  503  0.30034551092E+03  0.15087621136E+03  0.58400038243E+02  0.34114750702E+03  0.00000000000E+00 0.  1.
<mgrwt>
<rscale>  0 0.28783571E+04</rscale>
<asrwt>0</asrwt>
<pdfrwt beam="1">  1        1 0.35411220E+00 0.28783571E+04</pdfrwt>
<pdfrwt beam="2">  1       -2 0.13844005E+00 0.28783571E+04</pdfrwt>
<totfact> 0.51894736E-01</totfact>
</mgrwt>
</event>
<event>
12    5  0.5095719E-008  0.3004420E+04  0.7818608E-02  0.8242470E-01
          1   -1    0    0  501    0  0.00000000000E+00  0.00000000000E+00  0.17073041146E+04  0.17073041146E+04  0.00000000000E+00 0. -1.
         -2   -1    0    0    0  501 -0.00000000000E+00 -0.00000000000E+00 -0.13217532834E+04  0.13217532834E+04  0.00000000000E+00 0.  1.
        -24    2    1    2    0    0  0.11155081340E+04  0.58293134595E+03  0.70719099500E+03  0.14459135167E+04  0.79871416841E+02 0.  0.
        254    2    1    2    0    0 -0.11155081340E+04 -0.58293134595E+03 -0.32164016387E+03  0.15831438813E+04  0.90483413003E+03 0.  0.
         23    2    4    4    0    0 -0.48952636680E+03  0.18544184728E+03  0.18322275272E+02  0.53138845825E+03  0.89516731787E+02 0.  0.
         23    2    4    4    0    0 -0.62598176716E+03 -0.76837319323E+03 -0.33996243914E+03  0.10517554231E+04  0.91457492942E+02 0.  0.
          3    1    3    3  502    0  0.96175134390E+03  0.47117158973E+03  0.59340465364E+03  0.12243763300E+04  0.00000000000E+00 0. -1.
         -4    1    3    3    0  502  0.15375679006E+03  0.11175975623E+03  0.11378634137E+03  0.22153718668E+03  0.00000000000E+00 0.  1.
         13    1    5    5    0    0  0.19977346393E+01 -0.54736740454E+00  0.53009939991E+01  0.56913172590E+01  0.00000000000E+00 0. -1.
        -13    1    5    5    0    0 -0.49152410144E+03  0.18598921468E+03  0.13021281272E+02  0.52569714099E+03  0.00000000000E+00 0.  1.
          1    1    6    6  503    0 -0.49147292153E+03 -0.63456133639E+03 -0.24254830367E+03  0.83847683441E+03  0.00000000000E+00 0.  1.
         -1    1    6    6    0  503 -0.13450884563E+03 -0.13381185684E+03 -0.97414135479E+02  0.21327858865E+03  0.00000000000E+00 0. -1.
<mgrwt>
<rscale>  0 0.30044200E+04</rscale>
<asrwt>0</asrwt>
<pdfrwt beam="1">  1        1 0.26266217E+00 0.30044200E+04</pdfrwt>
<pdfrwt beam="2">  1       -2 0.20334666E+00 0.30044200E+04</pdfrwt>
<totfact> 0.44539525E-01</totfact>
</mgrwt>
</event>
<event>
12    5  0.5095719E-008  0.2691178E+04  0.7818608E-02  0.8337873E-01
         -2   -1    0    0    0  501 -0.00000000000E+00  0.00000000000E+00  0.14911560437E+04  0.14911560437E+04  0.00000000000E+00 0.  1.
          1   -1    0    0  501    0  0.00000000000E+00 -0.00000000000E+00 -0.12142320545E+04  0.12142320545E+04  0.00000000000E+00 0. -1.
        -24    2    1    2    0    0 -0.10376589843E+04  0.28787312412E+03 -0.40818731433E+03  0.11546422362E+04  0.83514709909E+02 0.  0.
        254    2    1    2    0    0  0.10376589843E+04 -0.28787312412E+03  0.68511130355E+03  0.15507458619E+04  0.88081106194E+03 0.  0.
         23    2    4    4    0    0 -0.64264230781E+02  0.14844925707E+03  0.12938262537E+02  0.18521420071E+03  0.89273894407E+02 0.  0.
         23    2    4    4    0    0  0.11019232151E+04 -0.43632238119E+03  0.67217304101E+03  0.13655316612E+04  0.90819208048E+02 0.  0.
          1    1    3    3  502    0 -0.54406989664E+03  0.19374299213E+03 -0.21204547901E+03  0.61523303275E+03  0.00000000000E+00 0. -1.
         -2    1    3    3    0  502 -0.49358908764E+03  0.94130131990E+02 -0.19614183532E+03  0.53940920343E+03  0.00000000000E+00 0.  1.
         13    1    5    5    0    0  0.19905809177E+02  0.55216590150E+02  0.10222411759E+02  0.59578609995E+02  0.00000000000E+00 0.  1.
        -13    1    5    5    0    0 -0.84170039957E+02  0.93232666924E+02  0.27158507779E+01  0.12563559071E+03  0.00000000000E+00 0. -1.
          3    1    6    6  503    0  0.10185158883E+04 -0.41938778416E+03  0.64374096203E+03  0.12757990259E+04  0.00000000000E+00 0. -1.
         -3    1    6    6    0  503  0.83407326743E+02 -0.16934597029E+02  0.28432078981E+02  0.89732635346E+02  0.00000000000E+00 0.  1.
<mgrwt>
<rscale>  0 0.26911778E+04</rscale>
<asrwt>0</asrwt>
<pdfrwt beam="1">  1        1 0.18680493E+00 0.26911778E+04</pdfrwt>
<pdfrwt beam="2">  1       -2 0.22940862E+00 0.26911778E+04</pdfrwt>
<totfact> 0.68988063E-01</totfact>
</mgrwt>
</event>
<event>
12    5  0.5095719E-008  0.5912785E+04  0.7818608E-02  0.7701310E-01
          1   -1    0    0  501    0  0.00000000000E+00  0.00000000000E+00  0.32988719931E+04  0.32988719931E+04  0.00000000000E+00 0. -1.
         -2   -1    0    0    0  501 -0.00000000000E+00 -0.00000000000E+00 -0.26494682377E+04  0.26494682377E+04  0.00000000000E+00 0.  1.
        -24    2    1    2    0    0 -0.26247980281E+04  0.56743207267E+03 -0.74237182340E+03  0.27873080769E+04  0.80165740787E+02 0.  0.
        254    2    1    2    0    0  0.26247980281E+04 -0.56743207267E+03  0.13917755788E+04  0.31610321539E+04  0.91844497439E+03 0.  0.
         23    2    4    4    0    0  0.84867873805E+03 -0.18919385753E+03  0.94776806228E+03  0.12892455106E+04  0.88542478819E+02 0.  0.
         23    2    4    4    0    0  0.17761192900E+04 -0.37823821514E+03  0.44400751652E+03  0.18717866433E+04  0.93694629355E+02 0.  0.
          1    1    3    3  502    0 -0.83524320421E+03  0.20732193657E+03 -0.26566123528E+03  0.90066058396E+03  0.00000000000E+00 0. -1.
         -2    1    3    3    0  502 -0.17895548239E+04  0.36011013610E+03 -0.47671058813E+03  0.18866474929E+04  0.00000000000E+00 0.  1.
         13    1    5    5    0    0  0.33771014502E+03 -0.97355892873E+02  0.43896908753E+03  0.56233457277E+03  0.00000000000E+00 0. -1.
        -13    1    5    5    0    0  0.51096859303E+03 -0.91837964657E+02  0.50879897475E+03  0.72691093782E+03  0.00000000000E+00 0.  1.
          2    1    6    6  503    0  0.73331491537E+03 -0.13194921513E+03  0.22288781843E+03  0.77771481925E+03  0.00000000000E+00 0. -1.
         -2    1    6    6    0  503  0.10428043746E+04 -0.24628900001E+03  0.22111969809E+03  0.10940718241E+04  0.00000000000E+00 0.  1.
<mgrwt>
<rscale>  0 0.59127850E+04</rscale>
<asrwt>0</asrwt>
<pdfrwt beam="1">  1        1 0.50751877E+00 0.59127850E+04</pdfrwt>
<pdfrwt beam="2">  1       -2 0.40761050E+00 0.59127850E+04</pdfrwt>
<totfact> 0.14010784E-03</totfact>
</mgrwt>
</event>
<event>
12    5  0.5095719E-008  0.1377939E+04  0.7818608E-02  0.8969944E-01
          1   -1    0    0  501    0  0.00000000000E+00  0.00000000000E+00  0.16640366357E+04  0.16640366357E+04  0.00000000000E+00 0. -1.
         -2   -1    0    0    0  501 -0.00000000000E+00 -0.00000000000E+00 -0.28525749800E+03  0.28525749800E+03  0.00000000000E+00 0.  1.
        -24    2    1    2    0    0 -0.22325167248E+03  0.32560757810E+03  0.33142774283E+03  0.52160671053E+03  0.79797290460E+02 0.  0.
        254    2    1    2    0    0  0.22325167248E+03 -0.32560757810E+03  0.10473513948E+04  0.14276874232E+04  0.88627582037E+03 0.  0.
         23    2    4    4    0    0  0.47232819616E+03 -0.42006438538E+03  0.49442029299E+03  0.80767982462E+03  0.91363341827E+02 0.  0.
         23    2    4    4    0    0 -0.24907652367E+03  0.94456807273E+02  0.55293110186E+03  0.62000759854E+03  0.87837439411E+02 0.  0.
          1    1    3    3  502    0 -0.75209221653E+02  0.73031313270E+02  0.52516077225E+02  0.11725160172E+03  0.00000000000E+00 0. -1.
         -2    1    3    3    0  502 -0.14804245083E+03  0.25257626483E+03  0.27891166561E+03  0.40435510881E+03  0.00000000000E+00 0.  1.
         13    1    5    5    0    0  0.42269472925E+03 -0.38365645774E+03  0.40835180779E+03  0.70186488061E+03  0.00000000000E+00 0.  1.
        -13    1    5    5    0    0  0.49633466903E+02 -0.36407927635E+02  0.86068485198E+02  0.10581494401E+03  0.00000000000E+00 0. -1.
          4    1    6    6  503    0 -0.23325972296E+03  0.65244252771E+02  0.43963918642E+03  0.50194573921E+03  0.00000000000E+00 0.  1.
         -4    1    6    6    0  503 -0.15816800715E+02  0.29212554502E+02  0.11329191544E+03  0.11806185934E+03  0.00000000000E+00 0. -1.
<mgrwt>
<rscale>  0 0.13779389E+04</rscale>
<asrwt>0</asrwt>
<pdfrwt beam="1">  1        1 0.25600563E+00 0.13779389E+04</pdfrwt>
<pdfrwt beam="2">  1       -2 0.43885770E-01 0.13779389E+04</pdfrwt>
<totfact> 0.21289904E+01</totfact>
</mgrwt>
</event>
<event>
12    5  0.5095719E-008  0.1228545E+04  0.7818608E-02  0.9088231E-01
         -4   -1    0    0    0  501 -0.00000000000E+00  0.00000000000E+00  0.73921800565E+03  0.73921800565E+03  0.00000000000E+00 0.  1.
          1   -1    0    0  501    0  0.00000000000E+00 -0.00000000000E+00 -0.51044603833E+03  0.51044603833E+03  0.00000000000E+00 0. -1.
        -24    2    1    2    0    0  0.40062263525E+02  0.21901080973E+03  0.22870651591E+03  0.32874597634E+03  0.78718020813E+02 0.  0.
        254    2    1    2    0    0 -0.40062263525E+02 -0.21901080973E+03  0.65451411646E-01  0.92091806765E+03  0.89359910659E+03 0.  0.
         23    2    4    4    0    0 -0.37148367792E+03 -0.22160291003E+03 -0.23791123840E+03  0.50294972991E+03  0.96170165693E+02 0.  0.
         23    2    4    4    0    0  0.33142141439E+03  0.25921002993E+01  0.23797668982E+03  0.41796833774E+03  0.90651825983E+02 0.  0.
          3    1    3    3  502    0 -0.13125794565E+02  0.29122161940E+01  0.10371572310E+02  0.16980488753E+02  0.00000000000E+00 0. -1.
         -4    1    3    3    0  502  0.53188058090E+02  0.21609859353E+03  0.21833494360E+03  0.31176548758E+03  0.00000000000E+00 0.  1.
         13    1    5    5    0    0 -0.17695853506E+03 -0.15760901812E+03 -0.10786133262E+03  0.26036319401E+03  0.00000000000E+00 0. -1.
        -13    1    5    5    0    0 -0.19452514285E+03 -0.63993891910E+02 -0.13004990579E+03  0.24258653590E+03  0.00000000000E+00 0.  1.
          4    1    6    6  503    0  0.33247667534E+02  0.12548975314E+02 -0.12514339589E+01  0.35559109449E+02  0.00000000000E+00 0. -1.
         -4    1    6    6    0  503  0.29817374686E+03 -0.99568750143E+01  0.23922812377E+03  0.38240922829E+03  0.00000000000E+00 0.  1.
<mgrwt>
<rscale>  0 0.12285453E+04</rscale>
<asrwt>0</asrwt>
<pdfrwt beam="1">  1        1 0.78530159E-01 0.12285453E+04</pdfrwt>
<pdfrwt beam="2">  1       -4 0.11372585E+00 0.12285453E+04</pdfrwt>
<totfact> 0.12343031E+01</totfact>
</mgrwt>
</event>
<event>
12    5  0.5095719E-008  0.2095387E+04  0.7818608E-02  0.8563278E-01
         -2   -1    0    0    0  501 -0.00000000000E+00  0.00000000000E+00  0.39847806229E+03  0.39847806229E+03  0.00000000000E+00 0.  1.
          1   -1    0    0  501    0  0.00000000000E+00 -0.00000000000E+00 -0.27546354579E+04  0.27546354579E+04  0.00000000000E+00 0. -1.
        -24    2    1    2    0    0  0.52665084435E+03  0.63976062317E+03 -0.12873981103E+04  0.15329434455E+04  0.76595990744E+02 0.  0.
        254    2    1    2    0    0 -0.52665084435E+03 -0.63976062317E+03 -0.10687592853E+04  0.16201700747E+04  0.89221628224E+03 0.  0.
         23    2    4    4    0    0 -0.43844023951E+03  0.10616418179E+03 -0.37400814870E+03  0.59273860648E+03  0.89197999949E+02 0.  0.
         23    2    4    4    0    0 -0.88210604843E+02 -0.74592480496E+03 -0.69475113663E+03  0.10274314683E+04  0.93548675444E+02 0.  0.
          3    1    3    3  502    0  0.49726401526E+03  0.57416535639E+03 -0.11933317672E+04  0.14145593180E+04  0.00000000000E+00 0. -1.
         -4    1    3    3    0  502  0.29386829094E+02  0.65595266777E+02 -0.94066343052E+02  0.11838412750E+03  0.00000000000E+00 0.  1.
         13    1    5    5    0    0 -0.32056037457E+03  0.90952270489E+02 -0.22469466804E+03  0.40189421879E+03  0.00000000000E+00 0. -1.
        -13    1    5    5    0    0 -0.11787986494E+03  0.15211911303E+02 -0.14931348066E+03  0.19084438768E+03  0.00000000000E+00 0.  1.
          2    1    6    6  503    0 -0.70743549538E+02 -0.51374141036E+03 -0.42033721125E+03  0.66754644609E+03  0.00000000000E+00 0. -1.
         -2    1    6    6    0  503 -0.17467055305E+02 -0.23218339460E+03 -0.27441392538E+03  0.35988502218E+03  0.00000000000E+00 0.  1.
<mgrwt>
<rscale>  0 0.20953871E+04</rscale>
<asrwt>0</asrwt>
<pdfrwt beam="1">  1        1 0.42379006E+00 0.20953871E+04</pdfrwt>
<pdfrwt beam="2">  1       -2 0.61304318E-01 0.20953871E+04</pdfrwt>
<totfact> 0.17970562E+00</totfact>
</mgrwt>
</event>
<event>
12    5  0.5095719E-008  0.1955980E+04  0.7818608E-02  0.8627482E-01
          1   -1    0    0  501    0  0.00000000000E+00  0.00000000000E+00  0.27511241464E+04  0.27511241464E+04  0.00000000000E+00 0. -1.
         -2   -1    0    0    0  501 -0.00000000000E+00 -0.00000000000E+00 -0.34766322173E+03  0.34766322173E+03  0.00000000000E+00 0.  1.
        -24    2    1    2    0    0 -0.46198781851E+02  0.26215616411E+03 -0.19298857027E+03  0.33804247085E+03  0.78536246513E+02 0.  0.
        254    2    1    2    0    0  0.46198781851E+02 -0.26215616411E+03  0.25964494949E+04  0.27607448973E+04  0.89961226443E+03 0.  0.
         23    2    4    4    0    0 -0.45247872036E+02  0.15758771703E+03  0.75960593386E+02  0.20225856976E+03  0.90869460273E+02 0.  0.
         23    2    4    4    0    0  0.91446653886E+02 -0.41974388114E+03  0.25204889015E+04  0.25584863275E+04  0.91872569670E+02 0.  0.
          3    1    3    3  502    0  0.16604306553E+02  0.16014583612E+02 -0.11028449793E+02  0.25569446400E+02  0.00000000000E+00 0. -1.
         -4    1    3    3    0  502 -0.62803088404E+02  0.24614158050E+03 -0.18196012047E+03  0.31247302445E+03  0.00000000000E+00 0.  1.
         13    1    5    5    0    0 -0.22073856682E+02  0.14651276176E+03  0.89626204001E+02  0.17316495301E+03  0.00000000000E+00 0. -1.
        -13    1    5    5    0    0 -0.23174015354E+02  0.11074955267E+02 -0.13665610616E+02  0.29093616744E+02  0.00000000000E+00 0.  1.
          2    1    6    6  503    0  0.90629614161E+02 -0.36289363598E+03  0.19804024863E+04  0.20154154722E+04  0.00000000000E+00 0. -1.
         -2    1    6    6    0  503  0.81703972501E+00 -0.56850245164E+02  0.54008641525E+03  0.54307085529E+03  0.00000000000E+00 0.  1.
<mgrwt>
<rscale>  0 0.19559802E+04</rscale>
<asrwt>0</asrwt>
<pdfrwt beam="1">  1        1 0.42324985E+00 0.19559802E+04</pdfrwt>
<pdfrwt beam="2">  1       -2 0.53486651E-01 0.19559802E+04</pdfrwt>
<totfact> 0.24361617E+00</totfact>
</mgrwt>
</event>
<event>
12    5  0.5095719E-008  0.2379853E+04  0.7818608E-02  0.8447085E-01
          1   -1    0    0  501    0  0.00000000000E+00  0.00000000000E+00  0.85128525951E+03  0.85128525951E+03  0.00000000000E+00 0. -1.
         -2   -1    0    0    0  501 -0.00000000000E+00 -0.00000000000E+00 -0.16632797412E+04  0.16632797412E+04  0.00000000000E+00 0.  1.
        -24    2    1    2    0    0  0.22275747685E+03  0.72863481123E+03  0.36694985907E+03  0.84928984346E+03  0.78175811453E+02 0.  0.
        254    2    1    2    0    0 -0.22275747685E+03 -0.72863481123E+03 -0.11789443408E+04  0.16652751573E+04  0.89593638678E+03 0.  0.
         23    2    4    4    0    0 -0.11951940388E+03 -0.92331675626E+03 -0.89342885423E+03  0.12932390387E+04  0.86332920896E+02 0.  0.
         23    2    4    4    0    0 -0.10323807297E+03  0.19468194503E+03 -0.28551548653E+03  0.37203611861E+03  0.91283191595E+02 0.  0.
          1    1    3    3  502    0  0.18725924470E+03  0.53925234324E+03  0.30300997129E+03  0.64627715194E+03  0.00000000000E+00 0. -1.
         -2    1    3    3    0  502  0.35498232148E+02  0.18938246799E+03  0.63939887779E+02  0.20301269152E+03  0.00000000000E+00 0.  1.
         13    1    5    5    0    0 -0.11202767144E+03 -0.88468084234E+03 -0.82796041330E+03  0.12168520198E+04  0.00000000000E+00 0. -1.
        -13    1    5    5    0    0 -0.74917324378E+01 -0.38635913920E+02 -0.65468440931E+02  0.76387018906E+02  0.00000000000E+00 0.  1.
          2    1    6    6  503    0 -0.48881292242E+02  0.15999030547E+03 -0.16291407937E+03  0.23351076171E+03  0.00000000000E+00 0. -1.
         -2    1    6    6    0  503 -0.54356780728E+02  0.34691639558E+02 -0.12260140716E+03  0.13852535690E+03  0.00000000000E+00 0.  1.
<mgrwt>
<rscale>  0 0.23798534E+04</rscale>
<asrwt>0</asrwt>
<pdfrwt beam="1">  1        1 0.13096696E+00 0.23798534E+04</pdfrwt>
<pdfrwt beam="2">  1       -2 0.25588919E+00 0.23798534E+04</pdfrwt>
<totfact> 0.92950092E-01</totfact>
</mgrwt>
</event>
<event>
12    5  0.5095719E-008  0.1295904E+04  0.7818608E-02  0.9032820E-01
         -2   -1    0    0    0  501 -0.00000000000E+00  0.00000000000E+00  0.11525015874E+04  0.11525015874E+04  0.00000000000E+00 0.  1.
          1   -1    0    0  501    0  0.00000000000E+00 -0.00000000000E+00 -0.36428722214E+03  0.36428722214E+03  0.00000000000E+00 0. -1.
        -24    2    1    2    0    0  0.19276793440E+03 -0.26009774136E+02  0.51278757372E+03  0.55424352299E+03  0.79992513022E+02 0.  0.
        254    2    1    2    0    0 -0.19276793440E+03  0.26009774136E+02  0.27542679151E+03  0.96254528652E+03  0.90155284162E+03 0.  0.
         23    2    4    4    0    0  0.13598382313E+03  0.10365918075E+03 -0.25806965880E+03  0.32352353981E+03  0.93971836782E+02 0.  0.
         23    2    4    4    0    0 -0.32875175753E+03 -0.77649406612E+02  0.53349645031E+03  0.63902174671E+03  0.98097817726E+02 0.  0.
          1    1    3    3  502    0  0.16917368919E+02  0.12392650815E+02  0.12464489266E+03  0.12639669470E+03  0.00000000000E+00 0. -1.
         -2    1    3    3    0  502  0.17585056548E+03 -0.38402424952E+02  0.38814268106E+03  0.42784682830E+03  0.00000000000E+00 0.  1.
         13    1    5    5    0    0  0.10471625260E+03  0.75752322025E+02 -0.24914663368E+03  0.28067410448E+03  0.00000000000E+00 0. -1.
        -13    1    5    5    0    0  0.31267570527E+02  0.27906858724E+02 -0.89230251220E+01  0.42849435327E+02  0.00000000000E+00 0.  1.
          1    1    6    6  503    0 -0.28740242799E+03 -0.10054435313E+03  0.46047430882E+03  0.55203796214E+03  0.00000000000E+00 0. -1.
         -1    1    6    6    0  503 -0.41349329542E+02  0.22894946518E+02  0.73022141496E+02  0.86983784571E+02  0.00000000000E+00 0.  1.
<mgrwt>
<rscale>  0 0.12959037E+04</rscale>
<asrwt>0</asrwt>
<pdfrwt beam="1">  1        1 0.56044188E-01 0.12959037E+04</pdfrwt>
<pdfrwt beam="2">  1       -2 0.17730794E+00 0.12959037E+04</pdfrwt>
<totfact> 0.11027342E+01</totfact>
</mgrwt>
</event>
<event>
12    5  0.5095719E-008  0.1296908E+04  0.7818608E-02  0.9032021E-01
          1   -1    0    0  501    0  0.00000000000E+00  0.00000000000E+00  0.13933738588E+04  0.13933738588E+04  0.00000000000E+00 0. -1.
         -2   -1    0    0    0  501 -0.00000000000E+00 -0.00000000000E+00 -0.30177998075E+03  0.30177998075E+03  0.00000000000E+00 0.  1.
        -24    2    1    2    0    0 -0.22487775794E+03 -0.74184484541E+01 -0.29526314591E+02  0.24036916052E+03  0.79249546909E+02 0.  0.
        254    2    1    2    0    0  0.22487775794E+03  0.74184484541E+01  0.11211201927E+04  0.14547846791E+04  0.89936807628E+03 0.  0.
         23    2    4    4    0    0 -0.29129761827E+03 -0.18983420192E+03  0.34180496466E+03  0.49583878409E+03  0.90189463409E+02 0.  0.
         23    2    4    4    0    0  0.51617537620E+03  0.19725265038E+03  0.77931522801E+03  0.95894589498E+03  0.83062493336E+02 0.  0.
          1    1    3    3  502    0 -0.15888598428E+03  0.30395116982E+02 -0.11320357671E+02  0.16216278746E+03  0.00000000000E+00 0. -1.
         -2    1    3    3    0  502 -0.65991773653E+02 -0.37813565436E+02 -0.18205956919E+02  0.78206373066E+02  0.00000000000E+00 0.  1.
         13    1    5    5    0    0 -0.10884040272E+03 -0.12171719897E+03  0.13613930890E+03  0.21259167721E+03  0.00000000000E+00 0.  1.
        -13    1    5    5    0    0 -0.18245721555E+03 -0.68117002949E+02  0.20566565575E+03  0.28324710687E+03  0.00000000000E+00 0. -1.
          1    1    6    6  503    0  0.29934434799E+03  0.91548025518E+02  0.37887277070E+03  0.49145971964E+03  0.00000000000E+00 0. -1.
         -1    1    6    6    0  503  0.21683102821E+03  0.10570462486E+03  0.40044245731E+03  0.46748617534E+03  0.00000000000E+00 0.  1.
<mgrwt>
<rscale>  0 0.12969076E+04</rscale>
<asrwt>0</asrwt>
<pdfrwt beam="1">  1        1 0.21436521E+00 0.12969076E+04</pdfrwt>
<pdfrwt beam="2">  1       -2 0.46427690E-01 0.12969076E+04</pdfrwt>
<totfact> 0.29446288E+01</totfact>
</mgrwt>
</event>
<event>
12    5  0.5095719E-008  0.2118489E+04  0.7818608E-02  0.8553142E-01
         -2   -1    0    0    0  501 -0.00000000000E+00  0.00000000000E+00  0.31881462249E+03  0.31881462249E+03  0.00000000000E+00 0.  1.
          1   -1    0    0  501    0  0.00000000000E+00 -0.00000000000E+00 -0.35192824219E+04  0.35192824219E+04  0.00000000000E+00 0. -1.
        -24    2    1    2    0    0 -0.26961533599E+03  0.82248787732E+03 -0.13287230467E+04  0.15878112633E+04  0.80379941734E+02 0.  0.
        254    2    1    2    0    0  0.26961533599E+03 -0.82248787732E+03 -0.18717447527E+04  0.22502857812E+04  0.90065472849E+03 0.  0.
         23    2    4    4    0    0  0.27310886761E+03 -0.14612271454E+03 -0.80166679136E+02  0.33308325086E+03  0.92614546852E+02 0.  0.
         23    2    4    4    0    0 -0.34935316231E+01 -0.67636516278E+03 -0.17915780735E+04  0.19172025303E+04  0.91823256144E+02 0.  0.
          3    1    3    3  502    0 -0.15810822393E+02  0.10991655311E+03 -0.13788627733E+03  0.17704309144E+03  0.00000000000E+00 0. -1.
         -4    1    3    3    0  502 -0.25380451360E+03  0.71257132421E+03 -0.11908367694E+04  0.14107681718E+04  0.00000000000E+00 0.  1.
         13    1    5    5    0    0  0.26682159287E+03 -0.13034626136E+03 -0.53908036971E+02  0.30181117727E+03  0.00000000000E+00 0. -1.
        -13    1    5    5    0    0  0.62872747400E+01 -0.15776453185E+02 -0.26258642165E+02  0.31272073598E+02  0.00000000000E+00 0.  1.
          1    1    6    6  503    0  0.33792745209E+02 -0.15220068422E+03 -0.45902526125E+03  0.48477952553E+03  0.00000000000E+00 0.  1.
         -1    1    6    6    0  503 -0.37286276832E+02 -0.52416447856E+03 -0.13325528123E+04  0.14324230048E+04  0.00000000000E+00 0. -1.
<mgrwt>
<rscale>  0 0.21184888E+04</rscale>
<asrwt>0</asrwt>
<pdfrwt beam="1">  1        1 0.54142804E+00 0.21184888E+04</pdfrwt>
<pdfrwt beam="2">  1       -2 0.49048406E-01 0.21184888E+04</pdfrwt>
<totfact> 0.76882645E-01</totfact>
</mgrwt>
</event>
<event>
12    5  0.5095719E-008  0.2083206E+04  0.7818608E-02  0.8568678E-01
         -2   -1    0    0    0  501 -0.00000000000E+00  0.00000000000E+00  0.32926656743E+03  0.32926656743E+03  0.00000000000E+00 0.  1.
          1   -1    0    0  501    0  0.00000000000E+00 -0.00000000000E+00 -0.32950097395E+04  0.32950097395E+04  0.00000000000E+00 0. -1.
        -24    2    1    2    0    0 -0.20087183769E+03 -0.80102559005E+03 -0.15271927221E+04  0.17379967462E+04  0.79520992530E+02 0.  0.
        254    2    1    2    0    0  0.20087183769E+03  0.80102559005E+03 -0.14385504500E+04  0.18862795608E+04  0.89812676892E+03 0.  0.
         23    2    4    4    0    0 -0.29251436218E+02  0.58510794465E+03 -0.23602020339E+03  0.63975212461E+03  0.10183462639E+03 0.  0.
         23    2    4    4    0    0  0.23012327391E+03  0.21591764541E+03 -0.12025302467E+04  0.12465274362E+04  0.90412964949E+02 0.  0.
          1    1    3    3  502    0 -0.60012602349E+02 -0.30952895306E+03 -0.51128438093E+03  0.60068411283E+03  0.00000000000E+00 0. -1.
         -4    1    3    3    0  502 -0.14085923535E+03 -0.49149663700E+03 -0.10159083411E+04  0.11373126333E+04  0.00000000000E+00 0.  1.
         13    1    5    5    0    0  0.28801306725E+02  0.32378614814E+03 -0.15456846103E+03  0.35994220945E+03  0.00000000000E+00 0. -1.
        -13    1    5    5    0    0 -0.58052742943E+02  0.26132179651E+03 -0.81451742357E+02  0.27980991517E+03  0.00000000000E+00 0.  1.
          1    1    6    6  503    0  0.10659129921E+03  0.42205904920E+02 -0.45237157990E+03  0.46667235806E+03  0.00000000000E+00 0. -1.
         -1    1    6    6    0  503  0.12353197470E+03  0.17371174049E+03 -0.75015866677E+03  0.77985507813E+03  0.00000000000E+00 0.  1.
<mgrwt>
<rscale>  0 0.20832057E+04</rscale>
<asrwt>0</asrwt>
<pdfrwt beam="1">  1        1 0.50692456E+00 0.20832057E+04</pdfrwt>
<pdfrwt beam="2">  1       -2 0.50656397E-01 0.20832057E+04</pdfrwt>
<totfact> 0.10771207E+00</totfact>
</mgrwt>
</event>
<event>
12    5  0.5095719E-008  0.1087634E+04  0.7818608E-02  0.9217329E-01
          1   -1    0    0  501    0  0.00000000000E+00  0.00000000000E+00  0.19094934871E+03  0.19094934871E+03  0.00000000000E+00 0. -1.
         -2   -1    0    0    0  501 -0.00000000000E+00 -0.00000000000E+00 -0.15487728446E+04  0.15487728446E+04  0.00000000000E+00 0.  1.
        -24    2    1    2    0    0 -0.39862667043E+01 -0.18871522992E+03 -0.30045641067E+03  0.36412615875E+03  0.81758647549E+02 0.  0.
        254    2    1    2    0    0  0.39862667043E+01  0.18871522992E+03 -0.10573670852E+04  0.13755960345E+04  0.85942420785E+03 0.  0.
         23    2    4    4    0    0  0.17752261332E+02  0.41899116221E+03 -0.18241258940E+03  0.46625034708E+03  0.90809121716E+02 0.  0.
         23    2    4    4    0    0 -0.13765994627E+02 -0.23027593230E+03 -0.87495449578E+03  0.90934568744E+03  0.90264621947E+02 0.  0.
          1    1    3    3  502    0 -0.20861142732E+00 -0.60853464914E+02 -0.36900198499E+02  0.71167495109E+02  0.00000000000E+00 0. -1.
         -2    1    3    3    0  502 -0.37776552770E+01 -0.12786176500E+03 -0.26355621217E+03  0.29295866364E+03  0.00000000000E+00 0.  1.
         13    1    5    5    0    0  0.61626122216E+00  0.14556940177E+03 -0.17836496410E+02  0.14665937104E+03  0.00000000000E+00 0.  1.
        -13    1    5    5    0    0  0.17136000109E+02  0.27342176045E+03 -0.16457609299E+03  0.31959097604E+03  0.00000000000E+00 0. -1.
          1    1    6    6  503    0 -0.23875451495E+01 -0.46822263430E+02 -0.74231695681E+02  0.87797319823E+02  0.00000000000E+00 0.  1.
         -1    1    6    6    0  503 -0.11378449478E+02 -0.18345366887E+03 -0.80072280010E+03  0.82154836762E+03  0.00000000000E+00 0. -1.
<mgrwt>
<rscale>  0 0.10876344E+04</rscale>
<asrwt>0</asrwt>
<pdfrwt beam="1">  1        1 0.29376823E-01 0.10876344E+04</pdfrwt>
<pdfrwt beam="2">  1       -2 0.23827274E+00 0.10876344E+04</pdfrwt>
<totfact> 0.10460638E+01</totfact>
</mgrwt>
</event>
<event>
12    5  0.5095719E-008  0.1221855E+04  0.7818608E-02  0.9093940E-01
          1   -1    0    0  501    0  0.00000000000E+00  0.00000000000E+00  0.15591537112E+04  0.15591537112E+04  0.00000000000E+00 0. -1.
         -2   -1    0    0    0  501 -0.00000000000E+00 -0.00000000000E+00 -0.23938121528E+03  0.23938121528E+03  0.00000000000E+00 0.  1.
        -24    2    1    2    0    0 -0.19871837450E+03 -0.10788193227E+03  0.40940837784E+03  0.47429253619E+03  0.78807908050E+02 0.  0.
        254    2    1    2    0    0  0.19871837450E+03  0.10788193227E+03  0.91036411812E+03  0.13242423903E+04  0.93473396061E+03 0.  0.
         23    2    4    4    0    0  0.15149079704E+03 -0.37921955440E+03  0.62441130096E+03  0.75160126217E+03  0.90873827417E+02 0.  0.
         23    2    4    4    0    0  0.47227577455E+02  0.48710148667E+03  0.28595281716E+03  0.57264112815E+03  0.81550877515E+02 0.  0.
          3    1    3    3  502    0 -0.15096511919E+03 -0.90896873447E+02  0.24186963973E+03  0.29925512767E+03  0.00000000000E+00 0. -1.
         -4    1    3    3    0  502 -0.47753255310E+02 -0.16985058824E+02  0.16753873810E+03  0.17503740852E+03  0.00000000000E+00 0.  1.
         13    1    5    5    0    0  0.42722012736E+01 -0.44026573181E+02  0.12337787597E+03  0.13106750600E+03  0.00000000000E+00 0. -1.
        -13    1    5    5    0    0  0.14721859577E+03 -0.33519298122E+03  0.50103342499E+03  0.62053375618E+03  0.00000000000E+00 0.  1.
          2    1    6    6  503    0  0.28039469006E+02  0.15622338958E+03  0.13535225594E+03  0.20859576329E+03  0.00000000000E+00 0. -1.
         -2    1    6    6    0  503  0.19188108449E+02  0.33087809709E+03  0.15060056122E+03  0.36404536487E+03  0.00000000000E+00 0.  1.
<mgrwt>
<rscale>  0 0.12218545E+04</rscale>
<asrwt>0</asrwt>
<pdfrwt beam="1">  1        1 0.23986979E+00 0.12218545E+04</pdfrwt>
<pdfrwt beam="2">  1       -2 0.36827880E-01 0.12218545E+04</pdfrwt>
<totfact> 0.35859049E+01</totfact>
</mgrwt>
</event>
<event>
12    5  0.5095719E-008  0.1730794E+04  0.7818608E-02  0.8743994E-01
         -2   -1    0    0    0  501 -0.00000000000E+00  0.00000000000E+00  0.57993978240E+03  0.57993978240E+03  0.00000000000E+00 0.  1.
          1   -1    0    0  501    0  0.00000000000E+00 -0.00000000000E+00 -0.12913617540E+04  0.12913617540E+04  0.00000000000E+00 0. -1.
        -24    2    1    2    0    0  0.53901131597E+03 -0.11518948989E+03  0.93785539237E+02  0.56479435039E+03  0.79969453779E+02 0.  0.
        254    2    1    2    0    0 -0.53901131597E+03  0.11518948989E+03 -0.80520751086E+03  0.13065071860E+04  0.86879230791E+03 0.  0.
         23    2    4    4    0    0 -0.45952345884E+02  0.35076484019E+03 -0.48568255958E+02  0.36861440090E+03  0.91488304490E+02 0.  0.
         23    2    4    4    0    0 -0.49305897008E+03 -0.23557535030E+03 -0.75663925490E+03  0.93789278513E+03  0.92395999297E+02 0.  0.
          3    1    3    3  502    0  0.10973585900E+02  0.99012845071E+00 -0.92623320188E+01  0.14394121588E+02  0.00000000000E+00 0. -1.
         -4    1    3    3    0  502  0.52803773007E+03 -0.11617961834E+03  0.10304787126E+03  0.55040022880E+03  0.00000000000E+00 0.  1.
         13    1    5    5    0    0 -0.47697491708E+02  0.79700154273E+02 -0.26799073566E+02  0.96671379686E+02  0.00000000000E+00 0. -1.
        -13    1    5    5    0    0  0.17451458235E+01  0.27106468592E+03 -0.21769182392E+02  0.27194302122E+03  0.00000000000E+00 0.  1.
          1    1    6    6  503    0 -0.23618104448E+03 -0.16107667166E+03 -0.36477735961E+03  0.46345409914E+03  0.00000000000E+00 0. -1.
         -1    1    6    6    0  503 -0.25687792560E+03 -0.74498678646E+02 -0.39186189529E+03  0.47443868598E+03  0.00000000000E+00 0.  1.
<mgrwt>
<rscale>  0 0.17307941E+04</rscale>
<asrwt>0</asrwt>
<pdfrwt beam="1">  1        1 0.19867104E+00 0.17307941E+04</pdfrwt>
<pdfrwt beam="2">  1       -2 0.89221506E-01 0.17307941E+04</pdfrwt>
<totfact> 0.82376035E+00</totfact>
</mgrwt>
</event>
<event>
12    5  0.5095719E-008  0.1808731E+04  0.7818608E-02  0.8701670E-01
          1   -1    0    0  501    0  0.00000000000E+00  0.00000000000E+00  0.97842339548E+03  0.97842339548E+03  0.00000000000E+00 0. -1.
         -2   -1    0    0    0  501 -0.00000000000E+00 -0.00000000000E+00 -0.83591296174E+03  0.83591296174E+03  0.00000000000E+00 0.  1.
        -24    2    1    2    0    0 -0.14034239717E+03  0.42799782951E+03  0.56767848696E+03  0.72901781316E+03  0.79561151568E+02 0.  0.
        254    2    1    2    0    0  0.14034239717E+03 -0.42799782951E+03 -0.42516805322E+03  0.10853185441E+04  0.89121845700E+03 0.  0.
         23    2    4    4    0    0  0.43658620595E+03 -0.47801052546E+03 -0.40659650927E+03  0.77005008767E+03  0.92492369872E+02 0.  0.
         23    2    4    4    0    0 -0.29624380878E+03  0.50012695950E+02 -0.18571543953E+02  0.31526845640E+03  0.93742377582E+02 0.  0.
          3    1    3    3  502    0 -0.14098096704E+03  0.42707737444E+03  0.57022140988E+03  0.72623906058E+03  0.00000000000E+00 0. -1.
         -4    1    3    3    0  502  0.63856986932E+00  0.92045506870E+00 -0.25429229106E+01  0.27787525872E+01  0.00000000000E+00 0.  1.
         13    1    5    5    0    0  0.33001050345E+03 -0.31844035147E+03 -0.32193572942E+03  0.56031580712E+03  0.00000000000E+00 0.  1.
        -13    1    5    5    0    0  0.10657570250E+03 -0.15957017399E+03 -0.84660779848E+02  0.20973428054E+03  0.00000000000E+00 0. -1.
          3    1    6    6  503    0 -0.14409580077E+03  0.61664200591E+02  0.19645321036E+02  0.15796205896E+03  0.00000000000E+00 0. -1.
         -3    1    6    6    0  503 -0.15214800802E+03 -0.11651504641E+02 -0.38216864988E+02  0.15730639743E+03  0.00000000000E+00 0.  1.
<mgrwt>
<rscale>  0 0.18087308E+04</rscale>
<asrwt>0</asrwt>
<pdfrwt beam="1">  1        1 0.15052668E+00 0.18087308E+04</pdfrwt>
<pdfrwt beam="2">  1       -2 0.12860199E+00 0.18087308E+04</pdfrwt>
<totfact> 0.58042106E+00</totfact>
</mgrwt>
</event>
<event>
12    5  0.5095719E-008  0.2297644E+04  0.7818608E-02  0.8478851E-01
          1   -1    0    0  501    0  0.00000000000E+00  0.00000000000E+00  0.69195386683E+03  0.69195386683E+03  0.00000000000E+00 0. -1.
         -2   -1    0    0    0  501 -0.00000000000E+00 -0.00000000000E+00 -0.19073411208E+04  0.19073411208E+04  0.00000000000E+00 0.  1.
        -24    2    1    2    0    0  0.55249030590E+02 -0.60348874617E+03 -0.13721022786E+04  0.15020287215E+04  0.78577956716E+02 0.  0.
        254    2    1    2    0    0 -0.55249030590E+02  0.60348874617E+03  0.15671502461E+03  0.10972662661E+04  0.90121170523E+03 0.  0.
         23    2    4    4    0    0 -0.23361435081E+03  0.69785025337E+03 -0.11112850932E+03  0.74980339406E+03  0.91021662923E+02 0.  0.
         23    2    4    4    0    0  0.17836532022E+03 -0.94361507203E+02  0.26784353393E+03  0.34746287204E+03  0.90950576024E+02 0.  0.
          3    1    3    3  502    0  0.61369606589E+02 -0.29273521042E+03 -0.62642347808E+03  0.69416605069E+03  0.00000000000E+00 0. -1.
         -4    1    3    3    0  502 -0.61205759987E+01 -0.31075353575E+03 -0.74567880047E+03  0.80786267082E+03  0.00000000000E+00 0.  1.
         13    1    5    5    0    0 -0.18199309266E+03  0.61125506974E+03 -0.11862437161E+03  0.64871102010E+03  0.00000000000E+00 0.  1.
        -13    1    5    5    0    0 -0.51621258152E+02  0.86595183628E+02  0.74958622822E+01  0.10109237396E+03  0.00000000000E+00 0. -1.
          4    1    6    6  503    0 -0.67655663634E+01 -0.21202311130E+02  0.25554203944E+02  0.33886991968E+02  0.00000000000E+00 0. -1.
         -4    1    6    6    0  503  0.18513088658E+03 -0.73159196073E+02  0.24228932999E+03  0.31357588007E+03  0.00000000000E+00 0.  1.
<mgrwt>
<rscale>  0 0.22976441E+04</rscale>
<asrwt>0</asrwt>
<pdfrwt beam="1">  1        1 0.10645444E+00 0.22976441E+04</pdfrwt>
<pdfrwt beam="2">  1       -2 0.29343709E+00 0.22976441E+04</pdfrwt>
<totfact> 0.76606002E-01</totfact>
</mgrwt>
</event>
<event>
12    5  0.5095719E-008  0.2623575E+04  0.7818608E-02  0.8360237E-01
          1   -1    0    0  501    0  0.00000000000E+00  0.00000000000E+00  0.10504641195E+04  0.10504641195E+04  0.00000000000E+00 0. -1.
         -2   -1    0    0    0  501 -0.00000000000E+00 -0.00000000000E+00 -0.16381201344E+04  0.16381201344E+04  0.00000000000E+00 0.  1.
        -24    2    1    2    0    0  0.37873716659E+03 -0.10934943731E+04 -0.23983056654E+03  0.11845433545E+04  0.80327285893E+02 0.  0.
        254    2    1    2    0    0 -0.37873716659E+03  0.10934943731E+04 -0.34782544831E+03  0.15040408993E+04  0.89553598423E+03 0.  0.
         23    2    4    4    0    0 -0.10835285474E+03  0.10834341549E+04 -0.47322452977E+03  0.11909445016E+04  0.94007664798E+02 0.  0.
         23    2    4    4    0    0 -0.27038431185E+03  0.10060218126E+02  0.12539908146E+03  0.31309639774E+03  0.95370543479E+02 0.  0.
          1    1    3    3  502    0  0.95385513212E+02 -0.18189849578E+03 -0.41705435979E+02  0.20958244747E+03  0.00000000000E+00 0. -1.
         -2    1    3    3    0  502  0.28335165338E+03 -0.91159587729E+03 -0.19812513057E+03  0.97496090708E+03  0.00000000000E+00 0.  1.
         13    1    5    5    0    0 -0.35548760346E+02  0.74671081471E+03 -0.30225474789E+03  0.80634898635E+03  0.00000000000E+00 0.  1.
        -13    1    5    5    0    0 -0.72804094397E+02  0.33672334024E+03 -0.17096978189E+03  0.38459551524E+03  0.00000000000E+00 0. -1.
          4    1    6    6  503    0 -0.16394574052E+03  0.18909363833E+02  0.25762051845E+02  0.16703129404E+03  0.00000000000E+00 0.  1.
         -4    1    6    6    0  503 -0.10643857133E+03 -0.88491457066E+01  0.99637029619E+02  0.14606510370E+03  0.00000000000E+00 0. -1.
<mgrwt>
<rscale>  0 0.26235750E+04</rscale>
<asrwt>0</asrwt>
<pdfrwt beam="1">  1        1 0.16160986E+00 0.26235750E+04</pdfrwt>
<pdfrwt beam="2">  1       -2 0.25201848E+00 0.26235750E+04</pdfrwt>
<totfact> 0.66582793E-01</totfact>
</mgrwt>
</event>
<event>
12    5  0.5095719E-008  0.1855296E+04  0.7818608E-02  0.8677434E-01
         -2   -1    0    0    0  501 -0.00000000000E+00  0.00000000000E+00  0.22666253492E+04  0.22666253492E+04  0.00000000000E+00 0.  1.
          1   -1    0    0  501    0  0.00000000000E+00 -0.00000000000E+00 -0.37965275096E+03  0.37965275096E+03  0.00000000000E+00 0. -1.
        -24    2    1    2    0    0  0.51533019762E+03  0.23459602697E+03  0.13272985134E+04  0.14450856364E+04  0.77140419088E+02 0.  0.
        254    2    1    2    0    0 -0.51533019762E+03 -0.23459602697E+03  0.55967408486E+03  0.12011924638E+04  0.89945969641E+03 0.  0.
         23    2    4    4    0    0 -0.41508498906E+03 -0.56182191236E+03  0.31767196788E+03  0.77270011428E+03  0.90612240237E+02 0.  0.
         23    2    4    4    0    0 -0.10024520856E+03  0.32722588540E+03  0.24200211698E+03  0.42849234956E+03  0.88965089197E+02 0.  0.
          3    1    3    3  502    0  0.15579090070E+03  0.70918607338E+02  0.31629735004E+03  0.35964464023E+03  0.00000000000E+00 0. -1.
         -4    1    3    3    0  502  0.35953929692E+03  0.16367741963E+03  0.10110011634E+04  0.10854409961E+04  0.00000000000E+00 0.  1.
         13    1    5    5    0    0 -0.32557632200E+03 -0.37416786581E+03  0.21066450140E+03  0.53887017490E+03  0.00000000000E+00 0. -1.
        -13    1    5    5    0    0 -0.89508667056E+02 -0.18765404655E+03  0.10700746648E+03  0.23382993937E+03  0.00000000000E+00 0.  1.
          2    1    6    6  503    0 -0.20442809157E+02  0.80231307649E+02  0.10886787672E+03  0.13677421451E+03  0.00000000000E+00 0.  1.
         -2    1    6    6    0  503 -0.79802399408E+02  0.24699457775E+03  0.13313424026E+03  0.29171813505E+03  0.00000000000E+00 0. -1.
<mgrwt>
<rscale>  0 0.18552957E+04</rscale>
<asrwt>0</asrwt>
<pdfrwt beam="1">  1        1 0.58408117E-01 0.18552957E+04</pdfrwt>
<pdfrwt beam="2">  1       -2 0.34871158E+00 0.18552957E+04</pdfrwt>
<totfact> 0.84012536E-01</totfact>
</mgrwt>
</event>
<event>
12    5  0.5095719E-008  0.1158202E+04  0.7818608E-02  0.9150250E-01
          1   -1    0    0  501    0  0.00000000000E+00  0.00000000000E+00  0.63816777591E+03  0.63816777591E+03  0.00000000000E+00 0. -1.
         -2   -1    0    0    0  501 -0.00000000000E+00 -0.00000000000E+00 -0.52550122991E+03  0.52550122991E+03  0.00000000000E+00 0.  1.
        -24    2    1    2    0    0  0.97427038627E+02  0.30894200623E+02 -0.20450887948E+03  0.24152774406E+03  0.77879970950E+02 0.  0.
        254    2    1    2    0    0 -0.97427038627E+02 -0.30894200623E+02  0.31717542549E+03  0.92214126176E+03  0.85982427078E+03 0.  0.
         23    2    4    4    0    0 -0.28369619937E+03 -0.18348038098E+03 -0.15643330124E+03  0.38307200765E+03  0.90134352880E+02 0.  0.
         23    2    4    4    0    0  0.18626916074E+03  0.15258618035E+03  0.47360872672E+03  0.53906925411E+03  0.91168481488E+02 0.  0.
          1    1    3    3  502    0  0.20492209491E+02  0.30710884500E+02 -0.20838161515E+02  0.42394788028E+02  0.00000000000E+00 0. -1.
         -2    1    3    3    0  502  0.76934829136E+02  0.18331612323E+00 -0.18367071797E+03  0.19913295603E+03  0.00000000000E+00 0.  1.
         13    1    5    5    0    0 -0.13016426970E+02 -0.19968702317E+02  0.98428170991E+01  0.25788708609E+02  0.00000000000E+00 0. -1.
        -13    1    5    5    0    0 -0.27067977240E+03 -0.16351167866E+03 -0.16627611834E+03  0.35728329904E+03  0.00000000000E+00 0.  1.
          2    1    6    6  503    0  0.40933486028E+02 -0.24945966254E+01  0.46496221433E+02  0.61997353962E+02  0.00000000000E+00 0. -1.
         -2    1    6    6    0  503  0.14533567471E+03  0.15508077698E+03  0.42711250529E+03  0.47707190015E+03  0.00000000000E+00 0.  1.
<mgrwt>
<rscale>  0 0.11582020E+04</rscale>
<asrwt>0</asrwt>
<pdfrwt beam="1">  1        1 0.98179658E-01 0.11582020E+04</pdfrwt>
<pdfrwt beam="2">  1       -2 0.80846343E-01 0.11582020E+04</pdfrwt>
<totfact> 0.36722492E+01</totfact>
</mgrwt>
</event>
<event>
12    5  0.5095719E-008  0.2957913E+04  0.7818608E-02  0.8255852E-01
         -2   -1    0    0    0  501 -0.00000000000E+00  0.00000000000E+00  0.11906085315E+04  0.11906085315E+04  0.00000000000E+00 0.  1.
          1   -1    0    0  501    0  0.00000000000E+00 -0.00000000000E+00 -0.18371376365E+04  0.18371376365E+04  0.00000000000E+00 0. -1.
        -24    2    1    2    0    0 -0.94320325715E+03  0.89286405739E+03 -0.63705744815E+03  0.14488203324E+04  0.79997213618E+02 0.  0.
        254    2    1    2    0    0  0.94320325715E+03 -0.89286405739E+03 -0.94716568940E+01  0.15789258356E+04  0.89781873038E+03 0.  0.
         23    2    4    4    0    0  0.27671856497E+03 -0.58514007696E+03 -0.37542156822E+03  0.75382299347E+03  0.91354680909E+02 0.  0.
         23    2    4    4    0    0  0.66648469218E+03 -0.30772398043E+03  0.36594991133E+03  0.82510284209E+03  0.89327875718E+02 0.  0.
          1    1    3    3  502    0 -0.55392042169E+03  0.51498529394E+03 -0.41404087111E+03  0.86224563176E+03  0.00000000000E+00 0. -1.
         -2    1    3    3    0  502 -0.38928283546E+03  0.37787876345E+03 -0.22301657705E+03  0.58657470069E+03  0.00000000000E+00 0.  1.
         13    1    5    5    0    0  0.15843603540E+03 -0.22941661189E+03 -0.16178432408E+03  0.32234783487E+03  0.00000000000E+00 0. -1.
        -13    1    5    5    0    0  0.11828252957E+03 -0.35572346507E+03 -0.21363724414E+03  0.43147515860E+03  0.00000000000E+00 0.  1.
          3    1    6    6  503    0  0.17631291721E+03 -0.94604360141E+02  0.14316469265E+03  0.24603324766E+03  0.00000000000E+00 0. -1.
         -3    1    6    6    0  503  0.49017177497E+03 -0.21311962028E+03  0.22278521868E+03  0.57906959443E+03  0.00000000000E+00 0.  1.
<mgrwt>
<rscale>  0 0.29579126E+04</rscale>
<asrwt>0</asrwt>
<pdfrwt beam="1">  1        1 0.28263656E+00 0.29579126E+04</pdfrwt>
<pdfrwt beam="2">  1       -2 0.18317054E+00 0.29579126E+04</pdfrwt>
<totfact> 0.49761012E-01</totfact>
</mgrwt>
</event>
<event>
12    5  0.5095719E-008  0.2042212E+04  0.7818608E-02  0.8587135E-01
          1   -1    0    0  501    0  0.00000000000E+00  0.00000000000E+00  0.22822097723E+04  0.22822097723E+04  0.00000000000E+00 0. -1.
         -2   -1    0    0    0  501 -0.00000000000E+00 -0.00000000000E+00 -0.45686323512E+03  0.45686323512E+03  0.00000000000E+00 0.  1.
        -24    2    1    2    0    0  0.36055314563E+03 -0.74716587902E+03  0.68650421822E+03  0.10799025299E+04  0.81523069363E+02 0.  0.
        254    2    1    2    0    0 -0.36055314563E+03  0.74716587902E+03  0.11388423190E+04  0.16591704775E+04  0.87614463672E+03 0.  0.
         23    2    4    4    0    0 -0.41111572020E+03  0.44605998227E+03  0.16588048901E+03  0.63527511086E+03  0.89847018118E+02 0.  0.
         23    2    4    4    0    0  0.50562574565E+02  0.30110589675E+03  0.97296182997E+03  0.10238953667E+04  0.92117665680E+02 0.  0.
          3    1    3    3  502    0  0.75965155336E+02 -0.21290350633E+03  0.22260569194E+03  0.31725683904E+03  0.00000000000E+00 0. -1.
         -4    1    3    3    0  502  0.28458799030E+03 -0.53426237269E+03  0.46389852628E+03  0.76264569085E+03  0.00000000000E+00 0.  1.
         13    1    5    5    0    0 -0.31189539708E+02  0.89589320788E+01 -0.13399240503E+01  0.32478381235E+02  0.00000000000E+00 0. -1.
        -13    1    5    5    0    0 -0.37992618049E+03  0.43710105020E+03  0.16722041306E+03  0.60279672963E+03  0.00000000000E+00 0.  1.
          1    1    6    6  503    0  0.47248346140E+00  0.15348144144E+03  0.35862484963E+03  0.39008788610E+03  0.00000000000E+00 0. -1.
         -1    1    6    6    0  503  0.50090091104E+02  0.14762445530E+03  0.61433698034E+03  0.63380748058E+03  0.00000000000E+00 0.  1.
<mgrwt>
<rscale>  0 0.20422123E+04</rscale>
<asrwt>0</asrwt>
<pdfrwt beam="1">  1        1 0.35110919E+00 0.20422123E+04</pdfrwt>
<pdfrwt beam="2">  1       -2 0.70286653E-01 0.20422123E+04</pdfrwt>
<totfact> 0.28636311E+00</totfact>
</mgrwt>
</event>
<event>
12    5  0.5095719E-008  0.2316955E+04  0.7818608E-02  0.8471266E-01
         -2   -1    0    0    0  501 -0.00000000000E+00  0.00000000000E+00  0.83080039570E+03  0.83080039570E+03  0.00000000000E+00 0.  1.
          1   -1    0    0  501    0  0.00000000000E+00 -0.00000000000E+00 -0.16153944527E+04  0.16153944527E+04  0.00000000000E+00 0. -1.
        -24    2    1    2    0    0 -0.22444371486E+03 -0.80212423011E+03  0.21662350511E+03  0.86429786349E+03  0.79415314558E+02 0.  0.
        254    2    1    2    0    0  0.22444371486E+03  0.80212423011E+03 -0.10012175622E+04  0.15818969850E+04  0.89787705316E+03 0.  0.
         23    2    4    4    0    0 -0.25940289582E+03  0.61681375807E+02 -0.46391316447E+03  0.54291868319E+03  0.91928330274E+02 0.  0.
         23    2    4    4    0    0  0.48384661068E+03  0.74044285431E+03 -0.53730439769E+03  0.10389783018E+04  0.91742752427E+02 0.  0.
          3    1    3    3  502    0 -0.17622668225E+03 -0.56477927286E+03  0.12082225484E+03  0.60384558279E+03  0.00000000000E+00 0. -1.
         -4    1    3    3    0  502 -0.48217032614E+02 -0.23734495725E+03  0.95801250272E+02  0.26045228070E+03  0.00000000000E+00 0.  1.
         13    1    5    5    0    0 -0.68173815661E+02  0.57302363718E+02 -0.17613849376E+03  0.19737274131E+03  0.00000000000E+00 0.  1.
        -13    1    5    5    0    0 -0.19122908016E+03  0.43790120888E+01 -0.28777467071E+03  0.34554594188E+03  0.00000000000E+00 0. -1.
          2    1    6    6  503    0  0.22537825412E+03  0.26461846535E+03 -0.20000495696E+03  0.40102402976E+03  0.00000000000E+00 0. -1.
         -2    1    6    6    0  503  0.25846835656E+03  0.47582438896E+03 -0.33729944073E+03  0.63795427202E+03  0.00000000000E+00 0.  1.
<mgrwt>
<rscale>  0 0.23169552E+04</rscale>
<asrwt>0</asrwt>
<pdfrwt beam="1">  1        1 0.24852222E+00 0.23169552E+04</pdfrwt>
<pdfrwt beam="2">  1       -2 0.12781544E+00 0.23169552E+04</pdfrwt>
<totfact> 0.19567552E+00</totfact>
</mgrwt>
</event>
<event>
12    5  0.5095719E-008  0.2097306E+04  0.7818608E-02  0.8562431E-01
          3   -1    0    0  501    0  0.00000000000E+00  0.00000000000E+00  0.87030002604E+03  0.87030002604E+03  0.00000000000E+00 0. -1.
         -4   -1    0    0    0  501 -0.00000000000E+00 -0.00000000000E+00 -0.12635566305E+04  0.12635566305E+04  0.00000000000E+00 0.  1.
        -24    2    1    2    0    0  0.32286541802E+03  0.45264082197E+03 -0.82036465197E+03  0.99446401174E+03  0.82672344777E+02 0.  0.
        254    2    1    2    0    0 -0.32286541802E+03 -0.45264082197E+03  0.42710804746E+03  0.11393926448E+04  0.89814727246E+03 0.  0.
         23    2    4    4    0    0 -0.28641887375E+03 -0.61355645266E+03  0.12451608775E+02  0.68359548615E+03  0.93061561785E+02 0.  0.
         23    2    4    4    0    0 -0.36446544274E+02  0.16091563069E+03  0.41465643869E+03  0.45579715869E+03  0.92676301894E+02 0.  0.
          3    1    3    3  502    0  0.16618054662E+03  0.23417991606E+03 -0.49648120510E+03  0.57354144940E+03  0.00000000000E+00 0. -1.
         -4    1    3    3    0  502  0.15668487141E+03  0.21846090591E+03 -0.32388344687E+03  0.42092256235E+03  0.00000000000E+00 0.  1.
         13    1    5    5    0    0 -0.88265503614E+02 -0.17365798068E+03 -0.38077212399E+02  0.19848870871E+03  0.00000000000E+00 0. -1.
        -13    1    5    5    0    0 -0.19815337013E+03 -0.43989847198E+03  0.50528821174E+02  0.48510677743E+03  0.00000000000E+00 0.  1.
          4    1    6    6  503    0 -0.36218492261E+02  0.99379480860E+02  0.35371345474E+03  0.36919001674E+03  0.00000000000E+00 0. -1.
         -4    1    6    6    0  503 -0.22805201309E+00  0.61536149828E+02  0.60942983946E+02  0.86607141944E+02  0.00000000000E+00 0.  1.
<mgrwt>
<rscale>  0 0.20973062E+04</rscale>
<asrwt>0</asrwt>
<pdfrwt beam="1">  1        3 0.13389231E+00 0.20973062E+04</pdfrwt>
<pdfrwt beam="2">  1       -4 0.19439333E+00 0.20973062E+04</pdfrwt>
<totfact> 0.13048735E-01</totfact>
</mgrwt>
</event>
<event>
12    5  0.5095719E-008  0.1508795E+04  0.7818608E-02  0.8878625E-01
          1   -1    0    0  501    0  0.00000000000E+00  0.00000000000E+00  0.10399054091E+04  0.10399054091E+04  0.00000000000E+00 0. -1.
         -2   -1    0    0    0  501 -0.00000000000E+00 -0.00000000000E+00 -0.54727646170E+03  0.54727646170E+03  0.00000000000E+00 0.  1.
        -24    2    1    2    0    0 -0.40885756282E+03 -0.54570923885E+02 -0.96474954642E+02  0.43100972801E+03  0.79495134169E+02 0.  0.
        254    2    1    2    0    0  0.40885756282E+03  0.54570923885E+02  0.58910390203E+03  0.11561721428E+04  0.90528897261E+03 0.  0.
         23    2    4    4    0    0  0.62043491826E+03  0.24605910630E+03  0.29219149595E+03  0.73422422713E+03  0.90690538678E+02 0.  0.
         23    2    4    4    0    0 -0.21157735544E+03 -0.19148818241E+03  0.29691240608E+03  0.42194791564E+03  0.91925868465E+02 0.  0.
          3    1    3    3  502    0 -0.89314172333E+02 -0.41642915444E+02 -0.39512726818E+02  0.10617160339E+03  0.00000000000E+00 0. -1.
         -4    1    3    3    0  502 -0.31954339049E+03 -0.12928008441E+02 -0.56962227823E+02  0.32483812462E+03  0.00000000000E+00 0.  1.
         13    1    5    5    0    0  0.27834266474E+03  0.15614601457E+03  0.12166867113E+03  0.34155450870E+03  0.00000000000E+00 0.  1.
        -13    1    5    5    0    0  0.34209225352E+03  0.89913091728E+02  0.17052282482E+03  0.39266971843E+03  0.00000000000E+00 0. -1.
          1    1    6    6  503    0 -0.22376286665E+02 -0.29303783153E+02  0.92697099723E+02  0.99760524302E+02  0.00000000000E+00 0. -1.
         -1    1    6    6    0  503 -0.18920106878E+03 -0.16218439926E+03  0.20421530636E+03  0.32218739134E+03  0.00000000000E+00 0.  1.
<mgrwt>
<rscale>  0 0.15087952E+04</rscale>
<asrwt>0</asrwt>
<pdfrwt beam="1">  1        1 0.15998545E+00 0.15087952E+04</pdfrwt>
<pdfrwt beam="2">  1       -2 0.84196379E-01 0.15087952E+04</pdfrwt>
<totfact> 0.14702620E+01</totfact>
</mgrwt>
</event>
<event>
12    5  0.5095719E-008  0.1157694E+04  0.7818608E-02  0.9150715E-01
         -2   -1    0    0    0  501 -0.00000000000E+00  0.00000000000E+00  0.11121607516E+03  0.11121607516E+03  0.00000000000E+00 0.  1.
          1   -1    0    0  501    0  0.00000000000E+00 -0.00000000000E+00 -0.30127268278E+04  0.30127268278E+04  0.00000000000E+00 0. -1.
        -24    2    1    2    0    0  0.27116959690E+01  0.92107595401E+02 -0.11220913295E+04  0.11286335410E+04  0.78952870687E+02 0.  0.
        254    2    1    2    0    0 -0.27116959690E+01 -0.92107595401E+02 -0.17794194232E+04  0.19953093620E+04  0.89801715124E+03 0.  0.
         23    2    4    4    0    0 -0.71616143677E+02  0.35182417951E+03 -0.41877657047E+03  0.55926813288E+03  0.92184072149E+02 0.  0.
         23    2    4    4    0    0  0.68904447708E+02 -0.44393177491E+03 -0.13606428527E+04  0.14360412291E+04  0.95090458557E+02 0.  0.
          3    1    3    3  502    0 -0.44177454698E+01 -0.39078230036E+01 -0.41228333137E+03  0.41232551811E+03  0.00000000000E+00 0. -1.
         -4    1    3    3    0  502  0.71294414387E+01  0.96015418404E+02 -0.70980799812E+03  0.71630802292E+03  0.00000000000E+00 0.  1.
         13    1    5    5    0    0 -0.92287700563E+02  0.24350739593E+03 -0.29535829029E+03  0.39376311558E+03  0.00000000000E+00 0.  1.
        -13    1    5    5    0    0  0.20671556886E+02  0.10831678358E+03 -0.12341828018E+03  0.16550501730E+03  0.00000000000E+00 0. -1.
          3    1    6    6  503    0  0.11643513856E+02 -0.32129383118E+03 -0.10210129407E+04  0.10704357629E+04  0.00000000000E+00 0. -1.
         -3    1    6    6    0  503  0.57260933852E+02 -0.12263794373E+03 -0.33962991200E+03  0.36560546619E+03  0.00000000000E+00 0.  1.
<mgrwt>
<rscale>  0 0.11576937E+04</rscale>
<asrwt>0</asrwt>
<pdfrwt beam="1">  1        1 0.46349646E+00 0.11576937E+04</pdfrwt>
<pdfrwt beam="2">  1       -2 0.17110165E-01 0.11576937E+04</pdfrwt>
<totfact> 0.14516301E+01</totfact>
</mgrwt>
</event>
<event>
12    5  0.5095719E-008  0.2368529E+04  0.7818608E-02  0.8451381E-01
         -4   -1    0    0    0  501 -0.00000000000E+00  0.00000000000E+00  0.75504563753E+03  0.75504563753E+03  0.00000000000E+00 0.  1.
          1   -1    0    0  501    0  0.00000000000E+00 -0.00000000000E+00 -0.18574805415E+04  0.18574805415E+04  0.00000000000E+00 0. -1.
        -24    2    1    2    0    0 -0.13710919503E+03 -0.78067475834E+02  0.63089260600E+03  0.65536140342E+03  0.81114897789E+02 0.  0.
        254    2    1    2    0    0  0.13710919503E+03  0.78067475834E+02 -0.17333275100E+04  0.19571647756E+04  0.89508448757E+03 0.  0.
         23    2    4    4    0    0 -0.31357536845E+03  0.23979553421E+03 -0.97930617358E+03  0.10595471003E+04  0.88136633938E+02 0.  0.
         23    2    4    4    0    0  0.45068456348E+03 -0.16172805838E+03 -0.75402133640E+03  0.89761767530E+03  0.88863798237E+02 0.  0.
          3    1    3    3  502    0 -0.84301298863E+02 -0.30197944563E+02  0.20729656846E+03  0.22581074407E+03  0.00000000000E+00 0. -1.
         -4    1    3    3    0  502 -0.52807896166E+02 -0.47869531271E+02  0.42359603755E+03  0.42955065935E+03  0.00000000000E+00 0.  1.
         13    1    5    5    0    0 -0.14018669298E+03  0.15899056717E+03 -0.47365433673E+03  0.51892074544E+03  0.00000000000E+00 0. -1.
        -13    1    5    5    0    0 -0.17338867546E+03  0.80804967039E+02 -0.50565183685E+03  0.54062635488E+03  0.00000000000E+00 0.  1.
          4    1    6    6  503    0  0.19602778566E+03 -0.11728257697E+03 -0.34669714277E+03  0.41518791459E+03  0.00000000000E+00 0. -1.
         -4    1    6    6    0  503  0.25465677781E+03 -0.44445481405E+02 -0.40732419362E+03  0.48242976071E+03  0.00000000000E+00 0.  1.
<mgrwt>
<rscale>  0 0.23685291E+04</rscale>
<asrwt>0</asrwt>
<pdfrwt beam="1">  1        1 0.28576624E+00 0.23685291E+04</pdfrwt>
<pdfrwt beam="2">  1       -4 0.11616087E+00 0.23685291E+04</pdfrwt>
<totfact> 0.94182927E-01</totfact>
</mgrwt>
</event>
<event>
12    5  0.5095719E-008  0.1431071E+04  0.7818608E-02  0.8931630E-01
          1   -1    0    0  501    0  0.00000000000E+00  0.00000000000E+00  0.15577472361E+04  0.15577472361E+04  0.00000000000E+00 0. -1.
         -2   -1    0    0    0  501 -0.00000000000E+00 -0.00000000000E+00 -0.32867405107E+03  0.32867405107E+03  0.00000000000E+00 0.  1.
        -24    2    1    2    0    0  0.37552264832E+03 -0.19328136149E+03  0.43513492229E+03  0.61147527420E+03  0.78642649098E+02 0.  0.
        254    2    1    2    0    0 -0.37552264832E+03  0.19328136149E+03  0.79393826273E+03  0.12749460130E+04  0.90375573407E+03 0.  0.
         23    2    4    4    0    0 -0.44015459692E+03 -0.24326146788E+03  0.59080626098E+03  0.78114017487E+03  0.90640630188E+02 0.  0.
         23    2    4    4    0    0  0.64631948597E+02  0.43654282937E+03  0.20313200175E+03  0.49380583810E+03  0.88513642758E+02 0.  0.
          3    1    3    3  502    0  0.29700406515E+02 -0.43644602316E+02  0.54385183650E+02  0.75793889325E+02  0.00000000000E+00 0. -1.
         -4    1    3    3    0  502  0.34582224180E+03 -0.14963675917E+03  0.38074973864E+03  0.53568138487E+03  0.00000000000E+00 0.  1.
         13    1    5    5    0    0 -0.68468721146E+02 -0.79275240329E+02  0.12227533435E+03  0.16100865472E+03  0.00000000000E+00 0.  1.
        -13    1    5    5    0    0 -0.37168587577E+03 -0.16398622755E+03  0.46853092663E+03  0.62013152015E+03  0.00000000000E+00 0. -1.
          1    1    6    6  503    0  0.67791233425E+02  0.29579066405E+03  0.17477283838E+03  0.35019039579E+03  0.00000000000E+00 0. -1.
         -1    1    6    6    0  503 -0.31592848275E+01  0.14075216532E+03  0.28359163367E+02  0.14361544231E+03  0.00000000000E+00 0.  1.
<mgrwt>
<rscale>  0 0.14310711E+04</rscale>
<asrwt>0</asrwt>
<pdfrwt beam="1">  1        1 0.23965342E+00 0.14310711E+04</pdfrwt>
<pdfrwt beam="2">  1       -2 0.50565240E-01 0.14310711E+04</pdfrwt>
<totfact> 0.18835015E+01</totfact>
</mgrwt>
</event>
<event>
12    5  0.5095719E-008  0.1632274E+04  0.7818608E-02  0.8800963E-01
          1   -1    0    0  501    0  0.00000000000E+00  0.00000000000E+00  0.42878040939E+03  0.42878040939E+03  0.00000000000E+00 0. -1.
         -2   -1    0    0    0  501 -0.00000000000E+00 -0.00000000000E+00 -0.15534278227E+04  0.15534278227E+04  0.00000000000E+00 0.  1.
        -24    2    1    2    0    0  0.32136490079E+03  0.44468135236E+03 -0.48205431855E+03  0.73559271776E+03  0.87768877164E+02 0.  0.
        254    2    1    2    0    0 -0.32136490079E+03 -0.44468135236E+03 -0.64259309475E+03  0.12466155143E+04  0.91657375618E+03 0.  0.
         23    2    4    4    0    0 -0.31454983328E+01 -0.11689546629E+03  0.22100575914E+03  0.26602137658E+03  0.90826114230E+02 0.  0.
         23    2    4    4    0    0 -0.31821940245E+03 -0.32778588607E+03 -0.86359885388E+03  0.98059413774E+03  0.83992305186E+02 0.  0.
          1    1    3    3  502    0  0.53367461494E+02  0.41557032480E+02 -0.90478178187E+02  0.11296624993E+03  0.00000000000E+00 0. -1.
         -4    1    3    3    0  502  0.26799743929E+03  0.40312431988E+03 -0.39157614036E+03  0.62262646783E+03  0.00000000000E+00 0.  1.
         13    1    5    5    0    0 -0.41533809124E+02 -0.30902695992E+02  0.10082799365E+03  0.11334159971E+03  0.00000000000E+00 0. -1.
        -13    1    5    5    0    0  0.38388310791E+02 -0.85992770301E+02  0.12017776548E+03  0.15267977687E+03  0.00000000000E+00 0.  1.
          4    1    6    6  503    0 -0.47803485927E+02 -0.64554490425E+02 -0.95463655443E+02  0.12476283506E+03  0.00000000000E+00 0. -1.
         -4    1    6    6    0  503 -0.27041591653E+03 -0.26323139564E+03 -0.76813519844E+03  0.85583130268E+03  0.00000000000E+00 0.  1.
<mgrwt>
<rscale>  0 0.16322738E+04</rscale>
<asrwt>0</asrwt>
<pdfrwt beam="1">  1        1 0.65966218E-01 0.16322738E+04</pdfrwt>
<pdfrwt beam="2">  1       -2 0.23898889E+00 0.16322738E+04</pdfrwt>
<totfact> 0.34369900E+00</totfact>
</mgrwt>
</event>
<event>
12    5  0.5095719E-008  0.1272986E+04  0.7818608E-02  0.9051266E-01
         -2   -1    0    0    0  501 -0.00000000000E+00  0.00000000000E+00  0.41986347896E+03  0.41986347896E+03  0.00000000000E+00 0.  1.
          1   -1    0    0  501    0  0.00000000000E+00 -0.00000000000E+00 -0.96489360517E+03  0.96489360517E+03  0.00000000000E+00 0. -1.
        -24    2    1    2    0    0 -0.27444383835E+03 -0.89743536139E+02 -0.26504875220E+03  0.40060316531E+03  0.82817463919E+02 0.  0.
        254    2    1    2    0    0  0.27444383835E+03  0.89743536139E+02 -0.27998137401E+03  0.98415391881E+03  0.89821826046E+03 0.  0.
         23    2    4    4    0    0  0.52831426113E+03 -0.17631239358E+03 -0.19755753583E+03  0.59634510762E+03  0.79978051832E+02 0.  0.
         23    2    4    4    0    0 -0.25387042278E+03  0.26605592972E+03 -0.82423838182E+02  0.38780881119E+03  0.91466035434E+02 0.  0.
          1    1    3    3  502    0 -0.22828290771E+03 -0.55262245155E+02 -0.24549745088E+03  0.33975873805E+03  0.00000000000E+00 0. -1.
         -2    1    3    3    0  502 -0.46160930645E+02 -0.34481290984E+02 -0.19551301311E+02  0.60844427262E+02  0.00000000000E+00 0.  1.
         13    1    5    5    0    0  0.19501053679E+03 -0.82467296628E+02 -0.38106458669E+02  0.21513267224E+03  0.00000000000E+00 0. -1.
        -13    1    5    5    0    0  0.33330372434E+03 -0.93845096951E+02 -0.15945107716E+03  0.38121243538E+03  0.00000000000E+00 0.  1.
          2    1    6    6  503    0 -0.24066929907E+03  0.23918083439E+03 -0.48821136927E+02  0.34280123463E+03  0.00000000000E+00 0. -1.
         -2    1    6    6    0  503 -0.13201123703E+02  0.26875095331E+02 -0.33602701255E+02  0.45007576559E+02  0.00000000000E+00 0.  1.
<mgrwt>
<rscale>  0 0.12729864E+04</rscale>
<asrwt>0</asrwt>
<pdfrwt beam="1">  1        1 0.14844517E+00 0.12729864E+04</pdfrwt>
<pdfrwt beam="2">  1       -2 0.64594382E-01 0.12729864E+04</pdfrwt>
<totfact> 0.30799564E+01</totfact>
</mgrwt>
</event>
<event>
12    5  0.5095719E-008  0.1529365E+04  0.7818608E-02  0.8865157E-01
          1   -1    0    0  501    0  0.00000000000E+00  0.00000000000E+00  0.12230860622E+04  0.12230860622E+04  0.00000000000E+00 0. -1.
         -2   -1    0    0    0  501 -0.00000000000E+00 -0.00000000000E+00 -0.47808546388E+03  0.47808546388E+03  0.00000000000E+00 0.  1.
        -24    2    1    2    0    0 -0.10284605294E+03 -0.47653925870E+03  0.39320492293E+03  0.63142015517E+03  0.80089482762E+02 0.  0.
        254    2    1    2    0    0  0.10284605294E+03  0.47653925870E+03  0.35179567544E+03  0.10697513710E+04  0.88483943330E+03 0.  0.
         23    2    4    4    0    0  0.30788352980E+03  0.25477322371E+03  0.55789892665E+03  0.69237701943E+03  0.91831700605E+02 0.  0.
         23    2    4    4    0    0 -0.20503747686E+03  0.22176603498E+03 -0.20610325122E+03  0.37737435153E+03  0.93339754877E+02 0.  0.
          3    1    3    3  502    0 -0.10264717057E+03 -0.36656886819E+03  0.33454031040E+03  0.50678042191E+03  0.00000000000E+00 0. -1.
         -4    1    3    3    0  502 -0.19888237172E+00 -0.10997039051E+03  0.58664612536E+02  0.12463973326E+03  0.00000000000E+00 0.  1.
         13    1    5    5    0    0  0.16646821557E+03  0.19238434450E+03  0.37091667227E+03  0.44978059160E+03  0.00000000000E+00 0.  1.
        -13    1    5    5    0    0  0.14141531423E+03  0.62388879210E+02  0.18698225438E+03  0.24259642784E+03  0.00000000000E+00 0. -1.
          4    1    6    6  503    0 -0.31854746689E+02  0.35121748932E+02  0.35547501092E+01  0.47548905171E+02  0.00000000000E+00 0. -1.
         -4    1    6    6    0  503 -0.17318273017E+03  0.18664428605E+03 -0.20965800133E+03  0.32982544636E+03  0.00000000000E+00 0.  1.
<mgrwt>
<rscale>  0 0.15293654E+04</rscale>
<asrwt>0</asrwt>
<pdfrwt beam="1">  1        1 0.18816708E+00 0.15293654E+04</pdfrwt>
<pdfrwt beam="2">  1       -2 0.73551610E-01 0.15293654E+04</pdfrwt>
<totfact> 0.14506329E+01</totfact>
</mgrwt>
</event>
<event>
12    5  0.5095719E-008  0.1974819E+04  0.7818608E-02  0.8618485E-01
          1   -1    0    0  501    0  0.00000000000E+00  0.00000000000E+00  0.13095403590E+04  0.13095403590E+04  0.00000000000E+00 0. -1.
         -2   -1    0    0    0  501 -0.00000000000E+00 -0.00000000000E+00 -0.74451919341E+03  0.74451919341E+03  0.00000000000E+00 0.  1.
        -24    2    1    2    0    0  0.22779395033E+03  0.75599850404E+03  0.28788600637E+03  0.84435571410E+03  0.81451809987E+02 0.  0.
        254    2    1    2    0    0 -0.22779395033E+03 -0.75599850404E+03  0.27713515926E+03  0.12097038383E+04  0.87358780788E+03 0.  0.
         23    2    4    4    0    0 -0.14555234574E+03  0.16850923647E+03  0.71802214800E+02  0.25477956947E+03  0.10087726625E+03 0.  0.
         23    2    4    4    0    0 -0.82241604594E+02 -0.92450774051E+03  0.20533294446E+03  0.95492426887E+03  0.90777185505E+02 0.  0.
          1    1    3    3  502    0  0.16713083069E+03  0.50815984601E+03  0.23238663295E+03  0.58323467904E+03  0.00000000000E+00 0. -1.
         -2    1    3    3    0  502  0.60663119641E+02  0.24783865803E+03  0.55499373418E+02  0.26112103506E+03  0.00000000000E+00 0.  1.
         13    1    5    5    0    0 -0.29265945883E+02 -0.17457224555E+01  0.34465585197E+02  0.45248422053E+02  0.00000000000E+00 0. -1.
        -13    1    5    5    0    0 -0.11628639985E+03  0.17025495892E+03  0.37336629603E+02  0.20953114742E+03  0.00000000000E+00 0.  1.
          4    1    6    6  503    0 -0.76316289792E+02 -0.72295002870E+03  0.19663889715E+03  0.75309214307E+03  0.00000000000E+00 0.  1.
         -4    1    6    6    0  503 -0.59253148019E+01 -0.20155771181E+03  0.86940473104E+01  0.20183212580E+03  0.00000000000E+00 0. -1.
<mgrwt>
<rscale>  0 0.19748194E+04</rscale>
<asrwt>0</asrwt>
<pdfrwt beam="1">  1        1 0.20146775E+00 0.19748194E+04</pdfrwt>
<pdfrwt beam="2">  1       -2 0.11454141E+00 0.19748194E+04</pdfrwt>
<totfact> 0.43249991E+00</totfact>
</mgrwt>
</event>
<event>
12    5  0.5095719E-008  0.1784876E+04  0.7818608E-02  0.8714384E-01
         -2   -1    0    0    0  501 -0.00000000000E+00  0.00000000000E+00  0.40748146252E+03  0.40748146252E+03  0.00000000000E+00 0.  1.
          1   -1    0    0  501    0  0.00000000000E+00 -0.00000000000E+00 -0.19545573511E+04  0.19545573511E+04  0.00000000000E+00 0. -1.
        -24    2    1    2    0    0  0.43750894886E+03  0.44123103596E+03 -0.75575279452E+03  0.98183047470E+03  0.82035889658E+02 0.  0.
        254    2    1    2    0    0 -0.43750894886E+03 -0.44123103596E+03 -0.79132309408E+03  0.13802083389E+04  0.94481951305E+03 0.  0.
         23    2    4    4    0    0  0.13062157681E+03  0.11442118459E+02 -0.60404935217E+03  0.62470335551E+03  0.90475102241E+02 0.  0.
         23    2    4    4    0    0 -0.56813052568E+03 -0.45267315442E+03 -0.18727374191E+03  0.75550498344E+03  0.89616107094E+02 0.  0.
          3    1    3    3  502    0  0.39386321592E+03  0.36961395877E+03 -0.68329842744E+03  0.87099911155E+03  0.00000000000E+00 0. -1.
         -4    1    3    3    0  502  0.43645732949E+02  0.71617077184E+02 -0.72454367074E+02  0.11083136315E+03  0.00000000000E+00 0.  1.
         13    1    5    5    0    0  0.10788257601E+03  0.46312283423E+02 -0.42931022027E+03  0.44507386245E+03  0.00000000000E+00 0. -1.
        -13    1    5    5    0    0  0.22739000798E+02 -0.34870164964E+02 -0.17473913190E+03  0.17962949306E+03  0.00000000000E+00 0.  1.
          1    1    6    6  503    0 -0.28815780665E+03 -0.26035211234E+03 -0.13873312447E+03  0.41238940791E+03  0.00000000000E+00 0. -1.
         -1    1    6    6    0  503 -0.27997271903E+03 -0.19232104207E+03 -0.48540617444E+02  0.34311557553E+03  0.00000000000E+00 0.  1.
<mgrwt>
<rscale>  0 0.17848763E+04</rscale>
<asrwt>0</asrwt>
<pdfrwt beam="1">  1        1 0.30070113E+00 0.17848763E+04</pdfrwt>
<pdfrwt beam="2">  1       -2 0.62689457E-01 0.17848763E+04</pdfrwt>
<totfact> 0.62625336E+00</totfact>
</mgrwt>
</event>
<event>
12    5  0.5095719E-008  0.2671415E+04  0.7818608E-02  0.8344340E-01
          1   -1    0    0  501    0  0.00000000000E+00  0.00000000000E+00  0.22815502809E+04  0.22815502809E+04  0.00000000000E+00 0. -1.
         -2   -1    0    0    0  501 -0.00000000000E+00 -0.00000000000E+00 -0.78197447074E+03  0.78197447074E+03  0.00000000000E+00 0.  1.
        -24    2    1    2    0    0  0.57368556435E+03 -0.91027901952E+03  0.10177525753E+03  0.10838679610E+04  0.81783456733E+02 0.  0.
        254    2    1    2    0    0 -0.57368556435E+03  0.91027901952E+03  0.13978005526E+04  0.19796567906E+04  0.89859423743E+03 0.  0.
         23    2    4    4    0    0  0.52199766430E+02 -0.10691745112E+03  0.37801670101E+03  0.40647194700E+03  0.90369577201E+02 0.  0.
         23    2    4    4    0    0 -0.62588533078E+03  0.10171964706E+04  0.10197838516E+04  0.15731848436E+04  0.92359844941E+02 0.  0.
          1    1    3    3  502    0  0.95573830501E+02 -0.12841377675E+03 -0.11201335916E+02  0.16046783186E+03  0.00000000000E+00 0. -1.
         -2    1    3    3    0  502  0.47811173385E+03 -0.78186524277E+03  0.11297659345E+03  0.92340012918E+03  0.00000000000E+00 0.  1.
         13    1    5    5    0    0  0.11458266155E+02 -0.10089094438E+03  0.31692946683E+03  0.33279807912E+03  0.00000000000E+00 0. -1.
        -13    1    5    5    0    0  0.40741500275E+02 -0.60265067407E+01  0.61087234183E+02  0.73673867879E+02  0.00000000000E+00 0.  1.
          3    1    6    6  503    0 -0.53333732224E+03  0.85034735872E+03  0.89804709159E+03  0.13468585332E+04  0.00000000000E+00 0. -1.
         -3    1    6    6    0  503 -0.92548008546E+02  0.16684911193E+03  0.12173676004E+03  0.22632631040E+03  0.00000000000E+00 0.  1.
<mgrwt>
<rscale>  0 0.26714147E+04</rscale>
<asrwt>0</asrwt>
<pdfrwt beam="1">  1        1 0.35100773E+00 0.26714147E+04</pdfrwt>
<pdfrwt beam="2">  1       -2 0.12030377E+00 0.26714147E+04</pdfrwt>
<totfact> 0.77796159E-01</totfact>
</mgrwt>
</event>
<event>
12    5  0.5095719E-008  0.1108116E+04  0.7818608E-02  0.9197317E-01
         -2   -1    0    0    0  501 -0.00000000000E+00  0.00000000000E+00  0.52064206194E+03  0.52064206194E+03  0.00000000000E+00 0.  1.
          1   -1    0    0  501    0  0.00000000000E+00 -0.00000000000E+00 -0.58961896248E+03  0.58961896248E+03  0.00000000000E+00 0. -1.
        -24    2    1    2    0    0  0.64186745546E+02  0.40768355783E+02  0.14595372581E+03  0.18302215447E+03  0.80078847463E+02 0.  0.
        254    2    1    2    0    0 -0.64186745546E+02 -0.40768355783E+02 -0.21493062635E+03  0.92723886996E+03  0.89877402648E+03 0.  0.
         23    2    4    4    0    0 -0.73954117510E+02  0.41439658378E+03 -0.43664176772E+02  0.43247530548E+03  0.89076312058E+02 0.  0.
         23    2    4    4    0    0  0.97673719638E+01 -0.45516493956E+03 -0.17126644958E+03  0.49476356448E+03  0.90489028205E+02 0.  0.
          1    1    3    3  502    0  0.36952735645E+01 -0.16692600215E+02  0.27924956330E+01  0.17323278573E+02  0.00000000000E+00 0. -1.
         -2    1    3    3    0  502  0.60491471982E+02  0.57460955998E+02  0.14316123018E+03  0.16569887590E+03  0.00000000000E+00 0.  1.
         13    1    5    5    0    0 -0.33448693705E+02  0.45554260255E+02  0.10501549534E+02  0.57482939039E+02  0.00000000000E+00 0. -1.
        -13    1    5    5    0    0 -0.40505423804E+02  0.36884232352E+03 -0.54165726306E+02  0.37499236644E+03  0.00000000000E+00 0.  1.
          4    1    6    6  503    0 -0.23098079645E+01 -0.13159950046E+03 -0.72962039866E+01  0.13182184313E+03  0.00000000000E+00 0. -1.
         -4    1    6    6    0  503  0.12077179928E+02 -0.32356543910E+03 -0.16397024560E+03  0.36294172135E+03  0.00000000000E+00 0.  1.
<mgrwt>
<rscale>  0 0.11081163E+04</rscale>
<asrwt>0</asrwt>
<pdfrwt beam="1">  1        1 0.90710610E-01 0.11081163E+04</pdfrwt>
<pdfrwt beam="2">  1       -2 0.80098779E-01 0.11081163E+04</pdfrwt>
<totfact> 0.42217734E+01</totfact>
</mgrwt>
</event>
<event>
12    5  0.5095719E-008  0.1388434E+04  0.7818608E-02  0.8962233E-01
          1   -1    0    0  501    0  0.00000000000E+00  0.00000000000E+00  0.11472913736E+04  0.11472913736E+04  0.00000000000E+00 0. -1.
         -2   -1    0    0    0  501 -0.00000000000E+00 -0.00000000000E+00 -0.42006520845E+03  0.42006520845E+03  0.00000000000E+00 0.  1.
        -24    2    1    2    0    0 -0.38561689631E+03 -0.10793402170E+03  0.14478643403E+03  0.43374996608E+03  0.82618265739E+02 0.  0.
        254    2    1    2    0    0  0.38561689631E+03  0.10793402170E+03  0.58243973112E+03  0.11336066160E+04  0.88627184069E+03 0.  0.
         23    2    4    4    0    0  0.64948404447E+03  0.15818753245E+03  0.49536960755E+03  0.83703331864E+03  0.91547304652E+02 0.  0.
         23    2    4    4    0    0 -0.26386714815E+03 -0.50253510747E+02  0.87070123574E+02  0.29657329732E+03  0.90682010613E+02 0.  0.
          1    1    3    3  502    0 -0.18514002432E+03 -0.40242801410E+02  0.11067864238E+03  0.21942213551E+03  0.00000000000E+00 0. -1.
         -2    1    3    3    0  502 -0.20047687199E+03 -0.67691220291E+02  0.34107791652E+02  0.21432783058E+03  0.00000000000E+00 0.  1.
         13    1    5    5    0    0  0.59780859688E+03  0.12517182602E+03  0.42723847537E+03  0.74536958575E+03  0.00000000000E+00 0.  1.
        -13    1    5    5    0    0  0.51675447590E+02  0.33015706433E+02  0.68131132173E+02  0.91663732883E+02  0.00000000000E+00 0. -1.
          2    1    6    6  503    0 -0.18052899606E+02 -0.16079855112E+01 -0.17364559815E+02  0.25100213926E+02  0.00000000000E+00 0. -1.
         -2    1    6    6    0  503 -0.24581424855E+03 -0.48645525236E+02  0.10443468339E+03  0.27147308340E+03  0.00000000000E+00 0.  1.
<mgrwt>
<rscale>  0 0.13884339E+04</rscale>
<asrwt>0</asrwt>
<pdfrwt beam="1">  1        1 0.17650636E+00 0.13884339E+04</pdfrwt>
<pdfrwt beam="2">  1       -2 0.64625417E-01 0.13884339E+04</pdfrwt>
<totfact> 0.22108919E+01</totfact>
</mgrwt>
</event>
<event>
12    5  0.5095719E-008  0.1269943E+04  0.7818608E-02  0.9053746E-01
         -2   -1    0    0    0  501 -0.00000000000E+00  0.00000000000E+00  0.49931608487E+03  0.49931608487E+03  0.00000000000E+00 0.  1.
          1   -1    0    0  501    0  0.00000000000E+00 -0.00000000000E+00 -0.80748194885E+03  0.80748194885E+03  0.00000000000E+00 0. -1.
        -24    2    1    2    0    0  0.31759397143E+02  0.34814384544E+02 -0.39533999866E+03  0.40580030382E+03  0.78482299650E+02 0.  0.
        254    2    1    2    0    0 -0.31759397143E+02 -0.34814384544E+02  0.87174134677E+02  0.90099772990E+03  0.89553161801E+03 0.  0.
         23    2    4    4    0    0 -0.32680795220E+03  0.17958254642E+03 -0.19526959787E+03  0.43095417122E+03  0.92401045650E+02 0.  0.
         23    2    4    4    0    0  0.29504855506E+03 -0.21439693097E+03  0.28244373255E+03  0.47004355868E+03  0.90259576512E+02 0.  0.
          1    1    3    3  502    0  0.12589734957E+02  0.39317973966E+02 -0.37579406742E+03  0.37805500342E+03  0.00000000000E+00 0. -1.
         -2    1    3    3    0  502  0.19169662187E+02 -0.45035894213E+01 -0.19545931242E+02  0.27745300397E+02  0.00000000000E+00 0.  1.
         13    1    5    5    0    0  0.47176488361E-01  0.20380207093E+02 -0.71145049102E+01  0.21586367153E+02  0.00000000000E+00 0.  1.
        -13    1    5    5    0    0 -0.32685512869E+03  0.15920233933E+03 -0.18815509296E+03  0.40936780407E+03  0.00000000000E+00 0. -1.
          2    1    6    6  503    0  0.24613166225E+03 -0.19270801548E+03  0.19785522153E+03  0.36995116310E+03  0.00000000000E+00 0. -1.
         -2    1    6    6    0  503  0.48916892807E+02 -0.21688915484E+02  0.84588511014E+02  0.10009239558E+03  0.00000000000E+00 0.  1.
<mgrwt>
<rscale>  0 0.12699429E+04</rscale>
<asrwt>0</asrwt>
<pdfrwt beam="1">  1        1 0.12422799E+00 0.12699429E+04</pdfrwt>
<pdfrwt beam="2">  1       -2 0.76817860E-01 0.12699429E+04</pdfrwt>
<totfact> 0.28453401E+01</totfact>
</mgrwt>
</event>
<event>
12    5  0.5095719E-008  0.2439049E+04  0.7818608E-02  0.8425027E-01
         -2   -1    0    0    0  501 -0.00000000000E+00  0.00000000000E+00  0.85578787387E+03  0.85578787387E+03  0.00000000000E+00 0.  1.
          1   -1    0    0  501    0  0.00000000000E+00 -0.00000000000E+00 -0.17378612381E+04  0.17378612381E+04  0.00000000000E+00 0. -1.
        -24    2    1    2    0    0 -0.49823352621E+03 -0.90324820795E+03 -0.14832357491E+03  0.10453064738E+04  0.81066451578E+02 0.  0.
        254    2    1    2    0    0  0.49823352621E+03  0.90324820795E+03 -0.73374978928E+03  0.15483426381E+04  0.89156166352E+03 0.  0.
         23    2    4    4    0    0  0.61117860191E+03  0.92952935354E+03 -0.81067560527E+03  0.13797268118E+04  0.94271076317E+02 0.  0.
         23    2    4    4    0    0 -0.11294507570E+03 -0.26281145595E+02  0.76925815989E+02  0.16861582624E+03  0.95217786957E+02 0.  0.
          3    1    3    3  502    0 -0.10135416363E+03 -0.15210766540E+03 -0.53708073012E+02  0.19050975162E+03  0.00000000000E+00 0. -1.
         -4    1    3    3    0  502 -0.39687936258E+03 -0.75114054255E+03 -0.94615501894E+02  0.85479672221E+03  0.00000000000E+00 0.  1.
         13    1    5    5    0    0  0.50575046124E+03  0.73122792879E+03 -0.68503635245E+03  0.11223870175E+04  0.00000000000E+00 0. -1.
        -13    1    5    5    0    0  0.10542814067E+03  0.19830142476E+03 -0.12563925282E+03  0.25733979435E+03  0.00000000000E+00 0.  1.
          1    1    6    6  503    0 -0.60809955266E+02  0.67511689640E+01  0.86713623178E+02  0.10612578097E+03  0.00000000000E+00 0. -1.
         -1    1    6    6    0  503 -0.52135120435E+02 -0.33032314559E+02 -0.97878071885E+01  0.62490045267E+02  0.00000000000E+00 0.  1.
<mgrwt>
<rscale>  0 0.24390495E+04</rscale>
<asrwt>0</asrwt>
<pdfrwt beam="1">  1        1 0.26736326E+00 0.24390495E+04</pdfrwt>
<pdfrwt beam="2">  1       -2 0.13165968E+00 0.24390495E+04</pdfrwt>
<totfact> 0.14816238E+00</totfact>
</mgrwt>
</event>
<event>
12    5  0.5095719E-008  0.2291589E+04  0.7818608E-02  0.8481245E-01
         -2   -1    0    0    0  501 -0.00000000000E+00  0.00000000000E+00  0.69372212609E+03  0.69372212609E+03  0.00000000000E+00 0.  1.
          1   -1    0    0  501    0  0.00000000000E+00 -0.00000000000E+00 -0.18924659063E+04  0.18924659063E+04  0.00000000000E+00 0. -1.
        -24    2    1    2    0    0 -0.12108331391E+03  0.88885930111E+03 -0.89064206061E+03  0.12668626002E+04  0.83459820802E+02 0.  0.
        254    2    1    2    0    0  0.12108331391E+03 -0.88885930111E+03 -0.30810171959E+03  0.13193254321E+04  0.91703920319E+03 0.  0.
         23    2    4    4    0    0 -0.17047510324E+03 -0.83837300419E+03 -0.45960752080E+03  0.97531859900E+03  0.89867910912E+02 0.  0.
         23    2    4    4    0    0  0.29155841715E+03 -0.50486296928E+02  0.15150580120E+03  0.34400683314E+03  0.88495856718E+02 0.  0.
          1    1    3    3  502    0 -0.90696341068E+02  0.44669774239E+03 -0.49293159911E+03  0.67137639275E+03  0.00000000000E+00 0. -1.
         -2    1    3    3    0  502 -0.30386972843E+02  0.44216155872E+03 -0.39771046150E+03  0.59548620749E+03  0.00000000000E+00 0.  1.
         13    1    5    5    0    0 -0.55847748236E+02 -0.48201559119E+03 -0.27830591847E+03  0.55938554270E+03  0.00000000000E+00 0.  1.
        -13    1    5    5    0    0 -0.11462735501E+03 -0.35635741300E+03 -0.18130160233E+03  0.41593305630E+03  0.00000000000E+00 0. -1.
          1    1    6    6  503    0  0.12562801311E+02  0.31501828445E+01  0.34320800540E+02  0.36683306536E+02  0.00000000000E+00 0. -1.
         -1    1    6    6    0  503  0.27899561584E+03 -0.53636479773E+02  0.11718500066E+03  0.30732352660E+03  0.00000000000E+00 0.  1.
<mgrwt>
<rscale>  0 0.22915894E+04</rscale>
<asrwt>0</asrwt>
<pdfrwt beam="1">  1        1 0.29114859E+00 0.22915894E+04</pdfrwt>
<pdfrwt beam="2">  1       -2 0.10672648E+00 0.22915894E+04</pdfrwt>
<totfact> 0.19798025E+00</totfact>
</mgrwt>
</event>
<event>
12    5  0.5095719E-008  0.1247402E+04  0.7818608E-02  0.9072349E-01
          1   -1    0    0  501    0  0.00000000000E+00  0.00000000000E+00  0.36219500806E+04  0.36219500806E+04  0.00000000000E+00 0. -1.
         -2   -1    0    0    0  501 -0.00000000000E+00 -0.00000000000E+00 -0.10740145651E+03  0.10740145651E+03  0.00000000000E+00 0.  1.
        -24    2    1    2    0    0  0.13853920694E+03  0.80284932918E+02  0.16048945467E+04  0.16148126557E+04  0.79338670461E+02 0.  0.
        254    2    1    2    0    0 -0.13853920694E+03 -0.80284932918E+02  0.19096540774E+04  0.21145388815E+04  0.89378812000E+03 0.  0.
         23    2    4    4    0    0 -0.45168502848E+03 -0.20225555530E+03  0.14690336760E+04  0.15528342455E+04  0.91145917281E+02 0.  0.
         23    2    4    4    0    0  0.31314582154E+03  0.12197062238E+03  0.44062040141E+03  0.56170463593E+03  0.91807524767E+02 0.  0.
          3    1    3    3  502    0  0.11730304834E+03  0.64542891856E+02  0.95038157234E+03  0.95976607728E+03  0.00000000000E+00 0. -1.
         -4    1    3    3    0  502  0.21236158595E+02  0.15742041062E+02  0.65451297432E+03  0.65504657838E+03  0.00000000000E+00 0.  1.
         13    1    5    5    0    0 -0.15150063377E+02 -0.58937827615E+01  0.15300040973E+02  0.22323806785E+02  0.00000000000E+00 0. -1.
        -13    1    5    5    0    0 -0.43653496511E+03 -0.19636177253E+03  0.14537336350E+04  0.15305104388E+04  0.00000000000E+00 0.  1.
          1    1    6    6  503    0  0.29439615770E+02 -0.14858275121E+02  0.50293551610E+02  0.60140673839E+02  0.00000000000E+00 0. -1.
         -1    1    6    6    0  503  0.28370620577E+03  0.13682889750E+03  0.39032684980E+03  0.50156396209E+03  0.00000000000E+00 0.  1.
<mgrwt>
<rscale>  0 0.12474016E+04</rscale>
<asrwt>0</asrwt>
<pdfrwt beam="1">  1        1 0.55722300E+00 0.12474016E+04</pdfrwt>
<pdfrwt beam="2">  1       -2 0.16523304E-01 0.12474016E+04</pdfrwt>
<totfact> 0.52682434E+00</totfact>
</mgrwt>
</event>
<event>
12    5  0.5095719E-008  0.1074710E+04  0.7818608E-02  0.9230197E-01
         -2   -1    0    0    0  501 -0.00000000000E+00  0.00000000000E+00  0.71380882408E+02  0.71380882408E+02  0.00000000000E+00 0.  1.
          1   -1    0    0  501    0  0.00000000000E+00 -0.00000000000E+00 -0.40452099071E+04  0.40452099071E+04  0.00000000000E+00 0. -1.
        -24    2    1    2    0    0  0.93768959678E+02  0.68842572238E+00 -0.19264414718E+03  0.22854933519E+03  0.79560916536E+02 0.  0.
        254    2    1    2    0    0 -0.93768959678E+02 -0.68842572238E+00 -0.37811848776E+04  0.38880414544E+04  0.90039667976E+03 0.  0.
         23    2    4    4    0    0  0.11659718604E+03 -0.17493421319E+03 -0.34138503965E+04  0.34214157629E+04  0.86685699034E+02 0.  0.
         23    2    4    4    0    0 -0.21036614572E+03  0.17424578747E+03 -0.36733448109E+03  0.46662569148E+03  0.90495332637E+02 0.  0.
          3    1    3    3  502    0  0.82412673908E+02  0.29326800375E+01 -0.19895252985E+03  0.21536610357E+03  0.00000000000E+00 0. -1.
         -4    1    3    3    0  502  0.11356285770E+02 -0.22442543151E+01  0.63083826671E+01  0.13183231615E+02  0.00000000000E+00 0.  1.
         13    1    5    5    0    0 -0.11651148590E+02 -0.38183930795E+02 -0.59662168090E+03  0.59795584448E+03  0.00000000000E+00 0. -1.
        -13    1    5    5    0    0  0.12824833463E+03 -0.13675028240E+03 -0.28172287156E+04  0.28234599184E+04  0.00000000000E+00 0.  1.
          4    1    6    6  503    0 -0.19605694523E+03  0.17772667136E+03 -0.31074476207E+03  0.40815120071E+03  0.00000000000E+00 0.  1.
         -4    1    6    6    0  503 -0.14309200486E+02 -0.34808838879E+01 -0.56589719027E+02  0.58474490770E+02  0.00000000000E+00 0. -1.
<mgrwt>
<rscale>  0 0.10747105E+04</rscale>
<asrwt>0</asrwt>
<pdfrwt beam="1">  1        1 0.62234019E+00 0.10747105E+04</pdfrwt>
<pdfrwt beam="2">  1       -2 0.10981671E-01 0.10747105E+04</pdfrwt>
<totfact> 0.47373677E+00</totfact>
</mgrwt>
</event>
<event>
12    5  0.5095719E-008  0.1575426E+04  0.7818608E-02  0.8835788E-01
         -2   -1    0    0    0  501 -0.00000000000E+00  0.00000000000E+00  0.37577007483E+03  0.37577007483E+03  0.00000000000E+00 0.  1.
          1   -1    0    0  501    0  0.00000000000E+00 -0.00000000000E+00 -0.16512543584E+04  0.16512543584E+04  0.00000000000E+00 0. -1.
        -24    2    1    2    0    0 -0.95887934531E+02  0.36252660110E+03 -0.89452839624E+03  0.97307570607E+03  0.77943861563E+02 0.  0.
        254    2    1    2    0    0  0.95887934531E+02 -0.36252660110E+03 -0.38095588731E+03  0.10539487272E+04  0.90832840917E+03 0.  0.
         23    2    4    4    0    0  0.18414433407E+03 -0.64157352029E+03 -0.29336952175E+03  0.73469897369E+03  0.90505181794E+02 0.  0.
         23    2    4    4    0    0 -0.88256399537E+02  0.27904691920E+03 -0.87586365563E+02  0.31924975347E+03  0.92696593720E+02 0.  0.
          1    1    3    3  502    0 -0.17878578609E+02  0.45420194888E+02 -0.19594327350E+03  0.20193168179E+03  0.00000000000E+00 0. -1.
         -2    1    3    3    0  502 -0.78009355921E+02  0.31710640621E+03 -0.69858512274E+03  0.77114402428E+03  0.00000000000E+00 0.  1.
         13    1    5    5    0    0  0.12384846941E+03 -0.54132426634E+03 -0.22470761986E+03  0.59905251784E+03  0.00000000000E+00 0. -1.
        -13    1    5    5    0    0  0.60295864653E+02 -0.10024925395E+03 -0.68661901894E+02  0.13564645585E+03  0.00000000000E+00 0.  1.
          1    1    6    6  503    0 -0.20343523354E+02  0.14251015353E+03 -0.11441466707E+01  0.14395941051E+03  0.00000000000E+00 0. -1.
         -1    1    6    6    0  503 -0.67912876184E+02  0.13653676566E+03 -0.86442218892E+02  0.17529034297E+03  0.00000000000E+00 0.  1.
<mgrwt>
<rscale>  0 0.15754263E+04</rscale>
<asrwt>0</asrwt>
<pdfrwt beam="1">  1        1 0.25403913E+00 0.15754263E+04</pdfrwt>
<pdfrwt beam="2">  1       -2 0.57810782E-01 0.15754263E+04</pdfrwt>
<totfact> 0.12164207E+01</totfact>
</mgrwt>
</event>
<event>
12    5  0.5095719E-008  0.1971110E+04  0.7818608E-02  0.8620248E-01
          1   -1    0    0  501    0  0.00000000000E+00  0.00000000000E+00  0.92041658249E+03  0.92041658249E+03  0.00000000000E+00 0. -1.
         -2   -1    0    0    0  501 -0.00000000000E+00 -0.00000000000E+00 -0.10553038280E+04  0.10553038280E+04  0.00000000000E+00 0.  1.
        -24    2    1    2    0    0 -0.13019330969E+03  0.39850064491E+02  0.71294458580E+03  0.73050497707E+03  0.82517959137E+02 0.  0.
        254    2    1    2    0    0  0.13019330969E+03 -0.39850064491E+02 -0.84783183131E+03  0.12452154334E+04  0.90177842949E+03 0.  0.
         23    2    4    4    0    0 -0.30745488883E+03  0.11891698245E+02 -0.70096173966E+03  0.77144266355E+03  0.95427991342E+02 0.  0.
         23    2    4    4    0    0  0.43764819853E+03 -0.51741762736E+02 -0.14687009165E+03  0.47377276986E+03  0.93148579981E+02 0.  0.
          1    1    3    3  502    0 -0.44599453043E+02 -0.21560041953E+02  0.15570422872E+03  0.16339447194E+03  0.00000000000E+00 0. -1.
         -2    1    3    3    0  502 -0.85593856648E+02  0.61410106445E+02  0.55724035708E+03  0.56711050513E+03  0.00000000000E+00 0.  1.
         13    1    5    5    0    0 -0.82547291494E+02  0.18274221582E+02 -0.10751770433E+03  0.13677740768E+03  0.00000000000E+00 0. -1.
        -13    1    5    5    0    0 -0.22490759734E+03 -0.63825233373E+01 -0.59344403533E+03  0.63466525588E+03  0.00000000000E+00 0.  1.
          1    1    6    6  503    0  0.19587758641E+03  0.10607906717E+02 -0.98282610046E+02  0.21940835895E+03  0.00000000000E+00 0. -1.
         -1    1    6    6    0  503  0.24177061212E+03 -0.62349669453E+02 -0.48587481605E+02  0.25436441090E+03  0.00000000000E+00 0.  1.
<mgrwt>
<rscale>  0 0.19711105E+04</rscale>
<asrwt>0</asrwt>
<pdfrwt beam="1">  1        1 0.14160255E+00 0.19711105E+04</pdfrwt>
<pdfrwt beam="2">  1       -2 0.16235444E+00 0.19711105E+04</pdfrwt>
<totfact> 0.34535830E+00</totfact>
</mgrwt>
</event>
<event>
12    5  0.5095719E-008  0.1843857E+04  0.7818608E-02  0.8683318E-01
         -2   -1    0    0    0  501 -0.00000000000E+00  0.00000000000E+00  0.76241387595E+03  0.76241387595E+03  0.00000000000E+00 0.  1.
          1   -1    0    0  501    0  0.00000000000E+00 -0.00000000000E+00 -0.11148177303E+04  0.11148177303E+04  0.00000000000E+00 0. -1.
        -24    2    1    2    0    0 -0.71356956076E+02 -0.81800885768E+02  0.57281617645E+03  0.58838780453E+03  0.79363949184E+02 0.  0.
        254    2    1    2    0    0  0.71356956076E+02  0.81800885768E+02 -0.92522003084E+03  0.12888438018E+04  0.89067560862E+03 0.  0.
         23    2    4    4    0    0 -0.31759393315E+03  0.24189643209E+03 -0.67846391072E+03  0.79281312241E+03  0.94125335052E+02 0.  0.
         23    2    4    4    0    0  0.38895088922E+03 -0.16009554632E+03 -0.24675612013E+03  0.49603067935E+03  0.90799085126E+02 0.  0.
          1    1    3    3  502    0 -0.57292856466E+02 -0.43106927114E+02  0.18524957270E+03  0.19864058687E+03  0.00000000000E+00 0. -1.
         -2    1    3    3    0  502 -0.14064099610E+02 -0.38693958654E+02  0.38756660375E+03  0.38974721766E+03  0.00000000000E+00 0.  1.
         13    1    5    5    0    0 -0.27431198372E+03  0.24132331950E+03 -0.58342755025E+03  0.68838340722E+03  0.00000000000E+00 0. -1.
        -13    1    5    5    0    0 -0.43281949426E+02  0.57311258403E+00 -0.95036360468E+02  0.10442971519E+03  0.00000000000E+00 0.  1.
          4    1    6    6  503    0  0.85877161520E+01  0.34090753769E+01  0.59446420734E+01  0.10986784471E+02  0.00000000000E+00 0.  1.
         -4    1    6    6    0  503  0.38036317307E+03 -0.16350462170E+03 -0.25270076220E+03  0.48504389488E+03  0.00000000000E+00 0. -1.
<mgrwt>
<rscale>  0 0.18438574E+04</rscale>
<asrwt>0</asrwt>
<pdfrwt beam="1">  1        1 0.17151042E+00 0.18438574E+04</pdfrwt>
<pdfrwt beam="2">  1       -2 0.11729444E+00 0.18438574E+04</pdfrwt>
<totfact> 0.57234409E+00</totfact>
</mgrwt>
</event>
<event>
12    5  0.5095719E-008  0.2201523E+04  0.7818608E-02  0.8517795E-01
          1   -1    0    0  501    0  0.00000000000E+00  0.00000000000E+00  0.19819445797E+04  0.19819445797E+04  0.00000000000E+00 0. -1.
         -2   -1    0    0    0  501 -0.00000000000E+00 -0.00000000000E+00 -0.61135685671E+03  0.61135685671E+03  0.00000000000E+00 0.  1.
        -24    2    1    2    0    0 -0.43306878903E+03  0.30705347970E+03  0.14507918705E+04  0.15469137721E+04  0.79465409954E+02 0.  0.
        254    2    1    2    0    0  0.43306878903E+03 -0.30705347970E+03 -0.80204147510E+02  0.10463876643E+04  0.89814476746E+03 0.  0.
         23    2    4    4    0    0  0.41147276443E+03 -0.51670286804E+03  0.18787169662E+03  0.69283535322E+03  0.91833341290E+02 0.  0.
         23    2    4    4    0    0  0.21596024599E+02  0.20964938834E+03 -0.26807584412E+03  0.35355231109E+03  0.93355900530E+02 0.  0.
          3    1    3    3  502    0 -0.42586300576E+03  0.31168679743E+03  0.14179827739E+04  0.15130046617E+04  0.00000000000E+00 0. -1.
         -4    1    3    3    0  502 -0.72057832671E+01 -0.46333177310E+01  0.32809096636E+02  0.33909110395E+02  0.00000000000E+00 0.  1.
         13    1    5    5    0    0  0.13268505347E+03 -0.12026294547E+03  0.21210160575E+02  0.18032850684E+03  0.00000000000E+00 0.  1.
        -13    1    5    5    0    0  0.27878771096E+03 -0.39643992257E+03  0.16666153604E+03  0.51250684638E+03  0.00000000000E+00 0. -1.
          2    1    6    6  503    0  0.29463030288E+02  0.20147683610E+03 -0.20310292691E+03  0.28759656562E+03  0.00000000000E+00 0. -1.
         -2    1    6    6    0  503 -0.78670056886E+01  0.81725522413E+01 -0.64972917218E+02  0.65955745470E+02  0.00000000000E+00 0.  1.
<mgrwt>
<rscale>  0 0.22015226E+04</rscale>
<asrwt>0</asrwt>
<pdfrwt beam="1">  1        1 0.30491455E+00 0.22015226E+04</pdfrwt>
<pdfrwt beam="2">  1       -2 0.94054902E-01 0.22015226E+04</pdfrwt>
<totfact> 0.23416344E+00</totfact>
</mgrwt>
</event>
<event>
12    5  0.5095719E-008  0.2942933E+04  0.7818608E-02  0.8260217E-01
         -2   -1    0    0    0  501 -0.00000000000E+00  0.00000000000E+00  0.18347293239E+04  0.18347293239E+04  0.00000000000E+00 0.  1.
          1   -1    0    0  501    0  0.00000000000E+00 -0.00000000000E+00 -0.11801266603E+04  0.11801266603E+04  0.00000000000E+00 0. -1.
        -24    2    1    2    0    0 -0.14814761752E+03  0.10765405636E+04  0.10843084074E+04  0.15371544496E+04  0.78941611742E+02 0.  0.
        254    2    1    2    0    0  0.14814761752E+03 -0.10765405636E+04 -0.42970574374E+03  0.14777015345E+04  0.90447083832E+03 0.  0.
         23    2    4    4    0    0 -0.12058700483E+03 -0.27948129409E+03  0.24010508289E+03  0.39877431188E+03  0.93378163940E+02 0.  0.
         23    2    4    4    0    0  0.26873462235E+03 -0.79705926947E+03 -0.66981082662E+03  0.10789272227E+04  0.88969837713E+02 0.  0.
          1    1    3    3  502    0 -0.53338864210E+02  0.35682071650E+03  0.30879744231E+03  0.47489148080E+03  0.00000000000E+00 0. -1.
         -2    1    3    3    0  502 -0.94808753308E+02  0.71971984707E+03  0.77551096506E+03  0.10622629688E+04  0.00000000000E+00 0.  1.
         13    1    5    5    0    0 -0.13104313901E+03 -0.26458617545E+03  0.24012410434E+03  0.38057552997E+03  0.00000000000E+00 0. -1.
        -13    1    5    5    0    0  0.10456134178E+02 -0.14895118640E+02 -0.19021451638E-01  0.18198781912E+02  0.00000000000E+00 0.  1.
          4    1    6    6  503    0  0.19912530059E+03 -0.64727872948E+03 -0.57558809600E+03  0.88877572830E+03  0.00000000000E+00 0. -1.
         -4    1    6    6    0  503  0.69609321763E+02 -0.14978054000E+03 -0.94222730627E+02  0.19015149435E+03  0.00000000000E+00 0.  1.
<mgrwt>
<rscale>  0 0.29429325E+04</rscale>
<asrwt>0</asrwt>
<pdfrwt beam="1">  1        1 0.18155795E+00 0.29429325E+04</pdfrwt>
<pdfrwt beam="2">  1       -2 0.28226605E+00 0.29429325E+04</pdfrwt>
<totfact> 0.33836406E-01</totfact>
</mgrwt>
</event>
<event>
12    5  0.5095719E-008  0.1085684E+04  0.7818608E-02  0.9219259E-01
         -2   -1    0    0    0  501 -0.00000000000E+00  0.00000000000E+00  0.36175563052E+03  0.36175563052E+03  0.00000000000E+00 0.  1.
          1   -1    0    0  501    0  0.00000000000E+00 -0.00000000000E+00 -0.81457605157E+03  0.81457605157E+03  0.00000000000E+00 0. -1.
        -24    2    1    2    0    0 -0.12322928047E+02 -0.10705724863E+03  0.39958084027E+02  0.13967425700E+03  0.79367125107E+02 0.  0.
        254    2    1    2    0    0  0.12322928047E+02  0.10705724863E+03 -0.49277850509E+03  0.10366574251E+04  0.90565713870E+03 0.  0.
         23    2    4    4    0    0  0.81861398249E+02  0.37161745235E+03  0.75971551879E+02  0.39887217182E+03  0.92339121373E+02 0.  0.
         23    2    4    4    0    0 -0.69538470202E+02 -0.26456020372E+03 -0.56875005696E+03  0.63778525328E+03  0.92009248291E+02 0.  0.
          3    1    3    3  502    0 -0.14008221288E+02 -0.24285399362E+02 -0.22516085553E+02  0.35958100540E+02  0.00000000000E+00 0. -1.
         -4    1    3    3    0  502  0.16852932409E+01 -0.82771849273E+02  0.62474169581E+02  0.10371615646E+03  0.00000000000E+00 0.  1.
         13    1    5    5    0    0  0.18369677447E+02  0.59977894820E+02  0.49171677165E+02  0.79703492720E+02  0.00000000000E+00 0. -1.
        -13    1    5    5    0    0  0.63491720802E+02  0.31163955753E+03  0.26799874714E+02  0.31916867909E+03  0.00000000000E+00 0.  1.
          4    1    6    6  503    0 -0.46804300709E+02 -0.36346781573E+02 -0.11559120997E+03  0.12989633912E+03  0.00000000000E+00 0. -1.
         -4    1    6    6    0  503 -0.22734169493E+02 -0.22821342215E+03 -0.45315884700E+03  0.50788891416E+03  0.00000000000E+00 0.  1.
<mgrwt>
<rscale>  0 0.10856841E+04</rscale>
<asrwt>0</asrwt>
<pdfrwt beam="1">  1        1 0.12531939E+00 0.10856841E+04</pdfrwt>
<pdfrwt beam="2">  1       -2 0.55654713E-01 0.10856841E+04</pdfrwt>
<totfact> 0.56931011E+01</totfact>
</mgrwt>
</event>
<event>
12    5  0.5095719E-008  0.1338293E+04  0.7818608E-02  0.8999738E-01
          1   -1    0    0  501    0  0.00000000000E+00  0.00000000000E+00  0.10484796096E+04  0.10484796096E+04  0.00000000000E+00 0. -1.
         -2   -1    0    0    0  501 -0.00000000000E+00 -0.00000000000E+00 -0.42705362612E+03  0.42705362612E+03  0.00000000000E+00 0.  1.
        -24    2    1    2    0    0  0.14794541645E+03 -0.28947739995E+03  0.37850742636E+03  0.50569852477E+03  0.82329307133E+02 0.  0.
        254    2    1    2    0    0 -0.14794541645E+03  0.28947739995E+03  0.24291855716E+03  0.96983471098E+03  0.88084330609E+03 0.  0.
         23    2    4    4    0    0 -0.11926300135E+03 -0.25777768952E+03 -0.10268163893E+03  0.31473798457E+03  0.88563419359E+02 0.  0.
         23    2    4    4    0    0 -0.28682415099E+02  0.54725508947E+03  0.34560019609E+03  0.65509672642E+03  0.96960876323E+02 0.  0.
          1    1    3    3  502    0  0.10537196142E+03 -0.24071642736E+03  0.25449127712E+03  0.36580521974E+03  0.00000000000E+00 0. -1.
         -2    1    3    3    0  502  0.42573455029E+02 -0.48760972588E+02  0.12401614924E+03  0.13989330503E+03  0.00000000000E+00 0.  1.
         13    1    5    5    0    0 -0.13093620912E+02 -0.96571488097E+02 -0.30215693504E+01  0.97501923587E+02  0.00000000000E+00 0. -1.
        -13    1    5    5    0    0 -0.10616938044E+03 -0.16120620143E+03 -0.99660069584E+02  0.21723606098E+03  0.00000000000E+00 0.  1.
          4    1    6    6  503    0 -0.26655639274E+02  0.21695817426E+03  0.85651500806E+02  0.23477127608E+03  0.00000000000E+00 0. -1.
         -4    1    6    6    0  503 -0.20267758248E+01  0.33029691521E+03  0.25994869529E+03  0.42032545033E+03  0.00000000000E+00 0.  1.
<mgrwt>
<rscale>  0 0.13382930E+04</rscale>
<asrwt>0</asrwt>
<pdfrwt beam="1">  1        1 0.16130455E+00 0.13382930E+04</pdfrwt>
<pdfrwt beam="2">  1       -2 0.65700558E-01 0.13382930E+04</pdfrwt>
<totfact> 0.25429134E+01</totfact>
</mgrwt>
</event>
<event>
12    5  0.5095719E-008  0.1895410E+04  0.7818608E-02  0.8657144E-01
          1   -1    0    0  501    0  0.00000000000E+00  0.00000000000E+00  0.27103394204E+04  0.27103394204E+04  0.00000000000E+00 0. -1.
         -2   -1    0    0    0  501 -0.00000000000E+00 -0.00000000000E+00 -0.33137735110E+03  0.33137735110E+03  0.00000000000E+00 0.  1.
        -24    2    1    2    0    0 -0.32323005069E+02  0.72344800521E+03  0.73687168579E+03  0.10365637190E+04  0.84039688721E+02 0.  0.
        254    2    1    2    0    0  0.32323005069E+02 -0.72344800521E+03  0.16420903835E+04  0.20051530526E+04  0.89429086070E+03 0.  0.
         23    2    4    4    0    0 -0.56305270235E+02 -0.12430362962E+03  0.12867161071E+04  0.12971884821E+04  0.91858270635E+02 0.  0.
         23    2    4    4    0    0  0.88628275304E+02 -0.59914437559E+03  0.35537427643E+03  0.70796457049E+03  0.89966675730E+02 0.  0.
          3    1    3    3  502    0 -0.27409774169E+02  0.54775638645E+03  0.60671210256E+03  0.81785569021E+03  0.00000000000E+00 0. -1.
         -4    1    3    3    0  502 -0.49132309000E+01  0.17569161876E+03  0.13015958323E+03  0.21870802877E+03  0.00000000000E+00 0.  1.
         13    1    5    5    0    0 -0.13258639007E+02 -0.63729295923E+02  0.26903580812E+03  0.27679862846E+03  0.00000000000E+00 0. -1.
        -13    1    5    5    0    0 -0.43046631228E+02 -0.60574333700E+02  0.10176802990E+04  0.10203898536E+04  0.00000000000E+00 0.  1.
          4    1    6    6  503    0  0.14424807450E+02 -0.72964604595E+02  0.12127288484E+02  0.75359005564E+02  0.00000000000E+00 0. -1.
         -4    1    6    6    0  503  0.74203467854E+02 -0.52617977099E+03  0.34324698794E+03  0.63260556492E+03  0.00000000000E+00 0.  1.
<mgrwt>
<rscale>  0 0.18954103E+04</rscale>
<asrwt>0</asrwt>
<pdfrwt beam="1">  1        1 0.41697528E+00 0.18954103E+04</pdfrwt>
<pdfrwt beam="2">  1       -2 0.50981132E-01 0.18954103E+04</pdfrwt>
<totfact> 0.28893014E+00</totfact>
</mgrwt>
</event>
<event>
12    5  0.5095719E-008  0.2895316E+04  0.7818608E-02  0.8274273E-01
         -2   -1    0    0    0  501 -0.00000000000E+00  0.00000000000E+00  0.13240775223E+04  0.13240775223E+04  0.00000000000E+00 0.  1.
          1   -1    0    0  501    0  0.00000000000E+00 -0.00000000000E+00 -0.15827721326E+04  0.15827721326E+04  0.00000000000E+00 0. -1.
        -24    2    1    2    0    0 -0.69249459975E+03 -0.93334123610E+03 -0.71853111626E+03  0.13688133133E+04  0.81781953684E+02 0.  0.
        254    2    1    2    0    0  0.69249459975E+03  0.93334123610E+03  0.45983650593E+03  0.15380363416E+04  0.89634342871E+03 0.  0.
         23    2    4    4    0    0  0.13160347917E+03  0.24456009182E+02 -0.21632376231E+03  0.27058951806E+03  0.92223343186E+02 0.  0.
         23    2    4    4    0    0  0.56089112059E+03  0.90888522691E+03  0.67616026824E+03  0.12674468235E+04  0.92506958022E+02 0.  0.
          3    1    3    3  502    0 -0.65395926295E+03 -0.90403974524E+03 -0.67752442232E+03  0.13053696493E+04  0.00000000000E+00 0. -1.
         -4    1    3    3    0  502 -0.38535336805E+02 -0.29301490853E+02 -0.41006693941E+02  0.63443663961E+02  0.00000000000E+00 0.  1.
         13    1    5    5    0    0  0.10586833008E+03  0.20156089095E+02 -0.86558651402E+02  0.13822724541E+03  0.00000000000E+00 0. -1.
        -13    1    5    5    0    0  0.25735149090E+02  0.42999200876E+01 -0.12976511091E+03  0.13236227265E+03  0.00000000000E+00 0.  1.
          4    1    6    6  503    0  0.69186631904E+02  0.15151676421E+03  0.75121921700E+02  0.18272225642E+03  0.00000000000E+00 0. -1.
         -4    1    6    6    0  503  0.49170448868E+03  0.75736846270E+03  0.60103834654E+03  0.10847245671E+04  0.00000000000E+00 0.  1.
<mgrwt>
<rscale>  0 0.28953155E+04</rscale>
<asrwt>0</asrwt>
<pdfrwt beam="1">  1        1 0.24350340E+00 0.28953155E+04</pdfrwt>
<pdfrwt beam="2">  1       -2 0.20370424E+00 0.28953155E+04</pdfrwt>
<totfact> 0.54407159E-01</totfact>
</mgrwt>
</event>
<event>
12    5  0.5095719E-008  0.2154493E+04  0.7818608E-02  0.8537612E-01
         -4   -1    0    0    0  501 -0.00000000000E+00  0.00000000000E+00  0.24984836060E+03  0.24984836060E+03  0.00000000000E+00 0.  1.
          1   -1    0    0  501    0  0.00000000000E+00 -0.00000000000E+00 -0.46446565848E+04  0.46446565848E+04  0.00000000000E+00 0. -1.
        -24    2    1    2    0    0 -0.78791703131E+03  0.12843048774E+03 -0.26941169593E+04  0.28110387919E+04  0.79782583216E+02 0.  0.
        254    2    1    2    0    0  0.78791703131E+03 -0.12843048774E+03 -0.17006912648E+04  0.20834661534E+04  0.90065131761E+03 0.  0.
         23    2    4    4    0    0  0.26511314210E+03 -0.72620553494E+02  0.11097850805E+02  0.29060178167E+03  0.93634984453E+02 0.  0.
         23    2    4    4    0    0  0.52280388921E+03 -0.55809934242E+02 -0.17117891156E+04  0.17928643718E+04  0.87761175226E+02 0.  0.
          3    1    3    3  502    0 -0.71993214533E+03  0.13072687087E+03 -0.23947422064E+04  0.25040331555E+04  0.00000000000E+00 0. -1.
         -4    1    3    3    0  502 -0.67984885975E+02 -0.22963831349E+01 -0.29937475289E+03  0.30700563637E+03  0.00000000000E+00 0.  1.
         13    1    5    5    0    0  0.10289357173E+03  0.16149798667E+02 -0.92628914819E+01  0.10456435463E+03  0.00000000000E+00 0.  1.
        -13    1    5    5    0    0  0.16221957038E+03 -0.88770352162E+02  0.20360742286E+02  0.18603742705E+03  0.00000000000E+00 0. -1.
          3    1    6    6  503    0  0.51038720987E+03 -0.52066949290E+02 -0.15979247415E+04  0.16782638501E+04  0.00000000000E+00 0. -1.
         -3    1    6    6    0  503  0.12416679331E+02 -0.37429849511E+01 -0.11386437417E+03  0.11460052167E+03  0.00000000000E+00 0.  1.
<mgrwt>
<rscale>  0 0.21544928E+04</rscale>
<asrwt>0</asrwt>
<pdfrwt beam="1">  1        1 0.71456264E+00 0.21544928E+04</pdfrwt>
<pdfrwt beam="2">  1       -4 0.38438205E-01 0.21544928E+04</pdfrwt>
<totfact> 0.69669707E-02</totfact>
</mgrwt>
</event>
<event>
12    5  0.5095719E-008  0.2037988E+04  0.7818608E-02  0.8589063E-01
          1   -1    0    0  501    0  0.00000000000E+00  0.00000000000E+00  0.23557637821E+04  0.23557637821E+04  0.00000000000E+00 0. -1.
         -4   -1    0    0    0  501 -0.00000000000E+00 -0.00000000000E+00 -0.44076940022E+03  0.44076940022E+03  0.00000000000E+00 0.  1.
        -24    2    1    2    0    0 -0.43543055572E+03 -0.36176217543E+03  0.15594406340E+04  0.16611104668E+04  0.83434115016E+02 0.  0.
        254    2    1    2    0    0  0.43543055572E+03  0.36176217543E+03  0.35555374790E+03  0.11354227155E+04  0.91776611119E+03 0.  0.
         23    2    4    4    0    0 -0.22754591110E+03 -0.97942775068E+02  0.52613039178E+02  0.26866670291E+03  0.89686880393E+02 0.  0.
         23    2    4    4    0    0  0.66297646682E+03  0.45970495049E+03  0.30294070872E+03  0.86675601261E+03  0.92878820649E+02 0.  0.
          3    1    3    3  502    0 -0.36612564259E+03 -0.32421313503E+03  0.14057266855E+04  0.14883647595E+04  0.00000000000E+00 0. -1.
         -4    1    3    3    0  502 -0.69304913134E+02 -0.37549040393E+02  0.15371394847E+03  0.17274570725E+03  0.00000000000E+00 0.  1.
         13    1    5    5    0    0 -0.11091102186E+03 -0.61115348026E+02  0.70687085457E+02  0.14502759939E+03  0.00000000000E+00 0.  1.
        -13    1    5    5    0    0 -0.11663488924E+03 -0.36827427042E+02 -0.18074046279E+02  0.12363910352E+03  0.00000000000E+00 0. -1.
          2    1    6    6  503    0  0.32703459702E+03  0.21460244390E+03  0.19527418719E+03  0.43719314354E+03  0.00000000000E+00 0. -1.
         -2    1    6    6    0  503  0.33594186981E+03  0.24510250659E+03  0.10766652153E+03  0.42956286907E+03  0.00000000000E+00 0.  1.
<mgrwt>
<rscale>  0 0.20379878E+04</rscale>
<asrwt>0</asrwt>
<pdfrwt beam="1">  1        1 0.36242519E+00 0.20379878E+04</pdfrwt>
<pdfrwt beam="2">  1       -4 0.67810679E-01 0.20379878E+04</pdfrwt>
<totfact> 0.15651844E+00</totfact>
</mgrwt>
</event>
<event>
12    5  0.7546963E-008  0.1987017E+04  0.7818608E-02  0.8612715E-01
         -2   -1    0    0    0  501 -0.00000000000E+00  0.00000000000E+00  0.37297171444E+03  0.37297171444E+03  0.00000000000E+00 0.  1.
          1   -1    0    0  501    0  0.00000000000E+00 -0.00000000000E+00 -0.26464719613E+04  0.26464719613E+04  0.00000000000E+00 0. -1.
        -24    2    1    2    0    0 -0.11503665883E+03  0.29275004183E+01 -0.20949777436E+04  0.20996374808E+04  0.79396483429E+02 0.  0.
        254    2    1    2    0    0  0.11503665883E+03 -0.29275004183E+01 -0.17852250330E+03  0.91980619496E+03  0.89494756772E+03 0.  0.
         23    2    4    4    0    0  0.19755309662E+02  0.41538351153E+03 -0.21933335281E+03  0.47902208325E+03  0.91767655935E+02 0.  0.
         23    2    4    4    0    0  0.95281349163E+02 -0.41831101195E+03  0.40810849510E+02  0.44078411171E+03  0.92533612718E+02 0.  0.
          3    1    3    3  502    0 -0.11759002453E+03  0.22720848586E+01 -0.14837516128E+04  0.14884056654E+04  0.00000000000E+00 0. -1.
         -4    1    3    3    0  502  0.25533657044E+01  0.65541555978E+00 -0.61122613076E+03  0.61123181541E+03  0.00000000000E+00 0.  1.
         13    1    5    5    0    0  0.85640319566E+01  0.16229579117E+03 -0.13724550711E+03  0.21271952354E+03  0.00000000000E+00 0.  1.
        -13    1    5    5    0    0  0.11191277706E+02  0.25308772036E+03 -0.82087845696E+02  0.26630255971E+03  0.00000000000E+00 0. -1.
          3    1    6    6  503    0  0.89366011968E+02 -0.42063884852E+03  0.33849942053E+02  0.43135732700E+03  0.00000000000E+00 0. -1.
         -3    1    6    6    0  503  0.59153371946E+01  0.23278365765E+01  0.69609074576E+01  0.94267847056E+01  0.00000000000E+00 0.  1.
<mgrwt>
<rscale>  0 0.19870170E+04</rscale>
<asrwt>0</asrwt>
<pdfrwt beam="1">  1        1 0.40714954E+00 0.19870170E+04</pdfrwt>
<pdfrwt beam="2">  1       -2 0.57380262E-01 0.19870170E+04</pdfrwt>
<totfact> 0.24870438E+00</totfact>
</mgrwt>
</event>
<event>
12    5  0.5095719E-008  0.2229241E+04  0.7818608E-02  0.8506355E-01
          1   -1    0    0  501    0  0.00000000000E+00  0.00000000000E+00  0.94665378936E+03  0.94665378936E+03  0.00000000000E+00 0. -1.
         -2   -1    0    0    0  501 -0.00000000000E+00 -0.00000000000E+00 -0.13123898575E+04  0.13123898575E+04  0.00000000000E+00 0.  1.
        -24    2    1    2    0    0 -0.75959456770E+03 -0.53244816094E+03 -0.17741648263E+03  0.94785063807E+03  0.80369598880E+02 0.  0.
        254    2    1    2    0    0  0.75959456770E+03  0.53244816094E+03 -0.18831958552E+03  0.13111930088E+04  0.90734661992E+03 0.  0.
         23    2    4    4    0    0  0.88054898992E+03  0.17021940758E+03 -0.86937711337E+02  0.90576489649E+03  0.92253518574E+02 0.  0.
         23    2    4    4    0    0 -0.12095442223E+03  0.36222875336E+03 -0.10138187418E+03  0.40542811231E+03  0.90851680361E+02 0.  0.
          3    1    3    3  502    0 -0.14482862086E+03 -0.11186645482E+03 -0.66817632903E+02  0.19481793861E+03  0.00000000000E+00 0. -1.
         -4    1    3    3    0  502 -0.61476594684E+03 -0.42058170611E+03 -0.11059884973E+03  0.75303269947E+03  0.00000000000E+00 0.  1.
         13    1    5    5    0    0  0.85654422688E+03  0.15868171471E+03 -0.69406629108E+02  0.87387938490E+03  0.00000000000E+00 0. -1.
        -13    1    5    5    0    0  0.24004763047E+02  0.11537692863E+02 -0.17531082229E+02  0.31885511595E+02  0.00000000000E+00 0.  1.
          2    1    6    6  503    0 -0.94520174168E+02  0.21718969211E+03 -0.10226013968E+03  0.25799721288E+03  0.00000000000E+00 0. -1.
         -2    1    6    6    0  503 -0.26434248059E+02  0.14503906125E+03  0.87826550300E+00  0.14743089944E+03  0.00000000000E+00 0.  1.
<mgrwt>
<rscale>  0 0.22292410E+04</rscale>
<asrwt>0</asrwt>
<pdfrwt beam="1">  1        1 0.14563905E+00 0.22292410E+04</pdfrwt>
<pdfrwt beam="2">  1       -2 0.20190613E+00 0.22292410E+04</pdfrwt>
<totfact> 0.17179106E+00</totfact>
</mgrwt>
</event>
<event>
12    5  0.5095719E-008  0.1528639E+04  0.7818608E-02  0.8865628E-01
         -2   -1    0    0    0  501 -0.00000000000E+00  0.00000000000E+00  0.88243972576E+03  0.88243972576E+03  0.00000000000E+00 0.  1.
          1   -1    0    0  501    0  0.00000000000E+00 -0.00000000000E+00 -0.66201062910E+03  0.66201062910E+03  0.00000000000E+00 0. -1.
        -24    2    1    2    0    0  0.44707552600E+03 -0.40860672124E+02  0.28339362770E+03  0.53686835066E+03  0.79809505971E+02 0.  0.
        254    2    1    2    0    0 -0.44707552600E+03  0.40860672124E+02 -0.62964531038E+02  0.10075820042E+04  0.89983934264E+03 0.  0.
         23    2    4    4    0    0 -0.14953270783E+03  0.27037819643E+03 -0.38681185982E+03  0.50332652201E+03  0.90828261265E+02 0.  0.
         23    2    4    4    0    0 -0.29754281817E+03 -0.22951752431E+03  0.32384732878E+03  0.50425548220E+03  0.90479148798E+02 0.  0.
          1    1    3    3  502    0  0.16366719226E+03  0.56421291897E-01  0.62395111899E+02  0.17515736637E+03  0.00000000000E+00 0. -1.
         -2    1    3    3    0  502  0.28340833374E+03 -0.40917093416E+02  0.22099851580E+03  0.36171098428E+03  0.00000000000E+00 0.  1.
         13    1    5    5    0    0  0.26999045550E+01  0.35229595299E+01 -0.39025635428E+02  0.39277231942E+02  0.00000000000E+00 0.  1.
        -13    1    5    5    0    0 -0.15223261239E+03  0.26685523690E+03 -0.34778622439E+03  0.46404929007E+03  0.00000000000E+00 0. -1.
          3    1    6    6  503    0 -0.28469370678E+03 -0.18702655491E+03  0.29978256232E+03  0.45376097628E+03  0.00000000000E+00 0. -1.
         -3    1    6    6    0  503 -0.12849111384E+02 -0.42490969395E+02  0.24064766456E+02  0.50494505920E+02  0.00000000000E+00 0.  1.
<mgrwt>
<rscale>  0 0.15286392E+04</rscale>
<asrwt>0</asrwt>
<pdfrwt beam="1">  1        1 0.10184779E+00 0.15286392E+04</pdfrwt>
<pdfrwt beam="2">  1       -2 0.13575996E+00 0.15286392E+04</pdfrwt>
<totfact> 0.97332852E+00</totfact>
</mgrwt>
</event>
<event>
12    5  0.5095719E-008  0.1908231E+04  0.7818608E-02  0.8650770E-01
         -2   -1    0    0    0  501 -0.00000000000E+00  0.00000000000E+00  0.86086437471E+03  0.86086437471E+03  0.00000000000E+00 0.  1.
          1   -1    0    0  501    0  0.00000000000E+00 -0.00000000000E+00 -0.10574673125E+04  0.10574673125E+04  0.00000000000E+00 0. -1.
        -24    2    1    2    0    0  0.31624458811E+03  0.27610683099E+03 -0.69751408715E+03  0.81754005316E+03  0.74834585121E+02 0.  0.
        254    2    1    2    0    0 -0.31624458811E+03 -0.27610683099E+03  0.50091114941E+03  0.11007916340E+04  0.88576781397E+03 0.  0.
         23    2    4    4    0    0 -0.60820397912E+03 -0.19177865778E+03  0.23034726250E+03  0.68406981146E+03  0.90556677335E+02 0.  0.
         23    2    4    4    0    0  0.29195939102E+03 -0.84328173204E+02  0.27056388690E+03  0.41672182254E+03  0.90004075965E+02 0.  0.
          3    1    3    3  502    0  0.21694413460E+03  0.22843962111E+03 -0.54322484218E+03  0.62796707493E+03  0.00000000000E+00 0. -1.
         -4    1    3    3    0  502  0.99300453508E+02  0.47667209873E+02 -0.15428924497E+03  0.18957297823E+03  0.00000000000E+00 0.  1.
         13    1    5    5    0    0 -0.37475481692E+02  0.77146427031E+01  0.24336582973E+02  0.45345305280E+02  0.00000000000E+00 0. -1.
        -13    1    5    5    0    0 -0.57072849743E+03 -0.19949330048E+03  0.20601067953E+03  0.63872450618E+03  0.00000000000E+00 0.  1.
          4    1    6    6  503    0  0.85590273618E+02 -0.68223889685E+02  0.82676150282E+02  0.13716974844E+03  0.00000000000E+00 0. -1.
         -4    1    6    6    0  503  0.20636911740E+03 -0.16104283519E+02  0.18788773662E+03  0.27955207410E+03  0.00000000000E+00 0.  1.
<mgrwt>
<rscale>  0 0.19082305E+04</rscale>
<asrwt>0</asrwt>
<pdfrwt beam="1">  1        1 0.16268728E+00 0.19082305E+04</pdfrwt>
<pdfrwt beam="2">  1       -2 0.13244067E+00 0.19082305E+04</pdfrwt>
<totfact> 0.46381196E+00</totfact>
</mgrwt>
</event>
<event>
12    5  0.5095719E-008  0.3224181E+04  0.7818608E-02  0.8182460E-01
         -2   -1    0    0    0  501 -0.00000000000E+00  0.00000000000E+00  0.98289623441E+03  0.98289623441E+03  0.00000000000E+00 0.  1.
          1   -1    0    0  501    0  0.00000000000E+00 -0.00000000000E+00 -0.26440593859E+04  0.26440593859E+04  0.00000000000E+00 0. -1.
        -24    2    1    2    0    0 -0.59694279150E+03  0.12099229757E+04 -0.13908282989E+04  0.19394338076E+04  0.82133022283E+02 0.  0.
        254    2    1    2    0    0  0.59694279150E+03 -0.12099229757E+04 -0.27033485255E+03  0.16875218127E+04  0.97693123213E+03 0.  0.
         23    2    4    4    0    0  0.77339607823E+03 -0.63726900670E+03 -0.37196517538E+03  0.10728201715E+04  0.91278409254E+02 0.  0.
         23    2    4    4    0    0 -0.17645328673E+03 -0.57265396905E+03  0.10163032283E+03  0.61470164120E+03  0.91983990492E+02 0.  0.
          1    1    3    3  502    0 -0.58025389061E+03  0.11356538246E+04 -0.13038552879E+04  0.18238538315E+04  0.00000000000E+00 0. -1.
         -2    1    3    3    0  502 -0.16688900888E+02  0.74269151127E+02 -0.86973011002E+02  0.11557997605E+03  0.00000000000E+00 0.  1.
         13    1    5    5    0    0  0.11211024438E+03 -0.10412866532E+03 -0.24003002066E+02  0.15487940452E+03  0.00000000000E+00 0. -1.
        -13    1    5    5    0    0  0.66128583385E+03 -0.53314034138E+03 -0.34796217331E+03  0.91794076699E+03  0.00000000000E+00 0.  1.
          2    1    6    6  503    0  0.72795606552E+01 -0.46312512264E+02 -0.48648449684E+01  0.47132870824E+02  0.00000000000E+00 0. -1.
         -2    1    6    6    0  503 -0.18373284739E+03 -0.52634145678E+03  0.10649516779E+03  0.56756877037E+03  0.00000000000E+00 0.  1.
<mgrwt>
<rscale>  0 0.32241811E+04</rscale>
<asrwt>0</asrwt>
<pdfrwt beam="1">  1        1 0.40677837E+00 0.32241811E+04</pdfrwt>
<pdfrwt beam="2">  1       -2 0.15121480E+00 0.32241811E+04</pdfrwt>
<totfact> 0.23146810E-01</totfact>
</mgrwt>
</event>
<event>
12    5  0.5095719E-008  0.1873045E+04  0.7818608E-02  0.8668391E-01
         -2   -1    0    0    0  501 -0.00000000000E+00  0.00000000000E+00  0.66868681844E+03  0.66868681844E+03  0.00000000000E+00 0.  1.
          1   -1    0    0  501    0  0.00000000000E+00 -0.00000000000E+00 -0.13116364923E+04  0.13116364923E+04  0.00000000000E+00 0. -1.
        -24    2    1    2    0    0  0.47369855744E+03  0.52136624705E+03 -0.33816746794E+03  0.78544245555E+03  0.79683923946E+02 0.  0.
        254    2    1    2    0    0 -0.47369855744E+03 -0.52136624705E+03 -0.30478220591E+03  0.11948808552E+04  0.91577015574E+03 0.  0.
         23    2    4    4    0    0 -0.48740501392E+03 -0.23415309016E+03 -0.57131373346E+03  0.79194602218E+03  0.91584948423E+02 0.  0.
         23    2    4    4    0    0  0.13706456485E+02 -0.28721315689E+03  0.26653152755E+03  0.40293483299E+03  0.92941702266E+02 0.  0.
          1    1    3    3  502    0  0.26617616958E+03  0.24200200537E+03 -0.19438417860E+03  0.40890088377E+03  0.00000000000E+00 0. -1.
         -2    1    3    3    0  502  0.20752238785E+03  0.27936424168E+03 -0.14378328934E+03  0.37654157179E+03  0.00000000000E+00 0.  1.
         13    1    5    5    0    0 -0.46192385777E+03 -0.21680716454E+03 -0.50070325402E+03  0.71490051444E+03  0.00000000000E+00 0.  1.
        -13    1    5    5    0    0 -0.25481156154E+02 -0.17345925614E+02 -0.70610479448E+02  0.77045507735E+02  0.00000000000E+00 0. -1.
          4    1    6    6  503    0 -0.65778241808E+00 -0.16591893436E+03  0.21190414995E+03  0.26913359921E+03  0.00000000000E+00 0.  1.
         -4    1    6    6    0  503  0.14364238903E+02 -0.12129422254E+03  0.54627377603E+02  0.13380123379E+03  0.00000000000E+00 0. -1.
<mgrwt>
<rscale>  0 0.18730446E+04</rscale>
<asrwt>0</asrwt>
<pdfrwt beam="1">  1        1 0.20179023E+00 0.18730446E+04</pdfrwt>
<pdfrwt beam="2">  1       -2 0.10287490E+00 0.18730446E+04</pdfrwt>
<totfact> 0.56367771E+00</totfact>
</mgrwt>
</event>
<event>
12    5  0.5095719E-008  0.1970561E+04  0.7818608E-02  0.8620509E-01
          1   -1    0    0  501    0  0.00000000000E+00  0.00000000000E+00  0.15248481483E+04  0.15248481483E+04  0.00000000000E+00 0. -1.
         -2   -1    0    0    0  501 -0.00000000000E+00 -0.00000000000E+00 -0.63663899451E+03  0.63663899451E+03  0.00000000000E+00 0.  1.
        -24    2    1    2    0    0 -0.49517673397E+03 -0.34517719668E+03 -0.18399186315E+03  0.63589966288E+03  0.78537128561E+02 0.  0.
        254    2    1    2    0    0  0.49517673397E+03  0.34517719668E+03  0.10722010169E+04  0.15255874799E+04  0.90191731508E+03 0.  0.
         23    2    4    4    0    0  0.26096204886E+02 -0.17451508151E+01 -0.14410915872E+03  0.17323881785E+03  0.92521245787E+02 0.  0.
         23    2    4    4    0    0  0.46908052909E+03  0.34692234750E+03  0.12163101757E+04  0.13523486621E+04  0.95104166427E+02 0.  0.
          1    1    3    3  502    0 -0.11094066243E+02  0.31380633030E+01  0.79143352067E+00  0.11556474987E+02  0.00000000000E+00 0. -1.
         -2    1    3    3    0  502 -0.48408266773E+03 -0.34831525999E+03 -0.18478329667E+03  0.62434318789E+03  0.00000000000E+00 0.  1.
         13    1    5    5    0    0  0.42274901916E+02 -0.37743456843E+02 -0.86045811615E+02  0.10303211908E+03  0.00000000000E+00 0. -1.
        -13    1    5    5    0    0 -0.16178697030E+02  0.35998306028E+02 -0.58063347108E+02  0.70206698768E+02  0.00000000000E+00 0.  1.
          1    1    6    6  503    0  0.10912271865E+03  0.93391602254E+02  0.39781884556E+03  0.42295341703E+03  0.00000000000E+00 0. -1.
         -1    1    6    6    0  503  0.35995781044E+03  0.25353074524E+03  0.81849133010E+03  0.92939524505E+03  0.00000000000E+00 0.  1.
<mgrwt>
<rscale>  0 0.19705611E+04</rscale>
<asrwt>0</asrwt>
<pdfrwt beam="1">  1        1 0.23459202E+00 0.19705611E+04</pdfrwt>
<pdfrwt beam="2">  1       -2 0.97944461E-01 0.19705611E+04</pdfrwt>
<totfact> 0.44525804E+00</totfact>
</mgrwt>
</event>
<event>
12    5  0.5095719E-008  0.2613871E+04  0.7818608E-02  0.8363505E-01
         -2   -1    0    0    0  501 -0.00000000000E+00  0.00000000000E+00  0.11453089377E+04  0.11453089377E+04  0.00000000000E+00 0.  1.
          1   -1    0    0  501    0  0.00000000000E+00 -0.00000000000E+00 -0.14913705521E+04  0.14913705521E+04  0.00000000000E+00 0. -1.
        -24    2    1    2    0    0  0.10742983374E+03 -0.11234123711E+04  0.88457012464E+02  0.11347790483E+04  0.79387157341E+02 0.  0.
        254    2    1    2    0    0 -0.10742983374E+03  0.11234123711E+04 -0.43451862680E+03  0.15019004415E+04  0.89067501065E+03 0.  0.
         23    2    4    4    0    0 -0.17767477698E+03 -0.85659399646E+02 -0.47441994379E+02  0.22720099276E+03  0.10229217544E+03 0.  0.
         23    2    4    4    0    0  0.70244943242E+02  0.12090717707E+04 -0.38707663242E+03  0.12746994488E+04  0.90782523380E+02 0.  0.
          3    1    3    3  502    0 -0.86209202847E+01 -0.67971162966E+02  0.16895402961E+02  0.70568079914E+02  0.00000000000E+00 0. -1.
         -4    1    3    3    0  502  0.11605075402E+03 -0.10554412081E+04  0.71561609503E+02  0.10642109684E+04  0.00000000000E+00 0.  1.
         13    1    5    5    0    0 -0.10985543069E+03 -0.15936151271E+02 -0.64597700328E+02  0.12843301545E+03  0.00000000000E+00 0.  1.
        -13    1    5    5    0    0 -0.67819346287E+02 -0.69723248375E+02  0.17155705949E+02  0.98767977308E+02  0.00000000000E+00 0. -1.
          3    1    6    6  503    0  0.48011097768E+02  0.88914968138E+03 -0.32597837874E+03  0.94823737788E+03  0.00000000000E+00 0. -1.
         -3    1    6    6    0  503  0.22233845474E+02  0.31992208933E+03 -0.61098253680E+02  0.32646207089E+03  0.00000000000E+00 0.  1.
<mgrwt>
<rscale>  0 0.26138707E+04</rscale>
<asrwt>0</asrwt>
<pdfrwt beam="1">  1        1 0.22944162E+00 0.26138707E+04</pdfrwt>
<pdfrwt beam="2">  1       -2 0.17620138E+00 0.26138707E+04</pdfrwt>
<totfact> 0.98734570E-01</totfact>
</mgrwt>
</event>
<event>
12    5  0.5095719E-008  0.1843306E+04  0.7818608E-02  0.8683603E-01
          1   -1    0    0  501    0  0.00000000000E+00  0.00000000000E+00  0.17034953890E+04  0.17034953890E+04  0.00000000000E+00 0. -1.
         -2   -1    0    0    0  501 -0.00000000000E+00 -0.00000000000E+00 -0.49864785828E+03  0.49864785828E+03  0.00000000000E+00 0.  1.
        -24    2    1    2    0    0 -0.29134409410E+03 -0.17243423661E+03 -0.27164978820E+03  0.44120396033E+03  0.79071992933E+02 0.  0.
        254    2    1    2    0    0  0.29134409410E+03  0.17243423661E+03  0.14764973189E+04  0.17609392869E+04  0.89791307620E+03 0.  0.
         23    2    4    4    0    0 -0.25713840696E+02 -0.22792126268E+03  0.10817037577E+04  0.11095286093E+04  0.91440756375E+02 0.  0.
         23    2    4    4    0    0  0.31705793479E+03  0.40035549929E+03  0.39479356117E+03  0.65141067757E+03  0.87542304536E+02 0.  0.
          3    1    3    3  502    0 -0.28804400978E+01 -0.16648057383E+02 -0.28129744742E+02  0.32813675336E+02  0.00000000000E+00 0. -1.
         -4    1    3    3    0  502 -0.28846365400E+03 -0.15578617923E+03 -0.24352004346E+03  0.40839028500E+03  0.00000000000E+00 0.  1.
         13    1    5    5    0    0 -0.31907114788E+01  0.86812011651E+01  0.41236795446E+02  0.42261296620E+02  0.00000000000E+00 0. -1.
        -13    1    5    5    0    0 -0.22523129218E+02 -0.23660246384E+03  0.10404669623E+04  0.10672673127E+04  0.00000000000E+00 0.  1.
          4    1    6    6  503    0  0.65934775301E+02  0.14781885420E+03  0.13053500099E+03  0.20793555428E+03  0.00000000000E+00 0. -1.
         -4    1    6    6    0  503  0.25112315949E+03  0.25253664509E+03  0.26425856018E+03  0.44347512328E+03  0.00000000000E+00 0.  1.
<mgrwt>
<rscale>  0 0.18433061E+04</rscale>
<asrwt>0</asrwt>
<pdfrwt beam="1">  1        1 0.26207621E+00 0.18433061E+04</pdfrwt>
<pdfrwt beam="2">  1       -2 0.76715056E-01 0.18433061E+04</pdfrwt>
<totfact> 0.59396083E+00</totfact>
</mgrwt>
</event>
<event>
12    5  0.5095719E-008  0.1763597E+04  0.7818608E-02  0.8725901E-01
         -2   -1    0    0    0  501 -0.00000000000E+00  0.00000000000E+00  0.77789621540E+03  0.77789621540E+03  0.00000000000E+00 0.  1.
          1   -1    0    0  501    0  0.00000000000E+00 -0.00000000000E+00 -0.99957884605E+03  0.99957884605E+03  0.00000000000E+00 0. -1.
        -24    2    1    2    0    0  0.20503912060E+03 -0.38454250118E+03  0.39736177293E+03  0.59502690149E+03  0.79035806548E+02 0.  0.
        254    2    1    2    0    0 -0.20503912060E+03  0.38454250118E+03 -0.61904440358E+03  0.11824481600E+04  0.90832466729E+03 0.  0.
         23    2    4    4    0    0 -0.49712252557E+03  0.62475630574E+02 -0.13882020953E+03  0.52847834646E+03  0.94785559331E+02 0.  0.
         23    2    4    4    0    0  0.29208340497E+03  0.32206687061E+03 -0.48022419405E+03  0.65396981351E+03  0.89562580499E+02 0.  0.
          3    1    3    3  502    0  0.11707285598E+03 -0.17762508703E+03  0.14734098206E+03  0.25877807122E+03  0.00000000000E+00 0. -1.
         -4    1    3    3    0  502  0.87966264623E+02 -0.20691741415E+03  0.25002079087E+03  0.33624883027E+03  0.00000000000E+00 0.  1.
         13    1    5    5    0    0 -0.50052212342E+02 -0.10692553075E+02 -0.39623322160E+02  0.64726828368E+02  0.00000000000E+00 0. -1.
        -13    1    5    5    0    0 -0.44707031322E+03  0.73168183649E+02 -0.99196887373E+02  0.46375151809E+03  0.00000000000E+00 0.  1.
          3    1    6    6  503    0  0.17811722143E+03  0.18064524470E+03 -0.21513686334E+03  0.33262940184E+03  0.00000000000E+00 0. -1.
         -3    1    6    6    0  503  0.11396618353E+03  0.14142162591E+03 -0.26508733071E+03  0.32134041166E+03  0.00000000000E+00 0.  1.
<mgrwt>
<rscale>  0 0.17635970E+04</rscale>
<asrwt>0</asrwt>
<pdfrwt beam="1">  1        1 0.15378136E+00 0.17635970E+04</pdfrwt>
<pdfrwt beam="2">  1       -2 0.11967634E+00 0.17635970E+04</pdfrwt>
<totfact> 0.67165535E+00</totfact>
</mgrwt>
</event>
<event>
12    5  0.5095719E-008  0.1763544E+04  0.7818608E-02  0.8725930E-01
         -2   -1    0    0    0  501 -0.00000000000E+00  0.00000000000E+00  0.52804781129E+03  0.52804781129E+03  0.00000000000E+00 0.  1.
          1   -1    0    0  501    0  0.00000000000E+00 -0.00000000000E+00 -0.14724464895E+04  0.14724464895E+04  0.00000000000E+00 0. -1.
        -24    2    1    2    0    0 -0.28324752797E+03  0.53907716331E+03 -0.96493381552E+02  0.62126522261E+03  0.76329247566E+02 0.  0.
        254    2    1    2    0    0  0.28324752797E+03 -0.53907716331E+03 -0.84790529666E+03  0.13792290782E+04  0.90138565990E+03 0.  0.
         23    2    4    4    0    0  0.10908652980E+03 -0.76463921901E+03 -0.69590415666E+03  0.10437384204E+04  0.92381213652E+02 0.  0.
         23    2    4    4    0    0  0.17416099817E+03  0.22556205570E+03 -0.15200114000E+03  0.33549065782E+03  0.90770813972E+02 0.  0.
          1    1    3    3  502    0 -0.23041995942E+02  0.13102860789E+02  0.35059613703E+00  0.26509271123E+02  0.00000000000E+00 0. -1.
         -2    1    3    3    0  502 -0.26020553203E+03  0.52597430252E+03 -0.96843977689E+02  0.59475595148E+03  0.00000000000E+00 0.  1.
         13    1    5    5    0    0  0.12326469686E+03 -0.65280310433E+03 -0.61128313888E+03  0.90278078978E+03  0.00000000000E+00 0. -1.
        -13    1    5    5    0    0 -0.14178167051E+02 -0.11183611468E+03 -0.84621017780E+02  0.14095763058E+03  0.00000000000E+00 0.  1.
          1    1    6    6  503    0  0.85657723271E+02  0.17580919464E+03 -0.81417667129E+02  0.21183709542E+03  0.00000000000E+00 0. -1.
         -1    1    6    6    0  503  0.88503274895E+02  0.49752861057E+02 -0.70583472872E+02  0.12365356240E+03  0.00000000000E+00 0.  1.
<mgrwt>
<rscale>  0 0.17635443E+04</rscale>
<asrwt>0</asrwt>
<pdfrwt beam="1">  1        1 0.22653023E+00 0.17635443E+04</pdfrwt>
<pdfrwt beam="2">  1       -2 0.81238125E-01 0.17635443E+04</pdfrwt>
<totfact> 0.75821588E+00</totfact>
</mgrwt>
</event>
<event>
12    5  0.5095719E-008  0.1468308E+04  0.7818608E-02  0.8905805E-01
          1   -1    0    0  501    0  0.00000000000E+00  0.00000000000E+00  0.10343846621E+04  0.10343846621E+04  0.00000000000E+00 0. -1.
         -2   -1    0    0    0  501 -0.00000000000E+00 -0.00000000000E+00 -0.52106575461E+03  0.52106575461E+03  0.00000000000E+00 0.  1.
        -24    2    1    2    0    0  0.24104313600E+03 -0.92919995733E+00 -0.25550135030E+03  0.36027662154E+03  0.80097735284E+02 0.  0.
        254    2    1    2    0    0 -0.24104313600E+03  0.92919995733E+00  0.76882025779E+03  0.11951737952E+04  0.88275316768E+03 0.  0.
         23    2    4    4    0    0  0.20975246478E+03  0.28449476649E+03  0.39736447124E+03  0.53950725842E+03  0.90753458586E+02 0.  0.
         23    2    4    4    0    0 -0.45079560078E+03 -0.28356556654E+03  0.37145578655E+03  0.65566653674E+03  0.91066469346E+02 0.  0.
          1    1    3    3  502    0  0.25009160799E+01 -0.12608002759E+02 -0.26236708657E+02  0.29216111924E+02  0.00000000000E+00 0. -1.
         -2    1    3    3    0  502  0.23854221992E+03  0.11678802802E+02 -0.22926464164E+03  0.33106050961E+03  0.00000000000E+00 0.  1.
         13    1    5    5    0    0  0.14088590930E+03  0.21509790721E+03  0.22656981452E+03  0.34270954171E+03  0.00000000000E+00 0. -1.
        -13    1    5    5    0    0  0.68866555482E+02  0.69396859287E+02  0.17079465671E+03  0.19679771672E+03  0.00000000000E+00 0.  1.
          1    1    6    6  503    0 -0.38219232114E+03 -0.26249248093E+03  0.34947699338E+03  0.58060954331E+03  0.00000000000E+00 0. -1.
         -1    1    6    6    0  503 -0.68603279637E+02 -0.21073085610E+02  0.21978793171E+02  0.75056993434E+02  0.00000000000E+00 0.  1.
<mgrwt>
<rscale>  0 0.14683084E+04</rscale>
<asrwt>0</asrwt>
<pdfrwt beam="1">  1        1 0.15913610E+00 0.14683084E+04</pdfrwt>
<pdfrwt beam="2">  1       -2 0.80163963E-01 0.14683084E+04</pdfrwt>
<totfact> 0.16646215E+01</totfact>
</mgrwt>
</event>
<event>
12    5  0.5095719E-008  0.1246756E+04  0.7818608E-02  0.9072887E-01
         -2   -1    0    0    0  501 -0.00000000000E+00  0.00000000000E+00  0.70830158586E+03  0.70830158586E+03  0.00000000000E+00 0.  1.
          1   -1    0    0  501    0  0.00000000000E+00 -0.00000000000E+00 -0.54863697911E+03  0.54863697911E+03  0.00000000000E+00 0. -1.
        -24    2    1    2    0    0  0.28430250819E+03 -0.63311000709E+02  0.65660879789E+02  0.30899585334E+03  0.79566872949E+02 0.  0.
        254    2    1    2    0    0 -0.28430250819E+03  0.63311000709E+02  0.94003726953E+02  0.94794271163E+03  0.89717472372E+03 0.  0.
         23    2    4    4    0    0  0.16600427330E+03  0.31385782925E+03  0.19381077226E+03  0.41491424808E+03  0.92342092684E+02 0.  0.
         23    2    4    4    0    0 -0.45030678150E+03 -0.25054682854E+03 -0.99807045310E+02  0.53302846355E+03  0.92779232097E+02 0.  0.
          1    1    3    3  502    0  0.33525879596E+02 -0.36276170752E+02  0.55855661952E+01  0.49710599643E+02  0.00000000000E+00 0. -1.
         -2    1    3    3    0  502  0.25077662860E+03 -0.27034829956E+02  0.60075313594E+02  0.25928525370E+03  0.00000000000E+00 0.  1.
         13    1    5    5    0    0  0.15049483289E+03  0.26722044365E+03  0.12692331898E+03  0.33191111631E+03  0.00000000000E+00 0. -1.
        -13    1    5    5    0    0  0.15509440418E+02  0.46637385598E+02  0.66887453279E+02  0.83003131770E+02  0.00000000000E+00 0.  1.
          4    1    6    6  503    0 -0.41677424935E+03 -0.23587733919E+03 -0.66401632446E+02  0.48347499507E+03  0.00000000000E+00 0. -1.
         -4    1    6    6    0  503 -0.33532532150E+02 -0.14669489344E+02 -0.33405412865E+02  0.49553468482E+02  0.00000000000E+00 0.  1.
<mgrwt>
<rscale>  0 0.12467565E+04</rscale>
<asrwt>0</asrwt>
<pdfrwt beam="1">  1        1 0.84405689E-01 0.12467565E+04</pdfrwt>
<pdfrwt beam="2">  1       -2 0.10896948E+00 0.12467565E+04</pdfrwt>
<totfact> 0.22577435E+01</totfact>
</mgrwt>
</event>
<event>
12    5  0.5095719E-008  0.1915034E+04  0.7818608E-02  0.8647409E-01
          1   -1    0    0  501    0  0.00000000000E+00  0.00000000000E+00  0.19434360808E+04  0.19434360808E+04  0.00000000000E+00 0. -1.
         -2   -1    0    0    0  501 -0.00000000000E+00 -0.00000000000E+00 -0.47176168647E+03  0.47176168647E+03  0.00000000000E+00 0.  1.
        -24    2    1    2    0    0 -0.25638148247E+03  0.56686307458E+02 -0.30358206451E+03  0.41068295950E+03  0.86911571869E+02 0.  0.
        254    2    1    2    0    0  0.25638148247E+03 -0.56686307458E+02  0.17752564589E+04  0.20045148078E+04  0.89308416060E+03 0.  0.
         23    2    4    4    0    0  0.25671032247E+03  0.16957370692E+03  0.13825867210E+03  0.34946114996E+03  0.91390388851E+02 0.  0.
         23    2    4    4    0    0 -0.32884000201E+00 -0.22626001438E+03  0.16369977868E+04  0.16550536578E+04  0.90813843765E+02 0.  0.
          1    1    3    3  502    0 -0.41195508225E+02 -0.46814543552E+01 -0.12052030958E+02  0.43176815109E+02  0.00000000000E+00 0. -1.
         -2    1    3    3    0  502 -0.21518597425E+03  0.61367761813E+02 -0.29153003355E+03  0.36750614439E+03  0.00000000000E+00 0.  1.
         13    1    5    5    0    0  0.87902521758E+02  0.10698503196E+03  0.38896158300E+02  0.14382475978E+03  0.00000000000E+00 0.  1.
        -13    1    5    5    0    0  0.16880780072E+03  0.62588674956E+02  0.99362513803E+02  0.20563639018E+03  0.00000000000E+00 0. -1.
          2    1    6    6  503    0 -0.45024774338E+02 -0.10625817478E+03  0.73208242806E+03  0.74112260220E+03  0.00000000000E+00 0. -1.
         -2    1    6    6    0  503  0.44695934336E+02 -0.12000183960E+03  0.90491535870E+03  0.91393105564E+03  0.00000000000E+00 0.  1.
<mgrwt>
<rscale>  0 0.19150339E+04</rscale>
<asrwt>0</asrwt>
<pdfrwt beam="1">  1        1 0.29899016E+00 0.19150339E+04</pdfrwt>
<pdfrwt beam="2">  1       -2 0.72578722E-01 0.19150339E+04</pdfrwt>
<totfact> 0.45863871E+00</totfact>
</mgrwt>
</event>
<event>
12    5  0.5095719E-008  0.1356664E+04  0.7818608E-02  0.8985799E-01
         -2   -1    0    0    0  501 -0.00000000000E+00  0.00000000000E+00  0.14349678938E+04  0.14349678938E+04  0.00000000000E+00 0.  1.
          1   -1    0    0  501    0  0.00000000000E+00 -0.00000000000E+00 -0.32065835798E+03  0.32065835798E+03  0.00000000000E+00 0. -1.
        -24    2    1    2    0    0  0.42361396518E+02  0.37029786830E+03  0.40680438160E+03  0.55801618448E+03  0.83529983079E+02 0.  0.
        254    2    1    2    0    0 -0.42361396518E+02 -0.37029786830E+03  0.70750515425E+03  0.11976100673E+04  0.89151070148E+03 0.  0.
         23    2    4    4    0    0  0.16918548798E+03 -0.33421238615E+03  0.84337768025E+03  0.92770205642E+03  0.94992344692E+02 0.  0.
         23    2    4    4    0    0 -0.21154688449E+03 -0.36085482151E+02 -0.13587252600E+03  0.26990801090E+03  0.91294822765E+02 0.  0.
          1    1    3    3  502    0  0.33555147562E+02  0.19928357151E+03  0.16068101627E+03  0.25818264618E+03  0.00000000000E+00 0. -1.
         -2    1    3    3    0  502  0.88062489555E+01  0.17101429680E+03  0.24612336533E+03  0.29983353830E+03  0.00000000000E+00 0.  1.
         13    1    5    5    0    0  0.91702293793E+02 -0.10508936033E+03  0.38391434205E+03  0.40846457175E+03  0.00000000000E+00 0. -1.
        -13    1    5    5    0    0  0.77483194182E+02 -0.22912302582E+03  0.45946333819E+03  0.51923748467E+03  0.00000000000E+00 0.  1.
          4    1    6    6  503    0 -0.48691043790E+02 -0.23543177386E+02  0.48629017300E+01  0.54302364222E+02  0.00000000000E+00 0. -1.
         -4    1    6    6    0  503 -0.16285584070E+03 -0.12542304765E+02 -0.14073542773E+03  0.21560564667E+03  0.00000000000E+00 0.  1.
<mgrwt>
<rscale>  0 0.13566642E+04</rscale>
<asrwt>0</asrwt>
<pdfrwt beam="1">  1        1 0.49332056E-01 0.13566642E+04</pdfrwt>
<pdfrwt beam="2">  1       -2 0.22076429E+00 0.13566642E+04</pdfrwt>
<totfact> 0.67079962E+00</totfact>
</mgrwt>
</event>
<event>
12    5  0.5095719E-008  0.1009115E+04  0.7818608E-02  0.9298604E-01
          1   -1    0    0  501    0  0.00000000000E+00  0.00000000000E+00  0.16602095368E+04  0.16602095368E+04  0.00000000000E+00 0. -1.
         -2   -1    0    0    0  501 -0.00000000000E+00 -0.00000000000E+00 -0.15334090201E+03  0.15334090201E+03  0.00000000000E+00 0.  1.
        -24    2    1    2    0    0  0.43555546634E+01  0.68852417023E+02  0.87919416789E+02  0.13802628577E+03  0.81004972238E+02 0.  0.
        254    2    1    2    0    0 -0.43555546634E+01 -0.68852417023E+02  0.14189492180E+04  0.16755241531E+04  0.88837192549E+03 0.  0.
         23    2    4    4    0    0 -0.80374516120E+02 -0.31792517151E+03  0.14151264828E+03  0.36876057802E+03  0.91771764461E+02 0.  0.
         23    2    4    4    0    0  0.76018961457E+02  0.24907275449E+03  0.12774365697E+04  0.13067635750E+04  0.89278955255E+02 0.  0.
          1    1    3    3  502    0  0.19076778723E+02  0.50471563020E+02  0.98421576889E+02  0.11224129791E+03  0.00000000000E+00 0. -1.
         -2    1    3    3    0  502 -0.14721224059E+02  0.18380854002E+02 -0.10502160101E+02  0.25784987850E+02  0.00000000000E+00 0.  1.
         13    1    5    5    0    0 -0.83575985651E+02 -0.17150601612E+03  0.10521721197E+03  0.21787592946E+03  0.00000000000E+00 0. -1.
        -13    1    5    5    0    0  0.32014695310E+01 -0.14641915539E+03  0.36295436312E+02  0.15088464856E+03  0.00000000000E+00 0.  1.
          3    1    6    6  503    0  0.20157049969E+02  0.91020150490E+02  0.27410991519E+03  0.28952930778E+03  0.00000000000E+00 0. -1.
         -3    1    6    6    0  503  0.55861911488E+02  0.15805260400E+03  0.10033266545E+04  0.10172342673E+04  0.00000000000E+00 0.  1.
<mgrwt>
<rscale>  0 0.10091145E+04</rscale>
<asrwt>0</asrwt>
<pdfrwt beam="1">  1        1 0.25541684E+00 0.10091145E+04</pdfrwt>
<pdfrwt beam="2">  1       -2 0.23590909E-01 0.10091145E+04</pdfrwt>
<totfact> 0.71180451E+01</totfact>
</mgrwt>
</event>
<event>
12    5  0.5095719E-008  0.1331949E+04  0.7818608E-02  0.9004606E-01
          1   -1    0    0  501    0  0.00000000000E+00  0.00000000000E+00  0.33768751354E+04  0.33768751354E+04  0.00000000000E+00 0. -1.
         -2   -1    0    0    0  501 -0.00000000000E+00 -0.00000000000E+00 -0.13134089203E+03  0.13134089203E+03  0.00000000000E+00 0.  1.
        -24    2    1    2    0    0 -0.17925456092E+03  0.22795702658E+03  0.15283449197E+04  0.15576716995E+04  0.80039529746E+02 0.  0.
        254    2    1    2    0    0  0.17925456092E+03 -0.22795702658E+03  0.17171893237E+04  0.19505443279E+04  0.87851431307E+03 0.  0.
         23    2    4    4    0    0  0.32188309488E+03  0.23673842959E+03  0.57573276453E+03  0.70654687775E+03  0.89924765684E+02 0.  0.
         23    2    4    4    0    0 -0.14262853396E+03 -0.46469545617E+03  0.11414565592E+04  0.12439974502E+04  0.91223976800E+02 0.  0.
          1    1    3    3  502    0 -0.15359487201E+03  0.19622131787E+03  0.11249808515E+04  0.11522482834E+04  0.00000000000E+00 0. -1.
         -2    1    3    3    0  502 -0.25659688907E+02  0.31735708706E+02  0.40336406816E+03  0.40542341610E+03  0.00000000000E+00 0.  1.
         13    1    5    5    0    0  0.14776923895E+03  0.67283321517E+02  0.28147055682E+03  0.32494379159E+03  0.00000000000E+00 0. -1.
        -13    1    5    5    0    0  0.17411385593E+03  0.16945510808E+03  0.29426220772E+03  0.38160308616E+03  0.00000000000E+00 0.  1.
          3    1    6    6  503    0  0.79243885035E+01 -0.95519642149E+02  0.21540069222E+03  0.23576313575E+03  0.00000000000E+00 0. -1.
         -3    1    6    6    0  503 -0.15055292246E+03 -0.36917581402E+03  0.92605586693E+03  0.10082343144E+04  0.00000000000E+00 0.  1.
<mgrwt>
<rscale>  0 0.13319486E+04</rscale>
<asrwt>0</asrwt>
<pdfrwt beam="1">  1        1 0.51951919E+00 0.13319486E+04</pdfrwt>
<pdfrwt beam="2">  1       -2 0.20206294E-01 0.13319486E+04</pdfrwt>
<totfact> 0.57162266E+00</totfact>
</mgrwt>
</event>
<event>
12    5  0.5095719E-008  0.1314939E+04  0.7818608E-02  0.9017802E-01
          1   -1    0    0  501    0  0.00000000000E+00  0.00000000000E+00  0.22183671073E+03  0.22183671073E+03  0.00000000000E+00 0. -1.
         -2   -1    0    0    0  501 -0.00000000000E+00 -0.00000000000E+00 -0.19485782716E+04  0.19485782716E+04  0.00000000000E+00 0.  1.
        -24    2    1    2    0    0  0.26683754356E+03  0.16625237095E+03 -0.59438005838E+03  0.67710483835E+03  0.79631544115E+02 0.  0.
        254    2    1    2    0    0 -0.26683754356E+03 -0.16625237095E+03 -0.11323615025E+04  0.14933101440E+04  0.92135253205E+03 0.  0.
         23    2    4    4    0    0 -0.59915575906E+03 -0.10839114854E+03 -0.62759248408E+03  0.87925016777E+03  0.92044917089E+02 0.  0.
         23    2    4    4    0    0  0.33231821549E+03 -0.57861222413E+02 -0.50476901846E+03  0.61405997625E+03  0.92166018854E+02 0.  0.
          1    1    3    3  502    0  0.16244062921E+03  0.12910749743E+03 -0.44608796428E+03  0.49198595080E+03  0.00000000000E+00 0. -1.
         -2    1    3    3    0  502  0.10439691435E+03  0.37144873521E+02 -0.14829209410E+03  0.18511888755E+03  0.00000000000E+00 0.  1.
         13    1    5    5    0    0 -0.53228572511E+03 -0.67515850636E+02 -0.56259456577E+03  0.77743110864E+03  0.00000000000E+00 0. -1.
        -13    1    5    5    0    0 -0.66870033941E+02 -0.40875297900E+02 -0.64997918309E+02  0.10181905913E+03  0.00000000000E+00 0.  1.
          1    1    6    6  503    0  0.18642274929E+03 -0.60784497867E+02 -0.22447606440E+03  0.29805653847E+03  0.00000000000E+00 0. -1.
         -1    1    6    6    0  503  0.14589546620E+03  0.29232754543E+01 -0.28029295406E+03  0.31600343779E+03  0.00000000000E+00 0.  1.
<mgrwt>
<rscale>  0 0.13149391E+04</rscale>
<asrwt>0</asrwt>
<pdfrwt beam="1">  1        1 0.34128724E-01 0.13149391E+04</pdfrwt>
<pdfrwt beam="2">  1       -2 0.29978128E+00 0.13149391E+04</pdfrwt>
<totfact> 0.35678446E+00</totfact>
</mgrwt>
</event>
<event>
12    5  0.5095719E-008  0.1289755E+04  0.7818608E-02  0.9037729E-01
          1   -1    0    0  501    0  0.00000000000E+00  0.00000000000E+00  0.17136111390E+04  0.17136111390E+04  0.00000000000E+00 0. -1.
         -2   -1    0    0    0  501 -0.00000000000E+00 -0.00000000000E+00 -0.24268449120E+03  0.24268449120E+03  0.00000000000E+00 0.  1.
        -24    2    1    2    0    0 -0.13499598475E+03  0.11799414048E+03 -0.29063246278E+02  0.19845972900E+03  0.79969110685E+02 0.  0.
        254    2    1    2    0    0  0.13499598475E+03 -0.11799414048E+03  0.14999898940E+04  0.17578359012E+04  0.89881635507E+03 0.  0.
         23    2    4    4    0    0 -0.27493206169E+03 -0.32509401879E+03  0.57683469907E+03  0.72237766646E+03  0.88416420158E+02 0.  0.
         23    2    4    4    0    0  0.40992804644E+03  0.20709987831E+03  0.92315519496E+03  0.10354582347E+04  0.95009888851E+02 0.  0.
          1    1    3    3  502    0 -0.44375036832E+02  0.12170997200E+02  0.20782035398E+02  0.50489306412E+02  0.00000000000E+00 0. -1.
         -2    1    3    3    0  502 -0.90620947918E+02  0.10582314328E+03 -0.49845281677E+02  0.14797042259E+03  0.00000000000E+00 0.  1.
         13    1    5    5    0    0 -0.28577240858E+02 -0.77963018224E+02  0.80467916307E+02  0.11562861437E+03  0.00000000000E+00 0. -1.
        -13    1    5    5    0    0 -0.24635482083E+03 -0.24713100057E+03  0.49636678276E+03  0.60674905209E+03  0.00000000000E+00 0.  1.
          3    1    6    6  503    0  0.43398780295E+01  0.18772828340E+02  0.64795975427E+02  0.67600089177E+02  0.00000000000E+00 0. -1.
         -3    1    6    6    0  503  0.40558816841E+03  0.18832704997E+03  0.85835921954E+03  0.96785814553E+03  0.00000000000E+00 0.  1.
<mgrwt>
<rscale>  0 0.12897548E+04</rscale>
<asrwt>0</asrwt>
<pdfrwt beam="1">  1        1 0.26363248E+00 0.12897548E+04</pdfrwt>
<pdfrwt beam="2">  1       -2 0.37336077E-01 0.12897548E+04</pdfrwt>
<totfact> 0.27240575E+01</totfact>
</mgrwt>
</event>
<event>
12    5  0.5095719E-008  0.3304991E+04  0.7818608E-02  0.8161627E-01
         -2   -1    0    0    0  501 -0.00000000000E+00  0.00000000000E+00  0.13310589785E+04  0.13310589785E+04  0.00000000000E+00 0.  1.
          1   -1    0    0  501    0  0.00000000000E+00 -0.00000000000E+00 -0.20515550665E+04  0.20515550665E+04  0.00000000000E+00 0. -1.
        -24    2    1    2    0    0  0.96553194118E+03 -0.10215902580E+04 -0.98330281917E+03  0.17172864469E+04  0.79307766264E+02 0.  0.
        254    2    1    2    0    0 -0.96553194118E+03  0.10215902580E+04  0.26280673112E+03  0.16653275981E+04  0.85343426597E+03 0.  0.
         23    2    4    4    0    0 -0.10845163308E+04  0.10223157059E+04  0.22679040492E+03  0.15103611934E+04  0.91934609269E+02 0.  0.
         23    2    4    4    0    0  0.11898438964E+03 -0.72544787469E+00  0.36016326194E+02  0.15496640471E+03  0.92518104075E+02 0.  0.
          3    1    3    3  502    0  0.60222936722E+03 -0.58375485538E+03 -0.57007655315E+03  0.10141189370E+04  0.00000000000E+00 0. -1.
         -4    1    3    3    0  502  0.36330257395E+03 -0.43783540267E+03 -0.41322626602E+03  0.70316750992E+03  0.00000000000E+00 0.  1.
         13    1    5    5    0    0 -0.10778478389E+04  0.10071832603E+04  0.23132744149E+03  0.14932134706E+04  0.00000000000E+00 0. -1.
        -13    1    5    5    0    0 -0.66684918743E+01  0.15132445668E+02 -0.45370365695E+01  0.17147722782E+02  0.00000000000E+00 0.  1.
          4    1    6    6  503    0  0.83405024277E+02  0.32024525510E+01  0.67461545845E+02  0.10732061286E+03  0.00000000000E+00 0. -1.
         -4    1    6    6    0  503  0.35579365367E+02 -0.39279004257E+01 -0.31445219651E+02  0.47645791845E+02  0.00000000000E+00 0.  1.
<mgrwt>
<rscale>  0 0.33049906E+04</rscale>
<asrwt>0</asrwt>
<pdfrwt beam="1">  1        1 0.31562386E+00 0.33049906E+04</pdfrwt>
<pdfrwt beam="2">  1       -2 0.20477830E+00 0.33049906E+04</pdfrwt>
<totfact> 0.24812435E-01</totfact>
</mgrwt>
</event>
<event>
12    5  0.5095719E-008  0.1588811E+04  0.7818608E-02  0.8827452E-01
          1   -1    0    0  501    0  0.00000000000E+00  0.00000000000E+00  0.11083389829E+04  0.11083389829E+04  0.00000000000E+00 0. -1.
         -2   -1    0    0    0  501 -0.00000000000E+00 -0.00000000000E+00 -0.56939249408E+03  0.56939249408E+03  0.00000000000E+00 0.  1.
        -24    2    1    2    0    0  0.53572501948E+03  0.77582186189E+01  0.15328412628E+03  0.56286263404E+03  0.79100157889E+02 0.  0.
        254    2    1    2    0    0 -0.53572501948E+03 -0.77582186189E+01  0.38566236256E+03  0.11148688430E+04  0.89840725323E+03 0.  0.
         23    2    4    4    0    0 -0.72185790421E+03 -0.19420239616E+03  0.19694353612E+03  0.77761452020E+03  0.84286304154E+02 0.  0.
         23    2    4    4    0    0  0.18613288474E+03  0.18644417754E+03  0.18871882644E+03  0.33725432276E+03  0.93374518183E+02 0.  0.
          3    1    3    3  502    0  0.35598480217E+03  0.27788163311E+02  0.70489799481E+02  0.36395902685E+03  0.00000000000E+00 0. -1.
         -4    1    3    3    0  502  0.17974021731E+03 -0.20029944692E+02  0.82794326798E+02  0.19890360719E+03  0.00000000000E+00 0.  1.
         13    1    5    5    0    0 -0.65728384642E+03 -0.18869478585E+03  0.20076001651E+03  0.71269373591E+03  0.00000000000E+00 0.  1.
        -13    1    5    5    0    0 -0.64574057787E+02 -0.55076103031E+01 -0.38164803967E+01  0.64920784291E+02  0.00000000000E+00 0. -1.
          3    1    6    6  503    0  0.11611468988E+03  0.10677383187E+03  0.16558425067E+03  0.22869502935E+03  0.00000000000E+00 0. -1.
         -3    1    6    6    0  503  0.70018194854E+02  0.79670345668E+02  0.23134575777E+02  0.10855929341E+03  0.00000000000E+00 0.  1.
<mgrwt>
<rscale>  0 0.15888107E+04</rscale>
<asrwt>0</asrwt>
<pdfrwt beam="1">  1        1 0.17051369E+00 0.15888107E+04</pdfrwt>
<pdfrwt beam="2">  1       -2 0.87598845E-01 0.15888107E+04</pdfrwt>
<totfact> 0.11837263E+01</totfact>
</mgrwt>
</event>
<event>
12    5  0.5095719E-008  0.1400330E+04  0.7818608E-02  0.8953579E-01
          1   -1    0    0  501    0  0.00000000000E+00  0.00000000000E+00  0.66333126597E+03  0.66333126597E+03  0.00000000000E+00 0. -1.
         -2   -1    0    0    0  501 -0.00000000000E+00 -0.00000000000E+00 -0.73904444805E+03  0.73904444805E+03  0.00000000000E+00 0.  1.
        -24    2    1    2    0    0  0.29859204551E+03 -0.25064534842E+03 -0.12573029529E+03  0.41741236624E+03  0.80278739449E+02 0.  0.
        254    2    1    2    0    0 -0.29859204551E+03  0.25064534842E+03  0.50017113210E+02  0.98496334778E+03  0.90314494104E+03 0.  0.
         23    2    4    4    0    0 -0.21962757754E+03  0.27568283726E+03  0.44277475438E+03  0.57327602317E+03  0.91425467173E+02 0.  0.
         23    2    4    4    0    0 -0.78964467976E+02 -0.25037488836E+02 -0.39275764117E+03  0.41168732462E+03  0.91463793390E+02 0.  0.
          3    1    3    3  502    0  0.11799259463E+03 -0.64576463314E+02 -0.14594940962E+02  0.13529739208E+03  0.00000000000E+00 0. -1.
         -4    1    3    3    0  502  0.18059945088E+03 -0.18606888511E+03 -0.11113535433E+03  0.28211497416E+03  0.00000000000E+00 0.  1.
         13    1    5    5    0    0 -0.11422592856E+03  0.17455746727E+03  0.32237006055E+03  0.38397959330E+03  0.00000000000E+00 0.  1.
        -13    1    5    5    0    0 -0.10540164898E+03  0.10112536999E+03  0.12040469383E+03  0.18929642986E+03  0.00000000000E+00 0. -1.
          2    1    6    6  503    0 -0.29926742376E+02 -0.42462457771E+02 -0.30707699303E+03  0.31144012245E+03  0.00000000000E+00 0.  1.
         -2    1    6    6    0  503 -0.49037725600E+02  0.17424968935E+02 -0.85680648145E+02  0.10024720216E+03  0.00000000000E+00 0. -1.
<mgrwt>
<rscale>  0 0.14003304E+04</rscale>
<asrwt>0</asrwt>
<pdfrwt beam="1">  1        1 0.10205096E+00 0.14003304E+04</pdfrwt>
<pdfrwt beam="2">  1       -2 0.11369915E+00 0.14003304E+04</pdfrwt>
<totfact> 0.15289120E+01</totfact>
</mgrwt>
</event>
<event>
12    5  0.5095719E-008  0.1099639E+04  0.7818608E-02  0.9205543E-01
          1   -1    0    0  501    0  0.00000000000E+00  0.00000000000E+00  0.15435832986E+04  0.15435832986E+04  0.00000000000E+00 0. -1.
         -2   -1    0    0    0  501 -0.00000000000E+00 -0.00000000000E+00 -0.19584410116E+03  0.19584410116E+03  0.00000000000E+00 0.  1.
        -24    2    1    2    0    0  0.57847194375E+02  0.85527544760E+02  0.19865009567E+02  0.13268797385E+03  0.80933435544E+02 0.  0.
        254    2    1    2    0    0 -0.57847194375E+02 -0.85527544760E+02  0.13278741879E+04  0.16067394259E+04  0.89872157264E+03 0.  0.
         23    2    4    4    0    0 -0.32738975539E+03 -0.27619317973E+03  0.11242563959E+04  0.12065750572E+04  0.91674426229E+02 0.  0.
         23    2    4    4    0    0  0.26954256101E+03  0.19066563497E+03  0.20361779191E+03  0.40016436867E+03  0.98309410623E+02 0.  0.
          1    1    3    3  502    0  0.11901309055E+02  0.25158007680E+02  0.44876823519E+02  0.52806209832E+02  0.00000000000E+00 0. -1.
         -2    1    3    3    0  502  0.45945885320E+02  0.60369537080E+02 -0.25011813952E+02  0.79881764016E+02  0.00000000000E+00 0.  1.
         13    1    5    5    0    0 -0.17623008060E+03 -0.18295258215E+03  0.55757547974E+03  0.61271453731E+03  0.00000000000E+00 0. -1.
        -13    1    5    5    0    0 -0.15115967478E+03 -0.93240597577E+02  0.56668091620E+03  0.59386051991E+03  0.00000000000E+00 0.  1.
          1    1    6    6  503    0  0.25047222410E+03  0.14884155794E+03  0.20130773089E+03  0.35413972798E+03  0.00000000000E+00 0. -1.
         -1    1    6    6    0  503  0.19070336914E+02  0.41824077028E+02  0.23100610212E+01  0.46024640696E+02  0.00000000000E+00 0.  1.
<mgrwt>
<rscale>  0 0.10996394E+04</rscale>
<asrwt>0</asrwt>
<pdfrwt beam="1">  1        1 0.23747435E+00 0.10996394E+04</pdfrwt>
<pdfrwt beam="2">  1       -2 0.30129863E-01 0.10996394E+04</pdfrwt>
<totfact> 0.54285428E+01</totfact>
</mgrwt>
</event>
<event>
12    5  0.5095719E-008  0.1611754E+04  0.7818608E-02  0.8813360E-01
          1   -1    0    0  501    0  0.00000000000E+00  0.00000000000E+00  0.68993465754E+03  0.68993465754E+03  0.00000000000E+00 0. -1.
         -2   -1    0    0    0  501 -0.00000000000E+00 -0.00000000000E+00 -0.94130276522E+03  0.94130276522E+03  0.00000000000E+00 0.  1.
        -24    2    1    2    0    0 -0.52853441980E+02  0.34277490092E+03  0.34125265816E+03  0.49311145437E+03  0.80108742957E+02 0.  0.
        254    2    1    2    0    0  0.52853441980E+02 -0.34277490092E+03 -0.59262076583E+03  0.11381259684E+04  0.90765810127E+03 0.  0.
         23    2    4    4    0    0 -0.28117527612E+03  0.17144154441E+03 -0.29095342072E+03  0.44870997691E+03  0.90746963043E+02 0.  0.
         23    2    4    4    0    0  0.33402871810E+03 -0.51421644533E+03 -0.30166734511E+03  0.68941599148E+03  0.91090532094E+02 0.  0.
          1    1    3    3  502    0 -0.24100603756E+01  0.13779389754E+03  0.88427326989E+02  0.16374479762E+03  0.00000000000E+00 0. -1.
         -2    1    3    3    0  502 -0.50443381605E+02  0.20498100339E+03  0.25282533117E+03  0.32936665675E+03  0.00000000000E+00 0.  1.
         13    1    5    5    0    0 -0.35748922606E+02 -0.85606409556E+00 -0.84840395151E+01  0.36751833148E+02  0.00000000000E+00 0. -1.
        -13    1    5    5    0    0 -0.24542635351E+03  0.17229760851E+03 -0.28246938120E+03  0.41195814376E+03  0.00000000000E+00 0.  1.
          1    1    6    6  503    0  0.16011909423E+03 -0.19452113092E+03 -0.16235934160E+03  0.29972846131E+03  0.00000000000E+00 0. -1.
         -1    1    6    6    0  503  0.17390962387E+03 -0.31969531441E+03 -0.13930800351E+03  0.38968753018E+03  0.00000000000E+00 0.  1.
<mgrwt>
<rscale>  0 0.16117536E+04</rscale>
<asrwt>0</asrwt>
<pdfrwt beam="1">  1        1 0.10614379E+00 0.16117536E+04</pdfrwt>
<pdfrwt beam="2">  1       -2 0.14481581E+00 0.16117536E+04</pdfrwt>
<totfact> 0.76813226E+00</totfact>
</mgrwt>
</event>
<event>
12    5  0.5095719E-008  0.1374555E+04  0.7818608E-02  0.8972445E-01
          1   -1    0    0  501    0  0.00000000000E+00  0.00000000000E+00  0.56948425538E+03  0.56948425538E+03  0.00000000000E+00 0. -1.
         -2   -1    0    0    0  501 -0.00000000000E+00 -0.00000000000E+00 -0.82943565425E+03  0.82943565425E+03  0.00000000000E+00 0.  1.
        -24    2    1    2    0    0  0.16448450274E+03  0.22888133260E+02  0.28080167691E+03  0.33583523065E+03  0.79728928911E+02 0.  0.
        254    2    1    2    0    0 -0.16448450274E+03 -0.22888133260E+02 -0.54075307578E+03  0.10630846790E+04  0.90008673327E+03 0.  0.
         23    2    4    4    0    0  0.31559570352E+03 -0.90695870552E+02 -0.13608539505E+02  0.34107433649E+03  0.91214700812E+02 0.  0.
         23    2    4    4    0    0 -0.48008020627E+03  0.67807737292E+02 -0.52714453628E+03  0.72201034248E+03  0.91338266013E+02 0.  0.
          3    1    3    3  502    0  0.69352492333E+02 -0.27899907809E+02  0.13727947898E+03  0.15631323808E+03  0.00000000000E+00 0. -1.
         -4    1    3    3    0  502  0.95132010411E+02  0.50788041069E+02  0.14352219793E+03  0.17952199258E+03  0.00000000000E+00 0.  1.
         13    1    5    5    0    0  0.14417316797E+03  0.43658812788E+01  0.37749431415E+01  0.14428864640E+03  0.00000000000E+00 0. -1.
        -13    1    5    5    0    0  0.17142253555E+03 -0.95061751831E+02 -0.17383482646E+02  0.19678569009E+03  0.00000000000E+00 0.  1.
          1    1    6    6  503    0 -0.40349206293E+03  0.44429034360E+02 -0.48171715570E+03  0.62994539608E+03  0.00000000000E+00 0. -1.
         -1    1    6    6    0  503 -0.76588143336E+02  0.23378702932E+02 -0.45427380575E+02  0.92064946403E+02  0.00000000000E+00 0.  1.
<mgrwt>
<rscale>  0 0.13745553E+04</rscale>
<asrwt>0</asrwt>
<pdfrwt beam="1">  1        1 0.87612963E-01 0.13745553E+04</pdfrwt>
<pdfrwt beam="2">  1       -2 0.12760548E+00 0.13745553E+04</pdfrwt>
<totfact> 0.14359128E+01</totfact>
</mgrwt>
</event>
<event>
12    5  0.5095719E-008  0.2392091E+04  0.7818608E-02  0.8442471E-01
         -4   -1    0    0    0  501 -0.00000000000E+00  0.00000000000E+00  0.12004243924E+04  0.12004243924E+04  0.00000000000E+00 0.  1.
          1   -1    0    0  501    0  0.00000000000E+00 -0.00000000000E+00 -0.11916825432E+04  0.11916825432E+04  0.00000000000E+00 0. -1.
        -24    2    1    2    0    0 -0.11767756080E+03 -0.85751042351E+03 -0.53983371849E+03  0.10233701067E+04  0.81815628222E+02 0.  0.
        254    2    1    2    0    0  0.11767756080E+03  0.85751042351E+03  0.54857556772E+03  0.13687368289E+04  0.90737710933E+03 0.  0.
         23    2    4    4    0    0  0.18711827660E+03 -0.13633916777E+03  0.14844930508E+03  0.29131336584E+03  0.96045108314E+02 0.  0.
         23    2    4    4    0    0 -0.69440715793E+02  0.99384959128E+03  0.40012626264E+03  0.10774234631E+04  0.90450370925E+02 0.  0.
          1    1    3    3  502    0 -0.10347515345E+03 -0.70256822207E+03 -0.47751224099E+03  0.85576115496E+03  0.00000000000E+00 0. -1.
         -2    1    3    3    0  502 -0.14202407360E+02 -0.15494220144E+03 -0.62321477504E+02  0.16760895179E+03  0.00000000000E+00 0.  1.
         13    1    5    5    0    0  0.75862698340E+02 -0.41969372805E+02  0.52007361253E+01  0.86854043713E+02  0.00000000000E+00 0. -1.
        -13    1    5    5    0    0  0.11125557826E+03 -0.94369794969E+02  0.14324856896E+03  0.20445932213E+03  0.00000000000E+00 0.  1.
          4    1    6    6  503    0 -0.24487820594E+02  0.51952603503E+03  0.16178179584E+03  0.54468367324E+03  0.00000000000E+00 0.  1.
         -4    1    6    6    0  503 -0.44952895199E+02  0.47432355626E+03  0.23834446680E+03  0.53273978983E+03  0.00000000000E+00 0. -1.
<mgrwt>
<rscale>  0 0.23920910E+04</rscale>
<asrwt>0</asrwt>
<pdfrwt beam="1">  1        1 0.18333577E+00 0.23920910E+04</pdfrwt>
<pdfrwt beam="2">  1       -4 0.18468068E+00 0.23920910E+04</pdfrwt>
<totfact> 0.78593483E-01</totfact>
</mgrwt>
</event>
<event>
12    5  0.5095719E-008  0.1222169E+04  0.7818608E-02  0.9093671E-01
          1   -1    0    0  501    0  0.00000000000E+00  0.00000000000E+00  0.65336488791E+03  0.65336488791E+03  0.00000000000E+00 0. -1.
         -2   -1    0    0    0  501 -0.00000000000E+00 -0.00000000000E+00 -0.57153995168E+03  0.57153995168E+03  0.00000000000E+00 0.  1.
        -24    2    1    2    0    0 -0.74177739584E+02  0.10493556821E+03 -0.22575936557E+03  0.27197558378E+03  0.80558156032E+02 0.  0.
        254    2    1    2    0    0  0.74177739584E+02 -0.10493556821E+03  0.30758430180E+03  0.95292925581E+03  0.89272182305E+03 0.  0.
         23    2    4    4    0    0 -0.15034211974E+03 -0.43088830275E+03  0.43939947478E+02  0.46718477941E+03  0.89796529526E+02 0.  0.
         23    2    4    4    0    0  0.22451985932E+03  0.32595273454E+03  0.26364435433E+03  0.48574447640E+03  0.98919150831E+02 0.  0.
          1    1    3    3  502    0 -0.31857775140E+02  0.50829643330E+01 -0.16390311031E+02  0.36185586343E+02  0.00000000000E+00 0. -1.
         -4    1    3    3    0  502 -0.42319964443E+02  0.99852603880E+02 -0.20936905454E+03  0.23578999744E+03  0.00000000000E+00 0.  1.
         13    1    5    5    0    0 -0.27771835253E+02 -0.11187956947E+03  0.49355013754E+02  0.12539629293E+03  0.00000000000E+00 0. -1.
        -13    1    5    5    0    0 -0.12257028449E+03 -0.31900873328E+03 -0.54150662767E+01  0.34178848648E+03  0.00000000000E+00 0.  1.
          1    1    6    6  503    0  0.19922039082E+03  0.28483311066E+03  0.18576895724E+03  0.39411771150E+03  0.00000000000E+00 0. -1.
         -1    1    6    6    0  503  0.25299468508E+02  0.41119623882E+02  0.77875397085E+02  0.91626764901E+02  0.00000000000E+00 0.  1.
<mgrwt>
<rscale>  0 0.12221688E+04</rscale>
<asrwt>0</asrwt>
<pdfrwt beam="1">  1        1 0.10051768E+00 0.12221688E+04</pdfrwt>
<pdfrwt beam="2">  1       -2 0.87929223E-01 0.12221688E+04</pdfrwt>
<totfact> 0.29160755E+01</totfact>
</mgrwt>
</event>
<event>
12    5  0.5095719E-008  0.1149669E+04  0.7818608E-02  0.9158089E-01
          1   -1    0    0  501    0  0.00000000000E+00  0.00000000000E+00  0.44707648586E+03  0.44707648586E+03  0.00000000000E+00 0. -1.
         -2   -1    0    0    0  501 -0.00000000000E+00 -0.00000000000E+00 -0.73910163851E+03  0.73910163851E+03  0.00000000000E+00 0.  1.
        -24    2    1    2    0    0 -0.11350258096E+03 -0.16954450495E+02  0.12606086359E+03  0.18919408096E+03  0.82053456142E+02 0.  0.
        254    2    1    2    0    0  0.11350258096E+03  0.16954450495E+02 -0.41808601623E+03  0.99698404341E+03  0.89778114069E+03 0.  0.
         23    2    4    4    0    0  0.31474436830E+02  0.39517408635E+03 -0.44163606564E+03  0.60013724741E+03  0.89269830042E+02 0.  0.
         23    2    4    4    0    0  0.82028144132E+02 -0.37821963585E+03  0.23550049414E+02  0.39684679600E+03  0.84581707814E+02 0.  0.
          3    1    3    3  502    0 -0.76672470252E+02 -0.10444594575E+02  0.13030898100E+03  0.15155259081E+03  0.00000000000E+00 0. -1.
         -4    1    3    3    0  502 -0.36830110711E+02 -0.65098559203E+01 -0.42481174189E+01  0.37641490149E+02  0.00000000000E+00 0.  1.
         13    1    5    5    0    0  0.34058613466E+02  0.35429123982E+03 -0.42866599603E+03  0.55716856329E+03  0.00000000000E+00 0.  1.
        -13    1    5    5    0    0 -0.25841766358E+01  0.40882846532E+02 -0.12970069612E+02  0.42968684122E+02  0.00000000000E+00 0. -1.
          1    1    6    6  503    0  0.75046648227E+00 -0.19261606500E+03  0.24917032403E+02  0.19422247605E+03  0.00000000000E+00 0. -1.
         -1    1    6    6    0  503  0.81277677650E+02 -0.18560357085E+03 -0.13669829892E+01  0.20262431996E+03  0.00000000000E+00 0.  1.
<mgrwt>
<rscale>  0 0.11496695E+04</rscale>
<asrwt>0</asrwt>
<pdfrwt beam="1">  1        1 0.68780999E-01 0.11496695E+04</pdfrwt>
<pdfrwt beam="2">  1       -2 0.11370794E+00 0.11496695E+04</pdfrwt>
<totfact> 0.27177523E+01</totfact>
</mgrwt>
</event>
<event>
12    5  0.5095719E-008  0.1259346E+04  0.7818608E-02  0.9062440E-01
         -4   -1    0    0    0  501 -0.00000000000E+00  0.00000000000E+00  0.68290162968E+03  0.68290162968E+03  0.00000000000E+00 0.  1.
          3   -1    0    0  501    0  0.00000000000E+00 -0.00000000000E+00 -0.58059320345E+03  0.58059320345E+03  0.00000000000E+00 0. -1.
        -24    2    1    2    0    0 -0.10911699808E+03 -0.24495105606E+03 -0.10825404441E+03  0.29819057170E+03  0.72740221199E+02 0.  0.
        254    2    1    2    0    0  0.10911699808E+03  0.24495105606E+03  0.21056247064E+03  0.96530426143E+03  0.90308815957E+03 0.  0.
         23    2    4    4    0    0  0.31401718605E+03  0.26957432731E+03 -0.22202260791E+03  0.47748517878E+03  0.86144915451E+02 0.  0.
         23    2    4    4    0    0 -0.20490018796E+03 -0.24623271245E+02  0.43258507855E+03  0.48781908265E+03  0.90814176732E+02 0.  0.
          1    1    3    3  502    0 -0.11801357849E+03 -0.21922974321E+03 -0.10685836589E+03  0.27093836085E+03  0.00000000000E+00 0. -1.
         -2    1    3    3    0  502  0.88965804036E+01 -0.25721312851E+02 -0.13956785130E+01  0.27252210849E+02  0.00000000000E+00 0.  1.
         13    1    5    5    0    0  0.25412379159E+03  0.16950116345E+03 -0.17221984559E+03  0.35066967516E+03  0.00000000000E+00 0.  1.
        -13    1    5    5    0    0  0.59893394459E+02  0.10007316386E+03 -0.49802762317E+02  0.12681550362E+03  0.00000000000E+00 0. -1.
          2    1    6    6  503    0 -0.10838797457E+03  0.85457338703E+01  0.13569992197E+03  0.17388344205E+03  0.00000000000E+00 0.  1.
         -2    1    6    6    0  503 -0.96512213392E+02 -0.33169005115E+02  0.29688515659E+03  0.31393564060E+03  0.00000000000E+00 0. -1.
<mgrwt>
<rscale>  0 0.12593459E+04</rscale>
<asrwt>0</asrwt>
<pdfrwt beam="1">  1        3 0.89322031E-01 0.12593459E+04</pdfrwt>
<pdfrwt beam="2">  1       -4 0.10506179E+00 0.12593459E+04</pdfrwt>
<totfact> 0.18714180E+00</totfact>
</mgrwt>
</event>
<event>
12    5  0.5095719E-008  0.1544084E+04  0.7818608E-02  0.8855656E-01
          1   -1    0    0  501    0  0.00000000000E+00  0.00000000000E+00  0.26409143995E+04  0.26409143995E+04  0.00000000000E+00 0. -1.
         -2   -1    0    0    0  501 -0.00000000000E+00 -0.00000000000E+00 -0.22569784734E+03  0.22569784734E+03  0.00000000000E+00 0.  1.
        -24    2    1    2    0    0  0.58204085113E+02 -0.42553595293E+03  0.40911871190E+03  0.59832665761E+03  0.78409859238E+02 0.  0.
        254    2    1    2    0    0 -0.58204085113E+02  0.42553595293E+03  0.20060978403E+04  0.22682855893E+04  0.96758586534E+03 0.  0.
         23    2    4    4    0    0 -0.49656678862E+03  0.24263687412E+03  0.89196858456E+03  0.10531570913E+04  0.89892573990E+02 0.  0.
         23    2    4    4    0    0  0.43836270351E+03  0.18289907881E+03  0.11141292557E+04  0.12151284980E+04  0.98180116107E+02 0.  0.
          1    1    3    3  502    0  0.11004470147E+02 -0.21401779441E+03  0.25109821304E+03  0.33011365812E+03  0.00000000000E+00 0. -1.
         -2    1    3    3    0  502  0.47199614966E+02 -0.21151815852E+03  0.15802049886E+03  0.26821299949E+03  0.00000000000E+00 0.  1.
         13    1    5    5    0    0 -0.37501590482E+03  0.14068367917E+03  0.61371665390E+03  0.73285534570E+03  0.00000000000E+00 0.  1.
        -13    1    5    5    0    0 -0.12155088381E+03  0.10195319495E+03  0.27825193066E+03  0.32030174560E+03  0.00000000000E+00 0. -1.
          1    1    6    6  503    0  0.16741889100E+03  0.20291730629E+02  0.41123075256E+03  0.44446773926E+03  0.00000000000E+00 0. -1.
         -1    1    6    6    0  503  0.27094381251E+03  0.16260734818E+03  0.70289850318E+03  0.77066075870E+03  0.00000000000E+00 0.  1.
<mgrwt>
<rscale>  0 0.15440838E+04</rscale>
<asrwt>0</asrwt>
<pdfrwt beam="1">  1        1 0.40629450E+00 0.15440838E+04</pdfrwt>
<pdfrwt beam="2">  1       -2 0.34722748E-01 0.15440838E+04</pdfrwt>
<totfact> 0.71332120E+00</totfact>
</mgrwt>
</event>
<event>
12    5  0.5095719E-008  0.1522721E+04  0.7818608E-02  0.8869483E-01
          1   -1    0    0  501    0  0.00000000000E+00  0.00000000000E+00  0.36511130839E+04  0.36511130839E+04  0.00000000000E+00 0. -1.
         -2   -1    0    0    0  501 -0.00000000000E+00 -0.00000000000E+00 -0.15876526546E+03  0.15876526546E+03  0.00000000000E+00 0.  1.
        -24    2    1    2    0    0 -0.16849768860E+03  0.23451637259E+03  0.15373478052E+03  0.33667648660E+03  0.79544162640E+02 0.  0.
        254    2    1    2    0    0  0.16849768860E+03 -0.23451637259E+03  0.33386130379E+04  0.34732018627E+04  0.91291005167E+03 0.  0.
         23    2    4    4    0    0  0.18849385480E+03 -0.43602955940E+03  0.87711811588E+03  0.10017132604E+04  0.91877945553E+02 0.  0.
         23    2    4    4    0    0 -0.19996166194E+02  0.20151318681E+03  0.24614949220E+04  0.24714886023E+04  0.91056297222E+02 0.  0.
          3    1    3    3  502    0 -0.10077588257E+03  0.11171330120E+03  0.11997710925E+03  0.19243218784E+03  0.00000000000E+00 0. -1.
         -4    1    3    3    0  502 -0.67721806036E+02  0.12280307139E+03  0.33757671272E+02  0.14424429876E+03  0.00000000000E+00 0.  1.
         13    1    5    5    0    0  0.12063368097E+03 -0.35288298173E+03  0.72833599191E+03  0.81826169462E+03  0.00000000000E+00 0.  1.
        -13    1    5    5    0    0  0.67860173831E+02 -0.83146577673E+02  0.14878212397E+03  0.18345156577E+03  0.00000000000E+00 0. -1.
          4    1    6    6  503    0 -0.46240371479E+02  0.14434176967E+03  0.19985567188E+04  0.20042958057E+04  0.00000000000E+00 0. -1.
         -4    1    6    6    0  503  0.26244205285E+02  0.57171417144E+02  0.46293820319E+03  0.46719279663E+03  0.00000000000E+00 0.  1.
<mgrwt>
<rscale>  0 0.15227212E+04</rscale>
<asrwt>0</asrwt>
<pdfrwt beam="1">  1        1 0.56170964E+00 0.15227212E+04</pdfrwt>
<pdfrwt beam="2">  1       -2 0.24425428E-01 0.15227212E+04</pdfrwt>
<totfact> 0.24318414E+00</totfact>
</mgrwt>
</event>
<event>
12    5  0.5095719E-008  0.2170764E+04  0.7818608E-02  0.8530696E-01
          3   -1    0    0  501    0  0.00000000000E+00  0.00000000000E+00  0.58538093178E+03  0.58538093178E+03  0.00000000000E+00 0. -1.
         -4   -1    0    0    0  501 -0.00000000000E+00 -0.00000000000E+00 -0.20124566569E+04  0.20124566569E+04  0.00000000000E+00 0.  1.
        -24    2    1    2    0    0  0.51417983328E+03  0.43342047991E+03 -0.12969104039E+04  0.14633352757E+04  0.84494497234E+02 0.  0.
        254    2    1    2    0    0 -0.51417983328E+03 -0.43342047991E+03 -0.13016532118E+03  0.11345023129E+04  0.90438834237E+03 0.  0.
         23    2    4    4    0    0 -0.69633417877E+02 -0.61394864685E+03  0.17785563343E+02  0.62573285296E+03  0.97177791465E+02 0.  0.
         23    2    4    4    0    0 -0.44454641541E+03  0.18052816694E+03 -0.14795088453E+03  0.50876945996E+03  0.82127733741E+02 0.  0.
          1    1    3    3  502    0  0.28923879783E+03  0.25331282352E+03 -0.65099822025E+03  0.75605896033E+03  0.00000000000E+00 0. -1.
         -2    1    3    3    0  502  0.22494103546E+03  0.18010765639E+03 -0.64591218367E+03  0.70727631541E+03  0.00000000000E+00 0.  1.
         13    1    5    5    0    0 -0.25031080549E+02 -0.33218387150E+02  0.11900994786E+02  0.43262569447E+02  0.00000000000E+00 0.  1.
        -13    1    5    5    0    0 -0.44602337328E+02 -0.58073025970E+03  0.58845685573E+01  0.58247028351E+03  0.00000000000E+00 0. -1.
          3    1    6    6  503    0 -0.37113555431E+03  0.13274167642E+03 -0.14841099991E+03  0.42117428367E+03  0.00000000000E+00 0. -1.
         -3    1    6    6    0  503 -0.73410861098E+02  0.47786490520E+02  0.46011538706E+00  0.87595176291E+02  0.00000000000E+00 0.  1.
<mgrwt>
<rscale>  0 0.21707637E+04</rscale>
<asrwt>0</asrwt>
<pdfrwt beam="1">  1        3 0.90058606E-01 0.21707637E+04</pdfrwt>
<pdfrwt beam="2">  1       -4 0.30960871E+00 0.21707637E+04</pdfrwt>
<totfact> 0.62653437E-02</totfact>
</mgrwt>
</event>
<event>
12    5  0.5095719E-008  0.1125824E+04  0.7818608E-02  0.9180382E-01
          1   -1    0    0  501    0  0.00000000000E+00  0.00000000000E+00  0.21659378655E+04  0.21659378655E+04  0.00000000000E+00 0. -1.
         -2   -1    0    0    0  501 -0.00000000000E+00 -0.00000000000E+00 -0.14629675583E+03  0.14629675583E+03  0.00000000000E+00 0.  1.
        -24    2    1    2    0    0 -0.23985799391E+02 -0.30574957531E+02  0.72798240207E+03  0.73343021078E+03  0.80320294834E+02 0.  0.
        254    2    1    2    0    0  0.23985799391E+02  0.30574957531E+02  0.12916587076E+04  0.15788044106E+04  0.90704520464E+03 0.  0.
         23    2    4    4    0    0 -0.18943683085E+03 -0.23618215860E+03  0.11584137930E+04  0.12007308039E+04  0.90352767533E+02 0.  0.
         23    2    4    4    0    0  0.21342263024E+03  0.26675711613E+03  0.13324491457E+03  0.37807360667E+03  0.92069901136E+02 0.  0.
          3    1    3    3  502    0 -0.35805950127E+02  0.38353935088E+01  0.57712058298E+03  0.57824297973E+03  0.00000000000E+00 0. -1.
         -4    1    3    3    0  502  0.11820150736E+02 -0.34410351040E+02  0.15086181908E+03  0.15518723104E+03  0.00000000000E+00 0.  1.
         13    1    5    5    0    0 -0.19586820804E+03 -0.22917679537E+03  0.10654075555E+04  0.11072396388E+04  0.00000000000E+00 0. -1.
        -13    1    5    5    0    0  0.64313771881E+01 -0.70053632274E+01  0.93006237518E+02  0.93491165057E+02  0.00000000000E+00 0.  1.
          3    1    6    6  503    0  0.20128636596E+03  0.26147719295E+03  0.14494325252E+03  0.36040958645E+03  0.00000000000E+00 0. -1.
         -3    1    6    6    0  503  0.12136264278E+02  0.52799231775E+01 -0.11698337948E+02  0.17664020215E+02  0.00000000000E+00 0.  1.
<mgrwt>
<rscale>  0 0.11258236E+04</rscale>
<asrwt>0</asrwt>
<pdfrwt beam="1">  1        1 0.33322119E+00 0.11258236E+04</pdfrwt>
<pdfrwt beam="2">  1       -2 0.22507195E-01 0.11258236E+04</pdfrwt>
<totfact> 0.34938075E+01</totfact>
</mgrwt>
</event>
<event>
12    5  0.5095719E-008  0.1934929E+04  0.7818608E-02  0.8637663E-01
         -2   -1    0    0    0  501 -0.00000000000E+00  0.00000000000E+00  0.51844118124E+03  0.51844118124E+03  0.00000000000E+00 0.  1.
          1   -1    0    0  501    0  0.00000000000E+00 -0.00000000000E+00 -0.18053877894E+04  0.18053877894E+04  0.00000000000E+00 0. -1.
        -24    2    1    2    0    0  0.60085293968E+02 -0.31745733142E+03 -0.13461867203E+04  0.13867261492E+04  0.80008293418E+02 0.  0.
        254    2    1    2    0    0 -0.60085293968E+02  0.31745733142E+03  0.59240112212E+02  0.93710282141E+03  0.87764623122E+03 0.  0.
         23    2    4    4    0    0 -0.64143804931E+02  0.17087602564E+03 -0.39736987913E+03  0.44652351798E+03  0.90373599127E+02 0.  0.
         23    2    4    4    0    0  0.40585109635E+01  0.14658130577E+03  0.45660999135E+03  0.49057930343E+03  0.10330933182E+03 0.  0.
          1    1    3    3  502    0  0.15756440747E+02 -0.25606279367E+03 -0.10724609673E+04  0.11027188880E+04  0.00000000000E+00 0. -1.
         -2    1    3    3    0  502  0.44328853220E+02 -0.61394537748E+02 -0.27372575307E+03  0.28400726115E+03  0.00000000000E+00 0.  1.
         13    1    5    5    0    0  0.73396621769E+01  0.77800997297E+02 -0.10056129742E+03  0.12735556666E+03  0.00000000000E+00 0.  1.
        -13    1    5    5    0    0 -0.71483467108E+02  0.93075028347E+02 -0.29680858171E+03  0.31916795132E+03  0.00000000000E+00 0. -1.
          2    1    6    6  503    0 -0.30515180617E+01  0.10324562757E+03  0.42258521023E+03  0.43502555245E+03  0.00000000000E+00 0. -1.
         -2    1    6    6    0  503  0.71100290251E+01  0.43335678205E+02  0.34024781113E+02  0.55553750981E+02  0.00000000000E+00 0.  1.
<mgrwt>
<rscale>  0 0.19349288E+04</rscale>
<asrwt>0</asrwt>
<pdfrwt beam="1">  1        1 0.27775197E+00 0.19349288E+04</pdfrwt>
<pdfrwt beam="2">  1       -2 0.79760181E-01 0.19349288E+04</pdfrwt>
<totfact> 0.46045086E+00</totfact>
</mgrwt>
</event>
<event>
12    5  0.5095719E-008  0.1955513E+04  0.7818608E-02  0.8627707E-01
          1   -1    0    0  501    0  0.00000000000E+00  0.00000000000E+00  0.24694244159E+04  0.24694244159E+04  0.00000000000E+00 0. -1.
         -2   -1    0    0    0  501 -0.00000000000E+00 -0.00000000000E+00 -0.38713779281E+03  0.38713779281E+03  0.00000000000E+00 0.  1.
        -24    2    1    2    0    0  0.57764294758E+03 -0.42918766036E+03  0.42847038319E+03  0.84072366274E+03  0.73184596275E+02 0.  0.
        254    2    1    2    0    0 -0.57764294758E+03  0.42918766036E+03  0.16538162399E+04  0.20158385460E+04  0.90034630304E+03 0.  0.
         23    2    4    4    0    0  0.71891432014E+02 -0.60921256247E+02 -0.37467031438E+02  0.13674507991E+03  0.91736911743E+02 0.  0.
         23    2    4    4    0    0 -0.64953437959E+03  0.49010891661E+03  0.16912832714E+04  0.18790934661E+04  0.91931985020E+02 0.  0.
          3    1    3    3  502    0  0.47780079581E+03 -0.33402475360E+03  0.37277905984E+03  0.69197569607E+03  0.00000000000E+00 0. -1.
         -4    1    3    3    0  502  0.99842151771E+02 -0.95162906766E+02  0.55691323345E+02  0.14874796668E+03  0.00000000000E+00 0.  1.
         13    1    5    5    0    0  0.18692063003E+02 -0.66754272273E+02  0.34038947307E+01  0.69405421873E+02  0.00000000000E+00 0.  1.
        -13    1    5    5    0    0  0.53199369011E+02  0.58330160261E+01 -0.40870926169E+02  0.67339658041E+02  0.00000000000E+00 0. -1.
          3    1    6    6  503    0 -0.12532087939E+02 -0.19350436538E+01  0.42099500435E+02  0.43967778645E+02  0.00000000000E+00 0. -1.
         -3    1    6    6    0  503 -0.63700229165E+03  0.49204396027E+03  0.16491837709E+04  0.18351256874E+04  0.00000000000E+00 0.  1.
<mgrwt>
<rscale>  0 0.19555127E+04</rscale>
<asrwt>0</asrwt>
<pdfrwt beam="1">  1        1 0.37991144E+00 0.19555127E+04</pdfrwt>
<pdfrwt beam="2">  1       -2 0.59559662E-01 0.19555127E+04</pdfrwt>
<totfact> 0.30626511E+00</totfact>
</mgrwt>
</event>
<event>
12    5  0.5095719E-008  0.2060595E+04  0.7818608E-02  0.8578803E-01
         -4   -1    0    0    0  501 -0.00000000000E+00  0.00000000000E+00  0.96153358233E+03  0.96153358233E+03  0.00000000000E+00 0.  1.
          3   -1    0    0  501    0  0.00000000000E+00 -0.00000000000E+00 -0.11039787327E+04  0.11039787327E+04  0.00000000000E+00 0. -1.
        -24    2    1    2    0    0 -0.74658408731E+03 -0.35171271548E+03  0.18344329769E+02  0.82932886293E+03  0.79750954802E+02 0.  0.
        254    2    1    2    0    0  0.74658408731E+03  0.35171271548E+03 -0.16078948012E+03  0.12361834521E+04  0.90620452251E+03 0.  0.
         23    2    4    4    0    0  0.47704844114E+03 -0.22170923868E+03  0.10299963962E+03  0.54516073657E+03  0.99303077628E+02 0.  0.
         23    2    4    4    0    0  0.26953564617E+03  0.57342195416E+03 -0.26378911974E+03  0.69102271551E+03  0.80408280562E+02 0.  0.
          3    1    3    3  502    0 -0.58360754345E+03 -0.29294048220E+03 -0.13672906151E+02  0.65314534313E+03  0.00000000000E+00 0. -1.
         -4    1    3    3    0  502 -0.16297654386E+03 -0.58772233277E+02  0.32017235919E+02  0.17618351980E+03  0.00000000000E+00 0.  1.
         13    1    5    5    0    0  0.39722730468E+03 -0.22051751843E+03  0.74520542779E+02  0.46040288750E+03  0.00000000000E+00 0. -1.
        -13    1    5    5    0    0  0.79821136460E+02 -0.11917202478E+01  0.28479096838E+02  0.84757849073E+02  0.00000000000E+00 0.  1.
          2    1    6    6  503    0  0.13856280602E+03  0.38450750237E+03 -0.16280891231E+03  0.43994591999E+03  0.00000000000E+00 0. -1.
         -2    1    6    6    0  503  0.13097284016E+03  0.18891445179E+03 -0.10098020743E+03  0.25107679552E+03  0.00000000000E+00 0.  1.
<mgrwt>
<rscale>  0 0.20605947E+04</rscale>
<asrwt>0</asrwt>
<pdfrwt beam="1">  1        3 0.16984288E+00 0.20605947E+04</pdfrwt>
<pdfrwt beam="2">  1       -4 0.14792824E+00 0.20605947E+04</pdfrwt>
<totfact> 0.15219226E-01</totfact>
</mgrwt>
</event>
<event>
12    5  0.5095719E-008  0.1450470E+04  0.7818608E-02  0.8918075E-01
          1   -1    0    0  501    0  0.00000000000E+00  0.00000000000E+00  0.15496816190E+04  0.15496816190E+04  0.00000000000E+00 0. -1.
         -2   -1    0    0    0  501 -0.00000000000E+00 -0.00000000000E+00 -0.33940257607E+03  0.33940257607E+03  0.00000000000E+00 0.  1.
        -24    2    1    2    0    0  0.23482646005E+03  0.77751003031E+02  0.84074487870E+03  0.88006229071E+03  0.80430091700E+02 0.  0.
        254    2    1    2    0    0 -0.23482646005E+03 -0.77751003031E+02  0.36953416428E+03  0.10090219044E+04  0.90574887258E+03 0.  0.
         23    2    4    4    0    0 -0.19422029055E+03 -0.44881606702E+02  0.66266407822E+03  0.69777653439E+03  0.89624391169E+02 0.  0.
         23    2    4    4    0    0 -0.40606169501E+02 -0.32869396328E+02 -0.29312991394E+03  0.31124537002E+03  0.90660221122E+02 0.  0.
          1    1    3    3  502    0  0.10649993667E+03 -0.39406662678E+01  0.39229773649E+03  0.40651602603E+03  0.00000000000E+00 0. -1.
         -2    1    3    3    0  502  0.12832652338E+03  0.81691669298E+02  0.44844714221E+03  0.47354626468E+03  0.00000000000E+00 0.  1.
         13    1    5    5    0    0 -0.49239699437E+02 -0.22410969716E+02  0.77591784901E+02  0.94590087474E+02  0.00000000000E+00 0.  1.
        -13    1    5    5    0    0 -0.14498059111E+03 -0.22470636986E+02  0.58507229332E+03  0.60318644691E+03  0.00000000000E+00 0. -1.
          2    1    6    6  503    0 -0.11472656637E+02 -0.22722452046E+02 -0.27349484518E+03  0.27467683197E+03  0.00000000000E+00 0. -1.
         -2    1    6    6    0  503 -0.29133512864E+02 -0.10146944283E+02 -0.19635068758E+02  0.36568538051E+02  0.00000000000E+00 0.  1.
<mgrwt>
<rscale>  0 0.14504702E+04</rscale>
<asrwt>0</asrwt>
<pdfrwt beam="1">  1        1 0.23841255E+00 0.14504702E+04</pdfrwt>
<pdfrwt beam="2">  1       -2 0.52215782E-01 0.14504702E+04</pdfrwt>
<totfact> 0.17832254E+01</totfact>
</mgrwt>
</event>
<event>
12    5  0.5095719E-008  0.1431092E+04  0.7818608E-02  0.8931615E-01
          1   -1    0    0  501    0  0.00000000000E+00  0.00000000000E+00  0.11091563197E+04  0.11091563197E+04  0.00000000000E+00 0. -1.
         -2   -1    0    0    0  501 -0.00000000000E+00 -0.00000000000E+00 -0.46161733248E+03  0.46161733248E+03  0.00000000000E+00 0.  1.
        -24    2    1    2    0    0  0.14078097615E+03 -0.48391019804E+03  0.41075990532E+03  0.65523004309E+03  0.81328632893E+02 0.  0.
        254    2    1    2    0    0 -0.14078097615E+03  0.48391019804E+03  0.23677908187E+03  0.91554360907E+03  0.72675126659E+03 0.  0.
         23    2    4    4    0    0  0.21110348589E+03  0.46441047431E+03  0.11501941332E+03  0.53091749550E+03  0.91663248815E+02 0.  0.
         23    2    4    4    0    0 -0.35188446204E+03  0.19499723736E+02  0.12175966855E+03  0.38462611358E+03  0.94387056905E+02 0.  0.
          1    1    3    3  502    0  0.82159356508E+02 -0.19963715324E+03  0.13346324297E+03  0.25380620567E+03  0.00000000000E+00 0. -1.
         -2    1    3    3    0  502  0.58621619640E+02 -0.28427304481E+03  0.27729666235E+03  0.40142383741E+03  0.00000000000E+00 0.  1.
         13    1    5    5    0    0  0.10421735461E+03  0.26204380125E+03  0.10790619245E+03  0.30194694426E+03  0.00000000000E+00 0.  1.
        -13    1    5    5    0    0  0.10688613128E+03  0.20236667306E+03  0.71132208631E+01  0.22897055124E+03  0.00000000000E+00 0. -1.
          2    1    6    6  503    0 -0.29596524456E+03  0.84308521491E+01  0.13606700048E+03  0.32585385355E+03  0.00000000000E+00 0. -1.
         -2    1    6    6    0  503 -0.55919217477E+02  0.11068871586E+02 -0.14307331930E+02  0.58772260025E+02  0.00000000000E+00 0.  1.
<mgrwt>
<rscale>  0 0.14310916E+04</rscale>
<asrwt>0</asrwt>
<pdfrwt beam="1">  1        1 0.17063943E+00 0.14310916E+04</pdfrwt>
<pdfrwt beam="2">  1       -2 0.71018051E-01 0.14310916E+04</pdfrwt>
<totfact> 0.19170875E+01</totfact>
</mgrwt>
</event>
<event>
12    5  0.5095719E-008  0.1623259E+04  0.7818608E-02  0.8806385E-01
         -2   -1    0    0    0  501 -0.00000000000E+00  0.00000000000E+00  0.22905499469E+04  0.22905499469E+04  0.00000000000E+00 0.  1.
          1   -1    0    0  501    0  0.00000000000E+00 -0.00000000000E+00 -0.28759147093E+03  0.28759147093E+03  0.00000000000E+00 0. -1.
        -24    2    1    2    0    0  0.49486673733E+03 -0.31207163048E+02  0.11196666987E+04  0.12271643496E+04  0.80074029091E+02 0.  0.
        254    2    1    2    0    0 -0.49486673733E+03  0.31207163048E+02  0.88329177730E+03  0.13509770682E+04  0.89390586765E+03 0.  0.
         23    2    4    4    0    0  0.22375994670E+03 -0.70744763279E+02  0.40570019162E+03  0.47739788760E+03  0.90789659789E+02 0.  0.
         23    2    4    4    0    0 -0.71862668403E+03  0.10195192633E+03  0.47759158568E+03  0.87357918061E+03  0.90710284965E+02 0.  0.
          1    1    3    3  502    0 -0.12346805602E+01  0.32518441518E+01  0.19720191226E+02  0.20024606574E+02  0.00000000000E+00 0. -1.
         -2    1    3    3    0  502  0.49610141789E+03 -0.34459007200E+02  0.10999465074E+04  0.12071397431E+04  0.00000000000E+00 0.  1.
         13    1    5    5    0    0  0.12655975471E+03 -0.38859639135E+02  0.13999663620E+03  0.19268238428E+03  0.00000000000E+00 0. -1.
        -13    1    5    5    0    0  0.97200191986E+02 -0.31885124144E+02  0.26570355542E+03  0.28471550332E+03  0.00000000000E+00 0.  1.
          2    1    6    6  503    0 -0.56695371008E+03  0.46896238991E+02  0.39258179278E+03  0.69119912517E+03  0.00000000000E+00 0. -1.
         -2    1    6    6    0  503 -0.15167297395E+03  0.55055687336E+02  0.85009792895E+02  0.18238005544E+03  0.00000000000E+00 0.  1.
<mgrwt>
<rscale>  0 0.16232592E+04</rscale>
<asrwt>0</asrwt>
<pdfrwt beam="1">  1        1 0.44244843E-01 0.16232592E+04</pdfrwt>
<pdfrwt beam="2">  1       -2 0.35239229E+00 0.16232592E+04</pdfrwt>
<totfact> 0.11711272E+00</totfact>
</mgrwt>
</event>
<event>
12    5  0.5095719E-008  0.1217693E+04  0.7818608E-02  0.9097509E-01
         -2   -1    0    0    0  501 -0.00000000000E+00  0.00000000000E+00  0.29457939490E+03  0.29457939490E+03  0.00000000000E+00 0.  1.
          1   -1    0    0  501    0  0.00000000000E+00 -0.00000000000E+00 -0.12583838840E+04  0.12583838840E+04  0.00000000000E+00 0. -1.
        -24    2    1    2    0    0  0.26347470597E+03 -0.11773300641E+03 -0.17302124367E+03  0.34528090822E+03  0.77476275941E+02 0.  0.
        254    2    1    2    0    0 -0.26347470597E+03  0.11773300641E+03 -0.79078324542E+03  0.12076823707E+04  0.86595530236E+03 0.  0.
         23    2    4    4    0    0 -0.94418192387E+02 -0.32498678052E+03 -0.58639171514E+03  0.68321179978E+03  0.91607408100E+02 0.  0.
         23    2    4    4    0    0 -0.16905651358E+03  0.44271978692E+03 -0.20439153029E+03  0.52447057088E+03  0.93341135343E+02 0.  0.
          1    1    3    3  502    0 -0.18845209851E+01 -0.12992770091E+02 -0.11461958695E+02  0.17428137913E+02  0.00000000000E+00 0. -1.
         -2    1    3    3    0  502  0.26535922696E+03 -0.10474023632E+03 -0.16155928497E+03  0.32785277030E+03  0.00000000000E+00 0.  1.
         13    1    5    5    0    0 -0.47405255037E+02 -0.20737273524E+03 -0.27975650564E+03  0.35144617222E+03  0.00000000000E+00 0. -1.
        -13    1    5    5    0    0 -0.47012937350E+02 -0.11761404528E+03 -0.30663520950E+03  0.33176562756E+03  0.00000000000E+00 0.  1.
          3    1    6    6  503    0 -0.29880227218E+02  0.20183713149E+03 -0.10114655663E+03  0.22773159980E+03  0.00000000000E+00 0. -1.
         -3    1    6    6    0  503 -0.13917628637E+03  0.24088265543E+03 -0.10324497365E+03  0.29673897109E+03  0.00000000000E+00 0.  1.
<mgrwt>
<rscale>  0 0.12176928E+04</rscale>
<asrwt>0</asrwt>
<pdfrwt beam="1">  1        1 0.19359752E+00 0.12176928E+04</pdfrwt>
<pdfrwt beam="2">  1       -2 0.45319907E-01 0.12176928E+04</pdfrwt>
<totfact> 0.38785535E+01</totfact>
</mgrwt>
</event>
<event>
12    5  0.5095719E-008  0.2528248E+04  0.7818608E-02  0.8392991E-01
         -2   -1    0    0    0  501 -0.00000000000E+00  0.00000000000E+00  0.10951709186E+04  0.10951709186E+04  0.00000000000E+00 0.  1.
          1   -1    0    0  501    0  0.00000000000E+00 -0.00000000000E+00 -0.14591414154E+04  0.14591414154E+04  0.00000000000E+00 0. -1.
        -24    2    1    2    0    0  0.18768997828E+03  0.10343461238E+03  0.93282770115E+03  0.96039852424E+03  0.79193171132E+02 0.  0.
        254    2    1    2    0    0 -0.18768997828E+03 -0.10343461238E+03 -0.12967981980E+04  0.15939138097E+04  0.90163707753E+03 0.  0.
         23    2    4    4    0    0  0.47268956093E+02 -0.46978672330E+03 -0.63365392581E+03  0.79547509491E+03  0.91265597708E+02 0.  0.
         23    2    4    4    0    0 -0.23495893438E+03  0.36635211091E+03 -0.66314427214E+03  0.79843871480E+03  0.91238619051E+02 0.  0.
          3    1    3    3  502    0  0.78651912407E+02  0.88326148944E+02  0.49862731447E+03  0.51246154065E+03  0.00000000000E+00 0. -1.
         -4    1    3    3    0  502  0.10903806588E+03  0.15108463440E+02  0.43420038668E+03  0.44793698359E+03  0.00000000000E+00 0.  1.
         13    1    5    5    0    0  0.22021671801E+02 -0.10454022561E+03 -0.20946904278E+03  0.23514015540E+03  0.00000000000E+00 0.  1.
        -13    1    5    5    0    0  0.25247284293E+02 -0.36524649769E+03 -0.42418488303E+03  0.56033493950E+03  0.00000000000E+00 0. -1.
          2    1    6    6  503    0 -0.16337751361E+03  0.29725596060E+03 -0.45284525923E+03  0.56579337826E+03  0.00000000000E+00 0. -1.
         -2    1    6    6    0  503 -0.71581420764E+02  0.69096150311E+02 -0.21029901291E+03  0.23264533655E+03  0.00000000000E+00 0.  1.
<mgrwt>
<rscale>  0 0.25282478E+04</rscale>
<asrwt>0</asrwt>
<pdfrwt beam="1">  1        1 0.22448329E+00 0.25282478E+04</pdfrwt>
<pdfrwt beam="2">  1       -2 0.16848784E+00 0.25282478E+04</pdfrwt>
<totfact> 0.11874786E+00</totfact>
</mgrwt>
</event>
<event>
12    5  0.5095719E-008  0.1630490E+04  0.7818608E-02  0.8802033E-01
          1   -1    0    0  501    0  0.00000000000E+00  0.00000000000E+00  0.47580692569E+03  0.47580692569E+03  0.00000000000E+00 0. -1.
         -2   -1    0    0    0  501 -0.00000000000E+00 -0.00000000000E+00 -0.13968360572E+04  0.13968360572E+04  0.00000000000E+00 0.  1.
        -24    2    1    2    0    0 -0.39267362103E+03 -0.38411278882E+03 -0.48331968268E+03  0.73587820308E+03  0.78635913577E+02 0.  0.
        254    2    1    2    0    0  0.39267362103E+03  0.38411278882E+03 -0.43770944886E+03  0.11367647798E+04  0.89381731684E+03 0.  0.
         23    2    4    4    0    0  0.56789706141E+03  0.38429191849E+03 -0.38667176647E+02  0.69311898911E+03  0.93442129330E+02 0.  0.
         23    2    4    4    0    0 -0.17522344038E+03 -0.17912966494E+00 -0.39904227221E+03  0.44364579074E+03  0.82967261549E+02 0.  0.
          3    1    3    3  502    0 -0.22555965008E+03 -0.23315279339E+03 -0.23453887814E+03  0.40030721474E+03  0.00000000000E+00 0. -1.
         -4    1    3    3    0  502 -0.16711397095E+03 -0.15095999543E+03 -0.24878080454E+03  0.33557098834E+03  0.00000000000E+00 0.  1.
         13    1    5    5    0    0  0.49622959806E+02  0.97524237507E+01 -0.16843084963E+02  0.53303259000E+02  0.00000000000E+00 0.  1.
        -13    1    5    5    0    0  0.51827410160E+03  0.37453949474E+03 -0.21824091684E+02  0.63981573011E+03  0.00000000000E+00 0. -1.
          3    1    6    6  503    0 -0.16108352486E+03 -0.19224249881E+02 -0.38016239286E+03  0.41332906831E+03  0.00000000000E+00 0. -1.
         -3    1    6    6    0  503 -0.14139915514E+02  0.19045120216E+02 -0.18879879350E+02  0.30316722433E+02  0.00000000000E+00 0.  1.
<mgrwt>
<rscale>  0 0.16304898E+04</rscale>
<asrwt>0</asrwt>
<pdfrwt beam="1">  1        1 0.73201067E-01 0.16304898E+04</pdfrwt>
<pdfrwt beam="2">  1       -2 0.21489785E+00 0.16304898E+04</pdfrwt>
<totfact> 0.42282999E+00</totfact>
</mgrwt>
</event>
<event>
12    5  0.5095719E-008  0.1911519E+04  0.7818608E-02  0.8649144E-01
          1   -1    0    0  501    0  0.00000000000E+00  0.00000000000E+00  0.17848289883E+04  0.17848289883E+04  0.00000000000E+00 0. -1.
         -2   -1    0    0    0  501 -0.00000000000E+00 -0.00000000000E+00 -0.51180017872E+03  0.51180017872E+03  0.00000000000E+00 0.  1.
        -24    2    1    2    0    0  0.33847347254E+03  0.65756020289E+03  0.51397070258E+03  0.90421322237E+03  0.80535435494E+02 0.  0.
        254    2    1    2    0    0 -0.33847347254E+03 -0.65756020289E+03  0.75905810703E+03  0.13924159447E+04  0.90316290951E+03 0.  0.
         23    2    4    4    0    0  0.23084490699E+03 -0.81532153067E+02 -0.25811422839E+02  0.26100304607E+03  0.86715035871E+02 0.  0.
         23    2    4    4    0    0 -0.56931837953E+03 -0.57602804982E+03  0.78486952987E+03  0.11314128986E+04  0.90239884587E+02 0.  0.
          1    1    3    3  502    0  0.28787739502E+03  0.56707006419E+03  0.47370747056E+03  0.79299471621E+03  0.00000000000E+00 0. -1.
         -2    1    3    3    0  502  0.50596077518E+02  0.90490138694E+02  0.40263232019E+02  0.11121850617E+03  0.00000000000E+00 0.  1.
         13    1    5    5    0    0  0.15610519875E+03 -0.25833014801E+02 -0.47688441633E+02  0.16525847995E+03  0.00000000000E+00 0. -1.
        -13    1    5    5    0    0  0.74739708237E+02 -0.55699138266E+02  0.21877018794E+02  0.95744566124E+02  0.00000000000E+00 0.  1.
          1    1    6    6  503    0 -0.45067613368E+03 -0.45852581961E+03  0.56944059167E+03  0.85884660572E+03  0.00000000000E+00 0. -1.
         -1    1    6    6    0  503 -0.11864224585E+03 -0.11750223021E+03  0.21542893820E+03  0.27256629289E+03  0.00000000000E+00 0.  1.
<mgrwt>
<rscale>  0 0.19115186E+04</rscale>
<asrwt>0</asrwt>
<pdfrwt beam="1">  1        1 0.27458907E+00 0.19115186E+04</pdfrwt>
<pdfrwt beam="2">  1       -2 0.78738490E-01 0.19115186E+04</pdfrwt>
<totfact> 0.49044842E+00</totfact>
</mgrwt>
</event>
<event>
12    5  0.5095719E-008  0.2206717E+04  0.7818608E-02  0.8515638E-01
         -2   -1    0    0    0  501 -0.00000000000E+00  0.00000000000E+00  0.50627115974E+03  0.50627115974E+03  0.00000000000E+00 0.  1.
          1   -1    0    0  501    0  0.00000000000E+00 -0.00000000000E+00 -0.24046404544E+04  0.24046404544E+04  0.00000000000E+00 0. -1.
        -24    2    1    2    0    0  0.29286724593E+03 -0.56532010508E+03 -0.14859402416E+04  0.16185414198E+04  0.79371791757E+02 0.  0.
        254    2    1    2    0    0 -0.29286724593E+03  0.56532010508E+03 -0.41242905313E+03  0.12923701943E+04  0.10463101597E+04 0.  0.
         23    2    4    4    0    0  0.38662389758E+02  0.80008990838E+03 -0.30525805710E+03  0.86225361779E+03  0.93060077901E+02 0.  0.
         23    2    4    4    0    0 -0.33152963569E+03 -0.23476980330E+03 -0.10717099603E+03  0.43011657653E+03  0.92118875011E+02 0.  0.
          1    1    3    3  502    0  0.48870927327E+02 -0.14858974282E+03 -0.30757652067E+03  0.34506607379E+03  0.00000000000E+00 0. -1.
         -2    1    3    3    0  502  0.24399631860E+03 -0.41673036226E+03 -0.11783637209E+04  0.12734753461E+04  0.00000000000E+00 0.  1.
         13    1    5    5    0    0  0.63847052320E+01  0.12820596743E+03 -0.87008368026E+02  0.15507414566E+03  0.00000000000E+00 0.  1.
        -13    1    5    5    0    0  0.32277684526E+02  0.67188394095E+03 -0.21824968907E+03  0.70717947214E+03  0.00000000000E+00 0. -1.
          3    1    6    6  503    0 -0.20650744697E+03 -0.17464849612E+03 -0.10843088659E+03  0.29138407646E+03  0.00000000000E+00 0. -1.
         -3    1    6    6    0  503 -0.12502218872E+03 -0.60121307182E+02  0.12598905651E+01  0.13873250006E+03  0.00000000000E+00 0.  1.
<mgrwt>
<rscale>  0 0.22067171E+04</rscale>
<asrwt>0</asrwt>
<pdfrwt beam="1">  1        1 0.36994468E+00 0.22067171E+04</pdfrwt>
<pdfrwt beam="2">  1       -2 0.77887872E-01 0.22067171E+04</pdfrwt>
<totfact> 0.18533879E+00</totfact>
</mgrwt>
</event>
<event>
12    5  0.5095719E-008  0.1504725E+04  0.7818608E-02  0.8881317E-01
          1   -1    0    0  501    0  0.00000000000E+00  0.00000000000E+00  0.13834324493E+04  0.13834324493E+04  0.00000000000E+00 0. -1.
         -2   -1    0    0    0  501 -0.00000000000E+00 -0.00000000000E+00 -0.40916278211E+03  0.40916278211E+03  0.00000000000E+00 0.  1.
        -24    2    1    2    0    0 -0.69078103418E+02  0.21933747670E+03 -0.19028348937E+03  0.30599139774E+03  0.67395965066E+02 0.  0.
        254    2    1    2    0    0  0.69078103418E+02 -0.21933747670E+03  0.11645531566E+04  0.14866038337E+04  0.89494479763E+03 0.  0.
         23    2    4    4    0    0  0.76566623705E+02  0.16727325923E+03  0.10542776427E+04  0.10741545930E+04  0.91999731638E+02 0.  0.
         23    2    4    4    0    0 -0.74885202868E+01 -0.38661073593E+03  0.11027551389E+03  0.41244924072E+03  0.91813659845E+02 0.  0.
          1    1    3    3  502    0 -0.31069265364E+01  0.10535488596E+02  0.54729769960E+01  0.12272040973E+02  0.00000000000E+00 0. -1.
         -2    1    3    3    0  502 -0.65971176882E+02  0.20880198810E+03 -0.19575646636E+03  0.29371935676E+03  0.00000000000E+00 0.  1.
         13    1    5    5    0    0 -0.45923784008E+01 -0.32010899563E+01  0.36187218027E+01  0.66657380514E+01  0.00000000000E+00 0.  1.
        -13    1    5    5    0    0  0.81159002106E+02  0.17047434919E+03  0.10506589209E+04  0.10674888549E+04  0.00000000000E+00 0. -1.
          1    1    6    6  503    0 -0.73790219981E+01 -0.31918617523E+03  0.12596678184E+03  0.34322280599E+03  0.00000000000E+00 0. -1.
         -1    1    6    6    0  503 -0.10949828871E+00 -0.67424560698E+02 -0.15691267953E+02  0.69226434728E+02  0.00000000000E+00 0.  1.
<mgrwt>
<rscale>  0 0.15047247E+04</rscale>
<asrwt>0</asrwt>
<pdfrwt beam="1">  1        1 0.21283576E+00 0.15047247E+04</pdfrwt>
<pdfrwt beam="2">  1       -2 0.62948121E-01 0.15047247E+04</pdfrwt>
<totfact> 0.15657538E+01</totfact>
</mgrwt>
</event>
<event>
12    5  0.5095719E-008  0.1544777E+04  0.7818608E-02  0.8855211E-01
          1   -1    0    0  501    0  0.00000000000E+00  0.00000000000E+00  0.11423853703E+04  0.11423853703E+04  0.00000000000E+00 0. -1.
         -2   -1    0    0    0  501 -0.00000000000E+00 -0.00000000000E+00 -0.52222640503E+03  0.52222640503E+03  0.00000000000E+00 0.  1.
        -24    2    1    2    0    0  0.35178527695E+03 -0.27582126583E+03  0.13686402388E+03  0.47411162927E+03  0.78865862182E+02 0.  0.
        254    2    1    2    0    0 -0.35178527695E+03  0.27582126583E+03  0.48329494137E+03  0.11905001460E+04  0.99191045241E+03 0.  0.
         23    2    4    4    0    0  0.20422856524E+03 -0.17279680124E+03  0.36365585736E+03  0.46056400223E+03  0.91134933936E+02 0.  0.
         23    2    4    4    0    0 -0.55601384219E+03  0.44861806707E+03  0.11963908402E+03  0.72993614381E+03  0.89909403295E+02 0.  0.
          1    1    3    3  502    0  0.20518011802E+03 -0.18538290422E+03  0.49327657350E+02  0.28088951527E+03  0.00000000000E+00 0. -1.
         -2    1    3    3    0  502  0.14660515892E+03 -0.90438361608E+02  0.87536366533E+02  0.19322211400E+03  0.00000000000E+00 0.  1.
         13    1    5    5    0    0 -0.40548991001E+00 -0.30460514460E+01  0.46952292227E+02  0.47052742714E+02  0.00000000000E+00 0. -1.
        -13    1    5    5    0    0  0.20463405515E+03 -0.16975074979E+03  0.31670356513E+03  0.41351125952E+03  0.00000000000E+00 0.  1.
          4    1    6    6  503    0 -0.50205428461E+03  0.36824977397E+03  0.11392335358E+03  0.63296518958E+03  0.00000000000E+00 0. -1.
         -4    1    6    6    0  503 -0.53959557582E+02  0.80368293097E+02  0.57157304400E+01  0.96970954230E+02  0.00000000000E+00 0.  1.
<mgrwt>
<rscale>  0 0.15447768E+04</rscale>
<asrwt>0</asrwt>
<pdfrwt beam="1">  1        1 0.17575159E+00 0.15447768E+04</pdfrwt>
<pdfrwt beam="2">  1       -2 0.80342524E-01 0.15447768E+04</pdfrwt>
<totfact> 0.13638053E+01</totfact>
</mgrwt>
</event>
<event>
12    5  0.5095719E-008  0.2974344E+04  0.7818608E-02  0.8251095E-01
         -2   -1    0    0    0  501 -0.00000000000E+00  0.00000000000E+00  0.11741643300E+04  0.11741643300E+04  0.00000000000E+00 0.  1.
          1   -1    0    0  501    0  0.00000000000E+00 -0.00000000000E+00 -0.18836205813E+04  0.18836205813E+04  0.00000000000E+00 0. -1.
        -24    2    1    2    0    0 -0.49197294374E+03 -0.62763395554E+03 -0.14417703621E+04  0.16494706581E+04  0.78037909956E+02 0.  0.
        254    2    1    2    0    0  0.49197294374E+03  0.62763395554E+03  0.73231411079E+03  0.14083142533E+04  0.90061274671E+03 0.  0.
         23    2    4    4    0    0 -0.27037088451E+02  0.63989223972E+03  0.24876448160E+03  0.69275125584E+03  0.88472891571E+02 0.  0.
         23    2    4    4    0    0  0.51901003219E+03 -0.12258284182E+02  0.48354962919E+03  0.71556299742E+03  0.93212018250E+02 0.  0.
          1    1    3    3  502    0 -0.13660470086E+03 -0.21011798813E+03 -0.51293461956E+03  0.57088732442E+03  0.00000000000E+00 0. -1.
         -2    1    3    3    0  502 -0.35536824288E+03 -0.41751596742E+03 -0.92883574251E+03  0.10785833337E+04  0.00000000000E+00 0.  1.
         13    1    5    5    0    0  0.15680097017E+02  0.11661098110E+03  0.17124401933E+02  0.11890009040E+03  0.00000000000E+00 0.  1.
        -13    1    5    5    0    0 -0.42717185468E+02  0.52328125862E+03  0.23164007967E+03  0.57385116543E+03  0.00000000000E+00 0. -1.
          1    1    6    6  503    0  0.28553362767E+03 -0.25961364556E+02  0.20842320209E+03  0.35446251727E+03  0.00000000000E+00 0. -1.
         -1    1    6    6    0  503  0.23347640453E+03  0.13703080374E+02  0.27512642709E+03  0.36110048015E+03  0.00000000000E+00 0.  1.
<mgrwt>
<rscale>  0 0.29743437E+04</rscale>
<asrwt>0</asrwt>
<pdfrwt beam="1">  1        1 0.28978778E+00 0.29743437E+04</pdfrwt>
<pdfrwt beam="2">  1       -2 0.18064067E+00 0.29743437E+04</pdfrwt>
<totfact> 0.48099553E-01</totfact>
</mgrwt>
</event>
<event>
12    5  0.5095719E-008  0.1437050E+04  0.7818608E-02  0.8927428E-01
          1   -1    0    0  501    0  0.00000000000E+00  0.00000000000E+00  0.10777978637E+04  0.10777978637E+04  0.00000000000E+00 0. -1.
         -2   -1    0    0    0  501 -0.00000000000E+00 -0.00000000000E+00 -0.47901185594E+03  0.47901185594E+03  0.00000000000E+00 0.  1.
        -24    2    1    2    0    0 -0.39044609797E+03  0.52174790066E+02  0.99874183281E+02  0.41402878393E+03  0.79212481969E+02 0.  0.
        254    2    1    2    0    0  0.39044609797E+03 -0.52174790066E+02  0.49891182446E+03  0.11427809357E+04  0.94966567498E+03 0.  0.
         23    2    4    4    0    0  0.64744111153E+03  0.15915864680E+03  0.25366691250E+03  0.71927713991E+03  0.92202135299E+02 0.  0.
         23    2    4    4    0    0 -0.25699501356E+03 -0.21133343687E+03  0.24524491196E+03  0.42350379577E+03  0.92207047762E+02 0.  0.
          3    1    3    3  502    0 -0.27642368614E+03  0.14234212005E+02  0.98678189343E+02  0.29385379375E+03  0.00000000000E+00 0. -1.
         -4    1    3    3    0  502 -0.11402241183E+03  0.37940578062E+02  0.11959939381E+01  0.12017499018E+03  0.00000000000E+00 0.  1.
         13    1    5    5    0    0  0.37694518769E+03  0.84274728742E+02  0.98676763711E+02  0.39865650393E+03  0.00000000000E+00 0.  1.
        -13    1    5    5    0    0  0.27049592384E+03  0.74883918057E+02  0.15499014879E+03  0.32062063598E+03  0.00000000000E+00 0. -1.
          3    1    6    6  503    0 -0.55582403956E+02 -0.27949679987E+02  0.88529136408E+01  0.62840769576E+02  0.00000000000E+00 0. -1.
         -3    1    6    6    0  503 -0.20141260960E+03 -0.18338375688E+03  0.23639199832E+03  0.36066302619E+03  0.00000000000E+00 0.  1.
<mgrwt>
<rscale>  0 0.14370497E+04</rscale>
<asrwt>0</asrwt>
<pdfrwt beam="1">  1        1 0.16581506E+00 0.14370497E+04</pdfrwt>
<pdfrwt beam="2">  1       -2 0.73694132E-01 0.14370497E+04</pdfrwt>
<totfact> 0.18652513E+01</totfact>
</mgrwt>
</event>
<event>
12    5  0.5095719E-008  0.1627183E+04  0.7818608E-02  0.8804020E-01
          1   -1    0    0  501    0  0.00000000000E+00  0.00000000000E+00  0.10177525214E+04  0.10177525214E+04  0.00000000000E+00 0. -1.
         -4   -1    0    0    0  501 -0.00000000000E+00 -0.00000000000E+00 -0.65038499090E+03  0.65038499090E+03  0.00000000000E+00 0.  1.
        -24    2    1    2    0    0  0.40677301437E+03 -0.38522315215E+03  0.99156212378E+02  0.57444973318E+03  0.79368629357E+02 0.  0.
        254    2    1    2    0    0 -0.40677301437E+03  0.38522315215E+03  0.26821131808E+03  0.10936877791E+04  0.90019691444E+03 0.  0.
         23    2    4    4    0    0 -0.55430116886E+03  0.10240235586E+03  0.43903683485E+03  0.72063631276E+03  0.93953843086E+02 0.  0.
         23    2    4    4    0    0  0.14752815449E+03  0.28282079629E+03 -0.17082551677E+03  0.37305146631E+03  0.90740730395E+02 0.  0.
          3    1    3    3  502    0  0.13676669023E+03 -0.13103182350E+03  0.71983963968E+02  0.20262319066E+03  0.00000000000E+00 0. -1.
         -4    1    3    3    0  502  0.27000632414E+03 -0.25419132865E+03  0.27172248410E+02  0.37182654252E+03  0.00000000000E+00 0.  1.
         13    1    5    5    0    0 -0.14965042688E+03  0.38946006490E+02  0.71697897764E+02  0.17044832129E+03  0.00000000000E+00 0.  1.
        -13    1    5    5    0    0 -0.40465074198E+03  0.63456349372E+02  0.36733893708E+03  0.55018799147E+03  0.00000000000E+00 0. -1.
          1    1    6    6  503    0  0.45141234415E+02  0.86118633554E+02 -0.10186748361E+03  0.14082306028E+03  0.00000000000E+00 0. -1.
         -1    1    6    6    0  503  0.10238692008E+03  0.19670216274E+03 -0.68958033155E+02  0.23222840602E+03  0.00000000000E+00 0.  1.
<mgrwt>
<rscale>  0 0.16271828E+04</rscale>
<asrwt>0</asrwt>
<pdfrwt beam="1">  1        1 0.15657731E+00 0.16271828E+04</pdfrwt>
<pdfrwt beam="2">  1       -4 0.10005923E+00 0.16271828E+04</pdfrwt>
<totfact> 0.56259549E+00</totfact>
</mgrwt>
</event>
<event>
12    5  0.5095719E-008  0.1301897E+04  0.7818608E-02  0.9028062E-01
         -2   -1    0    0    0  501 -0.00000000000E+00  0.00000000000E+00  0.48472358951E+03  0.48472358951E+03  0.00000000000E+00 0.  1.
          1   -1    0    0  501    0  0.00000000000E+00 -0.00000000000E+00 -0.87417604108E+03  0.87417604108E+03  0.00000000000E+00 0. -1.
        -24    2    1    2    0    0 -0.19907748088E+03  0.16206827629E+03  0.11734998011E+03  0.29336309015E+03  0.79955708096E+02 0.  0.
        254    2    1    2    0    0  0.19907748088E+03 -0.16206827629E+03 -0.50680243168E+03  0.10655365404E+04  0.90145518174E+03 0.  0.
         23    2    4    4    0    0  0.16637816804E+03  0.35761270441E+03 -0.26375474850E+03  0.48315207488E+03  0.91108830251E+02 0.  0.
         23    2    4    4    0    0  0.32699312845E+02 -0.51968098070E+03 -0.24304768318E+03  0.58238446556E+03  0.94667431915E+02 0.  0.
          1    1    3    3  502    0 -0.26851287289E+02  0.59835457607E+02  0.10690225245E+02  0.66449639065E+02  0.00000000000E+00 0. -1.
         -2    1    3    3    0  502 -0.17222619359E+03  0.10223281868E+03  0.10665975487E+03  0.22691345108E+03  0.00000000000E+00 0.  1.
         13    1    5    5    0    0  0.16624520086E+03  0.36254020476E+03 -0.26386180007E+03  0.47822161852E+03  0.00000000000E+00 0. -1.
        -13    1    5    5    0    0  0.13296717175E+00 -0.49275003486E+01  0.10705156842E+00  0.49304563676E+01  0.00000000000E+00 0.  1.
          2    1    6    6  503    0  0.27699306287E+02 -0.36041098959E+03 -0.21501624121E+03  0.42058924971E+03  0.00000000000E+00 0. -1.
         -2    1    6    6    0  503  0.50000065581E+01 -0.15926999111E+03 -0.28031441970E+02  0.16179521586E+03  0.00000000000E+00 0.  1.
<mgrwt>
<rscale>  0 0.13018967E+04</rscale>
<asrwt>0</asrwt>
<pdfrwt beam="1">  1        1 0.13448862E+00 0.13018967E+04</pdfrwt>
<pdfrwt beam="2">  1       -2 0.74572860E-01 0.13018967E+04</pdfrwt>
<totfact> 0.26615092E+01</totfact>
</mgrwt>
</event>
<event>
12    5  0.5095719E-008  0.1133850E+04  0.7818608E-02  0.9172813E-01
         -4   -1    0    0    0  501 -0.00000000000E+00  0.00000000000E+00  0.25465461661E+04  0.25465461661E+04  0.00000000000E+00 0.  1.
          3   -1    0    0  501    0  0.00000000000E+00 -0.00000000000E+00 -0.12621178974E+03  0.12621178974E+03  0.00000000000E+00 0. -1.
        -24    2    1    2    0    0  0.19385169401E+03 -0.62619998700E+02  0.25153126337E+03  0.33349197630E+03  0.80306776153E+02 0.  0.
        254    2    1    2    0    0 -0.19385169401E+03  0.62619998700E+02  0.21688031130E+04  0.23392659796E+04  0.85261869357E+03 0.  0.
         23    2    4    4    0    0 -0.14614581124E+03  0.11072735391E+02  0.22102194677E+04  0.22167287395E+04  0.85644645514E+02 0.  0.
         23    2    4    4    0    0 -0.47705882778E+02  0.51547263309E+02 -0.41416354728E+02  0.12253724007E+03  0.91471794337E+02 0.  0.
          3    1    3    3  502    0  0.10439625176E+03 -0.75130952556E+02  0.14523567881E+03  0.19400164900E+03  0.00000000000E+00 0. -1.
         -4    1    3    3    0  502  0.89455442249E+02  0.12510953857E+02  0.10629558456E+03  0.13949032730E+03  0.00000000000E+00 0.  1.
         13    1    5    5    0    0 -0.42658253294E+00  0.58624143136E+01  0.94147767297E+01  0.11099004240E+02  0.00000000000E+00 0. -1.
        -13    1    5    5    0    0 -0.14571922870E+03  0.52103210773E+01  0.22008046910E+04  0.22056297352E+04  0.00000000000E+00 0.  1.
          1    1    6    6  503    0  0.15807775226E+01  0.21400704956E+02  0.26025726740E+02  0.33731698483E+02  0.00000000000E+00 0. -1.
         -1    1    6    6    0  503 -0.49286660300E+02  0.30146558353E+02 -0.67442081468E+02  0.88805541589E+02  0.00000000000E+00 0.  1.
<mgrwt>
<rscale>  0 0.11338503E+04</rscale>
<asrwt>0</asrwt>
<pdfrwt beam="1">  1        3 0.19417200E-01 0.11338503E+04</pdfrwt>
<pdfrwt beam="2">  1       -4 0.39177630E+00 0.11338503E+04</pdfrwt>
<totfact> 0.43910730E-01</totfact>
</mgrwt>
</event>
<event>
12    5  0.5095719E-008  0.3433320E+04  0.7818608E-02  0.8129777E-01
         -2   -1    0    0    0  501 -0.00000000000E+00  0.00000000000E+00  0.21403042385E+04  0.21403042385E+04  0.00000000000E+00 0.  1.
          1   -1    0    0  501    0  0.00000000000E+00 -0.00000000000E+00 -0.13768704114E+04  0.13768704114E+04  0.00000000000E+00 0. -1.
        -24    2    1    2    0    0  0.15010819552E+04 -0.33068806813E+03 -0.85745516503E+02  0.15414283613E+04  0.77765446999E+02 0.  0.
        254    2    1    2    0    0 -0.15010819552E+04  0.33068806813E+03  0.84917934361E+03  0.19757462886E+04  0.90546463480E+03 0.  0.
         23    2    4    4    0    0 -0.10074878728E+04 -0.68288442453E+02  0.86891293835E+03  0.13355571459E+04  0.94910854619E+02 0.  0.
         23    2    4    4    0    0 -0.49359408237E+03  0.39897651058E+03 -0.19733594736E+02  0.64018914273E+03  0.81457655033E+02 0.  0.
          1    1    3    3  502    0  0.67260863136E+03 -0.14378131387E+03 -0.76868638864E+02  0.69208686221E+03  0.00000000000E+00 0. -1.
         -2    1    3    3    0  502  0.82847332382E+03 -0.18690675426E+03 -0.88768776392E+01  0.84934149906E+03  0.00000000000E+00 0.  1.
         13    1    5    5    0    0 -0.50151490229E+02 -0.24728013722E+01  0.18981595268E+02  0.53680421736E+02  0.00000000000E+00 0.  1.
        -13    1    5    5    0    0 -0.95733638258E+03 -0.65815641081E+02  0.84993134308E+03  0.12818767242E+04  0.00000000000E+00 0. -1.
          1    1    6    6  503    0 -0.40033507410E+03  0.29774297654E+03 -0.42304656987E+02  0.50070823404E+03  0.00000000000E+00 0. -1.
         -1    1    6    6    0  503 -0.93259008272E+02  0.10123353404E+03  0.22571062252E+02  0.13948090869E+03  0.00000000000E+00 0.  1.
<mgrwt>
<rscale>  0 0.34333200E+04</rscale>
<asrwt>0</asrwt>
<pdfrwt beam="1">  1        1 0.21182622E+00 0.34333200E+04</pdfrwt>
<pdfrwt beam="2">  1       -2 0.32927758E+00 0.34333200E+04</pdfrwt>
<totfact> 0.12049268E-01</totfact>
</mgrwt>
</event>
<event>
12    5  0.5095719E-008  0.1306332E+04  0.7818608E-02  0.9024559E-01
          1   -1    0    0  501    0  0.00000000000E+00  0.00000000000E+00  0.44490256214E+03  0.44490256214E+03  0.00000000000E+00 0. -1.
         -2   -1    0    0    0  501 -0.00000000000E+00 -0.00000000000E+00 -0.95891928204E+03  0.95891928204E+03  0.00000000000E+00 0.  1.
        -24    2    1    2    0    0 -0.21539026335E+03  0.32673129321E+02 -0.40155309012E+03  0.46574818847E+03  0.90642109128E+02 0.  0.
        254    2    1    2    0    0  0.21539026335E+03 -0.32673129321E+02 -0.11246362978E+03  0.93807365572E+03  0.90546872756E+03 0.  0.
         23    2    4    4    0    0  0.26453003641E+03  0.31636527563E+03  0.19162770088E+03  0.46369350032E+03  0.90704788746E+02 0.  0.
         23    2    4    4    0    0 -0.49139773056E+02 -0.34903840496E+03 -0.30409133066E+03  0.47438015540E+03  0.91227567225E+02 0.  0.
          3    1    3    3  502    0 -0.44250080709E+02  0.38051225870E+02 -0.60124688376E+02  0.83791071035E+02  0.00000000000E+00 0. -1.
         -4    1    3    3    0  502 -0.17114018264E+03 -0.53780965489E+01 -0.34142840175E+03  0.38195711743E+03  0.00000000000E+00 0.  1.
         13    1    5    5    0    0  0.10857525639E+03  0.10502904281E+03  0.11573023930E+03  0.19029759437E+03  0.00000000000E+00 0.  1.
        -13    1    5    5    0    0  0.15595478002E+03  0.21133623282E+03  0.75897461581E+02  0.27339590595E+03  0.00000000000E+00 0. -1.
          2    1    6    6  503    0 -0.74847552864E+02 -0.29343273037E+03 -0.25192157282E+03  0.39391547606E+03  0.00000000000E+00 0. -1.
         -2    1    6    6    0  503  0.25707779808E+02 -0.55605674582E+02 -0.52169757842E+02  0.80464679342E+02  0.00000000000E+00 0.  1.
<mgrwt>
<rscale>  0 0.13063317E+04</rscale>
<asrwt>0</asrwt>
<pdfrwt beam="1">  1        1 0.68446550E-01 0.13063317E+04</pdfrwt>
<pdfrwt beam="2">  1       -2 0.14752604E+00 0.13063317E+04</pdfrwt>
<totfact> 0.13964005E+01</totfact>
</mgrwt>
</event>
<event>
12    5  0.5095719E-008  0.1204990E+04  0.7818608E-02  0.9108500E-01
          1   -1    0    0  501    0  0.00000000000E+00  0.00000000000E+00  0.69038364432E+03  0.69038364432E+03  0.00000000000E+00 0. -1.
         -2   -1    0    0    0  501 -0.00000000000E+00 -0.00000000000E+00 -0.52579517335E+03  0.52579517335E+03  0.00000000000E+00 0.  1.
        -24    2    1    2    0    0 -0.18602909431E+03  0.18439593682E+03  0.48905817702E+02  0.27808707427E+03  0.79573591238E+02 0.  0.
        254    2    1    2    0    0  0.18602909431E+03 -0.18439593682E+03  0.11568265327E+03  0.93809174340E+03  0.89332242629E+03 0.  0.
         23    2    4    4    0    0 -0.10369042994E+03  0.27729037058E+03  0.21579732745E+03  0.37629480150E+03  0.85951359623E+02 0.  0.
         23    2    4    4    0    0  0.28971952424E+03 -0.46168630741E+03 -0.10011467418E+03  0.56179694190E+03  0.92201988932E+02 0.  0.
          1    1    3    3  502    0 -0.11800104722E+03  0.11900295643E+03  0.69627854930E+02  0.18147724091E+03  0.00000000000E+00 0. -1.
         -2    1    3    3    0  502 -0.68028047085E+02  0.65392980391E+02 -0.20722037228E+02  0.96609833358E+02  0.00000000000E+00 0.  1.
         13    1    5    5    0    0 -0.31914385691E+02  0.45010970516E+02  0.66144269404E+01  0.55572170414E+02  0.00000000000E+00 0.  1.
        -13    1    5    5    0    0 -0.71776044245E+02  0.23227940007E+03  0.20918290051E+03  0.32072263108E+03  0.00000000000E+00 0. -1.
          4    1    6    6  503    0  0.28523367629E+03 -0.45566963162E+03 -0.84111145607E+02  0.54412107851E+03  0.00000000000E+00 0. -1.
         -4    1    6    6    0  503  0.44858479552E+01 -0.60166757888E+01 -0.16003528577E+02  0.17675863383E+02  0.00000000000E+00 0.  1.
<mgrwt>
<rscale>  0 0.12049903E+04</rscale>
<asrwt>0</asrwt>
<pdfrwt beam="1">  1        1 0.10621287E+00 0.12049903E+04</pdfrwt>
<pdfrwt beam="2">  1       -2 0.80891564E-01 0.12049903E+04</pdfrwt>
<totfact> 0.32506819E+01</totfact>
</mgrwt>
</event>
<event>
12    5  0.5095719E-008  0.1567696E+04  0.7818608E-02  0.8840643E-01
          1   -1    0    0  501    0  0.00000000000E+00  0.00000000000E+00  0.12790928805E+04  0.12790928805E+04  0.00000000000E+00 0. -1.
         -2   -1    0    0    0  501 -0.00000000000E+00 -0.00000000000E+00 -0.48035451918E+03  0.48035451918E+03  0.00000000000E+00 0.  1.
        -24    2    1    2    0    0  0.44159065281E+03 -0.13855490723E+02  0.57583516669E+03  0.72996957318E+03  0.77943308233E+02 0.  0.
        254    2    1    2    0    0 -0.44159065281E+03  0.13855490723E+02  0.22290319467E+03  0.10294778265E+04  0.90274275509E+03 0.  0.
         23    2    4    4    0    0 -0.44345300357E+03  0.75835250499E+02  0.53291620750E+03  0.70359545135E+03  0.92980230949E+02 0.  0.
         23    2    4    4    0    0  0.18623507635E+01 -0.61979759776E+02 -0.31001301283E+03  0.32588237519E+03  0.79033507823E+02 0.  0.
          3    1    3    3  502    0  0.26166433276E+03  0.17502871846E+02  0.38488521123E+03  0.46573726433E+03  0.00000000000E+00 0. -1.
         -2    1    3    3    0  502  0.17992632005E+03 -0.31358362569E+02  0.19094995546E+03  0.26423230885E+03  0.00000000000E+00 0.  1.
         13    1    5    5    0    0 -0.26870049301E+03  0.56256837960E+01  0.34756484413E+03  0.43935512304E+03  0.00000000000E+00 0.  1.
        -13    1    5    5    0    0 -0.17475251056E+03  0.70209566703E+02  0.18535136337E+03  0.26424032831E+03  0.00000000000E+00 0. -1.
          3    1    6    6  503    0 -0.15243223098E+01 -0.26375699071E+02 -0.18666085322E+02  0.32348474481E+02  0.00000000000E+00 0. -1.
         -3    1    6    6    0  503  0.33866730733E+01 -0.35604060705E+02 -0.29134692751E+03  0.29353390071E+03  0.00000000000E+00 0.  1.
<mgrwt>
<rscale>  0 0.15676965E+04</rscale>
<asrwt>0</asrwt>
<pdfrwt beam="1">  1        1 0.19678352E+00 0.15676965E+04</pdfrwt>
<pdfrwt beam="2">  1       -2 0.73900696E-01 0.15676965E+04</pdfrwt>
<totfact> 0.13037525E+01</totfact>
</mgrwt>
</event>
<event>
12    5  0.5095719E-008  0.2466112E+04  0.7818608E-02  0.8415159E-01
          1   -1    0    0  501    0  0.00000000000E+00  0.00000000000E+00  0.16790554123E+04  0.16790554123E+04  0.00000000000E+00 0. -1.
         -2   -1    0    0    0  501 -0.00000000000E+00 -0.00000000000E+00 -0.90552550245E+03  0.90552550245E+03  0.00000000000E+00 0.  1.
        -24    2    1    2    0    0  0.32125785132E+03 -0.90498819865E+03 -0.15918260841E+03  0.97733442450E+03  0.87368345301E+02 0.  0.
        254    2    1    2    0    0 -0.32125785132E+03  0.90498819865E+03  0.93271251831E+03  0.16072464903E+04  0.88942587776E+03 0.  0.
         23    2    4    4    0    0  0.73081669359E+02 -0.13966662845E+03  0.81211824146E+02  0.19999113392E+03  0.92484570434E+02 0.  0.
         23    2    4    4    0    0 -0.39433952068E+03  0.10446548271E+04  0.85150069416E+03  0.14072553564E+04  0.92232535133E+02 0.  0.
          3    1    3    3  502    0  0.58238548350E+02 -0.20733714007E+03 -0.20446075597E+01  0.21537083968E+03  0.00000000000E+00 0. -1.
         -4    1    3    3    0  502  0.26301930297E+03 -0.69765105858E+03 -0.15713800085E+03  0.76196358482E+03  0.00000000000E+00 0.  1.
         13    1    5    5    0    0  0.62516699981E+02 -0.15023937703E+03  0.86308730482E+02  0.18419936250E+03  0.00000000000E+00 0. -1.
        -13    1    5    5    0    0  0.10564969377E+02  0.10572748583E+02 -0.50969063363E+01  0.15791771425E+02  0.00000000000E+00 0.  1.
          1    1    6    6  503    0 -0.16146421851E+03  0.34895916876E+03  0.33586142661E+03  0.51053510477E+03  0.00000000000E+00 0.  1.
         -1    1    6    6    0  503 -0.23287530217E+03  0.69569565834E+03  0.51563926756E+03  0.89672025161E+03  0.00000000000E+00 0. -1.
<mgrwt>
<rscale>  0 0.24661123E+04</rscale>
<asrwt>0</asrwt>
<pdfrwt beam="1">  1        1 0.25831622E+00 0.24661123E+04</pdfrwt>
<pdfrwt beam="2">  1       -2 0.13931162E+00 0.24661123E+04</pdfrwt>
<totfact> 0.14024301E+00</totfact>
</mgrwt>
</event>
<event>
12    5  0.5095719E-008  0.1392361E+04  0.7818608E-02  0.8959367E-01
         -2   -1    0    0    0  501 -0.00000000000E+00  0.00000000000E+00  0.21737673302E+04  0.21737673302E+04  0.00000000000E+00 0.  1.
          1   -1    0    0  501    0  0.00000000000E+00 -0.00000000000E+00 -0.22296190161E+03  0.22296190161E+03  0.00000000000E+00 0. -1.
        -24    2    1    2    0    0  0.66160906118E+02  0.14033917888E+02  0.12567621333E+04  0.12605928787E+04  0.71197821620E+02 0.  0.
        254    2    1    2    0    0 -0.66160906118E+02 -0.14033917888E+02  0.69404329526E+03  0.11361363531E+04  0.89695902957E+03 0.  0.
         23    2    4    4    0    0 -0.36157616647E+03  0.14543244721E+03  0.67985242799E+03  0.78900076606E+03  0.91842060857E+02 0.  0.
         23    2    4    4    0    0  0.29541526035E+03 -0.15946636510E+03  0.14190867267E+02  0.34713558700E+03  0.87189663410E+02 0.  0.
          1    1    3    3  502    0  0.27446753778E+02  0.13428082605E+02  0.14634085321E+03  0.14949676590E+03  0.00000000000E+00 0. -1.
         -2    1    3    3    0  502  0.38714152340E+02  0.60583528278E+00  0.11104212801E+04  0.11110961128E+04  0.00000000000E+00 0.  1.
         13    1    5    5    0    0 -0.14410666776E+03  0.66413888817E+02  0.36742642931E+03  0.40022458355E+03  0.00000000000E+00 0. -1.
        -13    1    5    5    0    0 -0.21746949871E+03  0.79018558393E+02  0.31242599868E+03  0.38877618252E+03  0.00000000000E+00 0.  1.
          1    1    6    6  503    0  0.20134736689E+03 -0.12327994223E+03 -0.28253324694E+02  0.23777501270E+03  0.00000000000E+00 0. -1.
         -1    1    6    6    0  503  0.94067893464E+02 -0.36186422865E+02  0.42444191961E+02  0.10936057430E+03  0.00000000000E+00 0.  1.
<mgrwt>
<rscale>  0 0.13923610E+04</rscale>
<asrwt>0</asrwt>
<pdfrwt beam="1">  1        1 0.34301833E-01 0.13923610E+04</pdfrwt>
<pdfrwt beam="2">  1       -2 0.33442573E+00 0.13923610E+04</pdfrwt>
<totfact> 0.21576054E+00</totfact>
</mgrwt>
</event>
<event>
12    5  0.5095719E-008  0.1344601E+04  0.7818608E-02  0.8994925E-01
         -2   -1    0    0    0  501 -0.00000000000E+00  0.00000000000E+00  0.10571427629E+04  0.10571427629E+04  0.00000000000E+00 0.  1.
          1   -1    0    0  501    0  0.00000000000E+00 -0.00000000000E+00 -0.42755603472E+03  0.42755603472E+03  0.00000000000E+00 0. -1.
        -24    2    1    2    0    0 -0.11550473935E+03 -0.11289872353E+03 -0.18535717784E+03  0.25876714032E+03  0.80719780391E+02 0.  0.
        254    2    1    2    0    0  0.11550473935E+03  0.11289872353E+03  0.81494390606E+03  0.12259316573E+04  0.90149175917E+03 0.  0.
         23    2    4    4    0    0 -0.10041109812E+03 -0.93552497380E+02 -0.14328784248E+03  0.21824649300E+03  0.90915716523E+02 0.  0.
         23    2    4    4    0    0  0.21591583747E+03  0.20645122091E+03  0.95823174854E+03  0.10076851643E+04  0.89328332815E+02 0.  0.
          1    1    3    3  502    0 -0.67404456624E+02 -0.96469179054E+02 -0.16787425194E+03  0.20501567682E+03  0.00000000000E+00 0. -1.
         -2    1    3    3    0  502 -0.48100282723E+02 -0.16429544473E+02 -0.17482925900E+02  0.53751463493E+02  0.00000000000E+00 0.  1.
         13    1    5    5    0    0  0.15608270494E+02 -0.38851325037E+01 -0.25572015118E+02  0.30209937431E+02  0.00000000000E+00 0. -1.
        -13    1    5    5    0    0 -0.11601936861E+03 -0.89667364876E+02 -0.11771582736E+03  0.18803655557E+03  0.00000000000E+00 0.  1.
          4    1    6    6  503    0  0.33151826139E+02  0.44908013109E+02  0.31193053716E+03  0.31688552071E+03  0.00000000000E+00 0.  1.
         -4    1    6    6    0  503  0.18276401133E+03  0.16154320780E+03  0.64630121138E+03  0.69079964364E+03  0.00000000000E+00 0. -1.
<mgrwt>
<rscale>  0 0.13446007E+04</rscale>
<asrwt>0</asrwt>
<pdfrwt beam="1">  1        1 0.65777852E-01 0.13446007E+04</pdfrwt>
<pdfrwt beam="2">  1       -2 0.16263735E+00 0.13446007E+04</pdfrwt>
<totfact> 0.11299921E+01</totfact>
</mgrwt>
</event>
<event>
12    5  0.5095719E-008  0.1256415E+04  0.7818608E-02  0.9064861E-01
          1   -1    0    0  501    0  0.00000000000E+00  0.00000000000E+00  0.45694473892E+03  0.45694473892E+03  0.00000000000E+00 0. -1.
         -2   -1    0    0    0  501 -0.00000000000E+00 -0.00000000000E+00 -0.86365917683E+03  0.86365917683E+03  0.00000000000E+00 0.  1.
        -24    2    1    2    0    0  0.78318383221E+01 -0.10135239700E+03  0.19413979364E+03  0.23358648912E+03  0.80862490425E+02 0.  0.
        254    2    1    2    0    0 -0.78318383221E+01  0.10135239700E+03 -0.60085423154E+03  0.10870174266E+04  0.90013745182E+03 0.  0.
         23    2    4    4    0    0  0.47256984469E+01  0.54912476488E+02 -0.82926737110E+03  0.83608083996E+03  0.91154187427E+02 0.  0.
         23    2    4    4    0    0 -0.12557536769E+02  0.46439920515E+02  0.22841313955E+03  0.25093658667E+03  0.92099132790E+02 0.  0.
          1    1    3    3  502    0  0.15636545861E+02 -0.65031131352E+02  0.18294183225E+03  0.19478517294E+03  0.00000000000E+00 0. -1.
         -4    1    3    3    0  502 -0.78047075392E+01 -0.36321265651E+02  0.11197961390E+02  0.38801316183E+02  0.00000000000E+00 0.  1.
         13    1    5    5    0    0  0.20449270239E+02  0.72405646990E+02 -0.73822674257E+03  0.74205085662E+03  0.00000000000E+00 0. -1.
        -13    1    5    5    0    0 -0.15723571792E+02 -0.17493170502E+02 -0.91040628528E+02  0.94029983340E+02  0.00000000000E+00 0.  1.
          2    1    6    6  503    0  0.15915558770E+02  0.62385485505E+02  0.18956603094E+03  0.20020123351E+03  0.00000000000E+00 0. -1.
         -2    1    6    6    0  503 -0.28473095539E+02 -0.15945564990E+02  0.38847108613E+02  0.50735353158E+02  0.00000000000E+00 0.  1.
<mgrwt>
<rscale>  0 0.12564148E+04</rscale>
<asrwt>0</asrwt>
<pdfrwt beam="1">  1        1 0.70299192E-01 0.12564148E+04</pdfrwt>
<pdfrwt beam="2">  1       -2 0.13287064E+00 0.12564148E+04</pdfrwt>
<totfact> 0.17742427E+01</totfact>
</mgrwt>
</event>
<event>
12    5  0.5095719E-008  0.2465264E+04  0.7818608E-02  0.8415466E-01
         -2   -1    0    0    0  501 -0.00000000000E+00  0.00000000000E+00  0.54423977981E+03  0.54423977981E+03  0.00000000000E+00 0.  1.
          1   -1    0    0  501    0  0.00000000000E+00 -0.00000000000E+00 -0.27917498056E+04  0.27917498056E+04  0.00000000000E+00 0. -1.
        -24    2    1    2    0    0 -0.13633439997E+03 -0.17674932226E+03 -0.23903776921E+04  0.24020205857E+04  0.77265722511E+02 0.  0.
        254    2    1    2    0    0  0.13633439997E+03  0.17674932226E+03  0.14286766624E+03  0.93396899973E+03  0.89557776372E+03 0.  0.
         23    2    4    4    0    0 -0.15156183165E+03 -0.23010594512E+03  0.28561040382E+03  0.40712916517E+03  0.90890701225E+02 0.  0.
         23    2    4    4    0    0  0.28789623162E+03  0.40685526737E+03 -0.14274273758E+03  0.52683983457E+03  0.93644398577E+02 0.  0.
          3    1    3    3  502    0 -0.11218128170E+03 -0.17161454555E+03 -0.19019029547E+04  0.19129221210E+04  0.00000000000E+00 0. -1.
         -4    1    3    3    0  502 -0.24153118267E+02 -0.51347767120E+01 -0.48847473741E+03  0.48909846467E+03  0.00000000000E+00 0.  1.
         13    1    5    5    0    0 -0.78719558418E+02 -0.18997246458E+03  0.18511498587E+03  0.27668368975E+03  0.00000000000E+00 0.  1.
        -13    1    5    5    0    0 -0.72842273228E+02 -0.40133480531E+02  0.10049541795E+03  0.13044547542E+03  0.00000000000E+00 0. -1.
          4    1    6    6  503    0  0.21946189055E+03  0.24811180733E+03 -0.12081047554E+03  0.35258780657E+03  0.00000000000E+00 0. -1.
         -4    1    6    6    0  503  0.68434341069E+02  0.15874346004E+03 -0.21932262044E+02  0.17425202800E+03  0.00000000000E+00 0.  1.
<mgrwt>
<rscale>  0 0.24652637E+04</rscale>
<asrwt>0</asrwt>
<pdfrwt beam="1">  1        1 0.42949995E+00 0.24652637E+04</pdfrwt>
<pdfrwt beam="2">  1       -2 0.83729200E-01 0.24652637E+04</pdfrwt>
<totfact> 0.82515756E-01</totfact>
</mgrwt>
</event>
<event>
12    5  0.5095719E-008  0.2173647E+04  0.7818608E-02  0.8529478E-01
          1   -1    0    0  501    0  0.00000000000E+00  0.00000000000E+00  0.15071826007E+04  0.15071826007E+04  0.00000000000E+00 0. -1.
         -4   -1    0    0    0  501 -0.00000000000E+00 -0.00000000000E+00 -0.78370412019E+03  0.78370412019E+03  0.00000000000E+00 0.  1.
        -24    2    1    2    0    0 -0.13147812142E+03 -0.78376192910E+03 -0.15060748216E+03  0.81293804264E+03  0.81341192317E+02 0.  0.
        254    2    1    2    0    0  0.13147812142E+03  0.78376192910E+03  0.87408596263E+03  0.14779486782E+04  0.88810853359E+03 0.  0.
         23    2    4    4    0    0  0.32647387212E+02  0.81999927506E+03  0.28646089962E+03  0.87440173341E+03  0.95151885948E+02 0.  0.
         23    2    4    4    0    0  0.98830734206E+02 -0.36237345952E+02  0.58762506300E+03  0.60354694480E+03  0.88797751320E+02 0.  0.
          1    1    3    3  502    0 -0.39068289884E+02 -0.18074480551E+03 -0.69341184256E+02  0.19749231840E+03  0.00000000000E+00 0. -1.
         -2    1    3    3    0  502 -0.92409831534E+02 -0.60301712359E+03 -0.81266297904E+02  0.61544572424E+03  0.00000000000E+00 0.  1.
         13    1    5    5    0    0  0.59185189729E+02  0.34045632337E+03  0.10811212189E+03  0.36207958477E+03  0.00000000000E+00 0. -1.
        -13    1    5    5    0    0 -0.26537802517E+02  0.47954295169E+03  0.17834877774E+03  0.51232214865E+03  0.00000000000E+00 0.  1.
          2    1    6    6  503    0 -0.44398739305E+01 -0.20628337892E+02  0.23046629827E+03  0.23143023883E+03  0.00000000000E+00 0. -1.
         -2    1    6    6    0  503  0.10327060814E+03 -0.15609008059E+02  0.35715876473E+03  0.37211670597E+03  0.00000000000E+00 0.  1.
<mgrwt>
<rscale>  0 0.21736469E+04</rscale>
<asrwt>0</asrwt>
<pdfrwt beam="1">  1        1 0.23187425E+00 0.21736469E+04</pdfrwt>
<pdfrwt beam="2">  1       -4 0.12056986E+00 0.21736469E+04</pdfrwt>
<totfact> 0.15112179E+00</totfact>
</mgrwt>
</event>
<event>
12    5  0.5095719E-008  0.1258686E+04  0.7818608E-02  0.9062985E-01
          1   -1    0    0  501    0  0.00000000000E+00  0.00000000000E+00  0.15731235702E+04  0.15731235702E+04  0.00000000000E+00 0. -1.
         -2   -1    0    0    0  501 -0.00000000000E+00 -0.00000000000E+00 -0.25177449820E+03  0.25177449820E+03  0.00000000000E+00 0.  1.
        -24    2    1    2    0    0  0.22570397767E+03 -0.40706520593E+02  0.58956098234E+03  0.63787738239E+03  0.81890760834E+02 0.  0.
        254    2    1    2    0    0 -0.22570397767E+03  0.40706520593E+02  0.73178808967E+03  0.11870206860E+04  0.90603807565E+03 0.  0.
         23    2    4    4    0    0  0.31953661985E+03 -0.92135213147E+02  0.39401567418E+03  0.52551167543E+03  0.10159537677E+03 0.  0.
         23    2    4    4    0    0 -0.54524059752E+03  0.13284173374E+03  0.33777241549E+03  0.66150901060E+03  0.92572841758E+02 0.  0.
          1    1    3    3  502    0  0.15089360061E+03 -0.61552155575E+02  0.35082937486E+03  0.38683174227E+03  0.00000000000E+00 0. -1.
         -2    1    3    3    0  502  0.74810377055E+02  0.20845634982E+02  0.23873160748E+03  0.25104564012E+03  0.00000000000E+00 0.  1.
         13    1    5    5    0    0  0.12395831689E+03 -0.63097571287E+02  0.22920532930E+03  0.26810828187E+03  0.00000000000E+00 0. -1.
        -13    1    5    5    0    0  0.19557830296E+03 -0.29037641860E+02  0.16481034488E+03  0.25740339356E+03  0.00000000000E+00 0.  1.
          1    1    6    6  503    0 -0.17304769376E+02  0.23164181392E+02  0.24529189857E+02  0.37917219014E+02  0.00000000000E+00 0. -1.
         -1    1    6    6    0  503 -0.52793582814E+03  0.10967755235E+03  0.31324322563E+03  0.62359179159E+03  0.00000000000E+00 0.  1.
<mgrwt>
<rscale>  0 0.12586857E+04</rscale>
<asrwt>0</asrwt>
<pdfrwt beam="1">  1        1 0.24201900E+00 0.12586857E+04</pdfrwt>
<pdfrwt beam="2">  1       -2 0.38734539E-01 0.12586857E+04</pdfrwt>
<totfact> 0.31715432E+01</totfact>
</mgrwt>
</event>
<event>
12    5  0.5095719E-008  0.2199596E+04  0.7818608E-02  0.8518596E-01
          3   -1    0    0  501    0  0.00000000000E+00  0.00000000000E+00  0.95532476945E+03  0.95532476945E+03  0.00000000000E+00 0. -1.
         -2   -1    0    0    0  501 -0.00000000000E+00 -0.00000000000E+00 -0.12661200007E+04  0.12661200007E+04  0.00000000000E+00 0.  1.
        -24    2    1    2    0    0  0.48997690708E+03 -0.44499230998E+03 -0.76406333112E+03  0.10140022080E+04  0.79449219108E+02 0.  0.
        254    2    1    2    0    0 -0.48997690708E+03  0.44499230998E+03  0.45326809985E+03  0.12074425622E+04  0.90242453715E+03 0.  0.
         23    2    4    4    0    0 -0.26132055655E+03  0.50497515139E+03  0.66121186671E+03  0.87685469998E+03  0.91567982390E+02 0.  0.
         23    2    4    4    0    0 -0.22865635054E+03 -0.59982841412E+02 -0.20794376686E+03  0.33058786222E+03  0.10082686431E+03 0.  0.
          1    1    3    3  502    0  0.25734796914E+03 -0.26054285740E+03 -0.47350621802E+03  0.59859727386E+03  0.00000000000E+00 0. -1.
         -2    1    3    3    0  502  0.23262893794E+03 -0.18444945258E+03 -0.29055711310E+03  0.41540493413E+03  0.00000000000E+00 0.  1.
         13    1    5    5    0    0 -0.22662805090E+03  0.44933012866E+03  0.62333736157E+03  0.80112876887E+03  0.00000000000E+00 0.  1.
        -13    1    5    5    0    0 -0.34692505649E+02  0.55645022733E+02  0.37874505135E+02  0.75725931110E+02  0.00000000000E+00 0. -1.
          3    1    6    6  503    0 -0.17542480527E+03 -0.54575945333E+01 -0.11255815008E+03  0.20850176208E+03  0.00000000000E+00 0. -1.
         -3    1    6    6    0  503 -0.53231545271E+02 -0.54525246879E+02 -0.95385616786E+02  0.12208610015E+03  0.00000000000E+00 0.  1.
<mgrwt>
<rscale>  0 0.21995961E+04</rscale>
<asrwt>0</asrwt>
<pdfrwt beam="1">  1        3 0.14697304E+00 0.21995961E+04</pdfrwt>
<pdfrwt beam="2">  1       -2 0.19478769E+00 0.21995961E+04</pdfrwt>
<totfact> 0.18605242E-01</totfact>
</mgrwt>
</event>
<event>
12    5  0.5095719E-008  0.1751574E+04  0.7818608E-02  0.8732485E-01
         -2   -1    0    0    0  501 -0.00000000000E+00  0.00000000000E+00  0.37559556043E+03  0.37559556043E+03  0.00000000000E+00 0.  1.
          1   -1    0    0  501    0  0.00000000000E+00 -0.00000000000E+00 -0.20420971936E+04  0.20420971936E+04  0.00000000000E+00 0. -1.
        -24    2    1    2    0    0 -0.32972411850E+03 -0.30604290330E+02  0.14329498667E+03  0.37000717224E+03  0.81958754268E+02 0.  0.
        254    2    1    2    0    0  0.32972411850E+03  0.30604290330E+02 -0.18097966199E+04  0.20476855818E+04  0.89888698944E+03 0.  0.
         23    2    4    4    0    0  0.47359660583E+03 -0.31260520191E+03 -0.11238511941E+04  0.12621686530E+04  0.89512260780E+02 0.  0.
         23    2    4    4    0    0 -0.14387248734E+03  0.34320949224E+03 -0.68594542580E+03  0.78551692884E+03  0.89574941497E+02 0.  0.
          1    1    3    3  502    0 -0.58422940913E+01 -0.98370630345E+00 -0.90852422270E+01  0.10846276074E+02  0.00000000000E+00 0. -1.
         -2    1    3    3    0  502 -0.32388182441E+03 -0.29620584026E+02  0.15238022890E+03  0.35916089617E+03  0.00000000000E+00 0.  1.
         13    1    5    5    0    0  0.30690368876E+03 -0.25193642528E+03 -0.78214696248E+03  0.87716344399E+03  0.00000000000E+00 0.  1.
        -13    1    5    5    0    0  0.16669291708E+03 -0.60668776626E+02 -0.34170423159E+03  0.38500520898E+03  0.00000000000E+00 0. -1.
          2    1    6    6  503    0  0.56268457785E+01  0.69948906427E+02 -0.15065397904E+03  0.16619606585E+03  0.00000000000E+00 0. -1.
         -2    1    6    6    0  503 -0.14949933311E+03  0.27326058581E+03 -0.53529144676E+03  0.61932086299E+03  0.00000000000E+00 0.  1.
<mgrwt>
<rscale>  0 0.17515737E+04</rscale>
<asrwt>0</asrwt>
<pdfrwt beam="1">  1        1 0.31416879E+00 0.17515737E+04</pdfrwt>
<pdfrwt beam="2">  1       -2 0.57783935E-01 0.17515737E+04</pdfrwt>
<totfact> 0.65102166E+00</totfact>
</mgrwt>
</event>
<event>
12    5  0.5095719E-008  0.1404833E+04  0.7818608E-02  0.8950327E-01
          1   -1    0    0  501    0  0.00000000000E+00  0.00000000000E+00  0.87529307523E+03  0.87529307523E+03  0.00000000000E+00 0. -1.
         -2   -1    0    0    0  501 -0.00000000000E+00 -0.00000000000E+00 -0.56368464451E+03  0.56368464451E+03  0.00000000000E+00 0.  1.
        -24    2    1    2    0    0 -0.41901113831E+01  0.39262744721E+03  0.13776584692E+03  0.42360316275E+03  0.79286452683E+02 0.  0.
        254    2    1    2    0    0  0.41901113831E+01 -0.39262744721E+03  0.17384258381E+03  0.10153745570E+04  0.92010346032E+03 0.  0.
         23    2    4    4    0    0 -0.24424011864E+03 -0.55503267184E+03 -0.74362075356E+02  0.61742096195E+03  0.89243619602E+02 0.  0.
         23    2    4    4    0    0  0.24843023002E+03  0.16240522463E+03  0.24820465916E+03  0.39795359503E+03  0.93104644319E+02 0.  0.
          3    1    3    3  502    0  0.19089556392E+02  0.19775726146E+03  0.33869242166E+02  0.20154272795E+03  0.00000000000E+00 0. -1.
         -4    1    3    3    0  502 -0.23279667775E+02  0.19487018575E+03  0.10389660475E+03  0.22206043480E+03  0.00000000000E+00 0.  1.
         13    1    5    5    0    0 -0.20541749821E+03 -0.42587849823E+03 -0.91089046029E+02  0.48152472224E+03  0.00000000000E+00 0.  1.
        -13    1    5    5    0    0 -0.38822620426E+02 -0.12915417362E+03  0.16726970672E+02  0.13589623971E+03  0.00000000000E+00 0. -1.
          3    1    6    6  503    0  0.14783387440E+03  0.41773162629E+02  0.13243360351E+03  0.20282630716E+03  0.00000000000E+00 0. -1.
         -3    1    6    6    0  503  0.10059635562E+03  0.12063206200E+03  0.11577105565E+03  0.19512728788E+03  0.00000000000E+00 0.  1.
<mgrwt>
<rscale>  0 0.14048335E+04</rscale>
<asrwt>0</asrwt>
<pdfrwt beam="1">  1        1 0.13466047E+00 0.14048335E+04</pdfrwt>
<pdfrwt beam="2">  1       -2 0.86720715E-01 0.14048335E+04</pdfrwt>
<totfact> 0.18752494E+01</totfact>
</mgrwt>
</event>
<event>
12    5  0.5095719E-008  0.1879986E+04  0.7818608E-02  0.8664883E-01
          1   -1    0    0  501    0  0.00000000000E+00  0.00000000000E+00  0.20530816524E+04  0.20530816524E+04  0.00000000000E+00 0. -1.
         -2   -1    0    0    0  501 -0.00000000000E+00 -0.00000000000E+00 -0.43037082108E+03  0.43037082108E+03  0.00000000000E+00 0.  1.
        -24    2    1    2    0    0  0.28401022379E+03 -0.52514679543E+03  0.89492531679E+02  0.60873631264E+03  0.78166624180E+02 0.  0.
        254    2    1    2    0    0 -0.28401022379E+03  0.52514679543E+03  0.15332182996E+04  0.18747161608E+04  0.89853289611E+03 0.  0.
         23    2    4    4    0    0  0.26533817949E+03  0.41686077671E+03  0.84061229557E+03  0.97948326715E+03  0.92634672346E+02 0.  0.
         23    2    4    4    0    0 -0.54934840328E+03  0.10828601872E+03  0.69260600408E+03  0.89523289369E+03  0.90715638265E+02 0.  0.
          1    1    3    3  502    0  0.27562490211E+01 -0.12154192295E+02  0.14173444976E+02  0.18873469249E+02  0.00000000000E+00 0. -1.
         -2    1    3    3    0  502  0.28125397477E+03 -0.51299260313E+03  0.75319086704E+02  0.58986284339E+03  0.00000000000E+00 0.  1.
         13    1    5    5    0    0  0.44860986253E+02  0.22263737321E+02  0.69713740115E+02  0.85838147976E+02  0.00000000000E+00 0.  1.
        -13    1    5    5    0    0  0.22047719324E+03  0.39459703939E+03  0.77089855545E+03  0.89364511918E+03  0.00000000000E+00 0. -1.
          1    1    6    6  503    0 -0.36810591073E+03  0.29524449977E+02  0.46529088805E+03  0.59402800031E+03  0.00000000000E+00 0. -1.
         -1    1    6    6    0  503 -0.18124249255E+03  0.78761568744E+02  0.22731511603E+03  0.30120489337E+03  0.00000000000E+00 0.  1.
<mgrwt>
<rscale>  0 0.18799856E+04</rscale>
<asrwt>0</asrwt>
<pdfrwt beam="1">  1        1 0.31585871E+00 0.18799856E+04</pdfrwt>
<pdfrwt beam="2">  1       -2 0.66210897E-01 0.18799856E+04</pdfrwt>
<totfact> 0.47359880E+00</totfact>
</mgrwt>
</event>
<event>
12    5  0.5095719E-008  0.1128693E+04  0.7818608E-02  0.9177668E-01
          1   -1    0    0  501    0  0.00000000000E+00  0.00000000000E+00  0.24824946359E+04  0.24824946359E+04  0.00000000000E+00 0. -1.
         -2   -1    0    0    0  501 -0.00000000000E+00 -0.00000000000E+00 -0.12829320691E+03  0.12829320691E+03  0.00000000000E+00 0.  1.
        -24    2    1    2    0    0 -0.15207624863E+03 -0.10763706285E+03  0.50194025058E+03  0.54164023217E+03  0.81958545953E+02 0.  0.
        254    2    1    2    0    0  0.15207624863E+03  0.10763706285E+03  0.18522611784E+04  0.20691476106E+04  0.90320952105E+03 0.  0.
         23    2    4    4    0    0  0.30445446733E+02 -0.37664685933E+03  0.10471624706E+04  0.11170501995E+04  0.91989818045E+02 0.  0.
         23    2    4    4    0    0  0.12163080189E+03  0.48428392218E+03  0.80509870780E+03  0.95209741109E+03  0.94765930816E+02 0.  0.
          1    1    3    3  502    0  0.21490675119E+01 -0.90781650652E+01  0.94728281831E+02  0.95186548161E+02  0.00000000000E+00 0. -1.
         -4    1    3    3    0  502 -0.15422531614E+03 -0.98558897782E+02  0.40721196875E+03  0.44645368401E+03  0.00000000000E+00 0.  1.
         13    1    5    5    0    0  0.19285439245E+02 -0.93308431833E+01  0.58409931522E+02  0.62215053659E+02  0.00000000000E+00 0.  1.
        -13    1    5    5    0    0  0.11160007488E+02 -0.36731601615E+03  0.98875253905E+03  0.10548351459E+04  0.00000000000E+00 0. -1.
          4    1    6    6  503    0  0.10386368010E+03  0.39819712962E+03  0.58634957177E+03  0.71634798694E+03  0.00000000000E+00 0. -1.
         -4    1    6    6    0  503  0.17767121799E+02  0.86086792558E+02  0.21874913603E+03  0.23574942414E+03  0.00000000000E+00 0.  1.
<mgrwt>
<rscale>  0 0.11286934E+04</rscale>
<asrwt>0</asrwt>
<pdfrwt beam="1">  1        1 0.38192222E+00 0.11286934E+04</pdfrwt>
<pdfrwt beam="2">  1       -2 0.19737418E-01 0.11286934E+04</pdfrwt>
<totfact> 0.26822235E+01</totfact>
</mgrwt>
</event>
<event>
12    5  0.5095719E-008  0.1994087E+04  0.7818608E-02  0.8609390E-01
         -2   -1    0    0    0  501 -0.00000000000E+00  0.00000000000E+00  0.12569943655E+04  0.12569943655E+04  0.00000000000E+00 0.  1.
          1   -1    0    0  501    0  0.00000000000E+00 -0.00000000000E+00 -0.79085107907E+03  0.79085107907E+03  0.00000000000E+00 0. -1.
        -24    2    1    2    0    0  0.69138244374E+03  0.40942130761E+03  0.14257978220E+03  0.82010467441E+03  0.81284636028E+02 0.  0.
        254    2    1    2    0    0 -0.69138244374E+03 -0.40942130761E+03  0.32356350426E+03  0.12277407702E+04  0.87006813920E+03 0.  0.
         23    2    4    4    0    0 -0.85623456591E+01  0.19657201870E+03  0.21272368820E+03  0.30387703250E+03  0.91520549921E+02 0.  0.
         23    2    4    4    0    0 -0.68282009809E+03 -0.60599332631E+03  0.11083981606E+03  0.92386373769E+03  0.88133666154E+02 0.  0.
          1    1    3    3  502    0 -0.17550784420E+01  0.14777188473E+01  0.30500587243E+01  0.38166492570E+01  0.00000000000E+00 0. -1.
         -2    1    3    3    0  502  0.69313752219E+03  0.40794358876E+03  0.13952972347E+03  0.81628802515E+03  0.00000000000E+00 0.  1.
         13    1    5    5    0    0  0.14147481865E+02  0.18769880097E+03  0.16511252534E+03  0.25038597635E+03  0.00000000000E+00 0. -1.
        -13    1    5    5    0    0 -0.22709827524E+02  0.88732177366E+01  0.47611162860E+02  0.53491056150E+02  0.00000000000E+00 0.  1.
          4    1    6    6  503    0 -0.10352900876E+03 -0.13716190950E+03  0.26207005579E+02  0.17383455414E+03  0.00000000000E+00 0.  1.
         -4    1    6    6    0  503 -0.57929108933E+03 -0.46883141681E+03  0.84632810479E+02  0.75002918355E+03  0.00000000000E+00 0. -1.
<mgrwt>
<rscale>  0 0.19940866E+04</rscale>
<asrwt>0</asrwt>
<pdfrwt beam="1">  1        1 0.12166940E+00 0.19940866E+04</pdfrwt>
<pdfrwt beam="2">  1       -2 0.19338375E+00 0.19940866E+04</pdfrwt>
<totfact> 0.26930472E+00</totfact>
</mgrwt>
</event>
<event>
12    5  0.5095719E-008  0.2211999E+04  0.7818608E-02  0.8513451E-01
         -4   -1    0    0    0  501 -0.00000000000E+00  0.00000000000E+00  0.62929749584E+03  0.62929749584E+03  0.00000000000E+00 0.  1.
          3   -1    0    0  501    0  0.00000000000E+00 -0.00000000000E+00 -0.19438094898E+04  0.19438094898E+04  0.00000000000E+00 0. -1.
        -24    2    1    2    0    0 -0.51099321270E+02 -0.72111240325E+03 -0.12127431523E+04  0.14141916045E+04  0.81103032821E+02 0.  0.
        254    2    1    2    0    0  0.51099321270E+02  0.72111240325E+03 -0.10176884165E+03  0.11589153812E+04  0.90006317825E+03 0.  0.
         23    2    4    4    0    0  0.15395387261E+01  0.22629138891E+03 -0.47362084316E+03  0.53146003929E+03  0.83204010789E+02 0.  0.
         23    2    4    4    0    0  0.49559782544E+02  0.49482101434E+03  0.37185200151E+03  0.62745534188E+03  0.90123730262E+02 0.  0.
          1    1    3    3  502    0 -0.18059545353E+02 -0.35465591085E+03 -0.51812515120E+03  0.62814061689E+03  0.00000000000E+00 0. -1.
         -2    1    3    3    0  502 -0.33039775917E+02 -0.36645649240E+03 -0.69461800114E+03  0.78605098761E+03  0.00000000000E+00 0.  1.
         13    1    5    5    0    0  0.26604799850E+02  0.95184846593E+02 -0.13364705547E+03  0.16622125565E+03  0.00000000000E+00 0.  1.
        -13    1    5    5    0    0 -0.25065261124E+02  0.13110654232E+03 -0.33997378769E+03  0.36523878363E+03  0.00000000000E+00 0. -1.
          4    1    6    6  503    0  0.30679431675E+02  0.47143768859E+03  0.33148181900E+03  0.57712643162E+03  0.00000000000E+00 0. -1.
         -4    1    6    6    0  503  0.18880350869E+02  0.23383325744E+02  0.40370182513E+02  0.50328910259E+02  0.00000000000E+00 0.  1.
<mgrwt>
<rscale>  0 0.22119986E+04</rscale>
<asrwt>0</asrwt>
<pdfrwt beam="1">  1        3 0.29904761E+00 0.22119986E+04</pdfrwt>
<pdfrwt beam="2">  1       -4 0.96815001E-01 0.22119986E+04</pdfrwt>
<totfact> 0.73043000E-02</totfact>
</mgrwt>
</event>
<event>
12    5  0.5095719E-008  0.1358285E+04  0.7818608E-02  0.8984580E-01
         -2   -1    0    0    0  501 -0.00000000000E+00  0.00000000000E+00  0.51855153777E+03  0.51855153777E+03  0.00000000000E+00 0.  1.
          1   -1    0    0  501    0  0.00000000000E+00 -0.00000000000E+00 -0.88946727659E+03  0.88946727659E+03  0.00000000000E+00 0. -1.
        -24    2    1    2    0    0  0.25788221385E+03 -0.94912642940E+02 -0.37072457025E+03  0.46793228813E+03  0.77538850164E+02 0.  0.
        254    2    1    2    0    0 -0.25788221385E+03  0.94912642940E+02 -0.19116856788E+00  0.94008652623E+03  0.89902780504E+03 0.  0.
         23    2    4    4    0    0 -0.56010934563E+02 -0.32113249930E+03 -0.23622015459E+03  0.41307435658E+03  0.92558931139E+02 0.  0.
         23    2    4    4    0    0 -0.20187127928E+03  0.41604514224E+03  0.23602898602E+03  0.52701216964E+03  0.90479671328E+02 0.  0.
          3    1    3    3  502    0  0.14478865036E+03 -0.21163034869E+02 -0.23246143375E+03  0.27468153469E+03  0.00000000000E+00 0. -1.
         -4    1    3    3    0  502  0.11309356349E+03 -0.73749608072E+02 -0.13826313649E+03  0.19325075344E+03  0.00000000000E+00 0.  1.
         13    1    5    5    0    0 -0.14720439357E+02  0.25191104104E+00 -0.12566460928E+02  0.19356413260E+02  0.00000000000E+00 0.  1.
        -13    1    5    5    0    0 -0.41290495206E+02 -0.32138441035E+03 -0.22365369366E+03  0.39371794332E+03  0.00000000000E+00 0. -1.
          2    1    6    6  503    0 -0.13099463069E+03  0.16688918346E+03  0.10714502677E+03  0.23767972061E+03  0.00000000000E+00 0. -1.
         -2    1    6    6    0  503 -0.70876648595E+02  0.24915595878E+03  0.12888395925E+03  0.28933244904E+03  0.00000000000E+00 0.  1.
<mgrwt>
<rscale>  0 0.13582851E+04</rscale>
<asrwt>0</asrwt>
<pdfrwt beam="1">  1        1 0.13684112E+00 0.13582851E+04</pdfrwt>
<pdfrwt beam="2">  1       -2 0.79777160E-01 0.13582851E+04</pdfrwt>
<totfact> 0.22139550E+01</totfact>
</mgrwt>
</event>
<event>
12    5  0.5095719E-008  0.1495409E+04  0.7818608E-02  0.8887512E-01
          1   -1    0    0  501    0  0.00000000000E+00  0.00000000000E+00  0.12427156572E+04  0.12427156572E+04  0.00000000000E+00 0. -1.
         -2   -1    0    0    0  501 -0.00000000000E+00 -0.00000000000E+00 -0.44987099719E+03  0.44987099719E+03  0.00000000000E+00 0.  1.
        -24    2    1    2    0    0  0.11545950249E+03  0.45218647409E+03  0.18474141225E+03  0.50793035160E+03  0.77848240898E+02 0.  0.
        254    2    1    2    0    0 -0.11545950249E+03 -0.45218647409E+03  0.60810324773E+03  0.11846563028E+04  0.90322615757E+03 0.  0.
         23    2    4    4    0    0 -0.29716529436E+03  0.10388430651E+03  0.47613449998E+03  0.57803044479E+03  0.91191949870E+02 0.  0.
         23    2    4    4    0    0  0.18170579187E+03 -0.55607078060E+03  0.13196874775E+03  0.60662585798E+03  0.91364508139E+02 0.  0.
          3    1    3    3  502    0  0.19352296583E+02  0.20083538352E+02  0.24608689764E+02  0.37194724191E+02  0.00000000000E+00 0. -1.
         -4    1    3    3    0  502  0.96107205904E+02  0.43210293574E+03  0.16013272249E+03  0.47073562741E+03  0.00000000000E+00 0.  1.
         13    1    5    5    0    0 -0.54491391912E+02 -0.37319735691E+01  0.13604255478E+03  0.14659746290E+03  0.00000000000E+00 0. -1.
        -13    1    5    5    0    0 -0.24267390244E+03  0.10761628008E+03  0.34009194520E+03  0.43143298188E+03  0.00000000000E+00 0.  1.
          3    1    6    6  503    0  0.47192954797E+02 -0.21255625178E+03  0.95824004890E+01  0.21794301446E+03  0.00000000000E+00 0. -1.
         -3    1    6    6    0  503  0.13451283707E+03 -0.34351452882E+03  0.12238634726E+03  0.38868284352E+03  0.00000000000E+00 0.  1.
<mgrwt>
<rscale>  0 0.14954086E+04</rscale>
<asrwt>0</asrwt>
<pdfrwt beam="1">  1        1 0.19118702E+00 0.14954086E+04</pdfrwt>
<pdfrwt beam="2">  1       -2 0.69210923E-01 0.14954086E+04</pdfrwt>
<totfact> 0.16088142E+01</totfact>
</mgrwt>
</event>
<event>
12    5  0.5095719E-008  0.1213054E+04  0.7818608E-02  0.9101507E-01
          1   -1    0    0  501    0  0.00000000000E+00  0.00000000000E+00  0.23625808526E+04  0.23625808526E+04  0.00000000000E+00 0. -1.
         -2   -1    0    0    0  501 -0.00000000000E+00 -0.00000000000E+00 -0.15570894362E+03  0.15570894362E+03  0.00000000000E+00 0.  1.
        -24    2    1    2    0    0 -0.18312044447E+03 -0.11379481907E+03  0.20905327601E+03  0.31083703680E+03  0.80212425478E+02 0.  0.
        254    2    1    2    0    0  0.18312044447E+03  0.11379481907E+03  0.19978186329E+04  0.22074527594E+04  0.91383042016E+03 0.  0.
         23    2    4    4    0    0 -0.21944061654E+01  0.35040672153E+03  0.27236315658E+03  0.45300946448E+03  0.90808589508E+02 0.  0.
         23    2    4    4    0    0  0.18531485064E+03 -0.23661190246E+03  0.17254554764E+04  0.17544432949E+04  0.10270291113E+03 0.  0.
          1    1    3    3  502    0 -0.21991073642E+02  0.50583981794E+01  0.50933771207E+02  0.55708560935E+02  0.00000000000E+00 0. -1.
         -2    1    3    3    0  502 -0.16112937083E+03 -0.11885321725E+03  0.15811950481E+03  0.25512847586E+03  0.00000000000E+00 0.  1.
         13    1    5    5    0    0  0.11090499993E+00  0.16534580827E+03  0.18571490428E+03  0.24865493014E+03  0.00000000000E+00 0.  1.
        -13    1    5    5    0    0 -0.23053111653E+01  0.18506091326E+03  0.86648252308E+02  0.20435453433E+03  0.00000000000E+00 0. -1.
          1    1    6    6  503    0  0.90074769808E+02 -0.60409618725E+02  0.81714936348E+03  0.82431539378E+03  0.00000000000E+00 0. -1.
         -1    1    6    6    0  503  0.95240080828E+02 -0.17620228373E+03  0.90830611288E+03  0.93012790115E+03  0.00000000000E+00 0.  1.
<mgrwt>
<rscale>  0 0.12130539E+04</rscale>
<asrwt>0</asrwt>
<pdfrwt beam="1">  1        1 0.36347395E+00 0.12130539E+04</pdfrwt>
<pdfrwt beam="2">  1       -2 0.23955224E-01 0.12130539E+04</pdfrwt>
<totfact> 0.22788235E+01</totfact>
</mgrwt>
</event>
<event>
12    5  0.5095719E-008  0.1707216E+04  0.7818608E-02  0.8757260E-01
         -2   -1    0    0    0  501 -0.00000000000E+00  0.00000000000E+00  0.61000996815E+03  0.61000996815E+03  0.00000000000E+00 0.  1.
          1   -1    0    0  501    0  0.00000000000E+00 -0.00000000000E+00 -0.11944830768E+04  0.11944830768E+04  0.00000000000E+00 0. -1.
        -24    2    1    2    0    0 -0.24192362196E+02 -0.60154100567E+03 -0.40418480368E+03  0.72944568852E+03  0.79301986661E+02 0.  0.
        254    2    1    2    0    0  0.24192362196E+02  0.60154100567E+03 -0.18028830497E+03  0.10750473564E+04  0.87223052789E+03 0.  0.
         23    2    4    4    0    0 -0.24662682210E+03  0.68263274099E+03 -0.24600207396E+03  0.77140690806E+03  0.87973569646E+02 0.  0.
         23    2    4    4    0    0  0.27081918429E+03 -0.81091735323E+02  0.65713768983E+02  0.30364044838E+03  0.89220638534E+02 0.  0.
          1    1    3    3  502    0 -0.26766846808E+02 -0.60366090153E+02 -0.45418875890E+02  0.80146136623E+02  0.00000000000E+00 0. -1.
         -2    1    3    3    0  502  0.25744846114E+01 -0.54117491551E+03 -0.35876592779E+03  0.64929955190E+03  0.00000000000E+00 0.  1.
         13    1    5    5    0    0 -0.79330361375E+02  0.19119351519E+03 -0.11155950696E+03  0.23514631632E+03  0.00000000000E+00 0. -1.
        -13    1    5    5    0    0 -0.16729646072E+03  0.49143922580E+03 -0.13444256699E+03  0.53626059173E+03  0.00000000000E+00 0.  1.
          3    1    6    6  503    0  0.98046130591E+01 -0.93366937363E+01  0.26978457486E+02  0.30185119769E+02  0.00000000000E+00 0. -1.
         -3    1    6    6    0  503  0.26101457123E+03 -0.71755041586E+02  0.38735311497E+02  0.27345532861E+03  0.00000000000E+00 0.  1.
<mgrwt>
<rscale>  0 0.17072160E+04</rscale>
<asrwt>0</asrwt>
<pdfrwt beam="1">  1        1 0.18376663E+00 0.17072160E+04</pdfrwt>
<pdfrwt beam="2">  1       -2 0.93847688E-01 0.17072160E+04</pdfrwt>
<totfact> 0.86276821E+00</totfact>
</mgrwt>
</event>
<event>
12    5  0.5095719E-008  0.1390907E+04  0.7818608E-02  0.8960427E-01
         -2   -1    0    0    0  501 -0.00000000000E+00  0.00000000000E+00  0.24441798997E+04  0.24441798997E+04  0.00000000000E+00 0.  1.
          1   -1    0    0  501    0  0.00000000000E+00 -0.00000000000E+00 -0.19788064363E+03  0.19788064363E+03  0.00000000000E+00 0. -1.
        -24    2    1    2    0    0  0.32766992636E+02 -0.14707416695E+01 -0.10117193765E+03  0.13258373609E+03  0.79163420977E+02 0.  0.
        254    2    1    2    0    0 -0.32766992636E+02  0.14707416695E+01  0.23474711937E+04  0.25094768072E+04  0.88644063637E+03 0.  0.
         23    2    4    4    0    0 -0.34368641193E+03 -0.28461445157E+03  0.12548072643E+04  0.13346775714E+04  0.87733763470E+02 0.  0.
         23    2    4    4    0    0  0.31091941929E+03  0.28608519324E+03  0.10926639294E+04  0.11747992359E+04  0.87881504276E+02 0.  0.
          1    1    3    3  502    0  0.57542214004E+02 -0.49889591412E+01 -0.53430855510E+02  0.78681970147E+02  0.00000000000E+00 0. -1.
         -2    1    3    3    0  502 -0.24775221368E+02  0.35182174717E+01 -0.47741082143E+02  0.53901765947E+02  0.00000000000E+00 0.  1.
         13    1    5    5    0    0 -0.30051321435E+03 -0.20915443593E+03  0.10567280209E+04  0.11183594593E+04  0.00000000000E+00 0. -1.
        -13    1    5    5    0    0 -0.43173197576E+02 -0.75460015640E+02  0.19807924335E+03  0.21631811204E+03  0.00000000000E+00 0.  1.
          3    1    6    6  503    0  0.28459403953E+03  0.21806333277E+03  0.89916050664E+03  0.96800568239E+03  0.00000000000E+00 0. -1.
         -3    1    6    6    0  503  0.26325379755E+02  0.68021860477E+02  0.19350342280E+03  0.20679355347E+03  0.00000000000E+00 0.  1.
<mgrwt>
<rscale>  0 0.13909075E+04</rscale>
<asrwt>0</asrwt>
<pdfrwt beam="1">  1        1 0.30443178E-01 0.13909075E+04</pdfrwt>
<pdfrwt beam="2">  1       -2 0.37602766E+00 0.13909075E+04</pdfrwt>
<totfact> 0.13784444E+00</totfact>
</mgrwt>
</event>
<event>
12    5  0.5095719E-008  0.1683824E+04  0.7818608E-02  0.8770644E-01
          1   -1    0    0  501    0  0.00000000000E+00  0.00000000000E+00  0.15609990009E+04  0.15609990009E+04  0.00000000000E+00 0. -1.
         -2   -1    0    0    0  501 -0.00000000000E+00 -0.00000000000E+00 -0.45407811915E+03  0.45407811915E+03  0.00000000000E+00 0.  1.
        -24    2    1    2    0    0 -0.55618089035E+03 -0.16656542463E+02  0.67657256687E+03  0.87955271908E+03  0.79043811919E+02 0.  0.
        254    2    1    2    0    0  0.55618089035E+03  0.16656542463E+02  0.43034831486E+03  0.11355244010E+04  0.89140415630E+03 0.  0.
         23    2    4    4    0    0  0.52185926763E+03  0.87042756863E+02 -0.13695317819E+03  0.55403932686E+03  0.91048701035E+02 0.  0.
         23    2    4    4    0    0  0.34321622722E+02 -0.70386214400E+02  0.56730149305E+03  0.58148507410E+03  0.10080532930E+03 0.  0.
          1    1    3    3  502    0 -0.32334051833E+03  0.24669783125E+02  0.42005061900E+03  0.53066016575E+03  0.00000000000E+00 0. -1.
         -2    1    3    3    0  502 -0.23284037202E+03 -0.41326325587E+02  0.25652194788E+03  0.34889255334E+03  0.00000000000E+00 0.  1.
         13    1    5    5    0    0  0.24920876043E+03  0.54346237760E+02 -0.11113054713E+03  0.27822386371E+03  0.00000000000E+00 0. -1.
        -13    1    5    5    0    0  0.27265050719E+03  0.32696519103E+02 -0.25822631060E+02  0.27581546315E+03  0.00000000000E+00 0.  1.
          3    1    6    6  503    0  0.52029114759E+02 -0.87596915656E+02  0.42381014152E+03  0.43588448524E+03  0.00000000000E+00 0. -1.
         -3    1    6    6    0  503 -0.17707492037E+02  0.17210701256E+02  0.14349135153E+03  0.14560058885E+03  0.00000000000E+00 0.  1.
<mgrwt>
<rscale>  0 0.16838236E+04</rscale>
<asrwt>0</asrwt>
<pdfrwt beam="1">  1        1 0.24015369E+00 0.16838236E+04</pdfrwt>
<pdfrwt beam="2">  1       -2 0.69858173E-01 0.16838236E+04</pdfrwt>
<totfact> 0.92685482E+00</totfact>
</mgrwt>
</event>
<event>
12    5  0.5095719E-008  0.1377273E+04  0.7818608E-02  0.8970436E-01
          1   -1    0    0  501    0  0.00000000000E+00  0.00000000000E+00  0.96084878824E+03  0.96084878824E+03  0.00000000000E+00 0. -1.
         -2   -1    0    0    0  501 -0.00000000000E+00 -0.00000000000E+00 -0.49354303682E+03  0.49354303682E+03  0.00000000000E+00 0.  1.
        -24    2    1    2    0    0  0.30704505893E+03 -0.24364944672E+02 -0.11682412040E+03  0.33930041765E+03  0.81280868394E+02 0.  0.
        254    2    1    2    0    0 -0.30704505893E+03  0.24364944672E+02  0.58412987181E+03  0.11150914074E+04  0.89852702852E+03 0.  0.
         23    2    4    4    0    0  0.13966901737E+03 -0.33191024639E+03  0.22279290658E+03  0.43281104002E+03  0.89536981548E+02 0.  0.
         23    2    4    4    0    0 -0.44671407631E+03  0.35627519106E+03  0.36133696523E+03  0.68228036739E+03  0.91959880082E+02 0.  0.
          3    1    3    3  502    0  0.15336098781E+03  0.10053963911E+02 -0.94017576060E+02  0.18016653236E+03  0.00000000000E+00 0. -1.
         -2    1    3    3    0  502  0.15368407112E+03 -0.34418908583E+02 -0.22806544340E+02  0.15913388529E+03  0.00000000000E+00 0.  1.
         13    1    5    5    0    0  0.13527440867E+03 -0.33764594983E+03  0.21698372428E+03  0.42353971440E+03  0.00000000000E+00 0.  1.
        -13    1    5    5    0    0  0.43946087051E+01  0.57357034376E+01  0.58091823030E+01  0.92713256131E+01  0.00000000000E+00 0. -1.
          3    1    6    6  503    0 -0.24076652453E+03  0.13363918292E+03  0.17793317017E+03  0.32785387537E+03  0.00000000000E+00 0. -1.
         -3    1    6    6    0  503 -0.20594755178E+03  0.22263600814E+03  0.18340379506E+03  0.35442649202E+03  0.00000000000E+00 0.  1.
<mgrwt>
<rscale>  0 0.13772730E+04</rscale>
<asrwt>0</asrwt>
<pdfrwt beam="1">  1        1 0.14782289E+00 0.13772730E+04</pdfrwt>
<pdfrwt beam="2">  1       -2 0.75929698E-01 0.13772730E+04</pdfrwt>
<totfact> 0.21615600E+01</totfact>
</mgrwt>
</event>
<event>
12    5  0.5095719E-008  0.1610669E+04  0.7818608E-02  0.8814020E-01
         -2   -1    0    0    0  501 -0.00000000000E+00  0.00000000000E+00  0.16048380796E+03  0.16048380796E+03  0.00000000000E+00 0.  1.
          1   -1    0    0  501    0  0.00000000000E+00 -0.00000000000E+00 -0.40413021949E+04  0.40413021949E+04  0.00000000000E+00 0. -1.
        -24    2    1    2    0    0  0.38961123362E+03  0.31140127300E+03 -0.18650178697E+04  0.19321667585E+04  0.78797602051E+02 0.  0.
        254    2    1    2    0    0 -0.38961123362E+03 -0.31140127300E+03 -0.20158005172E+04  0.22696192444E+04  0.91594329682E+03 0.  0.
         23    2    4    4    0    0 -0.13374541489E+03  0.31830296027E+03 -0.62794263563E+03  0.72211981638E+03  0.89109287080E+02 0.  0.
         23    2    4    4    0    0 -0.25586581873E+03 -0.62970423328E+03 -0.13878578816E+04  0.15474994280E+04  0.81303391837E+02 0.  0.
          1    1    3    3  502    0  0.13131006101E+03  0.10031518795E+03 -0.76685984614E+03  0.78446127545E+03  0.00000000000E+00 0. -1.
         -2    1    3    3    0  502  0.25830117261E+03  0.21108608506E+03 -0.10981580236E+04  0.11477054831E+04  0.00000000000E+00 0.  1.
         13    1    5    5    0    0 -0.20783538843E+02  0.10778245982E+03 -0.27319462411E+03  0.29442200457E+03  0.00000000000E+00 0. -1.
        -13    1    5    5    0    0 -0.11296187605E+03  0.21052050045E+03 -0.35474801153E+03  0.42769781182E+03  0.00000000000E+00 0.  1.
          4    1    6    6  503    0 -0.44477285609E+02 -0.96518382107E+02 -0.15726303783E+03  0.18980434686E+03  0.00000000000E+00 0. -1.
         -4    1    6    6    0  503 -0.21138853312E+03 -0.53318585117E+03 -0.12305948438E+04  0.13576950811E+04  0.00000000000E+00 0.  1.
<mgrwt>
<rscale>  0 0.16106689E+04</rscale>
<asrwt>0</asrwt>
<pdfrwt beam="1">  1        1 0.62173879E+00 0.16106689E+04</pdfrwt>
<pdfrwt beam="2">  1       -2 0.24689817E-01 0.16106689E+04</pdfrwt>
<totfact> 0.11082118E+00</totfact>
</mgrwt>
</event>
<event>
12    5  0.5095719E-008  0.2446560E+04  0.7818608E-02  0.8422275E-01
         -2   -1    0    0    0  501 -0.00000000000E+00  0.00000000000E+00  0.60900183036E+03  0.60900183036E+03  0.00000000000E+00 0.  1.
          1   -1    0    0  501    0  0.00000000000E+00 -0.00000000000E+00 -0.24571590205E+04  0.24571590205E+04  0.00000000000E+00 0. -1.
        -24    2    1    2    0    0 -0.54845537094E+03 -0.51736194176E+03  0.12591444967E+03  0.76847989147E+03  0.78995077392E+02 0.  0.
        254    2    1    2    0    0  0.54845537094E+03  0.51736194176E+03 -0.19740716399E+04  0.22976809594E+04  0.90217087039E+03 0.  0.
         23    2    4    4    0    0  0.35014710585E+03 -0.47522773634E+02 -0.14561116318E+04  0.15009723109E+04  0.88291471465E+02 0.  0.
         23    2    4    4    0    0  0.19830826509E+03  0.56488471539E+03 -0.51796000804E+03  0.79670864857E+03  0.89672688634E+02 0.  0.
          3    1    3    3  502    0 -0.55137693172E+02 -0.26054505985E+02  0.19573483267E+00  0.60983938890E+02  0.00000000000E+00 0. -1.
         -4    1    3    3    0  502 -0.49331767777E+03 -0.49130743577E+03  0.12571871483E+03  0.70749595257E+03  0.00000000000E+00 0.  1.
         13    1    5    5    0    0  0.14339256908E+02  0.29271179419E+01 -0.17435432978E+02  0.22763493388E+02  0.00000000000E+00 0. -1.
        -13    1    5    5    0    0  0.33580784895E+03 -0.50449891576E+02 -0.14386761988E+04  0.14782088175E+04  0.00000000000E+00 0.  1.
          1    1    6    6  503    0  0.45120000796E+02  0.52950601959E+02 -0.78148057960E+02  0.10462647697E+03  0.00000000000E+00 0. -1.
         -1    1    6    6    0  503  0.15318826429E+03  0.51193411343E+03 -0.43981195008E+03  0.69208217160E+03  0.00000000000E+00 0.  1.
<mgrwt>
<rscale>  0 0.24465603E+04</rscale>
<asrwt>0</asrwt>
<pdfrwt beam="1">  1        1 0.37802447E+00 0.24465603E+04</pdfrwt>
<pdfrwt beam="2">  1       -2 0.93692589E-01 0.24465603E+04</pdfrwt>
<totfact> 0.10954134E+00</totfact>
</mgrwt>
</event>
<event>
12    5  0.5095719E-008  0.1450436E+04  0.7818608E-02  0.8918098E-01
          1   -1    0    0  501    0  0.00000000000E+00  0.00000000000E+00  0.89833820139E+03  0.89833820139E+03  0.00000000000E+00 0. -1.
         -2   -1    0    0    0  501 -0.00000000000E+00 -0.00000000000E+00 -0.58545985517E+03  0.58545985517E+03  0.00000000000E+00 0.  1.
        -24    2    1    2    0    0 -0.18453456104E+03  0.28712235557E+03  0.36975572807E+03  0.50972200045E+03  0.81270954261E+02 0.  0.
        254    2    1    2    0    0  0.18453456104E+03 -0.28712235557E+03 -0.56877381851E+02  0.97407605612E+03  0.91054756891E+03 0.  0.
         23    2    4    4    0    0  0.42075194191E+03 -0.35117929504E+03  0.21635355044E+03  0.59608462549E+03  0.90271413388E+02 0.  0.
         23    2    4    4    0    0 -0.23621738087E+03  0.64056939468E+02 -0.27323093229E+03  0.37799143063E+03  0.91216428070E+02 0.  0.
          3    1    3    3  502    0  0.96133745705E+00 -0.34136133246E+01 -0.79180641370E+00  0.36337147704E+01  0.00000000000E+00 0. -1.
         -4    1    3    3    0  502 -0.18549589850E+03  0.29053596890E+03  0.37054753449E+03  0.50608828567E+03  0.00000000000E+00 0.  1.
         13    1    5    5    0    0  0.80659676097E+02 -0.11670820187E+03  0.44580475243E+02  0.14870846144E+03  0.00000000000E+00 0.  1.
        -13    1    5    5    0    0  0.34009226581E+03 -0.23447109317E+03  0.17177307520E+03  0.44737616405E+03  0.00000000000E+00 0. -1.
          1    1    6    6  503    0 -0.20766772821E+03  0.20502053223E+02 -0.20962072420E+03  0.29578212850E+03  0.00000000000E+00 0. -1.
         -1    1    6    6    0  503 -0.28549652654E+02  0.43554886245E+02 -0.63610208092E+02  0.82209302126E+02  0.00000000000E+00 0.  1.
<mgrwt>
<rscale>  0 0.14504357E+04</rscale>
<asrwt>0</asrwt>
<pdfrwt beam="1">  1        1 0.13820588E+00 0.14504357E+04</pdfrwt>
<pdfrwt beam="2">  1       -2 0.90070747E-01 0.14504357E+04</pdfrwt>
<totfact> 0.16390643E+01</totfact>
</mgrwt>
</event>
<event>
12    5  0.5095719E-008  0.1360127E+04  0.7818608E-02  0.8983197E-01
         -2   -1    0    0    0  501 -0.00000000000E+00  0.00000000000E+00  0.32735798544E+03  0.32735798544E+03  0.00000000000E+00 0.  1.
          1   -1    0    0  501    0  0.00000000000E+00 -0.00000000000E+00 -0.14127853027E+04  0.14127853027E+04  0.00000000000E+00 0. -1.
        -24    2    1    2    0    0  0.20632180945E+03 -0.21296023124E+03 -0.73465329393E+03  0.79621282689E+03  0.79489963373E+02 0.  0.
        254    2    1    2    0    0 -0.20632180945E+03  0.21296023124E+03 -0.35077402336E+03  0.94393046127E+03  0.82464631880E+03 0.  0.
         23    2    4    4    0    0 -0.17337474353E+03  0.50971933623E+03 -0.31331591140E+03  0.62962562683E+03  0.91591299785E+02 0.  0.
         23    2    4    4    0    0 -0.32947065922E+02 -0.29675910500E+03 -0.37458111957E+02  0.31430483445E+03  0.90735567751E+02 0.  0.
          1    1    3    3  502    0  0.20177064350E+03 -0.21842215347E+03 -0.72835354869E+03  0.78671374819E+03  0.00000000000E+00 0. -1.
         -2    1    3    3    0  502  0.45511659503E+01  0.54619222345E+01 -0.62997452408E+01  0.94990786975E+01  0.00000000000E+00 0.  1.
         13    1    5    5    0    0 -0.49916509859E+02  0.23814185386E+03 -0.18110686968E+03  0.30331979620E+03  0.00000000000E+00 0.  1.
        -13    1    5    5    0    0 -0.12345823367E+03  0.27157748237E+03 -0.13220904172E+03  0.32630583063E+03  0.00000000000E+00 0. -1.
          2    1    6    6  503    0 -0.64311471539E+02 -0.17995899622E+03 -0.24740791605E+02  0.19270005828E+03  0.00000000000E+00 0.  1.
         -2    1    6    6    0  503  0.31364405618E+02 -0.11680010878E+03 -0.12717320352E+02  0.12160477617E+03  0.00000000000E+00 0. -1.
<mgrwt>
<rscale>  0 0.13601273E+04</rscale>
<asrwt>0</asrwt>
<pdfrwt beam="1">  1        1 0.21735158E+00 0.13601273E+04</pdfrwt>
<pdfrwt beam="2">  1       -2 0.50362768E-01 0.13601273E+04</pdfrwt>
<totfact> 0.24077674E+01</totfact>
</mgrwt>
</event>
<event>
12    5  0.5095719E-008  0.2392042E+04  0.7818608E-02  0.8442489E-01
          1   -1    0    0  501    0  0.00000000000E+00  0.00000000000E+00  0.18212969788E+04  0.18212969788E+04  0.00000000000E+00 0. -1.
         -2   -1    0    0    0  501 -0.00000000000E+00 -0.00000000000E+00 -0.78541043986E+03  0.78541043986E+03  0.00000000000E+00 0.  1.
        -24    2    1    2    0    0 -0.48037936594E+03 -0.43091905385E+03  0.13094860734E+04  0.14624985827E+04  0.87708390657E+02 0.  0.
        254    2    1    2    0    0  0.48037936594E+03  0.43091905385E+03 -0.27359953445E+03  0.11442088360E+04  0.90437911787E+03 0.  0.
         23    2    4    4    0    0  0.30495858004E+03 -0.23932450991E+03 -0.18644151029E+03  0.44009574215E+03  0.92993918675E+02 0.  0.
         23    2    4    4    0    0  0.17542078589E+03  0.67024356376E+03 -0.87158024160E+02  0.70411309381E+03  0.90442472384E+02 0.  0.
          3    1    3    3  502    0 -0.24415177201E+03 -0.24476158213E+03  0.78791672538E+03  0.86042494501E+03  0.00000000000E+00 0. -1.
         -4    1    3    3    0  502 -0.23622759392E+03 -0.18615747172E+03  0.52156934797E+03  0.60207363765E+03  0.00000000000E+00 0.  1.
         13    1    5    5    0    0  0.27935816369E+03 -0.23163341195E+03 -0.14502766826E+03  0.39080435734E+03  0.00000000000E+00 0. -1.
        -13    1    5    5    0    0  0.25600416353E+02 -0.76910979665E+01 -0.41413842025E+02  0.49291384812E+02  0.00000000000E+00 0.  1.
          4    1    6    6  503    0  0.22120372324E+02  0.24514804352E+03 -0.16127549511E+02  0.24667178997E+03  0.00000000000E+00 0. -1.
         -4    1    6    6    0  503  0.15330041357E+03  0.42509552024E+03 -0.71030474648E+02  0.45744130384E+03  0.00000000000E+00 0.  1.
<mgrwt>
<rscale>  0 0.23920415E+04</rscale>
<asrwt>0</asrwt>
<pdfrwt beam="1">  1        1 0.28019953E+00 0.23920415E+04</pdfrwt>
<pdfrwt beam="2">  1       -2 0.12083238E+00 0.23920415E+04</pdfrwt>
<totfact> 0.16201484E+00</totfact>
</mgrwt>
</event>
<event>
12    5  0.5095719E-008  0.2413461E+04  0.7818608E-02  0.8434481E-01
         -2   -1    0    0    0  501 -0.00000000000E+00  0.00000000000E+00  0.15622027717E+04  0.15622027717E+04  0.00000000000E+00 0.  1.
          1   -1    0    0  501    0  0.00000000000E+00 -0.00000000000E+00 -0.93214468346E+03  0.93214468346E+03  0.00000000000E+00 0. -1.
        -24    2    1    2    0    0 -0.22563960003E+03 -0.88207520958E+03 -0.24278929416E+03  0.94576520274E+03  0.80964639855E+02 0.  0.
        254    2    1    2    0    0  0.22563960003E+03  0.88207520958E+03  0.87284738241E+03  0.15485822524E+04  0.89848457698E+03 0.  0.
         23    2    4    4    0    0  0.47643227087E+02 -0.24224744978E+02  0.56109406209E+03  0.56949695352E+03  0.81507780033E+02 0.  0.
         23    2    4    4    0    0  0.17799637295E+03  0.90629995456E+03  0.31175332032E+03  0.97908529889E+03  0.91408825411E+02 0.  0.
          1    1    3    3  502    0 -0.16877999646E+03 -0.68162414358E+03 -0.22152790865E+03  0.73632382457E+03  0.00000000000E+00 0. -1.
         -2    1    3    3    0  502 -0.56859603577E+02 -0.20045106600E+03 -0.21261385512E+02  0.20944137817E+03  0.00000000000E+00 0.  1.
         13    1    5    5    0    0 -0.14798771466E+02 -0.17030027853E+02  0.54021161501E+02  0.58543243637E+02  0.00000000000E+00 0.  1.
        -13    1    5    5    0    0  0.62441998552E+02 -0.71947171247E+01  0.50707290059E+03  0.51095370989E+03  0.00000000000E+00 0. -1.
          2    1    6    6  503    0  0.28753832275E+02  0.96846010985E+02  0.63669235601E+02  0.11941400369E+03  0.00000000000E+00 0. -1.
         -2    1    6    6    0  503  0.14924254067E+03  0.80945394357E+03  0.24808408472E+03  0.85967129521E+03  0.00000000000E+00 0.  1.
<mgrwt>
<rscale>  0 0.24134614E+04</rscale>
<asrwt>0</asrwt>
<pdfrwt beam="1">  1        1 0.14340687E+00 0.24134614E+04</pdfrwt>
<pdfrwt beam="2">  1       -2 0.24033889E+00 0.24134614E+04</pdfrwt>
<totfact> 0.99110951E-01</totfact>
</mgrwt>
</event>
<event>
12    5  0.5095719E-008  0.2338249E+04  0.7818608E-02  0.8462991E-01
         -2   -1    0    0    0  501 -0.00000000000E+00  0.00000000000E+00  0.10311983281E+04  0.10311983281E+04  0.00000000000E+00 0.  1.
          1   -1    0    0  501    0  0.00000000000E+00 -0.00000000000E+00 -0.13254985432E+04  0.13254985432E+04  0.00000000000E+00 0. -1.
        -24    2    1    2    0    0 -0.74606844131E+03 -0.37693196712E+03  0.38341302613E+03  0.92319605384E+03  0.81176217351E+02 0.  0.
        254    2    1    2    0    0  0.74606844131E+03  0.37693196712E+03 -0.67771324131E+03  0.14335008175E+04  0.94706574708E+03 0.  0.
         23    2    4    4    0    0 -0.48462894780E+02  0.13516123602E+03  0.17161192866E+03  0.24208109328E+03  0.92387173218E+02 0.  0.
         23    2    4    4    0    0  0.79453133609E+03  0.24177073110E+03 -0.84932516997E+03  0.11914197242E+04  0.91621964605E+02 0.  0.
          1    1    3    3  502    0 -0.16876783035E+03 -0.87315460114E+02  0.12555104990E+03  0.22774906425E+03  0.00000000000E+00 0. -1.
         -2    1    3    3    0  502 -0.57730061096E+03 -0.28961650701E+03  0.25786197624E+03  0.69544698959E+03  0.00000000000E+00 0.  1.
         13    1    5    5    0    0 -0.72924116630E+02  0.72676410444E+02  0.11433291258E+03  0.15385643412E+03  0.00000000000E+00 0. -1.
        -13    1    5    5    0    0  0.24461221850E+02  0.62484825577E+02  0.57279016078E+02  0.88224659164E+02  0.00000000000E+00 0.  1.
          3    1    6    6  503    0  0.60010413521E+03  0.22303643492E+03 -0.65175902415E+03  0.91359731280E+03  0.00000000000E+00 0. -1.
         -3    1    6    6    0  503  0.19442720088E+03  0.18734296184E+02 -0.19756614582E+03  0.27782241139E+03  0.00000000000E+00 0.  1.
<mgrwt>
<rscale>  0 0.23382488E+04</rscale>
<asrwt>0</asrwt>
<pdfrwt beam="1">  1        1 0.20392285E+00 0.23382488E+04</pdfrwt>
<pdfrwt beam="2">  1       -2 0.15864590E+00 0.23382488E+04</pdfrwt>
<totfact> 0.17680860E+00</totfact>
</mgrwt>
</event>
<event>
12    5  0.5095719E-008  0.2156350E+04  0.7818608E-02  0.8536819E-01
         -2   -1    0    0    0  501 -0.00000000000E+00  0.00000000000E+00  0.44817469901E+03  0.44817469901E+03  0.00000000000E+00 0.  1.
          1   -1    0    0  501    0  0.00000000000E+00 -0.00000000000E+00 -0.25937675975E+04  0.25937675975E+04  0.00000000000E+00 0. -1.
        -24    2    1    2    0    0  0.35348680204E+03 -0.28677164367E+03  0.20470487764E+03  0.50539181303E+03  0.79535544962E+02 0.  0.
        254    2    1    2    0    0 -0.35348680204E+03  0.28677164367E+03 -0.23502977761E+04  0.25365504835E+04  0.83844965497E+03 0.  0.
         23    2    4    4    0    0  0.19991850526E+02  0.28143549720E+03 -0.21314011898E+03  0.36512024554E+03  0.90986099030E+02 0.  0.
         23    2    4    4    0    0 -0.37347865257E+03  0.53361464733E+01 -0.21371576572E+04  0.21714302380E+04  0.90286479130E+02 0.  0.
          3    1    3    3  502    0  0.62420713984E+02 -0.27959481051E+02  0.74539042286E+01  0.68801444775E+02  0.00000000000E+00 0. -1.
         -4    1    3    3    0  502  0.29106608806E+03 -0.25881216262E+03  0.19725097342E+03  0.43659036825E+03  0.00000000000E+00 0.  1.
         13    1    5    5    0    0  0.41179392872E+01  0.18061876799E+02  0.86395234601E+01  0.20440894870E+02  0.00000000000E+00 0. -1.
        -13    1    5    5    0    0  0.15873911239E+02  0.26337362040E+03 -0.22177964244E+03  0.34467935067E+03  0.00000000000E+00 0.  1.
          4    1    6    6  503    0 -0.82034550443E+02 -0.56881089504E+01 -0.29172143834E+03  0.30308978807E+03  0.00000000000E+00 0.  1.
         -4    1    6    6    0  503 -0.29144410213E+03  0.11024255424E+02 -0.18454362188E+04  0.18683404499E+04  0.00000000000E+00 0. -1.
<mgrwt>
<rscale>  0 0.21563497E+04</rscale>
<asrwt>0</asrwt>
<pdfrwt beam="1">  1        1 0.39904116E+00 0.21563497E+04</pdfrwt>
<pdfrwt beam="2">  1       -2 0.68949955E-01 0.21563497E+04</pdfrwt>
<totfact> 0.18012163E+00</totfact>
</mgrwt>
</event>
<event>
12    5  0.5095719E-008  0.2612971E+04  0.7818608E-02  0.8363808E-01
          1   -1    0    0  501    0  0.00000000000E+00  0.00000000000E+00  0.90476168809E+03  0.90476168809E+03  0.00000000000E+00 0. -1.
         -2   -1    0    0    0  501 -0.00000000000E+00 -0.00000000000E+00 -0.18865795230E+04  0.18865795230E+04  0.00000000000E+00 0.  1.
        -24    2    1    2    0    0  0.83460636345E+03 -0.78344426792E+03 -0.43403705772E+03  0.12268450356E+04  0.80049178345E+02 0.  0.
        254    2    1    2    0    0 -0.83460636345E+03  0.78344426792E+03 -0.54778077715E+03  0.15644961755E+04  0.91500371609E+03 0.  0.
         23    2    4    4    0    0  0.10501317940E+03  0.96654982928E+02 -0.33829264834E+03  0.37832944275E+03  0.91221147526E+02 0.  0.
         23    2    4    4    0    0 -0.93961954285E+03  0.68678928499E+03 -0.20948812880E+03  0.11861667327E+04  0.92422045377E+02 0.  0.
          3    1    3    3  502    0  0.95627247587E+02 -0.60499794281E+02 -0.54275012282E+02  0.12550128504E+03  0.00000000000E+00 0. -1.
         -4    1    3    3    0  502  0.73897911586E+03 -0.72294447364E+03 -0.37976204544E+03  0.11013437505E+04  0.00000000000E+00 0.  1.
         13    1    5    5    0    0  0.83095374198E+02  0.54430811170E+02 -0.12432091769E+03  0.15913279044E+03  0.00000000000E+00 0.  1.
        -13    1    5    5    0    0  0.21917805198E+02  0.42224171758E+02 -0.21397173065E+03  0.21919665230E+03  0.00000000000E+00 0. -1.
          3    1    6    6  503    0 -0.30020323936E+03  0.24253360239E+03 -0.29664573495E+02  0.38707172479E+03  0.00000000000E+00 0. -1.
         -3    1    6    6    0  503 -0.63941630349E+03  0.44425568259E+03 -0.17982355531E+03  0.79909500795E+03  0.00000000000E+00 0.  1.
<mgrwt>
<rscale>  0 0.26129714E+04</rscale>
<asrwt>0</asrwt>
<pdfrwt beam="1">  1        1 0.13919411E+00 0.26129714E+04</pdfrwt>
<pdfrwt beam="2">  1       -2 0.29024300E+00 0.26129714E+04</pdfrwt>
<totfact> 0.50740969E-01</totfact>
</mgrwt>
</event>
<event>
12    5  0.5095719E-008  0.1508478E+04  0.7818608E-02  0.8878835E-01
          1   -1    0    0  501    0  0.00000000000E+00  0.00000000000E+00  0.26006104980E+04  0.26006104980E+04  0.00000000000E+00 0. -1.
         -2   -1    0    0    0  501 -0.00000000000E+00 -0.00000000000E+00 -0.21874722732E+03  0.21874722732E+03  0.00000000000E+00 0.  1.
        -24    2    1    2    0    0  0.26675410413E+03  0.37522937953E+03  0.10773617752E+04  0.11743012862E+04  0.79500168090E+02 0.  0.
        254    2    1    2    0    0 -0.26675410413E+03 -0.37522937953E+03  0.13045014954E+04  0.16450564391E+04  0.89024249333E+03 0.  0.
         23    2    4    4    0    0  0.12588079388E+03 -0.48306535424E+03  0.39594059606E+03  0.64513120254E+03  0.10112963038E+03 0.  0.
         23    2    4    4    0    0 -0.39263489801E+03  0.10783597472E+03  0.90856089937E+03  0.99992523656E+03  0.92611069930E+02 0.  0.
          1    1    3    3  502    0  0.20295870450E+03  0.25103221075E+03  0.67083699702E+03  0.74446738219E+03  0.00000000000E+00 0. -1.
         -4    1    3    3    0  502  0.63795399626E+02  0.12419716878E+03  0.40652477822E+03  0.42983390403E+03  0.00000000000E+00 0.  1.
         13    1    5    5    0    0 -0.14821010353E+02 -0.10014066316E+03  0.85043928899E+02  0.13221302738E+03  0.00000000000E+00 0. -1.
        -13    1    5    5    0    0  0.14070180424E+03 -0.38292469108E+03  0.31089666717E+03  0.51291817516E+03  0.00000000000E+00 0.  1.
          1    1    6    6  503    0 -0.84639171426E+02  0.54528111195E+02  0.28792012957E+03  0.30501656555E+03  0.00000000000E+00 0. -1.
         -1    1    6    6    0  503 -0.30799572659E+03  0.53307863522E+02  0.62064076980E+03  0.69490867101E+03  0.00000000000E+00 0.  1.
<mgrwt>
<rscale>  0 0.15084778E+04</rscale>
<asrwt>0</asrwt>
<pdfrwt beam="1">  1        1 0.40009390E+00 0.15084778E+04</pdfrwt>
<pdfrwt beam="2">  1       -2 0.33653421E-01 0.15084778E+04</pdfrwt>
<totfact> 0.81045756E+00</totfact>
</mgrwt>
</event>
<event>
12    5  0.5095719E-008  0.2098331E+04  0.7818608E-02  0.8561979E-01
         -2   -1    0    0    0  501 -0.00000000000E+00  0.00000000000E+00  0.18274879895E+04  0.18274879895E+04  0.00000000000E+00 0.  1.
          1   -1    0    0  501    0  0.00000000000E+00 -0.00000000000E+00 -0.60232829630E+03  0.60232829630E+03  0.00000000000E+00 0. -1.
        -24    2    1    2    0    0  0.63991518672E+03 -0.51379158205E+03  0.73184632600E+03  0.11024340410E+04  0.79300277089E+02 0.  0.
        254    2    1    2    0    0 -0.63991518672E+03  0.51379158205E+03  0.49331336720E+03  0.13273822448E+04  0.91929990184E+03 0.  0.
         23    2    4    4    0    0 -0.46677045703E+03  0.20837883792E+03 -0.19026467633E+03  0.55315206516E+03  0.92087786833E+02 0.  0.
         23    2    4    4    0    0 -0.17314472969E+03  0.30541274414E+03  0.68357804354E+03  0.77423017962E+03  0.94325965306E+02 0.  0.
          3    1    3    3  502    0  0.28142557531E+03 -0.18230495735E+03  0.27278167650E+03  0.43225605253E+03  0.00000000000E+00 0. -1.
         -4    1    3    3    0  502  0.35848961141E+03 -0.33148662470E+03  0.45906464950E+03  0.67017798849E+03  0.00000000000E+00 0.  1.
         13    1    5    5    0    0 -0.45062767271E+03  0.17953710856E+03 -0.16819309639E+03  0.51340801556E+03  0.00000000000E+00 0. -1.
        -13    1    5    5    0    0 -0.16142784318E+02  0.28841729358E+02 -0.22071579939E+02  0.39744049604E+02  0.00000000000E+00 0.  1.
          2    1    6    6  503    0 -0.21336923752E+01  0.82702618256E+02  0.15747504002E+03  0.17788384957E+03  0.00000000000E+00 0. -1.
         -2    1    6    6    0  503 -0.17101103731E+03  0.22271012588E+03  0.52610300351E+03  0.59634633005E+03  0.00000000000E+00 0.  1.
<mgrwt>
<rscale>  0 0.20983305E+04</rscale>
<asrwt>0</asrwt>
<pdfrwt beam="1">  1        1 0.92665892E-01 0.20983305E+04</pdfrwt>
<pdfrwt beam="2">  1       -2 0.28115200E+00 0.20983305E+04</pdfrwt>
<totfact> 0.11372680E+00</totfact>
</mgrwt>
</event>
<event>
12    5  0.5095719E-008  0.2505869E+04  0.7818608E-02  0.8400898E-01
         -2   -1    0    0    0  501 -0.00000000000E+00  0.00000000000E+00  0.70783542662E+03  0.70783542662E+03  0.00000000000E+00 0.  1.
          1   -1    0    0  501    0  0.00000000000E+00 -0.00000000000E+00 -0.22178110603E+04  0.22178110603E+04  0.00000000000E+00 0. -1.
        -24    2    1    2    0    0  0.43595416788E+03 -0.97255701231E+03 -0.38756741156E+03  0.11368370248E+04  0.79162767750E+02 0.  0.
        254    2    1    2    0    0 -0.43595416788E+03  0.97255701231E+03 -0.11224082221E+04  0.17888094621E+04  0.89672509497E+03 0.  0.
         23    2    4    4    0    0 -0.52103049576E+03  0.18407029002E+03 -0.66263127039E+03  0.86764041767E+03  0.91460618318E+02 0.  0.
         23    2    4    4    0    0  0.85076327886E+02  0.78848672229E+03 -0.45977695171E+03  0.92116904442E+03  0.90599504826E+02 0.  0.
          3    1    3    3  502    0  0.60629625916E+02 -0.11232171045E+03 -0.21568488302E+02  0.12945005935E+03  0.00000000000E+00 0. -1.
         -4    1    3    3    0  502  0.37532454196E+03 -0.86023530186E+03 -0.36599892326E+03  0.10073869655E+04  0.00000000000E+00 0.  1.
         13    1    5    5    0    0 -0.47699217158E+03  0.17010583392E+03 -0.55959767839E+03  0.75472318644E+03  0.00000000000E+00 0. -1.
        -13    1    5    5    0    0 -0.44038324183E+02  0.13964456098E+02 -0.10303359199E+03  0.11291723124E+03  0.00000000000E+00 0.  1.
          3    1    6    6  503    0  0.94283644017E+02  0.77706168663E+03 -0.44531294471E+03  0.90056531639E+03  0.00000000000E+00 0. -1.
         -3    1    6    6    0  503 -0.92073161316E+01  0.11425035660E+02 -0.14464006996E+02  0.20603728026E+02  0.00000000000E+00 0.  1.
<mgrwt>
<rscale>  0 0.25058693E+04</rscale>
<asrwt>0</asrwt>
<pdfrwt beam="1">  1        1 0.34120170E+00 0.25058693E+04</pdfrwt>
<pdfrwt beam="2">  1       -2 0.10889776E+00 0.25058693E+04</pdfrwt>
<totfact> 0.11129441E+00</totfact>
</mgrwt>
</event>
<event>
12    5  0.6632654E-008  0.2376701E+04  0.7818608E-02  0.8448278E-01
          1   -1    0    0  501    0  0.00000000000E+00  0.00000000000E+00  0.22393093943E+04  0.22393093943E+04  0.00000000000E+00 0. -1.
         -2   -1    0    0    0  501 -0.00000000000E+00 -0.00000000000E+00 -0.63063044744E+03  0.63063044744E+03  0.00000000000E+00 0.  1.
        -24    2    1    2    0    0 -0.37840801465E+01  0.60284416274E+03  0.16735632355E+04  0.17806676393E+04  0.80795634370E+02 0.  0.
        254    2    1    2    0    0  0.37840801465E+01 -0.60284416274E+03 -0.64884288685E+02  0.10892722024E+04  0.90491356285E+03 0.  0.
         23    2    4    4    0    0 -0.40837918707E+03 -0.22452225008E+03  0.12680638041E+03  0.49090572045E+03  0.87890653897E+02 0.  0.
         23    2    4    4    0    0  0.41216326722E+03 -0.37832191265E+03 -0.19169066910E+03  0.59836648197E+03  0.91055508830E+02 0.  0.
          1    1    3    3  502    0  0.23759865535E+02  0.52619180017E+03  0.14583119796E+04  0.15505212580E+04  0.00000000000E+00 0. -1.
         -2    1    3    3    0  502 -0.27543945681E+02  0.76652362569E+02  0.21525125595E+03  0.23014638129E+03  0.00000000000E+00 0.  1.
         13    1    5    5    0    0 -0.38911384257E+03 -0.22969411657E+03  0.11056181116E+03  0.46518048514E+03  0.00000000000E+00 0. -1.
        -13    1    5    5    0    0 -0.19265344502E+02  0.51718664861E+01  0.16244569252E+02  0.25725235313E+02  0.00000000000E+00 0.  1.
          3    1    6    6  503    0  0.29638615077E+03 -0.21720752014E+03 -0.10763296784E+03  0.38289517226E+03  0.00000000000E+00 0. -1.
         -3    1    6    6    0  503  0.11577711645E+03 -0.16111439251E+03 -0.84057701251E+02  0.21547130971E+03  0.00000000000E+00 0.  1.
<mgrwt>
<rscale>  0 0.23767008E+04</rscale>
<asrwt>0</asrwt>
<pdfrwt beam="1">  1        1 0.34450913E+00 0.23767008E+04</pdfrwt>
<pdfrwt beam="2">  1       -2 0.97020070E-01 0.23767008E+04</pdfrwt>
<totfact> 0.14334984E+00</totfact>
</mgrwt>
</event>
<event>
12    5  0.5095719E-008  0.1366902E+04  0.7818608E-02  0.8978131E-01
          1   -1    0    0  501    0  0.00000000000E+00  0.00000000000E+00  0.10301016280E+04  0.10301016280E+04  0.00000000000E+00 0. -1.
         -2   -1    0    0    0  501 -0.00000000000E+00 -0.00000000000E+00 -0.45345546202E+03  0.45345546202E+03  0.00000000000E+00 0.  1.
        -24    2    1    2    0    0  0.83277174590E+02  0.18409663299E+03  0.51793496949E+03  0.56188381924E+03  0.81425644740E+02 0.  0.
        254    2    1    2    0    0 -0.83277174590E+02 -0.18409663299E+03  0.58711196452E+02  0.92167327073E+03  0.89733380372E+03 0.  0.
         23    2    4    4    0    0 -0.37065203122E+03 -0.28762211486E+03  0.26116430938E+03  0.54511419468E+03  0.93985528369E+02 0.  0.
         23    2    4    4    0    0  0.28737485663E+03  0.10352548187E+03 -0.20245311293E+03  0.37655907605E+03  0.86646645668E+02 0.  0.
          1    1    3    3  502    0  0.79391876111E+02  0.19116054755E+03  0.51069241209E+03  0.55104642699E+03  0.00000000000E+00 0. -1.
         -2    1    3    3    0  502  0.38852984792E+01 -0.70639145590E+01  0.72425573987E+01  0.10837392253E+02  0.00000000000E+00 0.  1.
         13    1    5    5    0    0 -0.29419038366E+03 -0.17548468156E+03  0.17987293862E+03  0.38690713272E+03  0.00000000000E+00 0. -1.
        -13    1    5    5    0    0 -0.76461647561E+02 -0.11213743330E+03  0.81291370759E+02  0.15820706196E+03  0.00000000000E+00 0.  1.
          2    1    6    6  503    0  0.27902823804E+03  0.77849154508E+02 -0.17715657999E+03  0.33956104357E+03  0.00000000000E+00 0. -1.
         -2    1    6    6    0  503  0.83466185914E+01  0.25676327360E+02 -0.25296532938E+02  0.36998032479E+02  0.00000000000E+00 0.  1.
<mgrwt>
<rscale>  0 0.13669019E+04</rscale>
<asrwt>0</asrwt>
<pdfrwt beam="1">  1        1 0.15847717E+00 0.13669019E+04</pdfrwt>
<pdfrwt beam="2">  1       -2 0.69762379E-01 0.13669019E+04</pdfrwt>
<totfact> 0.23012891E+01</totfact>
</mgrwt>
</event>
<event>
12    5  0.5095719E-008  0.3498455E+04  0.7818608E-02  0.8114156E-01
          1   -1    0    0  501    0  0.00000000000E+00  0.00000000000E+00  0.11822892359E+04  0.11822892359E+04  0.00000000000E+00 0. -1.
         -2   -1    0    0    0  501 -0.00000000000E+00 -0.00000000000E+00 -0.25880266263E+04  0.25880266263E+04  0.00000000000E+00 0.  1.
        -24    2    1    2    0    0  0.37611098708E+03 -0.12334293725E+04  0.42260203420E+03  0.13592884266E+04  0.79152107123E+02 0.  0.
        254    2    1    2    0    0 -0.37611098708E+03  0.12334293725E+04 -0.18283394246E+04  0.24110274355E+04  0.89856594178E+03 0.  0.
         23    2    4    4    0    0 -0.32969291833E+03  0.78084283964E+01 -0.40118417908E+03  0.52702641927E+03  0.89720171147E+02 0.  0.
         23    2    4    4    0    0 -0.46418068746E+02  0.12256209441E+04 -0.14271552455E+04  0.18840010162E+04  0.91577282753E+02 0.  0.
          1    1    3    3  502    0  0.36938445343E+03 -0.11928310184E+04  0.42212080396E+03  0.13181337891E+04  0.00000000000E+00 0. -1.
         -2    1    3    3    0  502  0.67265336449E+01 -0.40598354024E+02  0.48123023330E+00  0.41154637490E+02  0.00000000000E+00 0.  1.
         13    1    5    5    0    0 -0.87256996632E+02  0.38091113827E+02 -0.86528195865E+02  0.12865397426E+03  0.00000000000E+00 0. -1.
        -13    1    5    5    0    0 -0.24243592170E+03 -0.30282685430E+02 -0.31465598321E+03  0.39837244500E+03  0.00000000000E+00 0.  1.
          1    1    6    6  503    0  0.10325434249E+02  0.16517017309E+02 -0.22486156670E+02  0.29749852017E+02  0.00000000000E+00 0. -1.
         -1    1    6    6    0  503 -0.56743502995E+02  0.12091039267E+04 -0.14046690889E+04  0.18542511642E+04  0.00000000000E+00 0.  1.
<mgrwt>
<rscale>  0 0.34984545E+04</rscale>
<asrwt>0</asrwt>
<pdfrwt beam="1">  1        1 0.18189065E+00 0.34984545E+04</pdfrwt>
<pdfrwt beam="2">  1       -2 0.39815794E+00 0.34984545E+04</pdfrwt>
<totfact> 0.60127462E-02</totfact>
</mgrwt>
</event>
<event>
12    5  0.5095719E-008  0.1570053E+04  0.7818608E-02  0.8839160E-01
          1   -1    0    0  501    0  0.00000000000E+00  0.00000000000E+00  0.16677067373E+04  0.16677067373E+04  0.00000000000E+00 0. -1.
         -2   -1    0    0    0  501 -0.00000000000E+00 -0.00000000000E+00 -0.36952954929E+03  0.36952954929E+03  0.00000000000E+00 0.  1.
        -24    2    1    2    0    0 -0.30020114474E+03  0.30010890134E+03  0.40247954702E+02  0.43390020163E+03  0.80395317975E+02 0.  0.
        254    2    1    2    0    0  0.30020114474E+03 -0.30010890134E+03  0.12579292333E+04  0.16033360850E+04  0.89895192605E+03 0.  0.
         23    2    4    4    0    0 -0.96912484628E+02 -0.33731291728E+03  0.11099709201E+04  0.11679821181E+04  0.94735161856E+02 0.  0.
         23    2    4    4    0    0  0.39711362937E+03  0.37204015937E+02  0.14795831323E+03  0.43535396687E+03  0.92509678356E+02 0.  0.
          3    1    3    3  502    0 -0.68991516566E+02  0.27010399319E+02  0.10624981597E+02  0.74848388516E+02  0.00000000000E+00 0. -1.
         -4    1    3    3    0  502 -0.23120962817E+03  0.27309850203E+03  0.29622973106E+02  0.35905181312E+03  0.00000000000E+00 0.  1.
         13    1    5    5    0    0 -0.53371646616E+02 -0.15367686880E+03  0.36744012732E+03  0.40184245649E+03  0.00000000000E+00 0.  1.
        -13    1    5    5    0    0 -0.43540838012E+02 -0.18363604848E+03  0.74253079279E+03  0.76613966162E+03  0.00000000000E+00 0. -1.
          2    1    6    6  503    0  0.30337349946E+03  0.65161829848E+02  0.97275084529E+02  0.32518300435E+03  0.00000000000E+00 0. -1.
         -2    1    6    6    0  503  0.93740129902E+02 -0.27957813911E+02  0.50683228701E+02  0.11017096253E+03  0.00000000000E+00 0.  1.
<mgrwt>
<rscale>  0 0.15700534E+04</rscale>
<asrwt>0</asrwt>
<pdfrwt beam="1">  1        1 0.25657026E+00 0.15700534E+04</pdfrwt>
<pdfrwt beam="2">  1       -2 0.56850701E-01 0.15700534E+04</pdfrwt>
<totfact> 0.12282492E+01</totfact>
</mgrwt>
</event>
<event>
12    5  0.5095719E-008  0.1157594E+04  0.7818608E-02  0.9150806E-01
          1   -1    0    0  501    0  0.00000000000E+00  0.00000000000E+00  0.82564946615E+03  0.82564946615E+03  0.00000000000E+00 0. -1.
         -2   -1    0    0    0  501 -0.00000000000E+00 -0.00000000000E+00 -0.40574844139E+03  0.40574844139E+03  0.00000000000E+00 0.  1.
        -24    2    1    2    0    0 -0.96602249679E+02  0.20307668634E+03  0.92622804439E+02  0.25554030902E+03  0.78420217122E+02 0.  0.
        254    2    1    2    0    0  0.96602249679E+02 -0.20307668634E+03  0.32727822032E+03  0.97585759853E+03  0.89141173648E+03 0.  0.
         23    2    4    4    0    0  0.40313023684E+01 -0.31829980001E+03 -0.22275833614E+03  0.39909401572E+03  0.91234549268E+02 0.  0.
         23    2    4    4    0    0  0.92570947310E+02  0.11522311368E+03  0.55003655645E+03  0.57676358280E+03  0.90941029249E+02 0.  0.
          3    1    3    3  502    0 -0.28397249273E+02  0.38848331264E+02 -0.11494022708E+02  0.49474328356E+02  0.00000000000E+00 0. -1.
         -2    1    3    3    0  502 -0.68205000406E+02  0.16422835507E+03  0.10411682715E+03  0.20606598066E+03  0.00000000000E+00 0.  1.
         13    1    5    5    0    0 -0.83483958109E+01 -0.26399315578E+01 -0.24778033061E+02  0.26279571413E+02  0.00000000000E+00 0. -1.
        -13    1    5    5    0    0  0.12379698179E+02 -0.31565986846E+03 -0.19798030307E+03  0.37281444431E+03  0.00000000000E+00 0.  1.
          3    1    6    6  503    0 -0.24161583098E+01 -0.11591723981E+02  0.17298584990E+02  0.20962989493E+02  0.00000000000E+00 0. -1.
         -3    1    6    6    0  503  0.94987105620E+02  0.12681483766E+03  0.53273797146E+03  0.55580059331E+03  0.00000000000E+00 0.  1.
<mgrwt>
<rscale>  0 0.11575940E+04</rscale>
<asrwt>0</asrwt>
<pdfrwt beam="1">  1        1 0.12702299E+00 0.11575940E+04</pdfrwt>
<pdfrwt beam="2">  1       -2 0.62422837E-01 0.11575940E+04</pdfrwt>
<totfact> 0.43511893E+01</totfact>
</mgrwt>
</event>
<event>
12    5  0.5095719E-008  0.1724420E+04  0.7818608E-02  0.8747558E-01
         -2   -1    0    0    0  501 -0.00000000000E+00  0.00000000000E+00  0.23147638251E+03  0.23147638251E+03  0.00000000000E+00 0.  1.
          1   -1    0    0  501    0  0.00000000000E+00 -0.00000000000E+00 -0.32115863180E+04  0.32115863180E+04  0.00000000000E+00 0. -1.
        -24    2    1    2    0    0  0.24054603021E+03  0.23942775090E+03 -0.20714274247E+04  0.21005380433E+04  0.79123036694E+02 0.  0.
        254    2    1    2    0    0 -0.24054603021E+03 -0.23942775090E+03 -0.90868251079E+03  0.13425246572E+04  0.92815974340E+03 0.  0.
         23    2    4    4    0    0 -0.35055577818E+03 -0.17757694623E+03 -0.10517777315E+04  0.11265806847E+04  0.92329395329E+02 0.  0.
         23    2    4    4    0    0  0.11000974797E+03 -0.61850804674E+02  0.14309522073E+03  0.21594397248E+03  0.10113303301E+03 0.  0.
          1    1    3    3  502    0  0.24309034024E+03  0.23560808444E+03 -0.20654119498E+04  0.20929717163E+04  0.00000000000E+00 0. -1.
         -2    1    3    3    0  502 -0.25443100324E+01  0.38196664629E+01 -0.60154749288E+01  0.75663269852E+01  0.00000000000E+00 0.  1.
         13    1    5    5    0    0 -0.30463895470E+03 -0.16023027814E+03 -0.81390862072E+03  0.88370010617E+03  0.00000000000E+00 0.  1.
        -13    1    5    5    0    0 -0.45916823485E+02 -0.17346668085E+02 -0.23786911080E+03  0.24288057857E+03  0.00000000000E+00 0. -1.
          2    1    6    6  503    0  0.84190253127E+01 -0.26772838264E+02 -0.92080894930E+01  0.29537328384E+02  0.00000000000E+00 0. -1.
         -2    1    6    6    0  503  0.10159072266E+03 -0.35077966409E+02  0.15230331023E+03  0.18640664410E+03  0.00000000000E+00 0.  1.
<mgrwt>
<rscale>  0 0.17244203E+04</rscale>
<asrwt>0</asrwt>
<pdfrwt beam="1">  1        1 0.49409016E+00 0.17244203E+04</pdfrwt>
<pdfrwt beam="2">  1       -2 0.35611754E-01 0.17244203E+04</pdfrwt>
<totfact> 0.25887351E+00</totfact>
</mgrwt>
</event>
<event>
12    5  0.5095719E-008  0.3784533E+04  0.7818608E-02  0.8049482E-01
          1   -1    0    0  501    0  0.00000000000E+00  0.00000000000E+00  0.23871276639E+04  0.23871276639E+04  0.00000000000E+00 0. -1.
         -2   -1    0    0    0  501 -0.00000000000E+00 -0.00000000000E+00 -0.14999920282E+04  0.14999920282E+04  0.00000000000E+00 0.  1.
        -24    2    1    2    0    0  0.11946505168E+04 -0.82374681878E+03 -0.63801577586E+03  0.15871412065E+04  0.78768016876E+02 0.  0.
        254    2    1    2    0    0 -0.11946505168E+04  0.82374681878E+03  0.15251514116E+04  0.22999784855E+04  0.92631826440E+03 0.  0.
         23    2    4    4    0    0 -0.37481235017E+03  0.80561880407E+03  0.72859625104E+03  0.11527077590E+04  0.91524451897E+02 0.  0.
         23    2    4    4    0    0 -0.81983816663E+03  0.18128014708E+02  0.79655516055E+03  0.11472707266E+04  0.96263969554E+02 0.  0.
          3    1    3    3  502    0  0.10204512425E+02 -0.63821988958E+01 -0.14315032773E+02  0.18702531911E+02  0.00000000000E+00 0. -1.
         -4    1    3    3    0  502  0.11844460044E+04 -0.81736461988E+03 -0.62370074308E+03  0.15684386746E+04  0.00000000000E+00 0.  1.
         13    1    5    5    0    0 -0.77769288037E+02  0.10155102499E+03  0.12585052294E+03  0.17944087317E+03  0.00000000000E+00 0. -1.
        -13    1    5    5    0    0 -0.29704306214E+03  0.70406777907E+03  0.60274572810E+03  0.97326688582E+03  0.00000000000E+00 0.  1.
          1    1    6    6  503    0 -0.22453449185E+01  0.76549051002E+01  0.87175183741E+01  0.11816694652E+02  0.00000000000E+00 0. -1.
         -1    1    6    6    0  503 -0.81759282171E+03  0.10473109608E+02  0.78783764218E+03  0.11354540319E+04  0.00000000000E+00 0.  1.
<mgrwt>
<rscale>  0 0.37845330E+04</rscale>
<asrwt>0</asrwt>
<pdfrwt beam="1">  1        1 0.36725041E+00 0.37845330E+04</pdfrwt>
<pdfrwt beam="2">  1       -2 0.23076800E+00 0.37845330E+04</pdfrwt>
<totfact> 0.96098885E-02</totfact>
</mgrwt>
</event>
<event>
12    5  0.5095719E-008  0.1995467E+04  0.7818608E-02  0.8608743E-01
         -2   -1    0    0    0  501 -0.00000000000E+00  0.00000000000E+00  0.63859575858E+03  0.63859575858E+03  0.00000000000E+00 0.  1.
          1   -1    0    0  501    0  0.00000000000E+00 -0.00000000000E+00 -0.15588456091E+04  0.15588456091E+04  0.00000000000E+00 0. -1.
        -24    2    1    2    0    0 -0.55492171605E+03 -0.22793978734E+03  0.20308667929E+03  0.63837558944E+03  0.79903293390E+02 0.  0.
        254    2    1    2    0    0  0.55492171605E+03  0.22793978734E+03 -0.11233365298E+04  0.15590657782E+04  0.89939228597E+03 0.  0.
         23    2    4    4    0    0  0.34278994979E+02 -0.30669015433E+03 -0.25385391228E+03  0.40966302974E+03  0.90266765189E+02 0.  0.
         23    2    4    4    0    0  0.52064272107E+03  0.53462994166E+03 -0.86948261751E+03  0.11494027485E+04  0.90711843417E+02 0.  0.
          3    1    3    3  502    0 -0.10967965783E+03 -0.55297133850E+02  0.75139048604E+02  0.14399054475E+03  0.00000000000E+00 0. -1.
         -4    1    3    3    0  502 -0.44524205822E+03 -0.17264265349E+03  0.12794763068E+03  0.49438504469E+03  0.00000000000E+00 0.  1.
         13    1    5    5    0    0 -0.23859603236E+02 -0.87202073766E+02 -0.44272430554E+02  0.10066543817E+03  0.00000000000E+00 0. -1.
        -13    1    5    5    0    0  0.58138598214E+02 -0.21948808056E+03 -0.20958148173E+03  0.30899759157E+03  0.00000000000E+00 0.  1.
          4    1    6    6  503    0  0.39204917003E+03  0.36077145888E+03 -0.66141742954E+03  0.84931243566E+03  0.00000000000E+00 0. -1.
         -4    1    6    6    0  503  0.12859355104E+03  0.17385848278E+03 -0.20806518796E+03  0.30009031281E+03  0.00000000000E+00 0.  1.
<mgrwt>
<rscale>  0 0.19954671E+04</rscale>
<asrwt>0</asrwt>
<pdfrwt beam="1">  1        1 0.23982240E+00 0.19954671E+04</pdfrwt>
<pdfrwt beam="2">  1       -2 0.98245503E-01 0.19954671E+04</pdfrwt>
<totfact> 0.41790971E+00</totfact>
</mgrwt>
</event>
<event>
12    5  0.5095719E-008  0.2562455E+04  0.7818608E-02  0.8381067E-01
          1   -1    0    0  501    0  0.00000000000E+00  0.00000000000E+00  0.23592104059E+04  0.23592104059E+04  0.00000000000E+00 0. -1.
         -2   -1    0    0    0  501 -0.00000000000E+00 -0.00000000000E+00 -0.69580218864E+03  0.69580218864E+03  0.00000000000E+00 0.  1.
        -24    2    1    2    0    0  0.75771130492E+03  0.18466630155E+02 -0.25439443819E+03  0.80349148398E+03  0.80091176931E+02 0.  0.
        254    2    1    2    0    0 -0.75771130492E+03 -0.18466630155E+02  0.19178026555E+04  0.22515211106E+04  0.90383231192E+03 0.  0.
         23    2    4    4    0    0 -0.46753662734E+03 -0.24769552396E+03  0.35663635837E+03  0.64450682844E+03  0.90862474670E+02 0.  0.
         23    2    4    4    0    0 -0.29017467758E+03  0.22922889380E+03  0.15611662971E+04  0.16070142822E+04  0.92235928851E+02 0.  0.
          3    1    3    3  502    0  0.94407688109E+02 -0.14796505877E+02 -0.11139852829E+02  0.96207299522E+02  0.00000000000E+00 0. -1.
         -4    1    3    3    0  502  0.66330361681E+03  0.33263136032E+02 -0.24325458536E+03  0.70728418446E+03  0.00000000000E+00 0.  1.
         13    1    5    5    0    0 -0.11734672052E+03 -0.65589241914E+02  0.14066825243E+03  0.19457584309E+03  0.00000000000E+00 0. -1.
        -13    1    5    5    0    0 -0.35018990681E+03 -0.18210628204E+03  0.21596810594E+03  0.44993098535E+03  0.00000000000E+00 0.  1.
          4    1    6    6  503    0 -0.85780724079E+02  0.11553366826E+03  0.70099899935E+03  0.71561578952E+03  0.00000000000E+00 0. -1.
         -4    1    6    6    0  503 -0.20439395350E+03  0.11369522554E+03  0.86016729775E+03  0.89139849263E+03  0.00000000000E+00 0.  1.
<mgrwt>
<rscale>  0 0.25624549E+04</rscale>
<asrwt>0</asrwt>
<pdfrwt beam="1">  1        1 0.36295544E+00 0.25624549E+04</pdfrwt>
<pdfrwt beam="2">  1       -2 0.10704649E+00 0.25624549E+04</pdfrwt>
<totfact> 0.92365564E-01</totfact>
</mgrwt>
</event>
<event>
12    5  0.5095719E-008  0.1531686E+04  0.7818608E-02  0.8863651E-01
         -2   -1    0    0    0  501 -0.00000000000E+00  0.00000000000E+00  0.39692501788E+03  0.39692501788E+03  0.00000000000E+00 0.  1.
          1   -1    0    0  501    0  0.00000000000E+00 -0.00000000000E+00 -0.14776475230E+04  0.14776475230E+04  0.00000000000E+00 0. -1.
        -24    2    1    2    0    0  0.22187571858E+02 -0.24578886977E+03  0.17104599250E+03  0.31137832212E+03  0.82433434287E+02 0.  0.
        254    2    1    2    0    0 -0.22187571858E+02  0.24578886977E+03 -0.12517684976E+04  0.15631942188E+04  0.90318732117E+03 0.  0.
         23    2    4    4    0    0 -0.27179442930E+03  0.45424458721E+03 -0.47594674764E+03  0.71714073241E+03  0.86920461878E+02 0.  0.
         23    2    4    4    0    0  0.24960685744E+03 -0.20845571744E+03 -0.77582174997E+03  0.84605348635E+03  0.90275936013E+02 0.  0.
          3    1    3    3  502    0  0.24570348818E+02 -0.23492876135E+02  0.43055192796E+02  0.54857696788E+02  0.00000000000E+00 0. -1.
         -4    1    3    3    0  502 -0.23827769601E+01 -0.22229599363E+03  0.12799079970E+03  0.25652062533E+03  0.00000000000E+00 0.  1.
         13    1    5    5    0    0 -0.26936225442E+03  0.40184225664E+03 -0.43519059360E+03  0.65071043951E+03  0.00000000000E+00 0.  1.
        -13    1    5    5    0    0 -0.24321748833E+01  0.52402330566E+02 -0.40756154036E+02  0.66430292903E+02  0.00000000000E+00 0. -1.
          1    1    6    6  503    0  0.28578019625E+02  0.33327782388E+01 -0.10153744883E+03  0.10553513222E+03  0.00000000000E+00 0. -1.
         -1    1    6    6    0  503  0.22102883782E+03 -0.21178849568E+03 -0.67428430114E+03  0.74051835414E+03  0.00000000000E+00 0.  1.
<mgrwt>
<rscale>  0 0.15316857E+04</rscale>
<asrwt>0</asrwt>
<pdfrwt beam="1">  1        1 0.22733039E+00 0.15316857E+04</pdfrwt>
<pdfrwt beam="2">  1       -2 0.61065387E-01 0.15316857E+04</pdfrwt>
<totfact> 0.14321110E+01</totfact>
</mgrwt>
</event>
<event>
12    5  0.5095719E-008  0.1636126E+04  0.7818608E-02  0.8798657E-01
          1   -1    0    0  501    0  0.00000000000E+00  0.00000000000E+00  0.13426999906E+04  0.13426999906E+04  0.00000000000E+00 0. -1.
         -2   -1    0    0    0  501 -0.00000000000E+00 -0.00000000000E+00 -0.49841872957E+03  0.49841872957E+03  0.00000000000E+00 0.  1.
        -24    2    1    2    0    0 -0.22344702144E+02  0.32715179942E+03 -0.23140075362E+03  0.40904842135E+03  0.79036173081E+02 0.  0.
        254    2    1    2    0    0  0.22344702144E+02 -0.32715179942E+03  0.10756820147E+04  0.14320702989E+04  0.88668255794E+03 0.  0.
         23    2    4    4    0    0  0.77806987244E+02 -0.40488008736E+03  0.11872500974E+04  0.12601726554E+04  0.92143991594E+02 0.  0.
         23    2    4    4    0    0 -0.55462285100E+02  0.77728287942E+02 -0.11156808272E+03  0.17189764347E+03  0.89351054461E+02 0.  0.
          1    1    3    3  502    0  0.18694249129E+02  0.45315665160E+02 -0.56596950663E+02  0.74874556986E+02  0.00000000000E+00 0. -1.
         -4    1    3    3    0  502 -0.41038951273E+02  0.28183613426E+03 -0.17480380296E+03  0.33417386437E+03  0.00000000000E+00 0.  1.
         13    1    5    5    0    0  0.64274196066E+02 -0.20306768918E+03  0.72422148725E+03  0.75489364898E+03  0.00000000000E+00 0. -1.
        -13    1    5    5    0    0  0.13532791179E+02 -0.20181239818E+03  0.46302861017E+03  0.50527900642E+03  0.00000000000E+00 0.  1.
          4    1    6    6  503    0 -0.13848736582E+02 -0.20129655149E+02 -0.20999765215E+02  0.32217707249E+02  0.00000000000E+00 0. -1.
         -4    1    6    6    0  503 -0.41613548519E+02  0.97857943091E+02 -0.90568317502E+02  0.13967993622E+03  0.00000000000E+00 0.  1.
<mgrwt>
<rscale>  0 0.16361257E+04</rscale>
<asrwt>0</asrwt>
<pdfrwt beam="1">  1        1 0.20656923E+00 0.16361257E+04</pdfrwt>
<pdfrwt beam="2">  1       -2 0.76679805E-01 0.16361257E+04</pdfrwt>
<totfact> 0.10758888E+01</totfact>
</mgrwt>
</event>
<event>
12    5  0.5095719E-008  0.1383780E+04  0.7818608E-02  0.8965644E-01
          1   -1    0    0  501    0  0.00000000000E+00  0.00000000000E+00  0.10541105609E+04  0.10541105609E+04  0.00000000000E+00 0. -1.
         -2   -1    0    0    0  501 -0.00000000000E+00 -0.00000000000E+00 -0.45413796675E+03  0.45413796675E+03  0.00000000000E+00 0.  1.
        -24    2    1    2    0    0  0.22416465521E+03  0.32548253497E+03  0.14479063769E+03  0.42881129224E+03  0.82012940282E+02 0.  0.
        254    2    1    2    0    0 -0.22416465521E+03 -0.32548253497E+03  0.45518195648E+03  0.10794372354E+04  0.89543590420E+03 0.  0.
         23    2    4    4    0    0 -0.98904138788E+02  0.12529590627E+03  0.56106556567E+03  0.59089823115E+03  0.94260584538E+02 0.  0.
         23    2    4    4    0    0 -0.12526051642E+03 -0.45077844124E+03 -0.10588360919E+03  0.48853900429E+03  0.92561438837E+02 0.  0.
          1    1    3    3  502    0  0.22256387662E+03  0.32891364227E+03  0.13692202447E+03  0.42007916401E+03  0.00000000000E+00 0. -1.
         -4    1    3    3    0  502  0.16007785831E+01 -0.34311073015E+01  0.78686132206E+01  0.87321282287E+01  0.00000000000E+00 0.  1.
         13    1    5    5    0    0 -0.20366680924E+02  0.10609114008E+02  0.15023811003E+02  0.27442118886E+02  0.00000000000E+00 0. -1.
        -13    1    5    5    0    0 -0.78537457864E+02  0.11468679226E+03  0.54604175467E+03  0.56345611226E+03  0.00000000000E+00 0.  1.
          4    1    6    6  503    0  0.14450873170E+02 -0.66028056304E+02 -0.15738921811E+02  0.69399175892E+02  0.00000000000E+00 0. -1.
         -4    1    6    6    0  503 -0.13971138959E+03 -0.38475038494E+03 -0.90144687375E+02  0.41913982840E+03  0.00000000000E+00 0.  1.
<mgrwt>
<rscale>  0 0.13837798E+04</rscale>
<asrwt>0</asrwt>
<pdfrwt beam="1">  1        1 0.16217086E+00 0.13837798E+04</pdfrwt>
<pdfrwt beam="2">  1       -2 0.69867380E-01 0.13837798E+04</pdfrwt>
<totfact> 0.21953990E+01</totfact>
</mgrwt>
</event>
<event>
12    5  0.5095719E-008  0.1128211E+04  0.7818608E-02  0.9178124E-01
         -2   -1    0    0    0  501 -0.00000000000E+00  0.00000000000E+00  0.43548787184E+03  0.43548787184E+03  0.00000000000E+00 0.  1.
          1   -1    0    0  501    0  0.00000000000E+00 -0.00000000000E+00 -0.73070907260E+03  0.73070907260E+03  0.00000000000E+00 0. -1.
        -24    2    1    2    0    0  0.12236155460E+03  0.93572819060E+02  0.24781673819E+02  0.17455676350E+03  0.78279689678E+02 0.  0.
        254    2    1    2    0    0 -0.12236155460E+03 -0.93572819060E+02 -0.32000287458E+03  0.99164018094E+03  0.92586186130E+03 0.  0.
         23    2    4    4    0    0 -0.29737432796E+03 -0.44002973404E+03 -0.20484082179E+03  0.57650794368E+03  0.91345438221E+02 0.  0.
         23    2    4    4    0    0  0.17501277335E+03  0.34645691498E+03 -0.11516205278E+03  0.41513223727E+03  0.91709384717E+02 0.  0.
          1    1    3    3  502    0  0.30352969419E+02  0.63486209948E+02 -0.11255829361E+02  0.71263562223E+02  0.00000000000E+00 0. -1.
         -2    1    3    3    0  502  0.92008585185E+02  0.30086609112E+02  0.36037503180E+02  0.10329320128E+03  0.00000000000E+00 0.  1.
         13    1    5    5    0    0 -0.21795977901E+03 -0.37506702361E+03 -0.18690942785E+03  0.47235248669E+03  0.00000000000E+00 0. -1.
        -13    1    5    5    0    0 -0.79414548948E+02 -0.64962710426E+02 -0.17931393944E+02  0.10415545698E+03  0.00000000000E+00 0.  1.
          1    1    6    6  503    0  0.16217382231E+03  0.23800184316E+03 -0.66559257095E+02  0.29559323520E+03  0.00000000000E+00 0. -1.
         -1    1    6    6    0  503  0.12838951041E+02  0.10845507182E+03 -0.48602795689E+02  0.11953900207E+03  0.00000000000E+00 0.  1.
<mgrwt>
<rscale>  0 0.11282109E+04</rscale>
<asrwt>0</asrwt>
<pdfrwt beam="1">  1        1 0.11241678E+00 0.11282109E+04</pdfrwt>
<pdfrwt beam="2">  1       -2 0.66998133E-01 0.11282109E+04</pdfrwt>
<totfact> 0.45454118E+01</totfact>
</mgrwt>
</event>
<event>
12    5  0.5095719E-008  0.1328860E+04  0.7818608E-02  0.9006987E-01
         -2   -1    0    0    0  501 -0.00000000000E+00  0.00000000000E+00  0.34109863293E+03  0.34109863293E+03  0.00000000000E+00 0.  1.
          1   -1    0    0  501    0  0.00000000000E+00 -0.00000000000E+00 -0.12942516245E+04  0.12942516245E+04  0.00000000000E+00 0. -1.
        -24    2    1    2    0    0  0.23608916960E+03  0.54041859628E+02 -0.61078322856E+03  0.66221502366E+03  0.82546754472E+02 0.  0.
        254    2    1    2    0    0 -0.23608916960E+03 -0.54041859628E+02 -0.34236976302E+03  0.97313523378E+03  0.87813239890E+03 0.  0.
         23    2    4    4    0    0 -0.11661645228E+03  0.30388021902E+03  0.12959892180E+03  0.36211212909E+03  0.91579086292E+02 0.  0.
         23    2    4    4    0    0 -0.11947271732E+03 -0.35792207865E+03 -0.47196868482E+03  0.61102310469E+03  0.90624778354E+02 0.  0.
          1    1    3    3  502    0  0.21691837326E+03  0.45808944792E+02 -0.59793278739E+03  0.63771126563E+03  0.00000000000E+00 0. -1.
         -2    1    3    3    0  502  0.19170796341E+02  0.82329148366E+01 -0.12850441171E+02  0.24503758025E+02  0.00000000000E+00 0.  1.
         13    1    5    5    0    0 -0.57731382640E+02  0.86345692623E+02  0.36275780941E+01  0.10393098912E+03  0.00000000000E+00 0. -1.
        -13    1    5    5    0    0 -0.58885069643E+02  0.21753452640E+03  0.12597134370E+03  0.25818113997E+03  0.00000000000E+00 0.  1.
          1    1    6    6  503    0 -0.54979426475E+02 -0.11079729233E+03 -0.21919047794E+03  0.25168083547E+03  0.00000000000E+00 0. -1.
         -1    1    6    6    0  503 -0.64493290842E+02 -0.24712478632E+03 -0.25277820688E+03  0.35934226922E+03  0.00000000000E+00 0.  1.
<mgrwt>
<rscale>  0 0.13288604E+04</rscale>
<asrwt>0</asrwt>
<pdfrwt beam="1">  1        1 0.19911563E+00 0.13288604E+04</pdfrwt>
<pdfrwt beam="2">  1       -2 0.52476713E-01 0.13288604E+04</pdfrwt>
<totfact> 0.26908825E+01</totfact>
</mgrwt>
</event>
<event>
12    5  0.5095719E-008  0.3631133E+04  0.7818608E-02  0.8083397E-01
          1   -1    0    0  501    0  0.00000000000E+00  0.00000000000E+00  0.17147976239E+04  0.17147976239E+04  0.00000000000E+00 0. -1.
         -2   -1    0    0    0  501 -0.00000000000E+00 -0.00000000000E+00 -0.19222570607E+04  0.19222570607E+04  0.00000000000E+00 0.  1.
        -24    2    1    2    0    0 -0.66101867808E+03  0.12457362190E+03 -0.16640921852E+04  0.17961046449E+04  0.65763322892E+02 0.  0.
        254    2    1    2    0    0  0.66101867808E+03 -0.12457362190E+03  0.14566327484E+04  0.18409500397E+04  0.90269253074E+03 0.  0.
         23    2    4    4    0    0  0.44980817887E+03 -0.44094871883E+02  0.15204017021E+04  0.15887963744E+04  0.91546862993E+02 0.  0.
         23    2    4    4    0    0  0.21121049921E+03 -0.80478750015E+02 -0.63768953689E+02  0.25215366533E+03  0.91805704082E+02 0.  0.
          1    1    3    3  502    0 -0.36670519155E+03  0.77502482368E+02 -0.10101189171E+04  0.10774133649E+04  0.00000000000E+00 0. -1.
         -2    1    3    3    0  502 -0.29431348653E+03  0.47071139530E+02 -0.65397326814E+03  0.71869128002E+03  0.00000000000E+00 0.  1.
         13    1    5    5    0    0  0.16302558155E+03 -0.60413888919E+02  0.56360591230E+03  0.58981251478E+03  0.00000000000E+00 0. -1.
        -13    1    5    5    0    0  0.28678259731E+03  0.16319017036E+02  0.95679578978E+03  0.99898385962E+03  0.00000000000E+00 0.  1.
          4    1    6    6  503    0  0.49598242230E+02 -0.52049261018E+02  0.93582949139E+01  0.72503026754E+02  0.00000000000E+00 0. -1.
         -4    1    6    6    0  503  0.16161225698E+03 -0.28429488997E+02 -0.73127248603E+02  0.17965063857E+03  0.00000000000E+00 0.  1.
<mgrwt>
<rscale>  0 0.36311331E+04</rscale>
<asrwt>0</asrwt>
<pdfrwt beam="1">  1        1 0.26381502E+00 0.36311331E+04</pdfrwt>
<pdfrwt beam="2">  1       -2 0.29573186E+00 0.36311331E+04</pdfrwt>
<totfact> 0.11143172E-01</totfact>
</mgrwt>
</event>
<event>
12    5  0.5095719E-008  0.2251476E+04  0.7818608E-02  0.8497303E-01
          1   -1    0    0  501    0  0.00000000000E+00  0.00000000000E+00  0.15936831817E+04  0.15936831817E+04  0.00000000000E+00 0. -1.
         -2   -1    0    0    0  501 -0.00000000000E+00 -0.00000000000E+00 -0.79519338615E+03  0.79519338615E+03  0.00000000000E+00 0.  1.
        -24    2    1    2    0    0  0.24819850584E+02  0.27469974739E+03 -0.62060814369E+03  0.68379127464E+03  0.79624512883E+02 0.  0.
        254    2    1    2    0    0 -0.24819850584E+02 -0.27469974739E+03  0.14190979393E+04  0.17050852933E+04  0.90410227285E+03 0.  0.
         23    2    4    4    0    0 -0.35634988164E+03 -0.40691663441E+03  0.10449941051E+04  0.11802995378E+04  0.92346812637E+02 0.  0.
         23    2    4    4    0    0  0.33153003106E+03  0.13221688702E+03  0.37410383424E+03  0.52478575546E+03  0.89738194997E+02 0.  0.
          1    1    3    3  502    0  0.14470510955E+02  0.27915149280E+02 -0.13929303620E+03  0.14279776322E+03  0.00000000000E+00 0. -1.
         -2    1    3    3    0  502  0.10349339629E+02  0.24678459811E+03 -0.48131510750E+03  0.54099351142E+03  0.00000000000E+00 0.  1.
         13    1    5    5    0    0 -0.34149933970E+03 -0.40908057538E+03  0.10041851891E+04  0.11368186356E+04  0.00000000000E+00 0. -1.
        -13    1    5    5    0    0 -0.14850541938E+02  0.21639409750E+01  0.40808915951E+02  0.43480902216E+02  0.00000000000E+00 0.  1.
          1    1    6    6  503    0  0.30794734595E+03  0.10697059735E+03  0.36432014289E+03  0.48887978388E+03  0.00000000000E+00 0. -1.
         -1    1    6    6    0  503  0.23582685107E+02  0.25246289667E+02  0.97836913501E+01  0.35905971582E+02  0.00000000000E+00 0.  1.
<mgrwt>
<rscale>  0 0.22514762E+04</rscale>
<asrwt>0</asrwt>
<pdfrwt beam="1">  1        1 0.24518203E+00 0.22514762E+04</pdfrwt>
<pdfrwt beam="2">  1       -2 0.12233744E+00 0.22514762E+04</pdfrwt>
<totfact> 0.22732906E+00</totfact>
</mgrwt>
</event>
<event>
12    5  0.5095719E-008  0.1777972E+04  0.7818608E-02  0.8718102E-01
          1   -1    0    0  501    0  0.00000000000E+00  0.00000000000E+00  0.10436144445E+04  0.10436144445E+04  0.00000000000E+00 0. -1.
         -2   -1    0    0    0  501 -0.00000000000E+00 -0.00000000000E+00 -0.75726841690E+03  0.75726841690E+03  0.00000000000E+00 0.  1.
        -24    2    1    2    0    0  0.22229011909E+03  0.60301518343E+03  0.22906128778E+03  0.68687110502E+03  0.79263061138E+02 0.  0.
        254    2    1    2    0    0 -0.22229011909E+03 -0.60301518343E+03  0.57284739838E+02  0.11140117564E+04  0.90813019082E+03 0.  0.
         23    2    4    4    0    0 -0.51217018205E+03 -0.41833079932E+03 -0.17316145825E+03  0.68988114151E+03  0.92909341560E+02 0.  0.
         23    2    4    4    0    0  0.28988006296E+03 -0.18468438410E+03  0.23044619808E+03  0.42413061488E+03  0.92965346452E+02 0.  0.
          3    1    3    3  502    0  0.22439567912E+03  0.54477025083E+03  0.20508737770E+03  0.62385004568E+03  0.00000000000E+00 0. -1.
         -2    1    3    3    0  502 -0.21055600291E+01  0.58244932593E+02  0.23973910078E+02  0.63021059339E+02  0.00000000000E+00 0.  1.
         13    1    5    5    0    0 -0.13167821852E+03 -0.15640787383E+03 -0.73945664975E+02  0.21741788702E+03  0.00000000000E+00 0.  1.
        -13    1    5    5    0    0 -0.38049196353E+03 -0.26192292550E+03 -0.99215793271E+02  0.47246325449E+03  0.00000000000E+00 0. -1.
          3    1    6    6  503    0  0.17129147452E+03 -0.16080541576E+03  0.15791828522E+03  0.28308538604E+03  0.00000000000E+00 0. -1.
         -3    1    6    6    0  503  0.11858858844E+03 -0.23878968341E+02  0.72527912864E+02  0.14104522885E+03  0.00000000000E+00 0.  1.
<mgrwt>
<rscale>  0 0.17779722E+04</rscale>
<asrwt>0</asrwt>
<pdfrwt beam="1">  1        1 0.16055607E+00 0.17779722E+04</pdfrwt>
<pdfrwt beam="2">  1       -2 0.11650283E+00 0.17779722E+04</pdfrwt>
<totfact> 0.66266444E+00</totfact>
</mgrwt>
</event>
<event>
12    5  0.5095719E-008  0.1736720E+04  0.7818608E-02  0.8740694E-01
          1   -1    0    0  501    0  0.00000000000E+00  0.00000000000E+00  0.10013148045E+04  0.10013148045E+04  0.00000000000E+00 0. -1.
         -2   -1    0    0    0  501 -0.00000000000E+00 -0.00000000000E+00 -0.75305874854E+03  0.75305874854E+03  0.00000000000E+00 0.  1.
        -24    2    1    2    0    0  0.31179939806E+03  0.53874167494E+02 -0.45951004149E+03  0.56337857336E+03  0.78260131184E+02 0.  0.
        254    2    1    2    0    0 -0.31179939806E+03 -0.53874167494E+02  0.70776609746E+03  0.11909949797E+04  0.90411000569E+03 0.  0.
         23    2    4    4    0    0 -0.26080049109E+03  0.39102953139E+03  0.23386841735E+03  0.53285520799E+03  0.91209897895E+02 0.  0.
         23    2    4    4    0    0 -0.50998906973E+02 -0.44490369888E+03  0.47389768011E+03  0.65813977171E+03  0.89603337566E+02 0.  0.
          1    1    3    3  502    0  0.21853002041E+03  0.20987311860E+02 -0.25693736456E+03  0.33795361573E+03  0.00000000000E+00 0. -1.
         -2    1    3    3    0  502  0.93269377650E+02  0.32886855634E+02 -0.20257267694E+03  0.22542495763E+03  0.00000000000E+00 0.  1.
         13    1    5    5    0    0 -0.54533079856E+02  0.43394994082E+02  0.63196524707E+02  0.94078600356E+02  0.00000000000E+00 0. -1.
        -13    1    5    5    0    0 -0.20626741123E+03  0.34763453730E+03  0.17067189265E+03  0.43877660763E+03  0.00000000000E+00 0.  1.
          2    1    6    6  503    0 -0.71710420267E+02 -0.25627623140E+03  0.29583788068E+03  0.39791951800E+03  0.00000000000E+00 0.  1.
         -2    1    6    6    0  503  0.20711513294E+02 -0.18862746748E+03  0.17805979943E+03  0.26022025371E+03  0.00000000000E+00 0. -1.
<mgrwt>
<rscale>  0 0.17367198E+04</rscale>
<asrwt>0</asrwt>
<pdfrwt beam="1">  1        1 0.15404843E+00 0.17367198E+04</pdfrwt>
<pdfrwt beam="2">  1       -2 0.11585519E+00 0.17367198E+04</pdfrwt>
<totfact> 0.72692990E+00</totfact>
</mgrwt>
</event>
<event>
12    5  0.5095719E-008  0.3140648E+04  0.7818608E-02  0.8204670E-01
          1   -1    0    0  501    0  0.00000000000E+00  0.00000000000E+00  0.19101624345E+04  0.19101624345E+04  0.00000000000E+00 0. -1.
         -2   -1    0    0    0  501 -0.00000000000E+00 -0.00000000000E+00 -0.12909465623E+04  0.12909465623E+04  0.00000000000E+00 0.  1.
        -24    2    1    2    0    0  0.88574818377E+03 -0.17432009446E+03  0.14290424143E+04  0.16923410371E+04  0.83178262843E+02 0.  0.
        254    2    1    2    0    0 -0.88574818377E+03  0.17432009446E+03 -0.80982654210E+03  0.15087679597E+04  0.89756581238E+03 0.  0.
         23    2    4    4    0    0 -0.13108097009E+03 -0.16011003289E+03 -0.61544795778E+03  0.65542233669E+03  0.89357749202E+02 0.  0.
         23    2    4    4    0    0 -0.75466721369E+03  0.33443012735E+03 -0.19437858432E+03  0.85334562302E+03  0.95129410727E+02 0.  0.
          3    1    3    3  502    0  0.72059290505E+03 -0.15056966559E+03  0.11032249785E+04  0.13262845518E+04  0.00000000000E+00 0. -1.
         -4    1    3    3    0  502  0.16515527872E+03 -0.23750428870E+02  0.32581743579E+03  0.36605648530E+03  0.00000000000E+00 0.  1.
         13    1    5    5    0    0 -0.13738026696E+02 -0.48190889010E+02 -0.68042031324E+02  0.84503332407E+02  0.00000000000E+00 0.  1.
        -13    1    5    5    0    0 -0.11734294339E+03 -0.11191914388E+03 -0.54740592646E+03  0.57091900428E+03  0.00000000000E+00 0. -1.
          1    1    6    6  503    0 -0.59782140761E+03  0.30278219212E+03 -0.14220336955E+03  0.68504692509E+03  0.00000000000E+00 0. -1.
         -1    1    6    6    0  503 -0.15684580608E+03  0.31647935233E+02 -0.52175214764E+02  0.16829869793E+03  0.00000000000E+00 0.  1.
<mgrwt>
<rscale>  0 0.31406481E+04</rscale>
<asrwt>0</asrwt>
<pdfrwt beam="1">  1        1 0.29387114E+00 0.31406481E+04</pdfrwt>
<pdfrwt beam="2">  1       -2 0.19860716E+00 0.31406481E+04</pdfrwt>
<totfact> 0.34434143E-01</totfact>
</mgrwt>
</event>
<event>
12    5  0.5095719E-008  0.1092940E+04  0.7818608E-02  0.9212101E-01
         -2   -1    0    0    0  501 -0.00000000000E+00  0.00000000000E+00  0.37420881824E+03  0.37420881824E+03  0.00000000000E+00 0.  1.
          1   -1    0    0  501    0  0.00000000000E+00 -0.00000000000E+00 -0.79802840489E+03  0.79802840489E+03  0.00000000000E+00 0. -1.
        -24    2    1    2    0    0 -0.55729449909E+02  0.73997897255E+02  0.81559269119E+02  0.14760778954E+03  0.80961007708E+02 0.  0.
        254    2    1    2    0    0  0.55729449909E+02 -0.73997897255E+02 -0.50537885577E+03  0.10246294336E+04  0.88649660344E+03 0.  0.
         23    2    4    4    0    0  0.25458629815E+02 -0.15806237045E+03  0.22046363904E+03  0.28783614221E+03  0.92809341308E+02 0.  0.
         23    2    4    4    0    0  0.30270820094E+02  0.84064473198E+02 -0.72584249482E+03  0.73679329138E+03  0.89631851109E+02 0.  0.
          3    1    3    3  502    0 -0.44970721599E+01 -0.15978023405E+02  0.13856999517E+01  0.16656561899E+02  0.00000000000E+00 0. -1.
         -4    1    3    3    0  502 -0.51232377749E+02  0.89975920659E+02  0.80173569167E+02  0.13095122764E+03  0.00000000000E+00 0.  1.
         13    1    5    5    0    0 -0.15554260032E+02 -0.13132904038E+03  0.18489767336E+03  0.22732444098E+03  0.00000000000E+00 0. -1.
        -13    1    5    5    0    0  0.41012889847E+02 -0.26733330072E+02  0.35565965686E+02  0.60511701228E+02  0.00000000000E+00 0.  1.
          4    1    6    6  503    0  0.52602087753E+01  0.91160672252E+02 -0.65493926553E+03  0.66127405779E+03  0.00000000000E+00 0. -1.
         -4    1    6    6    0  503  0.25010611319E+02 -0.70961990536E+01 -0.70903229283E+02  0.75519233591E+02  0.00000000000E+00 0.  1.
<mgrwt>
<rscale>  0 0.10929396E+04</rscale>
<asrwt>0</asrwt>
<pdfrwt beam="1">  1        1 0.12277360E+00 0.10929396E+04</pdfrwt>
<pdfrwt beam="2">  1       -2 0.57570588E-01 0.10929396E+04</pdfrwt>
<totfact> 0.54797145E+01</totfact>
</mgrwt>
</event>
<event>
12    5  0.5095719E-008  0.2039821E+04  0.7818608E-02  0.8588226E-01
          1   -1    0    0  501    0  0.00000000000E+00  0.00000000000E+00  0.12120732434E+04  0.12120732434E+04  0.00000000000E+00 0. -1.
         -2   -1    0    0    0  501 -0.00000000000E+00 -0.00000000000E+00 -0.85821332566E+03  0.85821332566E+03  0.00000000000E+00 0.  1.
        -24    2    1    2    0    0  0.70677036801E+02  0.14854237293E+03 -0.66861606084E+03  0.69310565291E+03  0.79296464013E+02 0.  0.
        254    2    1    2    0    0 -0.70677036801E+02 -0.14854237293E+03  0.10224759786E+04  0.13771809162E+04  0.90780508314E+03 0.  0.
         23    2    4    4    0    0  0.15263494117E+03  0.32558896867E+03  0.56272194123E+03  0.67404600335E+03  0.91522837097E+02 0.  0.
         23    2    4    4    0    0 -0.22331197797E+03 -0.47413134160E+03  0.45975403735E+03  0.70313491280E+03  0.91412045974E+02 0.  0.
          3    1    3    3  502    0  0.47822405180E+01  0.15936564990E+01  0.32546292851E+00  0.50512861260E+01  0.00000000000E+00 0. -1.
         -4    1    3    3    0  502  0.65894796283E+02  0.14694871644E+03 -0.66894152376E+03  0.68805436679E+03  0.00000000000E+00 0.  1.
         13    1    5    5    0    0  0.83880429456E+02  0.10709756076E+03  0.27022960687E+03  0.30253901301E+03  0.00000000000E+00 0. -1.
        -13    1    5    5    0    0  0.68754511711E+02  0.21849140791E+03  0.29249233436E+03  0.37150699034E+03  0.00000000000E+00 0.  1.
          4    1    6    6  503    0 -0.43541681525E+02 -0.18751161674E+03  0.18940084006E+03  0.27005399952E+03  0.00000000000E+00 0.  1.
         -4    1    6    6    0  503 -0.17977029644E+03 -0.28661972486E+03  0.27035319729E+03  0.43308091328E+03  0.00000000000E+00 0. -1.
<mgrwt>
<rscale>  0 0.20398210E+04</rscale>
<asrwt>0</asrwt>
<pdfrwt beam="1">  1        1 0.18647281E+00 0.20398210E+04</pdfrwt>
<pdfrwt beam="2">  1       -2 0.13203282E+00 0.20398210E+04</pdfrwt>
<totfact> 0.35454532E+00</totfact>
</mgrwt>
</event>
<event>
12    5  0.5095719E-008  0.1966258E+04  0.7818608E-02  0.8622561E-01
          1   -1    0    0  501    0  0.00000000000E+00  0.00000000000E+00  0.12198201479E+04  0.12198201479E+04  0.00000000000E+00 0. -1.
         -2   -1    0    0    0  501 -0.00000000000E+00 -0.00000000000E+00 -0.79236452798E+03  0.79236452798E+03  0.00000000000E+00 0.  1.
        -24    2    1    2    0    0  0.49220877603E+03 -0.58985380020E+03  0.79359829130E+02  0.77634024587E+03  0.78798541022E+02 0.  0.
        254    2    1    2    0    0 -0.49220877603E+03  0.58985380020E+03  0.34809579083E+03  0.12358444301E+04  0.90329607047E+03 0.  0.
         23    2    4    4    0    0 -0.59509724174E+03  0.58707304894E+02  0.39510446032E+02  0.60634638251E+03  0.92236573362E+02 0.  0.
         23    2    4    4    0    0  0.10288846571E+03  0.53114649530E+03  0.30858534480E+03  0.62949804755E+03  0.91324919937E+02 0.  0.
          3    1    3    3  502    0  0.18622938534E+03 -0.26637496917E+03  0.60172775791E+01  0.32507416968E+03  0.00000000000E+00 0. -1.
         -2    1    3    3    0  502  0.30597939068E+03 -0.32347883103E+03  0.73342551551E+02  0.45126607618E+03  0.00000000000E+00 0.  1.
         13    1    5    5    0    0 -0.28411034928E+03  0.70047519181E+02 -0.28787169921E+00  0.29261822975E+03  0.00000000000E+00 0.  1.
        -13    1    5    5    0    0 -0.31098689246E+03 -0.11340214287E+02  0.39798317731E+02  0.31372815276E+03  0.00000000000E+00 0. -1.
          1    1    6    6  503    0 -0.69434832230E+01  0.17808755314E+03  0.11542630635E+03  0.21233610324E+03  0.00000000000E+00 0. -1.
         -1    1    6    6    0  503  0.10983194893E+03  0.35305894217E+03  0.19315903845E+03  0.41716194432E+03  0.00000000000E+00 0.  1.
<mgrwt>
<rscale>  0 0.19662576E+04</rscale>
<asrwt>0</asrwt>
<pdfrwt beam="1">  1        1 0.18766464E+00 0.19662576E+04</pdfrwt>
<pdfrwt beam="2">  1       -2 0.12190223E+00 0.19662576E+04</pdfrwt>
<totfact> 0.43067853E+00</totfact>
</mgrwt>
</event>
<event>
12    5  0.5095719E-008  0.2382954E+04  0.7818608E-02  0.8445913E-01
         -2   -1    0    0    0  501 -0.00000000000E+00  0.00000000000E+00  0.91423954014E+03  0.91423954014E+03  0.00000000000E+00 0.  1.
          1   -1    0    0  501    0  0.00000000000E+00 -0.00000000000E+00 -0.15527848747E+04  0.15527848747E+04  0.00000000000E+00 0. -1.
        -24    2    1    2    0    0  0.15673554374E+03  0.66565399058E+03 -0.10600792194E+04  0.12640494669E+04  0.79948967181E+02 0.  0.
        254    2    1    2    0    0 -0.15673554374E+03 -0.66565399058E+03  0.42153388483E+03  0.12029749480E+04  0.89543098209E+03 0.  0.
         23    2    4    4    0    0  0.74983080875E+02 -0.59251611930E+03  0.62836798522E+03  0.87151841173E+03  0.89443854311E+02 0.  0.
         23    2    4    4    0    0 -0.23171862461E+03 -0.73137871277E+02 -0.20683410040E+03  0.33145653630E+03  0.89668395567E+02 0.  0.
          3    1    3    3  502    0  0.10812503279E+02  0.18427285224E+03 -0.25638348581E+03  0.31592069590E+03  0.00000000000E+00 0. -1.
         -4    1    3    3    0  502  0.14592304046E+03  0.48138113833E+03 -0.80369573362E+03  0.94812877096E+03  0.00000000000E+00 0.  1.
         13    1    5    5    0    0  0.23562529658E+02 -0.47539867646E+03  0.49747944303E+03  0.68850917977E+03  0.00000000000E+00 0.  1.
        -13    1    5    5    0    0  0.51420551217E+02 -0.11711744284E+03  0.13088854220E+03  0.18300923196E+03  0.00000000000E+00 0. -1.
          1    1    6    6  503    0 -0.58585402277E+02 -0.57332380271E+02 -0.42974479803E+02  0.92552996180E+02  0.00000000000E+00 0. -1.
         -1    1    6    6    0  503 -0.17313322234E+03 -0.15805491006E+02 -0.16385962059E+03  0.23890354012E+03  0.00000000000E+00 0.  1.
<mgrwt>
<rscale>  0 0.23829539E+04</rscale>
<asrwt>0</asrwt>
<pdfrwt beam="1">  1        1 0.23888998E+00 0.23829539E+04</pdfrwt>
<pdfrwt beam="2">  1       -2 0.14065224E+00 0.23829539E+04</pdfrwt>
<totfact> 0.16817472E+00</totfact>
</mgrwt>
</event>
<event>
12    5  0.5095719E-008  0.1278838E+04  0.7818608E-02  0.9046517E-01
          1   -1    0    0  501    0  0.00000000000E+00  0.00000000000E+00  0.10911993596E+04  0.10911993596E+04  0.00000000000E+00 0. -1.
         -2   -1    0    0    0  501 -0.00000000000E+00 -0.00000000000E+00 -0.37468572495E+03  0.37468572495E+03  0.00000000000E+00 0.  1.
        -24    2    1    2    0    0 -0.14912562044E+03  0.11865780719E+02  0.50355328740E+03  0.53130244211E+03  0.79606057045E+02 0.  0.
        254    2    1    2    0    0  0.14912562044E+03 -0.11865780719E+02  0.21296034729E+03  0.93458264247E+03  0.89761537346E+03 0.  0.
         23    2    4    4    0    0  0.24307900790E+03  0.39756874054E+02  0.52824744619E+03  0.58982941775E+03  0.90473004405E+02 0.  0.
         23    2    4    4    0    0 -0.93953387457E+02 -0.51622654774E+02 -0.31528709890E+03  0.34475322472E+03  0.89200301131E+02 0.  0.
          1    1    3    3  502    0 -0.15642546079E+03  0.43060659603E+01  0.44257610621E+03  0.46942632731E+03  0.00000000000E+00 0. -1.
         -2    1    3    3    0  502  0.72998403519E+01  0.75597147591E+01  0.60977181196E+02  0.61876114803E+02  0.00000000000E+00 0.  1.
         13    1    5    5    0    0  0.13710951968E+03  0.65571110644E+02  0.27763688937E+03  0.31651355939E+03  0.00000000000E+00 0. -1.
        -13    1    5    5    0    0  0.10596948821E+03 -0.25814236590E+02  0.25061055682E+03  0.27331585836E+03  0.00000000000E+00 0.  1.
          2    1    6    6  503    0  0.14153796958E+02 -0.18016062172E+02 -0.29444419217E+02  0.37307938666E+02  0.00000000000E+00 0.  1.
         -2    1    6    6    0  503 -0.10810718442E+03 -0.33606592602E+02 -0.28584267968E+03  0.30744528605E+03  0.00000000000E+00 0. -1.
<mgrwt>
<rscale>  0 0.12788383E+04</rscale>
<asrwt>0</asrwt>
<pdfrwt beam="1">  1        1 0.16787682E+00 0.12788383E+04</pdfrwt>
<pdfrwt beam="2">  1       -2 0.57643958E-01 0.12788383E+04</pdfrwt>
<totfact> 0.31307311E+01</totfact>
</mgrwt>
</event>
<event>
12    5  0.5095719E-008  0.2274585E+04  0.7818608E-02  0.8488010E-01
         -2   -1    0    0    0  501 -0.00000000000E+00  0.00000000000E+00  0.48023846707E+03  0.48023846707E+03  0.00000000000E+00 0.  1.
          1   -1    0    0  501    0  0.00000000000E+00 -0.00000000000E+00 -0.26933169631E+04  0.26933169631E+04  0.00000000000E+00 0. -1.
        -24    2    1    2    0    0 -0.40994836394E+03  0.79635704363E+03 -0.14359563323E+04  0.16943705946E+04  0.81724669058E+02 0.  0.
        254    2    1    2    0    0  0.40994836394E+03 -0.79635704363E+03 -0.77712216374E+03  0.14791848356E+04  0.88420965748E+03 0.  0.
         23    2    4    4    0    0 -0.54632036285E+02 -0.36312746963E+03 -0.74635647172E+03  0.83682909179E+03  0.91589996236E+02 0.  0.
         23    2    4    4    0    0  0.46458040023E+03 -0.43322957400E+03 -0.30765692021E+02  0.64235574378E+03  0.90285999473E+02 0.  0.
          1    1    3    3  502    0 -0.26794181719E+03  0.57884465640E+03 -0.10676067028E+04  0.12436390254E+04  0.00000000000E+00 0. -1.
         -2    1    3    3    0  502 -0.14200654675E+03  0.21751238723E+03 -0.36834962955E+03  0.45073156924E+03  0.00000000000E+00 0.  1.
         13    1    5    5    0    0  0.30556081922E+01 -0.23530060782E+03 -0.51627116591E+03  0.56737256678E+03  0.00000000000E+00 0. -1.
        -13    1    5    5    0    0 -0.57687644477E+02 -0.12782686181E+03 -0.23008530581E+03  0.26945652502E+03  0.00000000000E+00 0.  1.
          2    1    6    6  503    0  0.11051515650E+02 -0.39035145866E+02 -0.53546575820E+01  0.40921277702E+02  0.00000000000E+00 0. -1.
         -2    1    6    6    0  503  0.45352888458E+03 -0.39419442814E+03 -0.25411034439E+02  0.60143446608E+03  0.00000000000E+00 0.  1.
<mgrwt>
<rscale>  0 0.22745852E+04</rscale>
<asrwt>0</asrwt>
<pdfrwt beam="1">  1        1 0.41435645E+00 0.22745852E+04</pdfrwt>
<pdfrwt beam="2">  1       -2 0.73882841E-01 0.22745852E+04</pdfrwt>
<totfact> 0.13041028E+00</totfact>
</mgrwt>
</event>
<event>
12    5  0.5095719E-008  0.2103085E+04  0.7818608E-02  0.8559886E-01
         -2   -1    0    0    0  501 -0.00000000000E+00  0.00000000000E+00  0.52822243044E+03  0.52822243044E+03  0.00000000000E+00 0.  1.
          1   -1    0    0  501    0  0.00000000000E+00 -0.00000000000E+00 -0.20933256035E+04  0.20933256035E+04  0.00000000000E+00 0. -1.
        -24    2    1    2    0    0 -0.37622622486E+03 -0.18735299812E+03 -0.15744632510E+04  0.16315136819E+04  0.79088855394E+02 0.  0.
        254    2    1    2    0    0  0.37622622486E+03  0.18735299812E+03  0.93600779589E+01  0.99003435210E+03  0.89634429161E+03 0.  0.
         23    2    4    4    0    0  0.55323520027E+03  0.20379117382E+03  0.27541316049E+03  0.65731747163E+03  0.92810668557E+02 0.  0.
         23    2    4    4    0    0 -0.17700897541E+03 -0.16438175697E+02 -0.26605308253E+03  0.33271688047E+03  0.91180528774E+02 0.  0.
          1    1    3    3  502    0 -0.36009035748E+03 -0.15667957935E+03 -0.14287791881E+04  0.14817636534E+04  0.00000000000E+00 0. -1.
         -2    1    3    3    0  502 -0.16135867387E+02 -0.30673418774E+02 -0.14568406289E+03  0.14975002843E+03  0.00000000000E+00 0.  1.
         13    1    5    5    0    0  0.47551418480E+03  0.20286492098E+03  0.21990922873E+03  0.56180778296E+03  0.00000000000E+00 0.  1.
        -13    1    5    5    0    0  0.77721015473E+02  0.92625283906E+00  0.55503931763E+02  0.95509688679E+02  0.00000000000E+00 0. -1.
          2    1    6    6  503    0 -0.33154760809E+02  0.33016768938E+02 -0.49935207464E+02  0.68431499617E+02  0.00000000000E+00 0. -1.
         -2    1    6    6    0  503 -0.14385421460E+03 -0.49454944635E+02 -0.21611787507E+03  0.26428538085E+03  0.00000000000E+00 0.  1.
<mgrwt>
<rscale>  0 0.21030849E+04</rscale>
<asrwt>0</asrwt>
<pdfrwt beam="1">  1        1 0.32205009E+00 0.21030849E+04</pdfrwt>
<pdfrwt beam="2">  1       -2 0.81264989E-01 0.21030849E+04</pdfrwt>
<totfact> 0.27748973E+00</totfact>
</mgrwt>
</event>
<event>
12    5  0.5095719E-008  0.1281771E+04  0.7818608E-02  0.9044147E-01
          1   -1    0    0  501    0  0.00000000000E+00  0.00000000000E+00  0.56813025695E+03  0.56813025695E+03  0.00000000000E+00 0. -1.
         -2   -1    0    0    0  501 -0.00000000000E+00 -0.00000000000E+00 -0.72295827594E+03  0.72295827594E+03  0.00000000000E+00 0.  1.
        -24    2    1    2    0    0 -0.26038012838E+03 -0.97534752362E+02 -0.18374907605E+03  0.34214902564E+03  0.77404093041E+02 0.  0.
        254    2    1    2    0    0  0.26038012838E+03  0.97534752362E+02  0.28921057065E+02  0.94893950725E+03  0.90682904768E+03 0.  0.
         23    2    4    4    0    0 -0.10975005156E+03 -0.23169896238E+02  0.38720428466E+03  0.41330191422E+03  0.91155890284E+02 0.  0.
         23    2    4    4    0    0  0.37013017994E+03  0.12070464860E+03 -0.35828322759E+03  0.53563759303E+03  0.83515253699E+02 0.  0.
          1    1    3    3  502    0 -0.34170207082E+02 -0.33254296535E+02 -0.74999431100E+01  0.48266970453E+02  0.00000000000E+00 0. -1.
         -2    1    3    3    0  502 -0.22620992130E+03 -0.64280455827E+02 -0.17624913294E+03  0.29388205519E+03  0.00000000000E+00 0.  1.
         13    1    5    5    0    0 -0.25024356056E+02 -0.20652832843E+02  0.24949938405E+03  0.25160027930E+03  0.00000000000E+00 0. -1.
        -13    1    5    5    0    0 -0.84725695500E+02 -0.25170633944E+01  0.13770490061E+03  0.16170163492E+03  0.00000000000E+00 0.  1.
          3    1    6    6  503    0  0.29245464933E+03  0.85181586815E+02 -0.32075004829E+03  0.44234174359E+03  0.00000000000E+00 0. -1.
         -3    1    6    6    0  503  0.77675530610E+02  0.35523061785E+02 -0.37533179302E+02  0.93295849440E+02  0.00000000000E+00 0.  1.
<mgrwt>
<rscale>  0 0.12817714E+04</rscale>
<asrwt>0</asrwt>
<pdfrwt beam="1">  1        1 0.87404655E-01 0.12817714E+04</pdfrwt>
<pdfrwt beam="2">  1       -2 0.11122435E+00 0.12817714E+04</pdfrwt>
<totfact> 0.20393497E+01</totfact>
</mgrwt>
</event>
<event>
12    5  0.5095719E-008  0.2024840E+04  0.7818608E-02  0.8595095E-01
         -4   -1    0    0    0  501 -0.00000000000E+00  0.00000000000E+00  0.71622782750E+03  0.71622782750E+03  0.00000000000E+00 0.  1.
          1   -1    0    0  501    0  0.00000000000E+00 -0.00000000000E+00 -0.14311003283E+04  0.14311003283E+04  0.00000000000E+00 0. -1.
        -24    2    1    2    0    0  0.13328260532E+02 -0.50231556898E+02 -0.11341461907E+04  0.11382115276E+04  0.80852012668E+02 0.  0.
        254    2    1    2    0    0 -0.13328260532E+02  0.50231556898E+02  0.41927368985E+03  0.10091166282E+04  0.91641971305E+03 0.  0.
         23    2    4    4    0    0 -0.11733070465E+03  0.36886403562E+03  0.51324717812E+03  0.64860783731E+03  0.86268706673E+02 0.  0.
         23    2    4    4    0    0  0.10400244412E+03 -0.31863247872E+03 -0.93973488271E+02  0.36050879088E+03  0.93767835262E+02 0.  0.
          3    1    3    3  502    0  0.15722068815E+02 -0.49394862187E+01 -0.87303187721E+03  0.87318740290E+03  0.00000000000E+00 0. -1.
         -4    1    3    3    0  502 -0.23938082832E+01 -0.45292070680E+02 -0.26111431348E+03  0.26502412473E+03  0.00000000000E+00 0.  1.
         13    1    5    5    0    0 -0.88122094412E+02  0.32550667435E+03  0.48012636383E+03  0.58672090794E+03  0.00000000000E+00 0. -1.
        -13    1    5    5    0    0 -0.29208610240E+02  0.43357361269E+02  0.33120814296E+02  0.61886929380E+02  0.00000000000E+00 0.  1.
          4    1    6    6  503    0  0.88824614034E+02 -0.31474653953E+03 -0.10242910638E+03  0.34270529328E+03  0.00000000000E+00 0. -1.
         -4    1    6    6    0  503  0.15177830086E+02 -0.38859391838E+01  0.84556181062E+01  0.17803497606E+02  0.00000000000E+00 0.  1.
<mgrwt>
<rscale>  0 0.20248396E+04</rscale>
<asrwt>0</asrwt>
<pdfrwt beam="1">  1        1 0.22016928E+00 0.20248396E+04</pdfrwt>
<pdfrwt beam="2">  1       -4 0.11018890E+00 0.20248396E+04</pdfrwt>
<totfact> 0.21585188E+00</totfact>
</mgrwt>
</event>
<event>
12    5  0.5095719E-008  0.1107557E+04  0.7818608E-02  0.9197857E-01
          1   -1    0    0  501    0  0.00000000000E+00  0.00000000000E+00  0.17984947641E+04  0.17984947641E+04  0.00000000000E+00 0. -1.
         -2   -1    0    0    0  501 -0.00000000000E+00 -0.00000000000E+00 -0.17051524699E+03  0.17051524699E+03  0.00000000000E+00 0.  1.
        -24    2    1    2    0    0 -0.15782848439E+03  0.60812895053E+02  0.17245341470E+03  0.25424981524E+03  0.79339458143E+02 0.  0.
        254    2    1    2    0    0  0.15782848439E+03 -0.60812895053E+02  0.14555261024E+04  0.17147601959E+04  0.89063923998E+03 0.  0.
         23    2    4    4    0    0  0.50604914719E+03 -0.13282075888E+02  0.63196415632E+03  0.81469050347E+03  0.89887533452E+02 0.  0.
         23    2    4    4    0    0 -0.34822066280E+03 -0.47530819165E+02  0.82356194611E+03  0.90006969239E+03  0.91402206255E+02 0.  0.
          1    1    3    3  502    0 -0.25527422887E+02  0.18376309928E+02  0.83615606139E+02  0.89335926009E+02  0.00000000000E+00 0. -1.
         -2    1    3    3    0  502 -0.13230106150E+03  0.42436585125E+02  0.88837808565E+02  0.16491388923E+03  0.00000000000E+00 0.  1.
         13    1    5    5    0    0  0.13816515184E+03 -0.15752107479E+02  0.11652405426E+03  0.18142655069E+03  0.00000000000E+00 0. -1.
        -13    1    5    5    0    0  0.36788399535E+03  0.24700315917E+01  0.51544010206E+03  0.63326395279E+03  0.00000000000E+00 0.  1.
          1    1    6    6  503    0 -0.46769993032E+02 -0.38879475638E+02  0.16092582227E+03  0.17203536307E+03  0.00000000000E+00 0. -1.
         -1    1    6    6    0  503 -0.30145066977E+03 -0.86513435273E+01  0.66263612384E+03  0.72803432932E+03  0.00000000000E+00 0.  1.
<mgrwt>
<rscale>  0 0.11075573E+04</rscale>
<asrwt>0</asrwt>
<pdfrwt beam="1">  1        1 0.27669149E+00 0.11075573E+04</pdfrwt>
<pdfrwt beam="2">  1       -2 0.26233116E-01 0.11075573E+04</pdfrwt>
<totfact> 0.46973752E+01</totfact>
</mgrwt>
</event>
<event>
12    5  0.5095719E-008  0.1318666E+04  0.7818608E-02  0.9014892E-01
          1   -1    0    0  501    0  0.00000000000E+00  0.00000000000E+00  0.26896845949E+03  0.26896845949E+03  0.00000000000E+00 0. -1.
         -2   -1    0    0    0  501 -0.00000000000E+00 -0.00000000000E+00 -0.16162495443E+04  0.16162495443E+04  0.00000000000E+00 0.  1.
        -24    2    1    2    0    0 -0.76497198448E+02  0.23592037079E+03 -0.74026034209E+03  0.78489842403E+03  0.81055038352E+02 0.  0.
        254    2    1    2    0    0  0.76497198448E+02 -0.23592037079E+03 -0.60702074269E+03  0.11003195797E+04  0.88358290655E+03 0.  0.
         23    2    4    4    0    0  0.21782804798E+03  0.19620429573E+03  0.34362777387E+02  0.30903374931E+03  0.91519798930E+02 0.  0.
         23    2    4    4    0    0 -0.14133084953E+03 -0.43212466652E+03 -0.64138352008E+03  0.79128583042E+03  0.89745802990E+02 0.  0.
          1    1    3    3  502    0 -0.21224210217E+02  0.10300978445E+03 -0.20221539973E+03  0.22793102176E+03  0.00000000000E+00 0. -1.
         -4    1    3    3    0  502 -0.55272988231E+02  0.13291058634E+03 -0.53804494236E+03  0.55696740227E+03  0.00000000000E+00 0.  1.
         13    1    5    5    0    0  0.39347573678E+02  0.15835055722E+01 -0.11471735446E+02  0.41016335263E+02  0.00000000000E+00 0.  1.
        -13    1    5    5    0    0  0.17848047430E+03  0.19462079015E+03  0.45834512833E+02  0.26801741405E+03  0.00000000000E+00 0. -1.
          1    1    6    6  503    0  0.61942295732E+01 -0.70225246574E+02 -0.12730463650E+03  0.14552121567E+03  0.00000000000E+00 0. -1.
         -1    1    6    6    0  503 -0.14752507910E+03 -0.36189941994E+03 -0.51407888358E+03  0.64576461475E+03  0.00000000000E+00 0.  1.
<mgrwt>
<rscale>  0 0.13186662E+04</rscale>
<asrwt>0</asrwt>
<pdfrwt beam="1">  1        1 0.41379762E-01 0.13186662E+04</pdfrwt>
<pdfrwt beam="2">  1       -2 0.24865378E+00 0.13186662E+04</pdfrwt>
<totfact> 0.56786495E+00</totfact>
</mgrwt>
</event>
<event>
12    5  0.5095719E-008  0.1413546E+04  0.7818608E-02  0.8944071E-01
         -2   -1    0    0    0  501 -0.00000000000E+00  0.00000000000E+00  0.46177305945E+03  0.46177305945E+03  0.00000000000E+00 0.  1.
          1   -1    0    0  501    0  0.00000000000E+00 -0.00000000000E+00 -0.10817607094E+04  0.10817607094E+04  0.00000000000E+00 0. -1.
        -24    2    1    2    0    0 -0.29493601841E+03 -0.14038054163E+01 -0.44932546044E+03  0.54305756131E+03  0.77646119533E+02 0.  0.
        254    2    1    2    0    0  0.29493601841E+03  0.14038054163E+01 -0.17066218954E+03  0.10004762076E+04  0.94065819154E+03 0.  0.
         23    2    4    4    0    0 -0.22213739911E+03  0.50135913965E+02  0.23116200770E+03  0.33710920246E+03  0.91367973715E+02 0.  0.
         23    2    4    4    0    0  0.51707341752E+03 -0.48732108549E+02 -0.40182419724E+03  0.66336700510E+03  0.94092297522E+02 0.  0.
          1    1    3    3  502    0 -0.20454736645E+03 -0.35817910881E+02 -0.32221967112E+03  0.38333805488E+03  0.00000000000E+00 0. -1.
         -2    1    3    3    0  502 -0.90388651957E+02  0.34414105465E+02 -0.12710578931E+03  0.15971950643E+03  0.00000000000E+00 0.  1.
         13    1    5    5    0    0 -0.21119065191E+03  0.18631082346E+02  0.19884355276E+03  0.29066710712E+03  0.00000000000E+00 0. -1.
        -13    1    5    5    0    0 -0.10946747200E+02  0.31504831619E+02  0.32318454940E+02  0.46442095337E+02  0.00000000000E+00 0.  1.
          1    1    6    6  503    0  0.28022650531E+03  0.20576146182E+02 -0.21887116921E+03  0.35616690018E+03  0.00000000000E+00 0. -1.
         -1    1    6    6    0  503  0.23684691221E+03 -0.69308254731E+02 -0.18295302803E+03  0.30720010492E+03  0.00000000000E+00 0.  1.
<mgrwt>
<rscale>  0 0.14135458E+04</rscale>
<asrwt>0</asrwt>
<pdfrwt beam="1">  1        1 0.16642472E+00 0.14135458E+04</pdfrwt>
<pdfrwt beam="2">  1       -2 0.71042010E-01 0.14135458E+04</pdfrwt>
<totfact> 0.20118217E+01</totfact>
</mgrwt>
</event>
<event>
12    5  0.5095719E-008  0.1504565E+04  0.7818608E-02  0.8881423E-01
          1   -1    0    0  501    0  0.00000000000E+00  0.00000000000E+00  0.32166444227E+03  0.32166444227E+03  0.00000000000E+00 0. -1.
         -2   -1    0    0    0  501 -0.00000000000E+00 -0.00000000000E+00 -0.17593757163E+04  0.17593757163E+04  0.00000000000E+00 0.  1.
        -24    2    1    2    0    0  0.48093825545E+03  0.83744700133E+01 -0.43321116645E+03  0.65224775140E+03  0.79896665563E+02 0.  0.
        254    2    1    2    0    0 -0.48093825545E+03 -0.83744700133E+01 -0.10045001075E+04  0.14287924071E+04  0.89501706090E+03 0.  0.
         23    2    4    4    0    0 -0.36731479259E+03 -0.22410499682E+03 -0.53902984513E+02  0.44340576821E+03  0.92519928066E+02 0.  0.
         23    2    4    4    0    0 -0.11362346286E+03  0.21573052681E+03 -0.95059712303E+03  0.98538663891E+03  0.88893117455E+02 0.  0.
          1    1    3    3  502    0  0.16167845491E+02  0.83808669789E+01 -0.38097073024E+02  0.42225882254E+02  0.00000000000E+00 0. -1.
         -2    1    3    3    0  502  0.46477040996E+03 -0.63969655831E-02 -0.39511409343E+03  0.61002186915E+03  0.00000000000E+00 0.  1.
         13    1    5    5    0    0 -0.11448280355E+03 -0.98927440281E+02  0.17705776700E+02  0.15233661831E+03  0.00000000000E+00 0. -1.
        -13    1    5    5    0    0 -0.25283198904E+03 -0.12517755654E+03 -0.71608761213E+02  0.29106914990E+03  0.00000000000E+00 0.  1.
          3    1    6    6  503    0 -0.10885222125E+03  0.12362846784E+03 -0.54025273969E+03  0.56480600818E+03  0.00000000000E+00 0. -1.
         -3    1    6    6    0  503 -0.47712416109E+01  0.92102058964E+02 -0.41034438334E+03  0.42058063074E+03  0.00000000000E+00 0.  1.
<mgrwt>
<rscale>  0 0.15045645E+04</rscale>
<asrwt>0</asrwt>
<pdfrwt beam="1">  1        1 0.49486837E-01 0.15045645E+04</pdfrwt>
<pdfrwt beam="2">  1       -2 0.27067319E+00 0.15045645E+04</pdfrwt>
<totfact> 0.32510201E+00</totfact>
</mgrwt>
</event>
<event>
12    5  0.5095719E-008  0.1702095E+04  0.7818608E-02  0.8760170E-01
         -2   -1    0    0    0  501 -0.00000000000E+00  0.00000000000E+00  0.29007824054E+03  0.29007824054E+03  0.00000000000E+00 0.  1.
          1   -1    0    0  501    0  0.00000000000E+00 -0.00000000000E+00 -0.24968506159E+04  0.24968506159E+04  0.00000000000E+00 0. -1.
        -24    2    1    2    0    0 -0.29265104977E+03  0.49614035426E+01 -0.17355020002E+04  0.17617490098E+04  0.78250421134E+02 0.  0.
        254    2    1    2    0    0  0.29265104977E+03 -0.49614035426E+01 -0.47127037513E+03  0.10251798466E+04  0.86210712730E+03 0.  0.
         23    2    4    4    0    0  0.51870199463E+02  0.28255263062E+03  0.11496455490E+03  0.32330413924E+03  0.93713451038E+02 0.  0.
         23    2    4    4    0    0  0.24078085031E+03 -0.28751403416E+03 -0.58623493003E+03  0.70187570735E+03  0.91205140595E+02 0.  0.
          3    1    3    3  502    0 -0.13981718498E+03  0.41466395584E+02 -0.83153335739E+03  0.84422510720E+03  0.00000000000E+00 0. -1.
         -4    1    3    3    0  502 -0.15283386480E+03 -0.36504992041E+02 -0.90396864282E+03  0.91752390262E+03  0.00000000000E+00 0.  1.
         13    1    5    5    0    0  0.15670992262E+02 -0.11764924669E+01  0.22842018505E+01  0.15880230197E+02  0.00000000000E+00 0. -1.
        -13    1    5    5    0    0  0.36199207201E+02  0.28372912309E+03  0.11268035305E+03  0.30742390905E+03  0.00000000000E+00 0.  1.
          4    1    6    6  503    0  0.21785472526E+03 -0.20510822001E+03 -0.43187213765E+03  0.52539852162E+03  0.00000000000E+00 0.  1.
         -4    1    6    6    0  503  0.22926125047E+02 -0.82405814156E+02 -0.15436279238E+03  0.17647718574E+03  0.00000000000E+00 0. -1.
<mgrwt>
<rscale>  0 0.17020952E+04</rscale>
<asrwt>0</asrwt>
<pdfrwt beam="1">  1        1 0.38413086E+00 0.17020952E+04</pdfrwt>
<pdfrwt beam="2">  1       -2 0.44627423E-01 0.17020952E+04</pdfrwt>
<totfact> 0.54254776E+00</totfact>
</mgrwt>
</event>
<event>
12    5  0.5095719E-008  0.2891629E+04  0.7818608E-02  0.8275372E-01
          1   -1    0    0  501    0  0.00000000000E+00  0.00000000000E+00  0.16390877503E+04  0.16390877503E+04  0.00000000000E+00 0. -1.
         -2   -1    0    0    0  501 -0.00000000000E+00 -0.00000000000E+00 -0.12753311359E+04  0.12753311359E+04  0.00000000000E+00 0.  1.
        -24    2    1    2    0    0  0.71778430082E+03  0.21487515618E+03 -0.89485188971E+03  0.11697680146E+04  0.78814136826E+02 0.  0.
        254    2    1    2    0    0 -0.71778430082E+03 -0.21487515618E+03  0.12586085042E+04  0.17446508716E+04  0.94780043353E+03 0.  0.
         23    2    4    4    0    0  0.18818890688E+03 -0.77307232603E+02  0.54865031367E+02  0.22905954862E+03  0.89814432370E+02 0.  0.
         23    2    4    4    0    0 -0.90597320770E+03 -0.13756792358E+03  0.12037434728E+04  0.15155913230E+04  0.91139033152E+02 0.  0.
          3    1    3    3  502    0  0.13913573125E+03  0.67227274357E+02 -0.15356835535E+03  0.21785659938E+03  0.00000000000E+00 0. -1.
         -4    1    3    3    0  502  0.57864856957E+03  0.14764788183E+03 -0.74128353436E+03  0.95191141520E+03  0.00000000000E+00 0.  1.
         13    1    5    5    0    0  0.26001747655E+02 -0.48043839355E+02 -0.21469725703E+01  0.54670932608E+02  0.00000000000E+00 0.  1.
        -13    1    5    5    0    0  0.16218715922E+03 -0.29263393248E+02  0.57012003937E+02  0.17438861601E+03  0.00000000000E+00 0. -1.
          4    1    6    6  503    0 -0.90245079353E+03 -0.14193252508E+03  0.12019207090E+04  0.15096938985E+04  0.00000000000E+00 0. -1.
         -4    1    6    6    0  503 -0.35224141628E+01  0.43646015046E+01  0.18227637939E+01  0.58974244952E+01  0.00000000000E+00 0.  1.
<mgrwt>
<rscale>  0 0.28916291E+04</rscale>
<asrwt>0</asrwt>
<pdfrwt beam="1">  1        1 0.25216735E+00 0.28916291E+04</pdfrwt>
<pdfrwt beam="2">  1       -2 0.19620479E+00 0.28916291E+04</pdfrwt>
<totfact> 0.55778762E-01</totfact>
</mgrwt>
</event>
<event>
12    5  0.5095719E-008  0.1209615E+04  0.7818608E-02  0.9104482E-01
          1   -1    0    0  501    0  0.00000000000E+00  0.00000000000E+00  0.27998777713E+04  0.27998777713E+04  0.00000000000E+00 0. -1.
         -2   -1    0    0    0  501 -0.00000000000E+00 -0.00000000000E+00 -0.13064567016E+03  0.13064567016E+03  0.00000000000E+00 0.  1.
        -24    2    1    2    0    0 -0.56461785078E+02  0.11008496492E+03  0.48182929240E+02  0.15506090441E+03  0.80097794800E+02 0.  0.
        254    2    1    2    0    0  0.56461785078E+02 -0.11008496492E+03  0.26210491719E+04  0.27754625371E+04  0.90442628241E+03 0.  0.
         23    2    4    4    0    0  0.29283514499E+03  0.14180033747E+03  0.38984102709E+03  0.51583981897E+03  0.90856670560E+02 0.  0.
         23    2    4    4    0    0 -0.23637335991E+03 -0.25188530239E+03  0.22312081448E+04  0.22596227181E+04  0.91030059331E+02 0.  0.
          1    1    3    3  502    0 -0.20125302857E+02  0.18717574873E+02 -0.21206650913E+02  0.34714513782E+02  0.00000000000E+00 0. -1.
         -2    1    3    3    0  502 -0.36336482221E+02  0.91367390049E+02  0.69389580152E+02  0.12034639063E+03  0.00000000000E+00 0.  1.
         13    1    5    5    0    0  0.28732983664E+03  0.15152670591E+03  0.36508360205E+03  0.48867659461E+03  0.00000000000E+00 0.  1.
        -13    1    5    5    0    0  0.55053083468E+01 -0.97263684488E+01  0.24757425038E+02  0.27163224361E+02  0.00000000000E+00 0. -1.
          1    1    6    6  503    0 -0.62444169560E+02 -0.12781709789E+03  0.98849011486E+03  0.99867371648E+03  0.00000000000E+00 0. -1.
         -1    1    6    6    0  503 -0.17392919035E+03 -0.12406820450E+03  0.12427180300E+04  0.12609490016E+04  0.00000000000E+00 0.  1.
<mgrwt>
<rscale>  0 0.12096147E+04</rscale>
<asrwt>0</asrwt>
<pdfrwt beam="1">  1        1 0.43075038E+00 0.12096147E+04</pdfrwt>
<pdfrwt beam="2">  1       -2 0.20099336E-01 0.12096147E+04</pdfrwt>
<totfact> 0.15489709E+01</totfact>
</mgrwt>
</event>
<event>
12    5  0.6159272E-008  0.1552189E+04  0.7818608E-02  0.8850471E-01
         -2   -1    0    0    0  501 -0.00000000000E+00  0.00000000000E+00  0.45145878834E+03  0.45145878834E+03  0.00000000000E+00 0.  1.
          1   -1    0    0  501    0  0.00000000000E+00 -0.00000000000E+00 -0.13341693179E+04  0.13341693179E+04  0.00000000000E+00 0. -1.
        -24    2    1    2    0    0  0.97643699190E+02  0.21981878523E+03 -0.81264879626E+03  0.85221174145E+03  0.89510870146E+02 0.  0.
        254    2    1    2    0    0 -0.97643699190E+02 -0.21981878523E+03 -0.70061733276E+02  0.93341636477E+03  0.89916787822E+03 0.  0.
         23    2    4    4    0    0  0.11481460571E+03  0.30681865190E+03  0.55451824647E+02  0.34378870472E+03  0.88293203567E+02 0.  0.
         23    2    4    4    0    0 -0.21245830490E+03 -0.52663743713E+03 -0.12551355792E+03  0.58962766006E+03  0.97064941008E+02 0.  0.
          3    1    3    3  502    0  0.60763652080E+02  0.19513095365E+03 -0.73382433481E+03  0.76175223324E+03  0.00000000000E+00 0. -1.
         -4    1    3    3    0  502  0.36880047110E+02  0.24687831587E+02 -0.78824461443E+02  0.90459508208E+02  0.00000000000E+00 0.  1.
         13    1    5    5    0    0  0.71245116971E+02  0.26488602540E+03  0.66671842888E+02  0.28228639318E+03  0.00000000000E+00 0. -1.
        -13    1    5    5    0    0  0.43569488741E+02  0.41932626503E+02 -0.11220018241E+02  0.61502311534E+02  0.00000000000E+00 0.  1.
          3    1    6    6  503    0 -0.18326702814E+03 -0.50941090739E+03 -0.12550816956E+03  0.55573246873E+03  0.00000000000E+00 0. -1.
         -3    1    6    6    0  503 -0.29191276768E+02 -0.17226529737E+02 -0.53883586750E-02  0.33895191328E+02  0.00000000000E+00 0.  1.
<mgrwt>
<rscale>  0 0.15521887E+04</rscale>
<asrwt>0</asrwt>
<pdfrwt beam="1">  1        1 0.20525681E+00 0.15521887E+04</pdfrwt>
<pdfrwt beam="2">  1       -2 0.69455200E-01 0.15521887E+04</pdfrwt>
<totfact> 0.13665174E+01</totfact>
</mgrwt>
</event>
<event>
12    5  0.5095719E-008  0.1431234E+04  0.7818608E-02  0.8931515E-01
          1   -1    0    0  501    0  0.00000000000E+00  0.00000000000E+00  0.14860984524E+04  0.14860984524E+04  0.00000000000E+00 0. -1.
         -2   -1    0    0    0  501 -0.00000000000E+00 -0.00000000000E+00 -0.34459853225E+03  0.34459853225E+03  0.00000000000E+00 0.  1.
        -24    2    1    2    0    0 -0.20898137768E+03  0.37395971627E+03  0.59435552184E+03  0.73696525362E+03  0.79625455085E+02 0.  0.
        254    2    1    2    0    0  0.20898137768E+03 -0.37395971627E+03  0.54714439828E+03  0.10937317310E+04  0.84460820574E+03 0.  0.
         23    2    4    4    0    0  0.77686490883E+02 -0.61706128150E+03  0.24657387581E+03  0.67521488866E+03  0.91195688779E+02 0.  0.
         23    2    4    4    0    0  0.13129488679E+03  0.24310156523E+03  0.30057052247E+03  0.41851684233E+03  0.92070570854E+02 0.  0.
          1    1    3    3  502    0 -0.21249353512E+03  0.37578153487E+03  0.58759006693E+03  0.72912780167E+03  0.00000000000E+00 0. -1.
         -2    1    3    3    0  502  0.35121574424E+01 -0.18218186026E+01  0.67654549081E+01  0.78374519478E+01  0.00000000000E+00 0.  1.
         13    1    5    5    0    0  0.16491184386E+02 -0.67581876391E+02  0.59519736538E+02  0.91552543473E+02  0.00000000000E+00 0. -1.
        -13    1    5    5    0    0  0.61195306497E+02 -0.54947940511E+03  0.18705413927E+03  0.58366234519E+03  0.00000000000E+00 0.  1.
          4    1    6    6  503    0  0.26980301452E+02  0.10639636258E+03  0.67435163261E+02  0.12882400351E+03  0.00000000000E+00 0. -1.
         -4    1    6    6    0  503  0.10431458534E+03  0.13670520265E+03  0.23313535921E+03  0.28969283881E+03  0.00000000000E+00 0.  1.
<mgrwt>
<rscale>  0 0.14312335E+04</rscale>
<asrwt>0</asrwt>
<pdfrwt beam="1">  1        1 0.22863053E+00 0.14312335E+04</pdfrwt>
<pdfrwt beam="2">  1       -2 0.53015160E-01 0.14312335E+04</pdfrwt>
<totfact> 0.19153288E+01</totfact>
</mgrwt>
</event>
<event>
12    5  0.5095719E-008  0.2762677E+04  0.7818608E-02  0.8314950E-01
         -4   -1    0    0    0  501 -0.00000000000E+00  0.00000000000E+00  0.18363228683E+04  0.18363228683E+04  0.00000000000E+00 0.  1.
          3   -1    0    0  501    0  0.00000000000E+00 -0.00000000000E+00 -0.10390849935E+04  0.10390849935E+04  0.00000000000E+00 0. -1.
        -24    2    1    2    0    0 -0.90076324793E+03  0.63551377874E+03 -0.21543509265E+03  0.11260833537E+04  0.79995303433E+02 0.  0.
        254    2    1    2    0    0  0.90076324793E+03 -0.63551377874E+03  0.10126729675E+04  0.17493245081E+04  0.90519473253E+03 0.  0.
         23    2    4    4    0    0 -0.49336309309E+02 -0.42873106202E+03  0.39265667579E+03  0.59257519044E+03  0.10354562435E+03 0.  0.
         23    2    4    4    0    0  0.95009955724E+03 -0.20678271672E+03  0.62001629166E+03  0.11567493177E+04  0.90556730078E+02 0.  0.
          3    1    3    3  502    0 -0.78704417535E+03  0.54721455771E+03 -0.16020544712E+03  0.97187864027E+03  0.00000000000E+00 0. -1.
         -4    1    3    3    0  502 -0.11371907258E+03  0.88299221030E+02 -0.55229645528E+02  0.15420471344E+03  0.00000000000E+00 0.  1.
         13    1    5    5    0    0 -0.41868943279E+02 -0.51943506801E+02  0.66026004690E+02  0.93864634477E+02  0.00000000000E+00 0. -1.
        -13    1    5    5    0    0 -0.74673660295E+01 -0.37678755522E+03  0.32663067110E+03  0.49871055596E+03  0.00000000000E+00 0.  1.
          3    1    6    6  503    0  0.33300381190E+02 -0.21185479402E+02  0.12573778260E+02  0.41422696975E+02  0.00000000000E+00 0. -1.
         -3    1    6    6    0  503  0.91679917605E+03 -0.18559723732E+03  0.60744251340E+03  0.11153266207E+04  0.00000000000E+00 0.  1.
<mgrwt>
<rscale>  0 0.27626766E+04</rscale>
<asrwt>0</asrwt>
<pdfrwt beam="1">  1        3 0.15985923E+00 0.27626766E+04</pdfrwt>
<pdfrwt beam="2">  1       -4 0.28251121E+00 0.27626766E+04</pdfrwt>
<totfact> 0.21546306E-02</totfact>
</mgrwt>
</event>
<event>
12    5  0.5095719E-008  0.2293984E+04  0.7818608E-02  0.8480297E-01
          1   -1    0    0  501    0  0.00000000000E+00  0.00000000000E+00  0.57179611164E+03  0.57179611164E+03  0.00000000000E+00 0. -1.
         -2   -1    0    0    0  501 -0.00000000000E+00 -0.00000000000E+00 -0.23008037269E+04  0.23008037269E+04  0.00000000000E+00 0.  1.
        -24    2    1    2    0    0  0.92494077532E+03  0.15580803507E+03 -0.10323677721E+04  0.13972499048E+04  0.82051799767E+02 0.  0.
        254    2    1    2    0    0 -0.92494077532E+03 -0.15580803507E+03 -0.69663984315E+03  0.14753499338E+04  0.90086556953E+03 0.  0.
         23    2    4    4    0    0 -0.36232197509E+03 -0.10728834535E+03 -0.80320961362E+03  0.89242902388E+03  0.92173079383E+02 0.  0.
         23    2    4    4    0    0 -0.56261880023E+03 -0.48519689721E+02  0.10656977047E+03  0.58292090989E+03  0.97701568786E+02 0.  0.
          3    1    3    3  502    0  0.40386117624E+03  0.51339369069E+02 -0.39305218989E+03  0.56588833215E+03  0.00000000000E+00 0. -1.
         -4    1    3    3    0  502  0.52107959908E+03  0.10446866600E+03 -0.63931558221E+03  0.83136157261E+03  0.00000000000E+00 0.  1.
         13    1    5    5    0    0 -0.25216617288E+03 -0.39665185067E+02 -0.46670590765E+03  0.53195442463E+03  0.00000000000E+00 0. -1.
        -13    1    5    5    0    0 -0.11015580221E+03 -0.67623160285E+02 -0.33650370598E+03  0.36047459925E+03  0.00000000000E+00 0.  1.
          1    1    6    6  503    0 -0.39781124850E+03 -0.61195084652E+01  0.10974534643E+03  0.41271694765E+03  0.00000000000E+00 0. -1.
         -1    1    6    6    0  503 -0.16480755173E+03 -0.42400181256E+02 -0.31755759576E+01  0.17020396223E+03  0.00000000000E+00 0.  1.
<mgrwt>
<rscale>  0 0.22939840E+04</rscale>
<asrwt>0</asrwt>
<pdfrwt beam="1">  1        1 0.87968632E-01 0.22939840E+04</pdfrwt>
<pdfrwt beam="2">  1       -2 0.35396981E+00 0.22939840E+04</pdfrwt>
<totfact> 0.42752228E-01</totfact>
</mgrwt>
</event>
<event>
12    5  0.5095719E-008  0.1560240E+04  0.7818608E-02  0.8845354E-01
         -2   -1    0    0    0  501 -0.00000000000E+00  0.00000000000E+00  0.61643273544E+03  0.61643273544E+03  0.00000000000E+00 0.  1.
          1   -1    0    0  501    0  0.00000000000E+00 -0.00000000000E+00 -0.98727248297E+03  0.98727248297E+03  0.00000000000E+00 0. -1.
        -24    2    1    2    0    0 -0.46018787377E+03 -0.17905173037E+03  0.28091322804E+02  0.50082355716E+03  0.78757296038E+02 0.  0.
        254    2    1    2    0    0  0.46018787377E+03  0.17905173037E+03 -0.39893107033E+03  0.11028816612E+04  0.90187003416E+03 0.  0.
         23    2    4    4    0    0  0.17474227718E+03 -0.35089613302E+03 -0.62568424666E+02  0.40726251728E+03  0.91021923834E+02 0.  0.
         23    2    4    4    0    0  0.28544559659E+03  0.52994786339E+03 -0.33636264567E+03  0.69561914396E+03  0.91772749315E+02 0.  0.
          3    1    3    3  502    0 -0.25244681571E+03 -0.94412396048E+02 -0.23818201343E+02  0.27057420795E+03  0.00000000000E+00 0. -1.
         -4    1    3    3    0  502 -0.20774105806E+03 -0.84639334324E+02  0.51909524147E+02  0.23024934921E+03  0.00000000000E+00 0.  1.
         13    1    5    5    0    0  0.13017159517E+03 -0.17699445783E+03 -0.59871478378E+02  0.22771973172E+03  0.00000000000E+00 0.  1.
        -13    1    5    5    0    0  0.44570682002E+02 -0.17390167519E+03 -0.26969462884E+01  0.17954278556E+03  0.00000000000E+00 0. -1.
          1    1    6    6  503    0  0.26129326228E+03  0.41162176100E+03 -0.25736827492E+03  0.55131213662E+03  0.00000000000E+00 0. -1.
         -1    1    6    6    0  503  0.24152334312E+02  0.11832610239E+03 -0.78994370743E+02  0.14430700734E+03  0.00000000000E+00 0.  1.
<mgrwt>
<rscale>  0 0.15602398E+04</rscale>
<asrwt>0</asrwt>
<pdfrwt beam="1">  1        1 0.15188807E+00 0.15602398E+04</pdfrwt>
<pdfrwt beam="2">  1       -2 0.94835806E-01 0.15602398E+04</pdfrwt>
<totfact> 0.12227221E+01</totfact>
</mgrwt>
</event>
<event>
12    5  0.5095719E-008  0.1616077E+04  0.7818608E-02  0.8810731E-01
         -2   -1    0    0    0  501 -0.00000000000E+00  0.00000000000E+00  0.47285033923E+03  0.47285033923E+03  0.00000000000E+00 0.  1.
          1   -1    0    0  501    0  0.00000000000E+00 -0.00000000000E+00 -0.13808314145E+04  0.13808314145E+04  0.00000000000E+00 0. -1.
        -24    2    1    2    0    0  0.54115873628E+03  0.11727809083E+03 -0.38469859335E+03  0.67832163493E+03  0.74298749963E+02 0.  0.
        254    2    1    2    0    0 -0.54115873628E+03 -0.11727809083E+03 -0.52328248194E+03  0.11753601188E+04  0.89500833770E+03 0.  0.
         23    2    4    4    0    0 -0.28813507196E+03 -0.17660531908E+03  0.20041429610E+03  0.40104132986E+03  0.80355458769E+02 0.  0.
         23    2    4    4    0    0 -0.25302366432E+03  0.59327228252E+02 -0.72369677804E+03  0.77431878895E+03  0.91059681895E+02 0.  0.
          1    1    3    3  502    0  0.35497085228E+03  0.75680194841E+02 -0.20821622566E+03  0.41843254473E+03  0.00000000000E+00 0. -1.
         -2    1    3    3    0  502  0.18618788400E+03  0.41597895991E+02 -0.17648236770E+03  0.25988909020E+03  0.00000000000E+00 0.  1.
         13    1    5    5    0    0 -0.21326414405E+03 -0.11488088982E+03  0.18022970015E+03  0.30193038734E+03  0.00000000000E+00 0.  1.
        -13    1    5    5    0    0 -0.74870927904E+02 -0.61724429260E+02  0.20184595949E+02  0.99110942516E+02  0.00000000000E+00 0. -1.
          1    1    6    6  503    0 -0.77717154229E+02  0.29099376860E+02 -0.36007291997E+03  0.36951216150E+03  0.00000000000E+00 0. -1.
         -1    1    6    6    0  503 -0.17530651009E+03  0.30227851393E+02 -0.36362385806E+03  0.40480662746E+03  0.00000000000E+00 0.  1.
<mgrwt>
<rscale>  0 0.16160775E+04</rscale>
<asrwt>0</asrwt>
<pdfrwt beam="1">  1        1 0.21243560E+00 0.16160775E+04</pdfrwt>
<pdfrwt beam="2">  1       -2 0.72746207E-01 0.16160775E+04</pdfrwt>
<totfact> 0.11382527E+01</totfact>
</mgrwt>
</event>
<event>
12    5  0.5095719E-008  0.1545589E+04  0.7818608E-02  0.8854690E-01
         -2   -1    0    0    0  501 -0.00000000000E+00  0.00000000000E+00  0.97741392318E+03  0.97741392318E+03  0.00000000000E+00 0.  1.
          1   -1    0    0  501    0  0.00000000000E+00 -0.00000000000E+00 -0.61101191072E+03  0.61101191072E+03  0.00000000000E+00 0. -1.
        -24    2    1    2    0    0 -0.38260178958E+03 -0.58128184299E+02 -0.20970703236E+03  0.44727337939E+03  0.79457040543E+02 0.  0.
        254    2    1    2    0    0  0.38260178958E+03  0.58128184299E+02  0.57610904482E+03  0.11411524545E+04  0.90585003048E+03 0.  0.
         23    2    4    4    0    0  0.38410889707E+03  0.39119532635E+03  0.11996349042E+03  0.56873449669E+03  0.92164312623E+02 0.  0.
         23    2    4    4    0    0 -0.15071074973E+01 -0.33306714205E+03  0.45614555439E+03  0.57241795782E+03  0.93046005579E+02 0.  0.
          1    1    3    3  502    0 -0.17913445100E+03 -0.36745054494E+02 -0.55573549341E+02  0.19112239521E+03  0.00000000000E+00 0. -1.
         -2    1    3    3    0  502 -0.20346733857E+03 -0.21383129805E+02 -0.15413348302E+03  0.25615098418E+03  0.00000000000E+00 0.  1.
         13    1    5    5    0    0  0.26441446113E+03  0.32329527346E+03  0.10223609550E+03  0.42998495359E+03  0.00000000000E+00 0. -1.
        -13    1    5    5    0    0  0.11969443595E+03  0.67900052898E+02  0.17727394927E+02  0.13874954310E+03  0.00000000000E+00 0.  1.
          2    1    6    6  503    0  0.26892039329E+02 -0.70039441678E+02  0.60052458955E+02  0.96098922972E+02  0.00000000000E+00 0. -1.
         -2    1    6    6    0  503 -0.28399146826E+02 -0.26302770038E+03  0.39609309544E+03  0.47631903485E+03  0.00000000000E+00 0.  1.
<mgrwt>
<rscale>  0 0.15455893E+04</rscale>
<asrwt>0</asrwt>
<pdfrwt beam="1">  1        1 0.94001832E-01 0.15455893E+04</pdfrwt>
<pdfrwt beam="2">  1       -2 0.15037137E+00 0.15455893E+04</pdfrwt>
<totfact> 0.83691602E+00</totfact>
</mgrwt>
</event>
<event>
12    5  0.5095719E-008  0.1564716E+04  0.7818608E-02  0.8842523E-01
          1   -1    0    0  501    0  0.00000000000E+00  0.00000000000E+00  0.19717185654E+04  0.19717185654E+04  0.00000000000E+00 0. -1.
         -2   -1    0    0    0  501 -0.00000000000E+00 -0.00000000000E+00 -0.31043156745E+03  0.31043156745E+03  0.00000000000E+00 0.  1.
        -24    2    1    2    0    0  0.42882207242E+03  0.28515629729E+03  0.40934234987E+03  0.66290507695E+03  0.81728195689E+02 0.  0.
        254    2    1    2    0    0 -0.42882207242E+03 -0.28515629729E+03  0.12519446481E+04  0.16192450559E+04  0.88847434715E+03 0.  0.
         23    2    4    4    0    0  0.23980367665E+01 -0.40541715451E+03  0.10311627433E+04  0.11120977536E+04  0.95372903913E+02 0.  0.
         23    2    4    4    0    0 -0.43122010918E+03  0.12026085722E+03  0.22078190478E+03  0.50714730223E+03  0.89667610319E+02 0.  0.
          1    1    3    3  502    0  0.32561168435E+03  0.20164246491E+03  0.34457138776E+03  0.51518161254E+03  0.00000000000E+00 0. -1.
         -2    1    3    3    0  502  0.10321038807E+03  0.83513832373E+02  0.64770962117E+02  0.14772346441E+03  0.00000000000E+00 0.  1.
         13    1    5    5    0    0  0.48307207445E+02 -0.22430034070E+03  0.55101972732E+03  0.59688103423E+03  0.00000000000E+00 0.  1.
        -13    1    5    5    0    0 -0.45909170678E+02 -0.18111681382E+03  0.48014301596E+03  0.51521671942E+03  0.00000000000E+00 0. -1.
          3    1    6    6  503    0 -0.14228835968E+03  0.67790784577E+02  0.41111546747E+02  0.16288562567E+03  0.00000000000E+00 0. -1.
         -3    1    6    6    0  503 -0.28893174950E+03  0.52470072647E+02  0.17967035803E+03  0.34426167656E+03  0.00000000000E+00 0.  1.
<mgrwt>
<rscale>  0 0.15647155E+04</rscale>
<asrwt>0</asrwt>
<pdfrwt beam="1">  1        1 0.30334131E+00 0.15647155E+04</pdfrwt>
<pdfrwt beam="2">  1       -2 0.47758704E-01 0.15647155E+04</pdfrwt>
<totfact> 0.10935893E+01</totfact>
</mgrwt>
</event>
<event>
12    5  0.5095719E-008  0.2197442E+04  0.7818608E-02  0.8519493E-01
         -2   -1    0    0    0  501 -0.00000000000E+00  0.00000000000E+00  0.10415730659E+04  0.10415730659E+04  0.00000000000E+00 0.  1.
          1   -1    0    0  501    0  0.00000000000E+00 -0.00000000000E+00 -0.11590048896E+04  0.11590048896E+04  0.00000000000E+00 0. -1.
        -24    2    1    2    0    0 -0.43099469891E+03 -0.45337916931E+03  0.61754523490E+03  0.88255667332E+03  0.78962414011E+02 0.  0.
        254    2    1    2    0    0  0.43099469891E+03  0.45337916931E+03 -0.73497705851E+03  0.13180212822E+04  0.89759663662E+03 0.  0.
         23    2    4    4    0    0  0.22816379357E+03  0.20383276376E+03  0.16417590661E+03  0.35868784361E+03  0.89981823487E+02 0.  0.
         23    2    4    4    0    0  0.20283090534E+03  0.24954640555E+03 -0.89915296513E+03  0.95933343857E+03  0.91819425951E+02 0.  0.
          3    1    3    3  502    0 -0.21344277682E+03 -0.21574979533E+03  0.35427924626E+03  0.46649713557E+03  0.00000000000E+00 0. -1.
         -4    1    3    3    0  502 -0.21755192209E+03 -0.23762937398E+03  0.26326598864E+03  0.41605953776E+03  0.00000000000E+00 0.  1.
         13    1    5    5    0    0  0.32190965715E+02  0.39116719188E+02 -0.64017835979E+01  0.51062303385E+02  0.00000000000E+00 0. -1.
        -13    1    5    5    0    0  0.19597282786E+03  0.16471604457E+03  0.17057769021E+03  0.30762554022E+03  0.00000000000E+00 0.  1.
          3    1    6    6  503    0  0.21135198636E+02 -0.42998564485E+01 -0.44465476742E+02  0.49420279327E+02  0.00000000000E+00 0. -1.
         -3    1    6    6    0  503  0.18169570670E+03  0.25384626200E+03 -0.85468748838E+03  0.90991315924E+03  0.00000000000E+00 0.  1.
<mgrwt>
<rscale>  0 0.21974424E+04</rscale>
<asrwt>0</asrwt>
<pdfrwt beam="1">  1        1 0.17830844E+00 0.21974424E+04</pdfrwt>
<pdfrwt beam="2">  1       -2 0.16024201E+00 0.21974424E+04</pdfrwt>
<totfact> 0.22985531E+00</totfact>
</mgrwt>
</event>
<event>
12    5  0.5095719E-008  0.2748122E+04  0.7818608E-02  0.8319558E-01
         -2   -1    0    0    0  501 -0.00000000000E+00  0.00000000000E+00  0.89610525410E+03  0.89610525410E+03  0.00000000000E+00 0.  1.
          1   -1    0    0  501    0  0.00000000000E+00 -0.00000000000E+00 -0.21069438815E+04  0.21069438815E+04  0.00000000000E+00 0. -1.
        -24    2    1    2    0    0 -0.27451707349E+03  0.97373047768E+03  0.19182285429E+03  0.10328202481E+04  0.80068662483E+02 0.  0.
        254    2    1    2    0    0  0.27451707349E+03 -0.97373047768E+03 -0.14026614817E+04  0.19702288875E+04  0.94383895348E+03 0.  0.
         23    2    4    4    0    0 -0.75142036338E+01 -0.63638386424E+03 -0.18034521884E+03  0.66796253179E+03  0.92782864755E+02 0.  0.
         23    2    4    4    0    0  0.28203127712E+03 -0.33734661344E+03 -0.12223162629E+04  0.13022663557E+04  0.92175028445E+02 0.  0.
          3    1    3    3  502    0 -0.32447185336E+02  0.13859109301E+03 -0.27415532702E+00  0.14233898292E+03  0.00000000000E+00 0. -1.
         -4    1    3    3    0  502 -0.24206988815E+03  0.83513938467E+03  0.19209700962E+03  0.89048126520E+03  0.00000000000E+00 0.  1.
         13    1    5    5    0    0 -0.25379197400E+02 -0.61016274609E+03 -0.16429097916E+03  0.63240351534E+03  0.00000000000E+00 0. -1.
        -13    1    5    5    0    0  0.17864993766E+02 -0.26221118151E+02 -0.16054239676E+02  0.35559016450E+02  0.00000000000E+00 0.  1.
          4    1    6    6  503    0  0.27421067642E+03 -0.29002180270E+03 -0.10466750950E+04  0.11201932402E+04  0.00000000000E+00 0. -1.
         -4    1    6    6    0  503  0.78206007006E+01 -0.47324810738E+02 -0.17564116795E+03  0.18207311549E+03  0.00000000000E+00 0.  1.
<mgrwt>
<rscale>  0 0.27481219E+04</rscale>
<asrwt>0</asrwt>
<pdfrwt beam="1">  1        1 0.32414521E+00 0.27481219E+04</pdfrwt>
<pdfrwt beam="2">  1       -2 0.13786235E+00 0.27481219E+04</pdfrwt>
<totfact> 0.72028440E-01</totfact>
</mgrwt>
</event>
<event>
12    5  0.5095719E-008  0.1898243E+04  0.7818608E-02  0.8655732E-01
          1   -1    0    0  501    0  0.00000000000E+00  0.00000000000E+00  0.21714586079E+04  0.21714586079E+04  0.00000000000E+00 0. -1.
         -2   -1    0    0    0  501 -0.00000000000E+00 -0.00000000000E+00 -0.41485073417E+03  0.41485073417E+03  0.00000000000E+00 0.  1.
        -24    2    1    2    0    0 -0.18353948826E+03 -0.51946112035E+03  0.13407364490E+04  0.14519622841E+04  0.84223805488E+02 0.  0.
        254    2    1    2    0    0  0.18353948826E+03  0.51946112035E+03  0.41587142473E+03  0.11343470580E+04  0.90014865815E+03 0.  0.
         23    2    4    4    0    0  0.38765899342E+03  0.19956182754E+02  0.43087396263E+03  0.58701733897E+03  0.90880361800E+02 0.  0.
         23    2    4    4    0    0 -0.20411950516E+03  0.49950493759E+03 -0.15002537902E+02  0.54732971903E+03  0.90414545980E+02 0.  0.
          1    1    3    3  502    0 -0.16181143245E+03 -0.46028863611E+03  0.12465142336E+04  0.13385986339E+04  0.00000000000E+00 0. -1.
         -2    1    3    3    0  502 -0.21728055810E+02 -0.59172484240E+02  0.94222215435E+02  0.11336365018E+03  0.00000000000E+00 0.  1.
         13    1    5    5    0    0  0.15719737322E+03 -0.14641261427E+02  0.23215576829E+03  0.28075199275E+03  0.00000000000E+00 0.  1.
        -13    1    5    5    0    0  0.23046162020E+03  0.34597444181E+02  0.19871819435E+03  0.30626534622E+03  0.00000000000E+00 0. -1.
          4    1    6    6  503    0 -0.89249526273E+01  0.11873319674E+03 -0.88668788770E+01  0.11939785730E+03  0.00000000000E+00 0. -1.
         -4    1    6    6    0  503 -0.19519455253E+03  0.38077174085E+03 -0.61356590250E+01  0.42793186173E+03  0.00000000000E+00 0.  1.
<mgrwt>
<rscale>  0 0.18982426E+04</rscale>
<asrwt>0</asrwt>
<pdfrwt beam="1">  1        1 0.33407055E+00 0.18982426E+04</pdfrwt>
<pdfrwt beam="2">  1       -2 0.63823191E-01 0.18982426E+04</pdfrwt>
<totfact> 0.42522357E+00</totfact>
</mgrwt>
</event>
<event>
12    5  0.5095719E-008  0.1679265E+04  0.7818608E-02  0.8773280E-01
         -2   -1    0    0    0  501 -0.00000000000E+00  0.00000000000E+00  0.18176935453E+04  0.18176935453E+04  0.00000000000E+00 0.  1.
          1   -1    0    0  501    0  0.00000000000E+00 -0.00000000000E+00 -0.38784448688E+03  0.38784448688E+03  0.00000000000E+00 0. -1.
        -24    2    1    2    0    0  0.15981372557E+03 -0.49619127172E+03  0.11407552189E+03  0.53955025144E+03  0.79718530661E+02 0.  0.
        254    2    1    2    0    0 -0.15981372557E+03  0.49619127172E+03  0.13157735365E+04  0.16659877807E+04  0.87892495760E+03 0.  0.
         23    2    4    4    0    0  0.18456381941E+03 -0.82559160057E+02  0.74888870479E+03  0.78102440196E+03  0.91022008027E+02 0.  0.
         23    2    4    4    0    0 -0.34437754498E+03  0.57875043177E+03  0.56688483174E+03  0.88496337877E+03  0.90850501056E+02 0.  0.
          3    1    3    3  502    0  0.66865561632E+02 -0.15430098561E+03  0.28076488260E+01  0.16818941817E+03  0.00000000000E+00 0. -1.
         -4    1    3    3    0  502  0.92948163937E+02 -0.34189028611E+03  0.11126787307E+03  0.37136083328E+03  0.00000000000E+00 0.  1.
         13    1    5    5    0    0  0.11494311895E+03 -0.92676979405E+02  0.43595297791E+03  0.46027811381E+03  0.00000000000E+00 0. -1.
        -13    1    5    5    0    0  0.69620700465E+02  0.10117819348E+02  0.31293572688E+03  0.32074628815E+03  0.00000000000E+00 0.  1.
          3    1    6    6  503    0 -0.33022763345E+03  0.49860372375E+03  0.49326819017E+03  0.77522220728E+03  0.00000000000E+00 0. -1.
         -3    1    6    6    0  503 -0.14149911531E+02  0.80146708020E+02  0.73616641569E+02  0.10974117148E+03  0.00000000000E+00 0.  1.
<mgrwt>
<rscale>  0 0.16792646E+04</rscale>
<asrwt>0</asrwt>
<pdfrwt beam="1">  1        1 0.59668384E-01 0.16792646E+04</pdfrwt>
<pdfrwt beam="2">  1       -2 0.27964516E+00 0.16792646E+04</pdfrwt>
<totfact> 0.22081476E+00</totfact>
</mgrwt>
</event>
<event>
12    5  0.5095719E-008  0.2483885E+04  0.7818608E-02  0.8408749E-01
         -2   -1    0    0    0  501 -0.00000000000E+00  0.00000000000E+00  0.20197703531E+04  0.20197703531E+04  0.00000000000E+00 0.  1.
          1   -1    0    0  501    0  0.00000000000E+00 -0.00000000000E+00 -0.76366164809E+03  0.76366164809E+03  0.00000000000E+00 0. -1.
        -24    2    1    2    0    0 -0.99969834089E+03  0.99523171903E+02  0.10855086366E+03  0.10136475102E+04  0.79977186189E+02 0.  0.
        254    2    1    2    0    0  0.99969834089E+03 -0.99523171903E+02  0.11475578413E+04  0.17697844910E+04  0.89774523719E+03 0.  0.
         23    2    4    4    0    0  0.31425778092E+03  0.17260135980E+03 -0.36205443803E+02  0.37204625152E+03  0.92511603780E+02 0.  0.
         23    2    4    4    0    0  0.68544055997E+03 -0.27212453171E+03  0.11837632851E+04  0.13977382395E+04  0.92174556707E+02 0.  0.
          1    1    3    3  502    0 -0.89347248157E+03  0.11282702677E+03  0.10314049361E+03  0.90645516972E+03  0.00000000000E+00 0. -1.
         -2    1    3    3    0  502 -0.10622585933E+03 -0.13303854868E+02  0.54103700436E+01  0.10719234044E+03  0.00000000000E+00 0.  1.
         13    1    5    5    0    0  0.95434440454E+02  0.36360835916E+02  0.28986819385E+02  0.10616062599E+03  0.00000000000E+00 0.  1.
        -13    1    5    5    0    0  0.21882334047E+03  0.13624052389E+03 -0.65192263188E+02  0.26588562553E+03  0.00000000000E+00 0. -1.
          3    1    6    6  503    0  0.46766367695E+03 -0.14943073980E+03  0.83520665748E+03  0.96881836349E+03  0.00000000000E+00 0. -1.
         -3    1    6    6    0  503  0.21777688302E+03 -0.12269379190E+03  0.34855662764E+03  0.42891987600E+03  0.00000000000E+00 0.  1.
<mgrwt>
<rscale>  0 0.24838850E+04</rscale>
<asrwt>0</asrwt>
<pdfrwt beam="1">  1        1 0.11748641E+00 0.24838850E+04</pdfrwt>
<pdfrwt beam="2">  1       -2 0.31073390E+00 0.24838850E+04</pdfrwt>
<totfact> 0.50726075E-01</totfact>
</mgrwt>
</event>
<event>
12    5  0.5095719E-008  0.1677080E+04  0.7818608E-02  0.8774545E-01
          1   -1    0    0  501    0  0.00000000000E+00  0.00000000000E+00  0.28407200373E+04  0.28407200373E+04  0.00000000000E+00 0. -1.
         -2   -1    0    0    0  501 -0.00000000000E+00 -0.00000000000E+00 -0.24752508798E+03  0.24752508798E+03  0.00000000000E+00 0.  1.
        -24    2    1    2    0    0 -0.56260569705E+03  0.12213463529E+03  0.64762193356E+03  0.87020565253E+03  0.80010432950E+02 0.  0.
        254    2    1    2    0    0  0.56260569705E+03 -0.12213463529E+03  0.19455730158E+04  0.22180394727E+04  0.89610418116E+03 0.  0.
         23    2    4    4    0    0 -0.49242557790E+02 -0.37959568764E+03  0.76352809059E+03  0.85909472174E+03  0.92470969638E+02 0.  0.
         23    2    4    4    0    0  0.61184825484E+03  0.25746105235E+03  0.11820449252E+04  0.13589447510E+04  0.94107123697E+02 0.  0.
          1    1    3    3  502    0 -0.51142827311E+03  0.13389337444E+03  0.58523791801E+03  0.78866325826E+03  0.00000000000E+00 0. -1.
         -2    1    3    3    0  502 -0.51177423941E+02 -0.11758739145E+02  0.62384015549E+02  0.81542394272E+02  0.00000000000E+00 0.  1.
         13    1    5    5    0    0 -0.32725708247E+02 -0.36813314006E+03  0.74553146713E+03  0.83211186103E+03  0.00000000000E+00 0. -1.
        -13    1    5    5    0    0 -0.16516849543E+02 -0.11462547577E+02  0.17996623458E+02  0.26982860702E+02  0.00000000000E+00 0.  1.
          4    1    6    6  503    0  0.46536374433E+03  0.21557203151E+03  0.83498350790E+03  0.97991437063E+03  0.00000000000E+00 0. -1.
         -4    1    6    6    0  503  0.14648451051E+03  0.41889020840E+02  0.34706141728E+03  0.37903038037E+03  0.00000000000E+00 0.  1.
<mgrwt>
<rscale>  0 0.16770802E+04</rscale>
<asrwt>0</asrwt>
<pdfrwt beam="1">  1        1 0.43703383E+00 0.16770802E+04</pdfrwt>
<pdfrwt beam="2">  1       -2 0.38080785E-01 0.16770802E+04</pdfrwt>
<totfact> 0.42621380E+00</totfact>
</mgrwt>
</event>
<event>
12    5  0.5095719E-008  0.1157946E+04  0.7818608E-02  0.9150484E-01
         -2   -1    0    0    0  501 -0.00000000000E+00  0.00000000000E+00  0.80600610955E+03  0.80600610955E+03  0.00000000000E+00 0.  1.
          1   -1    0    0  501    0  0.00000000000E+00 -0.00000000000E+00 -0.41588982625E+03  0.41588982625E+03  0.00000000000E+00 0. -1.
        -24    2    1    2    0    0 -0.58801096314E+01  0.10567066294E+03  0.28097934492E+03  0.31053283582E+03  0.79248881094E+02 0.  0.
        254    2    1    2    0    0  0.58801096314E+01 -0.10567066294E+03  0.10913693837E+03  0.91136309998E+03  0.89859388157E+03 0.  0.
         23    2    4    4    0    0  0.75496876670E+02  0.24122772064E+03 -0.27295767883E+03  0.38272358168E+03  0.89893570133E+02 0.  0.
         23    2    4    4    0    0 -0.69616767038E+02 -0.34689838358E+03  0.38209461720E+03  0.52863951830E+03  0.90986048535E+02 0.  0.
          1    1    3    3  502    0 -0.17261580086E+02  0.49122052609E+02  0.49029068380E+02  0.71517744272E+02  0.00000000000E+00 0. -1.
         -2    1    3    3    0  502  0.11381470455E+02  0.56548610330E+02  0.23195027654E+03  0.23901509155E+03  0.00000000000E+00 0.  1.
         13    1    5    5    0    0 -0.13020821321E+02  0.81945241538E+02 -0.11340891800E+03  0.14052098449E+03  0.00000000000E+00 0. -1.
        -13    1    5    5    0    0  0.88517697991E+02  0.15928247911E+03 -0.15954876082E+03  0.24220259720E+03  0.00000000000E+00 0.  1.
          3    1    6    6  503    0  0.11245091587E+02 -0.16534545043E+03  0.15584488177E+03  0.22749329053E+03  0.00000000000E+00 0. -1.
         -3    1    6    6    0  503 -0.80861858625E+02 -0.18155293316E+03  0.22624973543E+03  0.30114622777E+03  0.00000000000E+00 0.  1.
<mgrwt>
<rscale>  0 0.11579460E+04</rscale>
<asrwt>0</asrwt>
<pdfrwt beam="1">  1        1 0.63983050E-01 0.11579460E+04</pdfrwt>
<pdfrwt beam="2">  1       -2 0.12400094E+00 0.11579460E+04</pdfrwt>
<totfact> 0.24154237E+01</totfact>
</mgrwt>
</event>
<event>
12    5  0.5095719E-008  0.3424549E+04  0.7818608E-02  0.8131907E-01
         -2   -1    0    0    0  501 -0.00000000000E+00  0.00000000000E+00  0.17574578557E+04  0.17574578557E+04  0.00000000000E+00 0.  1.
          1   -1    0    0  501    0  0.00000000000E+00 -0.00000000000E+00 -0.16682528407E+04  0.16682528407E+04  0.00000000000E+00 0. -1.
        -24    2    1    2    0    0  0.15643055290E+04  0.27486074805E+03 -0.11521641707E+03  0.15943922492E+04  0.78813721280E+02 0.  0.
        254    2    1    2    0    0 -0.15643055290E+04 -0.27486074805E+03  0.20442143211E+03  0.18313184472E+04  0.88844747402E+03 0.  0.
         23    2    4    4    0    0 -0.28949050005E+03  0.16844861055E+03  0.32201090518E+03  0.47344852825E+03  0.91009899639E+02 0.  0.
         23    2    4    4    0    0 -0.12748150290E+04 -0.44330935860E+03 -0.11758947308E+03  0.13578699189E+04  0.91142125331E+02 0.  0.
          3    1    3    3  502    0  0.74252208253E+03  0.10681180296E+03 -0.86189240215E+02  0.75510025124E+03  0.00000000000E+00 0. -1.
         -4    1    3    3    0  502  0.82178344652E+03  0.16804894509E+03 -0.29027176860E+02  0.83929199800E+03  0.00000000000E+00 0.  1.
         13    1    5    5    0    0 -0.24260673368E+03  0.12449995561E+03  0.20947634486E+03  0.34385840869E+03  0.00000000000E+00 0. -1.
        -13    1    5    5    0    0 -0.46883766371E+02  0.43948654937E+02  0.11253456032E+03  0.12959011956E+03  0.00000000000E+00 0.  1.
          3    1    6    6  503    0 -0.73691990086E+03 -0.28942238665E+03 -0.10115776490E+03  0.79815358897E+03  0.00000000000E+00 0. -1.
         -3    1    6    6    0  503 -0.53789512814E+03 -0.15388697195E+03 -0.16431708176E+02  0.55971632998E+03  0.00000000000E+00 0.  1.
<mgrwt>
<rscale>  0 0.34245491E+04</rscale>
<asrwt>0</asrwt>
<pdfrwt beam="1">  1        1 0.25665428E+00 0.34245491E+04</pdfrwt>
<pdfrwt beam="2">  1       -2 0.27037813E+00 0.34245491E+04</pdfrwt>
<totfact> 0.17423335E-01</totfact>
</mgrwt>
</event>
<event>
12    5  0.5095719E-008  0.2681348E+04  0.7818608E-02  0.8341082E-01
          1   -1    0    0  501    0  0.00000000000E+00  0.00000000000E+00  0.96283549956E+03  0.96283549956E+03  0.00000000000E+00 0. -1.
         -2   -1    0    0    0  501 -0.00000000000E+00 -0.00000000000E+00 -0.18667848168E+04  0.18667848168E+04  0.00000000000E+00 0.  1.
        -24    2    1    2    0    0 -0.67990790057E+03 -0.55977066650E+03 -0.12345469164E+04  0.15186962576E+04  0.81940721473E+02 0.  0.
        254    2    1    2    0    0  0.67990790057E+03  0.55977066650E+03  0.33059759908E+03  0.13109240588E+04  0.91302199483E+03 0.  0.
         23    2    4    4    0    0  0.58196193711E+03  0.67895170425E+03  0.52915925444E+03  0.10432125123E+04  0.92885501102E+02 0.  0.
         23    2    4    4    0    0  0.97945963461E+02 -0.11918103775E+03 -0.19856165536E+03  0.26771154648E+03  0.91897821644E+02 0.  0.
          1    1    3    3  502    0 -0.12987136117E+03 -0.70571837394E+02 -0.18644933688E+03  0.23792921197E+03  0.00000000000E+00 0. -1.
         -2    1    3    3    0  502 -0.55003653940E+03 -0.48919882911E+03 -0.10480975795E+04  0.12807670456E+04  0.00000000000E+00 0.  1.
         13    1    5    5    0    0  0.18465636722E+03  0.20300681681E+03  0.21226767113E+03  0.34693991675E+03  0.00000000000E+00 0. -1.
        -13    1    5    5    0    0  0.39730556989E+03  0.47594488744E+03  0.31689158331E+03  0.69627259555E+03  0.00000000000E+00 0.  1.
          2    1    6    6  503    0  0.97132797879E+02 -0.67415967616E+02 -0.17409726104E+03  0.21045082422E+03  0.00000000000E+00 0. -1.
         -2    1    6    6    0  503  0.81316558256E+00 -0.51765070134E+02 -0.24464394314E+02  0.57260722257E+02  0.00000000000E+00 0.  1.
<mgrwt>
<rscale>  0 0.26813479E+04</rscale>
<asrwt>0</asrwt>
<pdfrwt beam="1">  1        1 0.14812854E+00 0.26813479E+04</pdfrwt>
<pdfrwt beam="2">  1       -2 0.28719766E+00 0.26813479E+04</pdfrwt>
<totfact> 0.47267359E-01</totfact>
</mgrwt>
</event>
<event>
12    5  0.5095719E-008  0.1570326E+04  0.7818608E-02  0.8838988E-01
         -2   -1    0    0    0  501 -0.00000000000E+00  0.00000000000E+00  0.62490260170E+03  0.62490260170E+03  0.00000000000E+00 0.  1.
          1   -1    0    0  501    0  0.00000000000E+00 -0.00000000000E+00 -0.98652277386E+03  0.98652277386E+03  0.00000000000E+00 0. -1.
        -24    2    1    2    0    0 -0.12921660442E+03 -0.38207261621E+03 -0.47033170189E+03  0.62526074978E+03  0.84039755418E+02 0.  0.
        254    2    1    2    0    0  0.12921660442E+03  0.38207261621E+03  0.10871152973E+03  0.98616462579E+03  0.89332304210E+03 0.  0.
         23    2    4    4    0    0  0.16289395727E+02 -0.21933820593E+03 -0.18500485365E+03  0.30148202789E+03  0.91049570421E+02 0.  0.
         23    2    4    4    0    0  0.11292720869E+03  0.60141082214E+03  0.29371638338E+03  0.68468259790E+03  0.89852181622E+02 0.  0.
          1    1    3    3  502    0 -0.13178452584E+03 -0.38565608942E+03 -0.46609430095E+03  0.61914592620E+03  0.00000000000E+00 0. -1.
         -2    1    3    3    0  502  0.25679214201E+01  0.35834732035E+01 -0.42374009445E+01  0.61148235775E+01  0.00000000000E+00 0.  1.
         13    1    5    5    0    0 -0.12757320007E+02 -0.49780316934E+02 -0.93352289997E+02  0.10656209089E+03  0.00000000000E+00 0.  1.
        -13    1    5    5    0    0  0.29046715734E+02 -0.16955788899E+03 -0.91652563657E+02  0.19491993700E+03  0.00000000000E+00 0. -1.
          2    1    6    6  503    0 -0.11542377392E+02  0.13474409636E+03  0.56045646260E+02  0.14639095752E+03  0.00000000000E+00 0. -1.
         -2    1    6    6    0  503  0.12446958608E+03  0.46666672578E+03  0.23767073712E+03  0.53829164037E+03  0.00000000000E+00 0.  1.
<mgrwt>
<rscale>  0 0.15703256E+04</rscale>
<asrwt>0</asrwt>
<pdfrwt beam="1">  1        1 0.15177273E+00 0.15703256E+04</pdfrwt>
<pdfrwt beam="2">  1       -2 0.96138862E-01 0.15703256E+04</pdfrwt>
<totfact> 0.11848909E+01</totfact>
</mgrwt>
</event>
<event>
12    5  0.5095719E-008  0.1841769E+04  0.7818608E-02  0.8684397E-01
          1   -1    0    0  501    0  0.00000000000E+00  0.00000000000E+00  0.11354421901E+04  0.11354421901E+04  0.00000000000E+00 0. -1.
         -2   -1    0    0    0  501 -0.00000000000E+00 -0.00000000000E+00 -0.74687026739E+03  0.74687026739E+03  0.00000000000E+00 0.  1.
        -24    2    1    2    0    0  0.14590502875E+03 -0.46628245319E+03  0.66701379158E+03  0.83078450965E+03  0.81165877910E+02 0.  0.
        254    2    1    2    0    0 -0.14590502875E+03  0.46628245319E+03 -0.27844186882E+03  0.10515279479E+04  0.88852323960E+03 0.  0.
         23    2    4    4    0    0  0.15724594709E+03 -0.19927241236E+03 -0.20314443954E+02  0.27077353878E+03  0.92031790521E+02 0.  0.
         23    2    4    4    0    0 -0.30315097583E+03  0.66555486555E+03 -0.25812742487E+03  0.78075440911E+03  0.89910436919E+02 0.  0.
          3    1    3    3  502    0  0.67843080531E+02 -0.28807870663E+03  0.45738506079E+03  0.54478722326E+03  0.00000000000E+00 0. -1.
         -4    1    3    3    0  502  0.78061948216E+02 -0.17820374656E+03  0.20962873079E+03  0.28599728639E+03  0.00000000000E+00 0.  1.
         13    1    5    5    0    0  0.11565399641E+03 -0.16441750202E+03 -0.52393213715E+02  0.20773543438E+03  0.00000000000E+00 0.  1.
        -13    1    5    5    0    0  0.41591950683E+02 -0.34854910337E+02  0.32078769761E+02  0.63038104394E+02  0.00000000000E+00 0. -1.
          1    1    6    6  503    0 -0.67734587664E+02  0.22573979310E+03 -0.11196190317E+03  0.26092507798E+03  0.00000000000E+00 0. -1.
         -1    1    6    6    0  503 -0.23541638817E+03  0.43981507245E+03 -0.14616552170E+03  0.51982933113E+03  0.00000000000E+00 0.  1.
<mgrwt>
<rscale>  0 0.18417687E+04</rscale>
<asrwt>0</asrwt>
<pdfrwt beam="1">  1        1 0.17468341E+00 0.18417687E+04</pdfrwt>
<pdfrwt beam="2">  1       -2 0.11490312E+00 0.18417687E+04</pdfrwt>
<totfact> 0.58108018E+00</totfact>
</mgrwt>
</event>
<event>
12    5  0.5095719E-008  0.2029448E+04  0.7818608E-02  0.8592975E-01
          1   -1    0    0  501    0  0.00000000000E+00  0.00000000000E+00  0.10062835657E+04  0.10062835657E+04  0.00000000000E+00 0. -1.
         -2   -1    0    0    0  501 -0.00000000000E+00 -0.00000000000E+00 -0.10232347448E+04  0.10232347448E+04  0.00000000000E+00 0.  1.
        -24    2    1    2    0    0 -0.16441479937E+03 -0.76823460008E+03  0.21512115499E+03  0.81857915506E+03  0.81105454628E+02 0.  0.
        254    2    1    2    0    0  0.16441479937E+03  0.76823460008E+03 -0.23207233418E+03  0.12109391554E+04  0.89179562841E+03 0.  0.
         23    2    4    4    0    0  0.68201644662E+02  0.15663183720E+03 -0.49505741756E+03  0.53193038655E+03  0.93183113758E+02 0.  0.
         23    2    4    4    0    0  0.96213154712E+02  0.61160276288E+03  0.26298508338E+03  0.67900876888E+03  0.92611248987E+02 0.  0.
          3    1    3    3  502    0 -0.13088651879E+02 -0.17969710414E+03  0.73669692776E+02  0.19465247411E+03  0.00000000000E+00 0. -1.
         -4    1    3    3    0  502 -0.15132614750E+03 -0.58853749594E+03  0.14145146222E+03  0.62392668095E+03  0.00000000000E+00 0.  1.
         13    1    5    5    0    0  0.23029965671E+02  0.52278561073E+02 -0.30619447139E+03  0.31147789902E+03  0.00000000000E+00 0. -1.
        -13    1    5    5    0    0  0.45171678991E+02  0.10435327612E+03 -0.18886294617E+03  0.22045248753E+03  0.00000000000E+00 0.  1.
          2    1    6    6  503    0  0.10795201752E+03  0.58368666543E+03  0.23716238295E+03  0.63921026069E+03  0.00000000000E+00 0. -1.
         -2    1    6    6    0  503 -0.11738862810E+02  0.27916097453E+02  0.25822700427E+02  0.39798508193E+02  0.00000000000E+00 0.  1.
<mgrwt>
<rscale>  0 0.20294475E+04</rscale>
<asrwt>0</asrwt>
<pdfrwt beam="1">  1        1 0.15481286E+00 0.20294475E+04</pdfrwt>
<pdfrwt beam="2">  1       -2 0.15742073E+00 0.20294475E+04</pdfrwt>
<totfact> 0.31947182E+00</totfact>
</mgrwt>
</event>
<event>
12    5  0.5095719E-008  0.2468656E+04  0.7818608E-02  0.8414238E-01
          1   -1    0    0  501    0  0.00000000000E+00  0.00000000000E+00  0.10174476472E+04  0.10174476472E+04  0.00000000000E+00 0. -1.
         -2   -1    0    0    0  501 -0.00000000000E+00 -0.00000000000E+00 -0.14974385350E+04  0.14974385350E+04  0.00000000000E+00 0.  1.
        -24    2    1    2    0    0  0.87838965118E+03  0.56433017945E+03  0.78775722494E+02  0.10500406600E+04  0.79641964398E+02 0.  0.
        254    2    1    2    0    0 -0.87838965118E+03 -0.56433017945E+03 -0.55876661027E+03  0.14648455222E+04  0.86227336054E+03 0.  0.
         23    2    4    4    0    0  0.16166015464E+03 -0.88366625045E+02 -0.10895915131E+03  0.23245563121E+03  0.90668946216E+02 0.  0.
         23    2    4    4    0    0 -0.10400498058E+04 -0.47596355441E+03 -0.44980745897E+03  0.12323898909E+04  0.90626648741E+02 0.  0.
          1    1    3    3  502    0  0.81849956148E+03  0.51342635248E+03  0.54341290010E+02  0.96772988347E+03  0.00000000000E+00 0. -1.
         -2    1    3    3    0  502  0.59890089698E+02  0.50903826968E+02  0.24434432484E+02  0.82310776541E+02  0.00000000000E+00 0.  1.
         13    1    5    5    0    0  0.10128834674E+03 -0.63854198553E+01 -0.70722460060E+02  0.12370031984E+03  0.00000000000E+00 0.  1.
        -13    1    5    5    0    0  0.60371807901E+02 -0.81981205190E+02 -0.38236691248E+02  0.10875531137E+03  0.00000000000E+00 0. -1.
          2    1    6    6  503    0 -0.31112940474E+03 -0.17034137573E+03 -0.17545921353E+03  0.39573176066E+03  0.00000000000E+00 0. -1.
         -2    1    6    6    0  503 -0.72892040108E+03 -0.30562217867E+03 -0.27434824543E+03  0.83665813029E+03  0.00000000000E+00 0.  1.
<mgrwt>
<rscale>  0 0.24686558E+04</rscale>
<asrwt>0</asrwt>
<pdfrwt beam="1">  1        1 0.15653041E+00 0.24686558E+04</pdfrwt>
<pdfrwt beam="2">  1       -2 0.23037516E+00 0.24686558E+04</pdfrwt>
<totfact> 0.97418651E-01</totfact>
</mgrwt>
</event>
<event>
12    5  0.5095719E-008  0.1211726E+04  0.7818608E-02  0.9102655E-01
         -2   -1    0    0    0  501 -0.00000000000E+00  0.00000000000E+00  0.13201267710E+03  0.13201267710E+03  0.00000000000E+00 0.  1.
          1   -1    0    0  501    0  0.00000000000E+00 -0.00000000000E+00 -0.27805638605E+04  0.27805638605E+04  0.00000000000E+00 0. -1.
        -24    2    1    2    0    0  0.17135869602E+03 -0.87614657549E+02 -0.10367183091E+04  0.10574918444E+04  0.80399114708E+02 0.  0.
        254    2    1    2    0    0 -0.17135869602E+03  0.87614657549E+02 -0.16118328743E+04  0.18550846932E+04  0.89793868015E+03 0.  0.
         23    2    4    4    0    0 -0.45885676763E+03  0.10148572404E+01 -0.44210209823E+03  0.64389482387E+03  0.92713083300E+02 0.  0.
         23    2    4    4    0    0  0.28749807161E+03  0.86599800309E+02 -0.11697307761E+04  0.12111898693E+04  0.92499429547E+02 0.  0.
          3    1    3    3  502    0  0.13174108721E+03 -0.73572882415E+02 -0.94001385522E+03  0.95204765169E+03  0.00000000000E+00 0. -1.
         -2    1    3    3    0  502  0.39617608810E+02 -0.14041775134E+02 -0.96704453845E+02  0.10544419268E+03  0.00000000000E+00 0.  1.
         13    1    5    5    0    0 -0.26833989580E+03  0.43109520236E+02 -0.28024176948E+03  0.39038465617E+03  0.00000000000E+00 0.  1.
        -13    1    5    5    0    0 -0.19051687183E+03 -0.42094662996E+02 -0.16186032875E+03  0.25351016770E+03  0.00000000000E+00 0. -1.
          2    1    6    6  503    0  0.23301370914E+03  0.99537097470E+02 -0.10287377041E+04  0.10594830279E+04  0.00000000000E+00 0. -1.
         -2    1    6    6    0  503  0.54484362469E+02 -0.12937297161E+02 -0.14099307194E+03  0.15170684146E+03  0.00000000000E+00 0.  1.
<mgrwt>
<rscale>  0 0.12117255E+04</rscale>
<asrwt>0</asrwt>
<pdfrwt beam="1">  1        1 0.42777904E+00 0.12117255E+04</pdfrwt>
<pdfrwt beam="2">  1       -2 0.20309643E-01 0.12117255E+04</pdfrwt>
<totfact> 0.15690628E+01</totfact>
</mgrwt>
</event>
<event>
12    5  0.5095719E-008  0.1208755E+04  0.7818608E-02  0.9105228E-01
         -2   -1    0    0    0  501 -0.00000000000E+00  0.00000000000E+00  0.22689332379E+03  0.22689332379E+03  0.00000000000E+00 0.  1.
          1   -1    0    0  501    0  0.00000000000E+00 -0.00000000000E+00 -0.16098854103E+04  0.16098854103E+04  0.00000000000E+00 0. -1.
        -24    2    1    2    0    0 -0.15187831316E+03  0.85278081743E+02 -0.60524763716E+03  0.63493575954E+03  0.80494367665E+02 0.  0.
        254    2    1    2    0    0  0.15187831316E+03 -0.85278081743E+02 -0.77774444936E+03  0.12018429746E+04  0.89955585360E+03 0.  0.
         23    2    4    4    0    0 -0.27823449125E+03 -0.47715883475E+02  0.12022273540E+02  0.29706195643E+03  0.91706233373E+02 0.  0.
         23    2    4    4    0    0  0.43011280441E+03 -0.37562198267E+02 -0.78976672290E+03  0.90478101812E+03  0.92137239550E+02 0.  0.
          1    1    3    3  502    0 -0.15663246185E+03  0.70410650297E+02 -0.58294186785E+03  0.60771095850E+03  0.00000000000E+00 0. -1.
         -2    1    3    3    0  502  0.47541486953E+01  0.14867431446E+02 -0.22305769306E+02  0.27224801045E+02  0.00000000000E+00 0.  1.
         13    1    5    5    0    0 -0.18185360932E+03 -0.19957901692E+02  0.50256819686E+02  0.18972295851E+03  0.00000000000E+00 0.  1.
        -13    1    5    5    0    0 -0.96380881933E+02 -0.27757981783E+02 -0.38234546146E+02  0.10733899792E+03  0.00000000000E+00 0. -1.
          3    1    6    6  503    0  0.32596088758E+03 -0.36010352997E+02 -0.51090979822E+03  0.60710465957E+03  0.00000000000E+00 0. -1.
         -3    1    6    6    0  503  0.10415191683E+03 -0.15518452709E+01 -0.27885692468E+03  0.29767635856E+03  0.00000000000E+00 0.  1.
<mgrwt>
<rscale>  0 0.12087551E+04</rscale>
<asrwt>0</asrwt>
<pdfrwt beam="1">  1        1 0.24767467E+00 0.12087551E+04</pdfrwt>
<pdfrwt beam="2">  1       -2 0.34906667E-01 0.12087551E+04</pdfrwt>
<totfact> 0.36722066E+01</totfact>
</mgrwt>
</event>
<event>
12    5  0.5095719E-008  0.1382162E+04  0.7818608E-02  0.8966833E-01
         -4   -1    0    0    0  501 -0.00000000000E+00  0.00000000000E+00  0.27479799218E+03  0.27479799218E+03  0.00000000000E+00 0.  1.
          1   -1    0    0  501    0  0.00000000000E+00 -0.00000000000E+00 -0.17379787918E+04  0.17379787918E+04  0.00000000000E+00 0. -1.
        -24    2    1    2    0    0  0.29467666545E+03 -0.24269139450E+03 -0.29606114398E+03  0.48948390096E+03  0.78796181380E+02 0.  0.
        254    2    1    2    0    0 -0.29467666545E+03  0.24269139450E+03 -0.11671196557E+04  0.15232928830E+04  0.90139861700E+03 0.  0.
         23    2    4    4    0    0 -0.58359612988E+03  0.27318612173E+03 -0.62722776697E+03  0.90348628654E+03  0.87508276155E+02 0.  0.
         23    2    4    4    0    0  0.28891946442E+03 -0.30494727236E+02 -0.53989188868E+03  0.61980659648E+03  0.90953725968E+02 0.  0.
          3    1    3    3  502    0  0.73051541353E+02 -0.77839375051E+02 -0.12589492596E+03  0.16506068092E+03  0.00000000000E+00 0. -1.
         -4    1    3    3    0  502  0.22162512410E+03 -0.16485201944E+03 -0.17016621801E+03  0.32442322004E+03  0.00000000000E+00 0.  1.
         13    1    5    5    0    0 -0.50042074422E+02  0.44399946040E+02 -0.92898197229E+02  0.11447986491E+03  0.00000000000E+00 0. -1.
        -13    1    5    5    0    0 -0.53355405545E+03  0.22878617569E+03 -0.53432956975E+03  0.78900642164E+03  0.00000000000E+00 0.  1.
          2    1    6    6  503    0  0.20855008197E+02 -0.24693591027E+02 -0.31994232163E+02  0.45478958832E+02  0.00000000000E+00 0. -1.
         -2    1    6    6    0  503  0.26806445623E+03 -0.58011362097E+01 -0.50789765651E+03  0.57432763765E+03  0.00000000000E+00 0.  1.
<mgrwt>
<rscale>  0 0.13821622E+04</rscale>
<asrwt>0</asrwt>
<pdfrwt beam="1">  1        1 0.26738135E+00 0.13821622E+04</pdfrwt>
<pdfrwt beam="2">  1       -4 0.42276614E-01 0.13821622E+04</pdfrwt>
<totfact> 0.11800176E+01</totfact>
</mgrwt>
</event>
<event>
12    5  0.5095719E-008  0.1816092E+04  0.7818608E-02  0.8697788E-01
         -2   -1    0    0    0  501 -0.00000000000E+00  0.00000000000E+00  0.81893908875E+03  0.81893908875E+03  0.00000000000E+00 0.  1.
          1   -1    0    0  501    0  0.00000000000E+00 -0.00000000000E+00 -0.10068485386E+04  0.10068485386E+04  0.00000000000E+00 0. -1.
        -24    2    1    2    0    0  0.10813964037E+02 -0.47146398461E+03 -0.56937332835E+03  0.74352083047E+03  0.79006377607E+02 0.  0.
        254    2    1    2    0    0 -0.10813964037E+02  0.47146398461E+03  0.38146387855E+03  0.10822667968E+04  0.89632109106E+03 0.  0.
         23    2    4    4    0    0 -0.30285582970E+03  0.26174624010E+03  0.54067829869E+03  0.67863504997E+03  0.89329505700E+02 0.  0.
         23    2    4    4    0    0  0.29204186566E+03  0.20971774451E+03 -0.15921442014E+03  0.40363174686E+03  0.91100888200E+02 0.  0.
          1    1    3    3  502    0  0.36444946481E+02 -0.28874411677E+03 -0.38562444454E+03  0.48312277044E+03  0.00000000000E+00 0. -1.
         -2    1    3    3    0  502 -0.25630982443E+02 -0.18271986784E+03 -0.18374888382E+03  0.26039806003E+03  0.00000000000E+00 0.  1.
         13    1    5    5    0    0 -0.35628012977E+02  0.83365789932E+01  0.22625671287E+02  0.43020632947E+02  0.00000000000E+00 0. -1.
        -13    1    5    5    0    0 -0.26722781673E+03  0.25340966111E+03  0.51805262740E+03  0.63561441703E+03  0.00000000000E+00 0.  1.
          3    1    6    6  503    0  0.19819137601E+03  0.12653892283E+03 -0.14773751056E+03  0.27770180508E+03  0.00000000000E+00 0. -1.
         -3    1    6    6    0  503  0.93850489653E+02  0.83178821674E+02 -0.11476909574E+02  0.12592994178E+03  0.00000000000E+00 0.  1.
<mgrwt>
<rscale>  0 0.18160921E+04</rscale>
<asrwt>0</asrwt>
<pdfrwt beam="1">  1        1 0.15489978E+00 0.18160921E+04</pdfrwt>
<pdfrwt beam="2">  1       -2 0.12599063E+00 0.18160921E+04</pdfrwt>
<totfact> 0.58032573E+00</totfact>
</mgrwt>
</event>
<event>
12    5  0.5095719E-008  0.1770467E+04  0.7818608E-02  0.8722164E-01
          1   -1    0    0  501    0  0.00000000000E+00  0.00000000000E+00  0.87148237724E+03  0.87148237724E+03  0.00000000000E+00 0. -1.
         -2   -1    0    0    0  501 -0.00000000000E+00 -0.00000000000E+00 -0.89920179471E+03  0.89920179471E+03  0.00000000000E+00 0.  1.
        -24    2    1    2    0    0 -0.10774769905E+03  0.69074628552E+01 -0.65595783841E+03  0.66964295253E+03  0.80521540027E+02 0.  0.
        254    2    1    2    0    0  0.10774769905E+03 -0.69074628552E+01  0.62823842094E+03  0.11010412194E+04  0.89774772271E+03 0.  0.
         23    2    4    4    0    0 -0.38541454851E+03 -0.36675994011E+02  0.33164405179E+03  0.51787666878E+03  0.91208356144E+02 0.  0.
         23    2    4    4    0    0  0.49316224756E+03  0.29768531156E+02  0.29659436914E+03  0.58316455065E+03  0.89540524093E+02 0.  0.
          1    1    3    3  502    0 -0.32028266644E+02  0.14792529762E+02 -0.66401203060E+02  0.75191412866E+02  0.00000000000E+00 0. -1.
         -2    1    3    3    0  502 -0.75719432406E+02 -0.78850669064E+01 -0.58955663535E+03  0.59445153967E+03  0.00000000000E+00 0.  1.
         13    1    5    5    0    0 -0.26241450652E+03 -0.67189142307E+02  0.23244284711E+03  0.35693897412E+03  0.00000000000E+00 0. -1.
        -13    1    5    5    0    0 -0.12300004199E+03  0.30513148296E+02  0.99201204680E+02  0.16093769465E+03  0.00000000000E+00 0.  1.
          1    1    6    6  503    0  0.49026084922E+02  0.13345548646E+02  0.63444373002E+02  0.81282526640E+02  0.00000000000E+00 0. -1.
         -1    1    6    6    0  503  0.44413616264E+03  0.16422982509E+02  0.23314999614E+03  0.50188202401E+03  0.00000000000E+00 0.  1.
<mgrwt>
<rscale>  0 0.17704672E+04</rscale>
<asrwt>0</asrwt>
<pdfrwt beam="1">  1        1 0.13407421E+00 0.17704672E+04</pdfrwt>
<pdfrwt beam="2">  1       -2 0.13833874E+00 0.17704672E+04</pdfrwt>
<totfact> 0.58987436E+00</totfact>
</mgrwt>
</event>
<event>
12    5  0.5095719E-008  0.1478781E+04  0.7818608E-02  0.8898687E-01
         -2   -1    0    0    0  501 -0.00000000000E+00  0.00000000000E+00  0.15198980262E+04  0.15198980262E+04  0.00000000000E+00 0.  1.
          1   -1    0    0  501    0  0.00000000000E+00 -0.00000000000E+00 -0.35969431296E+03  0.35969431296E+03  0.00000000000E+00 0. -1.
        -24    2    1    2    0    0  0.94294270109E+02  0.28783734782E+03 -0.85286930834E+02  0.32440877400E+03  0.78901482256E+02 0.  0.
        254    2    1    2    0    0 -0.94294270109E+02 -0.28783734782E+03  0.12454906440E+04  0.15551835651E+04  0.88068565827E+03 0.  0.
         23    2    4    4    0    0 -0.11422805800E+03 -0.30177516046E+03  0.13618671982E+04  0.14026385690E+04  0.92716735981E+02 0.  0.
         23    2    4    4    0    0  0.19933787890E+02  0.13937812647E+02 -0.11637655414E+03  0.15254499611E+03  0.95576435195E+02 0.  0.
          3    1    3    3  502    0  0.94269675380E+02  0.24065157971E+03 -0.96542261548E+02  0.27589918952E+03  0.00000000000E+00 0. -1.
         -2    1    3    3    0  502  0.24594729272E-01  0.47185768109E+02  0.11255330714E+02  0.48509584480E+02  0.00000000000E+00 0.  1.
         13    1    5    5    0    0 -0.95051767316E+02 -0.28150718460E+03  0.13145248650E+04  0.13476857030E+04  0.00000000000E+00 0. -1.
        -13    1    5    5    0    0 -0.19176290684E+02 -0.20267975857E+02  0.47342333168E+02  0.54952865981E+02  0.00000000000E+00 0.  1.
          1    1    6    6  503    0 -0.11640681501E+02  0.48024743233E+02 -0.77739740702E+02  0.92115952542E+02  0.00000000000E+00 0. -1.
         -1    1    6    6    0  503  0.31574469391E+02 -0.34086930586E+02 -0.38636813435E+02  0.60429043568E+02  0.00000000000E+00 0.  1.
<mgrwt>
<rscale>  0 0.14787815E+04</rscale>
<asrwt>0</asrwt>
<pdfrwt beam="1">  1        1 0.55337587E-01 0.14787815E+04</pdfrwt>
<pdfrwt beam="2">  1       -2 0.23383046E+00 0.14787815E+04</pdfrwt>
<totfact> 0.47324614E+00</totfact>
</mgrwt>
</event>
<event>
12    5  0.5095719E-008  0.1789503E+04  0.7818608E-02  0.8711901E-01
          1   -1    0    0  501    0  0.00000000000E+00  0.00000000000E+00  0.21322444504E+04  0.21322444504E+04  0.00000000000E+00 0. -1.
         -2   -1    0    0    0  501 -0.00000000000E+00 -0.00000000000E+00 -0.37546376830E+03  0.37546376830E+03  0.00000000000E+00 0.  1.
        -24    2    1    2    0    0 -0.40455328936E+02  0.44694767541E+03 -0.33339026171E+02  0.45736356523E+03  0.81676691549E+02 0.  0.
        254    2    1    2    0    0  0.40455328936E+02 -0.44694767541E+03  0.17901197083E+04  0.20503446535E+04  0.89330049251E+03 0.  0.
         23    2    4    4    0    0  0.17969969877E+03 -0.26279422646E+03  0.17707878206E+04  0.18014781811E+04  0.91001891794E+02 0.  0.
         23    2    4    4    0    0 -0.13924436983E+03 -0.18415344894E+03  0.19331887641E+02  0.24886647232E+03  0.90880756359E+02 0.  0.
          1    1    3    3  502    0 -0.43328840281E+02  0.10239199414E+03 -0.16342287161E+02  0.11237695144E+03  0.00000000000E+00 0. -1.
         -2    1    3    3    0  502  0.28735113450E+01  0.34455568127E+03 -0.16996739010E+02  0.34498661379E+03  0.00000000000E+00 0.  1.
         13    1    5    5    0    0  0.56124450631E+02 -0.14374948469E+03  0.68107289655E+03  0.69833670870E+03  0.00000000000E+00 0. -1.
        -13    1    5    5    0    0  0.12357524814E+03 -0.11904474178E+03  0.10897149241E+04  0.11031414724E+04  0.00000000000E+00 0.  1.
          3    1    6    6  503    0  0.53277396370E+01  0.10704785330E+01  0.12692324025E+02  0.13806731079E+02  0.00000000000E+00 0. -1.
         -3    1    6    6    0  503 -0.14457210947E+03 -0.18522392748E+03  0.66395636156E+01  0.23505974124E+03  0.00000000000E+00 0.  1.
<mgrwt>
<rscale>  0 0.17895033E+04</rscale>
<asrwt>0</asrwt>
<pdfrwt beam="1">  1        1 0.32803760E+00 0.17895033E+04</pdfrwt>
<pdfrwt beam="2">  1       -2 0.57763658E-01 0.17895033E+04</pdfrwt>
<totfact> 0.56401943E+00</totfact>
</mgrwt>
</event>
<event>
12    5  0.5095719E-008  0.1937612E+04  0.7818608E-02  0.8636358E-01
         -2   -1    0    0    0  501 -0.00000000000E+00  0.00000000000E+00  0.89779726628E+03  0.89779726628E+03  0.00000000000E+00 0.  1.
          1   -1    0    0  501    0  0.00000000000E+00 -0.00000000000E+00 -0.10454313577E+04  0.10454313577E+04  0.00000000000E+00 0. -1.
        -24    2    1    2    0    0  0.26090142937E+03 -0.14911978040E+03 -0.75697761915E+03  0.81841317660E+03  0.80490663937E+02 0.  0.
        254    2    1    2    0    0 -0.26090142937E+03  0.14911978040E+03  0.60934352774E+03  0.11248154474E+04  0.89643961933E+03 0.  0.
         23    2    4    4    0    0 -0.29025423851E+03 -0.64982278847E+02 -0.13892093621E+03  0.34075966092E+03  0.91366845506E+02 0.  0.
         23    2    4    4    0    0  0.29352809135E+02  0.21410205925E+03  0.74826446394E+03  0.78405578646E+03  0.90235741793E+02 0.  0.
          3    1    3    3  502    0  0.18251105353E+03 -0.59641725121E+02 -0.45562979330E+03  0.49443495890E+03  0.00000000000E+00 0. -1.
         -4    1    3    3    0  502  0.78390375842E+02 -0.89478055277E+02 -0.30134782585E+03  0.32397821770E+03  0.00000000000E+00 0.  1.
         13    1    5    5    0    0 -0.11947098458E+03 -0.72913597709E+02 -0.56090642655E+02  0.15078418047E+03  0.00000000000E+00 0. -1.
        -13    1    5    5    0    0 -0.17078325393E+03  0.79313188621E+01 -0.82830293553E+02  0.18997548045E+03  0.00000000000E+00 0.  1.
          3    1    6    6  503    0  0.29478497921E+02  0.21609795456E+03  0.75020759171E+03  0.78126739242E+03  0.00000000000E+00 0. -1.
         -3    1    6    6    0  503 -0.12568878658E+00 -0.19958953097E+01 -0.19431277678E+01  0.27883940325E+01  0.00000000000E+00 0.  1.
<mgrwt>
<rscale>  0 0.19376124E+04</rscale>
<asrwt>0</asrwt>
<pdfrwt beam="1">  1        1 0.16083559E+00 0.19376124E+04</pdfrwt>
<pdfrwt beam="2">  1       -2 0.13812266E+00 0.19376124E+04</pdfrwt>
<totfact> 0.42432782E+00</totfact>
</mgrwt>
</event>
<event>
12    5  0.5095719E-008  0.2868329E+04  0.7818608E-02  0.8282363E-01
          1   -1    0    0  501    0  0.00000000000E+00  0.00000000000E+00  0.11866967659E+04  0.11866967659E+04  0.00000000000E+00 0. -1.
         -2   -1    0    0    0  501 -0.00000000000E+00 -0.00000000000E+00 -0.17332378009E+04  0.17332378009E+04  0.00000000000E+00 0.  1.
        -24    2    1    2    0    0 -0.40995531263E+02  0.89705315607E+03  0.69552201910E+03  0.11387311107E+04  0.81071973826E+02 0.  0.
        254    2    1    2    0    0  0.40995531263E+02 -0.89705315607E+03 -0.12420630541E+04  0.17812034561E+04  0.90751315316E+03 0.  0.
         23    2    4    4    0    0 -0.34063734162E+03 -0.34666696971E+03 -0.89156494959E+03  0.10197601195E+04  0.93866157588E+02 0.  0.
         23    2    4    4    0    0  0.38163287288E+03 -0.55038618636E+03 -0.35049810453E+03  0.76144333661E+03  0.91533763121E+02 0.  0.
          1    1    3    3  502    0 -0.38623290208E+02  0.86891709937E+03  0.65270926200E+03  0.10874456606E+04  0.00000000000E+00 0. -1.
         -2    1    3    3    0  502 -0.23722410554E+01  0.28136056691E+02  0.42812757101E+02  0.51285450026E+02  0.00000000000E+00 0.  1.
         13    1    5    5    0    0 -0.20486696860E+03 -0.24712203718E+03 -0.65473344000E+03  0.72918835258E+03  0.00000000000E+00 0. -1.
        -13    1    5    5    0    0 -0.13577037302E+03 -0.99544932528E+02 -0.23683150959E+03  0.29057176689E+03  0.00000000000E+00 0.  1.
          3    1    6    6  503    0  0.31955051339E+03 -0.49608502131E+03 -0.28098894508E+03  0.65358065014E+03  0.00000000000E+00 0. -1.
         -3    1    6    6    0  503  0.62082359490E+02 -0.54301165046E+02 -0.69509159453E+02  0.10786268647E+03  0.00000000000E+00 0.  1.
<mgrwt>
<rscale>  0 0.28683289E+04</rscale>
<asrwt>0</asrwt>
<pdfrwt beam="1">  1        1 0.18256873E+00 0.28683289E+04</pdfrwt>
<pdfrwt beam="2">  1       -2 0.26665197E+00 0.28683289E+04</pdfrwt>
<totfact> 0.41939988E-01</totfact>
</mgrwt>
</event>
<event>
12    5  0.5095719E-008  0.1709772E+04  0.7818608E-02  0.8755810E-01
         -2   -1    0    0    0  501 -0.00000000000E+00  0.00000000000E+00  0.53201485012E+03  0.53201485012E+03  0.00000000000E+00 0.  1.
          1   -1    0    0  501    0  0.00000000000E+00 -0.00000000000E+00 -0.13737031575E+04  0.13737031575E+04  0.00000000000E+00 0. -1.
        -24    2    1    2    0    0 -0.46038044809E+02 -0.42629169205E+03  0.18566187962E+03  0.47392530771E+03  0.79314282822E+02 0.  0.
        254    2    1    2    0    0  0.46038044809E+02  0.42629169205E+03 -0.10273501870E+04  0.14317926999E+04  0.90040980698E+03 0.  0.
         23    2    4    4    0    0  0.15165834828E+03  0.14531876221E+03 -0.10883897347E+04  0.11122245715E+04  0.91287927414E+02 0.  0.
         23    2    4    4    0    0 -0.10562030347E+03  0.28097292984E+03  0.61039547698E+02  0.31956812837E+03  0.91085270360E+02 0.  0.
          3    1    3    3  502    0 -0.24158427298E+02 -0.11441213843E+03  0.15458269921E+02  0.11795221549E+03  0.00000000000E+00 0. -1.
         -4    1    3    3    0  502 -0.21879617511E+02 -0.31187955362E+03  0.17020360970E+03  0.35597309222E+03  0.00000000000E+00 0.  1.
         13    1    5    5    0    0  0.61532287329E+02  0.83222169467E+02 -0.32644790698E+03  0.34246224295E+03  0.00000000000E+00 0. -1.
        -13    1    5    5    0    0  0.90126060952E+02  0.62096592742E+02 -0.76194182770E+03  0.76976232857E+03  0.00000000000E+00 0.  1.
          3    1    6    6  503    0 -0.57146500166E+02  0.24640494447E+03  0.60270049344E+02  0.26002614866E+03  0.00000000000E+00 0.  1.
         -3    1    6    6    0  503 -0.48473803306E+02  0.34567985373E+02  0.76949835426E+00  0.59541979707E+02  0.00000000000E+00 0. -1.
<mgrwt>
<rscale>  0 0.17097725E+04</rscale>
<asrwt>0</asrwt>
<pdfrwt beam="1">  1        1 0.21133895E+00 0.17097725E+04</pdfrwt>
<pdfrwt beam="2">  1       -2 0.81848438E-01 0.17097725E+04</pdfrwt>
<totfact> 0.87811798E+00</totfact>
</mgrwt>
</event>
<event>
12    5  0.5095719E-008  0.1258337E+04  0.7818608E-02  0.9063273E-01
         -2   -1    0    0    0  501 -0.00000000000E+00  0.00000000000E+00  0.12761149195E+03  0.12761149195E+03  0.00000000000E+00 0.  1.
          1   -1    0    0  501    0  0.00000000000E+00 -0.00000000000E+00 -0.31020167480E+04  0.31020167480E+04  0.00000000000E+00 0. -1.
        -24    2    1    2    0    0  0.79054909435E+01 -0.29452285461E+03 -0.68454795408E+03  0.74950803462E+03  0.79688040814E+02 0.  0.
        254    2    1    2    0    0 -0.79054909435E+01  0.29452285461E+03 -0.22898573019E+04  0.24801202053E+04  0.90594898354E+03 0.  0.
         23    2    4    4    0    0 -0.17249501191E+03  0.29813941768E+03 -0.25862681341E+03  0.44016640790E+03  0.90647650367E+02 0.  0.
         23    2    4    4    0    0  0.16458952097E+03 -0.36165630729E+01 -0.20312304885E+04  0.20399537974E+04  0.91713728623E+02 0.  0.
          3    1    3    3  502    0  0.34561970147E+02 -0.14263804729E+03 -0.39630111639E+03  0.42260468190E+03  0.00000000000E+00 0. -1.
         -4    1    3    3    0  502 -0.26656479204E+02 -0.15188480732E+03 -0.28824683769E+03  0.32690335272E+03  0.00000000000E+00 0.  1.
         13    1    5    5    0    0 -0.86697572734E+02  0.20447957284E+03 -0.20515643310E+03  0.30235331463E+03  0.00000000000E+00 0. -1.
        -13    1    5    5    0    0 -0.85797439181E+02  0.93659844846E+02 -0.53470380318E+02  0.13781309328E+03  0.00000000000E+00 0.  1.
          1    1    6    6  503    0  0.50720231175E+02 -0.41928996521E+02 -0.88533652287E+03  0.88777888087E+03  0.00000000000E+00 0. -1.
         -1    1    6    6    0  503  0.11386928980E+03  0.38312433448E+02 -0.11458939657E+04  0.11521749165E+04  0.00000000000E+00 0.  1.
<mgrwt>
<rscale>  0 0.12583370E+04</rscale>
<asrwt>0</asrwt>
<pdfrwt beam="1">  1        1 0.47723333E+00 0.12583370E+04</pdfrwt>
<pdfrwt beam="2">  1       -2 0.19632538E-01 0.12583370E+04</pdfrwt>
<totfact> 0.97335726E+00</totfact>
</mgrwt>
</event>
<event>
12    5  0.5095719E-008  0.2357343E+04  0.7818608E-02  0.8455648E-01
          1   -1    0    0  501    0  0.00000000000E+00  0.00000000000E+00  0.19405423978E+04  0.19405423978E+04  0.00000000000E+00 0. -1.
         -2   -1    0    0    0  501 -0.00000000000E+00 -0.00000000000E+00 -0.71591688271E+03  0.71591688271E+03  0.00000000000E+00 0.  1.
        -24    2    1    2    0    0  0.73457719193E+03 -0.31499083675E+03 -0.15853834391E+03  0.81887426127E+03  0.81226665300E+02 0.  0.
        254    2    1    2    0    0 -0.73457719193E+03  0.31499083675E+03  0.13831638590E+04  0.18375850193E+04  0.90815943753E+03 0.  0.
         23    2    4    4    0    0 -0.81585623282E+03  0.47439599878E+03  0.13227838671E+04  0.16275666084E+04  0.92428077727E+02 0.  0.
         23    2    4    4    0    0  0.81279040896E+02 -0.15940516203E+03  0.60379991905E+02  0.21001841081E+03  0.91900496656E+02 0.  0.
          1    1    3    3  502    0  0.22153775283E+03 -0.10637644474E+03 -0.12302180936E+02  0.24606151178E+03  0.00000000000E+00 0. -1.
         -2    1    3    3    0  502  0.51303943910E+03 -0.20861439201E+03 -0.14623616298E+03  0.57281274950E+03  0.00000000000E+00 0.  1.
         13    1    5    5    0    0 -0.77387504587E+03  0.46762472709E+03  0.12808624019E+04  0.15678532982E+04  0.00000000000E+00 0. -1.
        -13    1    5    5    0    0 -0.41981186946E+02  0.67712716891E+01  0.41921465219E+02  0.59713310274E+02  0.00000000000E+00 0.  1.
          4    1    6    6  503    0  0.74537549661E+02 -0.16455389507E+03  0.72976672764E+02  0.19483178760E+03  0.00000000000E+00 0. -1.
         -4    1    6    6    0  503  0.67414912350E+01  0.51487330343E+01 -0.12596680859E+02  0.15186623213E+02  0.00000000000E+00 0.  1.
<mgrwt>
<rscale>  0 0.23573435E+04</rscale>
<asrwt>0</asrwt>
<pdfrwt beam="1">  1        1 0.29854498E+00 0.23573435E+04</pdfrwt>
<pdfrwt beam="2">  1       -2 0.11014106E+00 0.23573435E+04</pdfrwt>
<totfact> 0.16924549E+00</totfact>
</mgrwt>
</event>
<event>
12    5  0.5095719E-008  0.1288070E+04  0.7818608E-02  0.9039079E-01
         -2   -1    0    0    0  501 -0.00000000000E+00  0.00000000000E+00  0.67776979163E+03  0.67776979163E+03  0.00000000000E+00 0.  1.
          1   -1    0    0  501    0  0.00000000000E+00 -0.00000000000E+00 -0.61197963100E+03  0.61197963100E+03  0.00000000000E+00 0. -1.
        -24    2    1    2    0    0 -0.15247369278E+03  0.21936051864E+03 -0.17598388574E+03  0.33326340729E+03  0.93417913025E+02 0.  0.
        254    2    1    2    0    0  0.15247369278E+03 -0.21936051864E+03  0.24177404636E+03  0.95648601534E+03  0.88602683025E+03 0.  0.
         23    2    4    4    0    0 -0.33488467540E+03 -0.22759828282E+03  0.19600773744E+03  0.45867174376E+03  0.89509838732E+02 0.  0.
         23    2    4    4    0    0  0.48735836817E+03  0.82377641861E+01  0.45766308926E+02  0.49781427158E+03  0.90213381310E+02 0.  0.
          1    1    3    3  502    0 -0.14123243152E+03  0.22721953642E+03 -0.17461938295E+03  0.31947964935E+03  0.00000000000E+00 0. -1.
         -2    1    3    3    0  502 -0.11241261255E+02 -0.78590177870E+01 -0.13645027918E+01  0.13783757944E+02  0.00000000000E+00 0.  1.
         13    1    5    5    0    0 -0.12050521969E+03 -0.13476310278E+03  0.77151189601E+02  0.19655764523E+03  0.00000000000E+00 0. -1.
        -13    1    5    5    0    0 -0.21437945571E+03 -0.92835180046E+02  0.11885654784E+03  0.26211409853E+03  0.00000000000E+00 0.  1.
          2    1    6    6  503    0  0.34828144850E+02 -0.10953938372E+02 -0.17486999097E+02  0.40481891964E+02  0.00000000000E+00 0. -1.
         -2    1    6    6    0  503  0.45253022332E+03  0.19191702558E+02  0.63253308024E+02  0.45733237961E+03  0.00000000000E+00 0.  1.
<mgrwt>
<rscale>  0 0.12880704E+04</rscale>
<asrwt>0</asrwt>
<pdfrwt beam="1">  1        1 0.94150712E-01 0.12880704E+04</pdfrwt>
<pdfrwt beam="2">  1       -2 0.10427228E+00 0.12880704E+04</pdfrwt>
<totfact> 0.21409482E+01</totfact>
</mgrwt>
</event>
<event>
12    5  0.5095719E-008  0.1633536E+04  0.7818608E-02  0.8800206E-01
          1   -1    0    0  501    0  0.00000000000E+00  0.00000000000E+00  0.10417128231E+04  0.10417128231E+04  0.00000000000E+00 0. -1.
         -2   -1    0    0    0  501 -0.00000000000E+00 -0.00000000000E+00 -0.64039757992E+03  0.64039757992E+03  0.00000000000E+00 0.  1.
        -24    2    1    2    0    0 -0.24289884974E+03 -0.76757557628E+02 -0.37977348907E+03  0.46404240934E+03  0.78840857457E+02 0.  0.
        254    2    1    2    0    0  0.24289884974E+03  0.76757557628E+02  0.78108873226E+03  0.12180679937E+04  0.89927662914E+03 0.  0.
         23    2    4    4    0    0  0.43631270004E+03 -0.20053461550E+03  0.70754349346E+03  0.86013375435E+03  0.92894434685E+02 0.  0.
         23    2    4    4    0    0 -0.19341385030E+03  0.27729217313E+03  0.73545238795E+02  0.35793423933E+03  0.91695969225E+02 0.  0.
          3    1    3    3  502    0 -0.20576713948E+03 -0.73648531693E+02 -0.26569141269E+03  0.34402928463E+03  0.00000000000E+00 0. -1.
         -4    1    3    3    0  502 -0.37131710263E+02 -0.31090259342E+01 -0.11408207638E+03  0.12001312470E+03  0.00000000000E+00 0.  1.
         13    1    5    5    0    0  0.40793559703E+03 -0.15720626482E+03  0.63834261828E+03  0.77369668433E+03  0.00000000000E+00 0. -1.
        -13    1    5    5    0    0  0.28377103012E+02 -0.43328350681E+02  0.69200875182E+02  0.86437070022E+02  0.00000000000E+00 0.  1.
          4    1    6    6  503    0 -0.28460402780E+02  0.10062837580E+01  0.74091990604E+01  0.29426235983E+02  0.00000000000E+00 0. -1.
         -4    1    6    6    0  503 -0.16495344752E+03  0.27628588937E+03  0.66136039735E+02  0.32850800335E+03  0.00000000000E+00 0.  1.
<mgrwt>
<rscale>  0 0.16335365E+04</rscale>
<asrwt>0</asrwt>
<pdfrwt beam="1">  1        1 0.16026351E+00 0.16335365E+04</pdfrwt>
<pdfrwt beam="2">  1       -2 0.98522705E-01 0.16335365E+04</pdfrwt>
<totfact> 0.10080874E+01</totfact>
</mgrwt>
</event>
<event>
12    5  0.5095719E-008  0.1900469E+04  0.7818608E-02  0.8654623E-01
          1   -1    0    0  501    0  0.00000000000E+00  0.00000000000E+00  0.64480539760E+03  0.64480539760E+03  0.00000000000E+00 0. -1.
         -2   -1    0    0    0  501 -0.00000000000E+00 -0.00000000000E+00 -0.14003387396E+04  0.14003387396E+04  0.00000000000E+00 0.  1.
        -24    2    1    2    0    0  0.53270147107E+03  0.45242246183E+03 -0.53532199566E+03  0.88436504817E+03  0.84112770359E+02 0.  0.
        254    2    1    2    0    0 -0.53270147107E+03 -0.45242246183E+03 -0.22021134630E+03  0.11607790890E+04  0.90025447243E+03 0.  0.
         23    2    4    4    0    0 -0.10809194732E+03 -0.53124499691E+03 -0.40345048549E+03  0.68261526684E+03  0.96364892232E+02 0.  0.
         23    2    4    4    0    0 -0.42460952375E+03  0.78822535081E+02  0.18323913919E+03  0.47816382215E+03  0.92508480598E+02 0.  0.
          1    1    3    3  502    0  0.84893220340E+02  0.37715762782E+02 -0.57677186989E+02  0.10934347498E+03  0.00000000000E+00 0. -1.
         -2    1    3    3    0  502  0.44780825073E+03  0.41470669905E+03 -0.47764480867E+03  0.77502157319E+03  0.00000000000E+00 0.  1.
         13    1    5    5    0    0 -0.80231865608E+01  0.10961363735E+01 -0.11282527895E+02  0.13887709431E+02  0.00000000000E+00 0.  1.
        -13    1    5    5    0    0 -0.10006876076E+03 -0.53234113329E+03 -0.39216795760E+03  0.66872755741E+03  0.00000000000E+00 0. -1.
          4    1    6    6  503    0 -0.31633434056E+03  0.24434571525E+02  0.10619850895E+03  0.33457822195E+03  0.00000000000E+00 0. -1.
         -4    1    6    6    0  503 -0.10827518320E+03  0.54387963555E+02  0.77040630246E+02  0.14358560020E+03  0.00000000000E+00 0.  1.
<mgrwt>
<rscale>  0 0.19004694E+04</rscale>
<asrwt>0</asrwt>
<pdfrwt beam="1">  1        1 0.99200831E-01 0.19004694E+04</pdfrwt>
<pdfrwt beam="2">  1       -2 0.21543673E+00 0.19004694E+04</pdfrwt>
<totfact> 0.26665770E+00</totfact>
</mgrwt>
</event>
<event>
12    5  0.5095719E-008  0.1633931E+04  0.7818608E-02  0.8799970E-01
          1   -1    0    0  501    0  0.00000000000E+00  0.00000000000E+00  0.90567163864E+03  0.90567163864E+03  0.00000000000E+00 0. -1.
         -2   -1    0    0    0  501 -0.00000000000E+00 -0.00000000000E+00 -0.73694731683E+03  0.73694731683E+03  0.00000000000E+00 0.  1.
        -24    2    1    2    0    0  0.63829008464E+02  0.62304644310E+02 -0.48795614487E+03  0.50257965397E+03  0.80802835655E+02 0.  0.
        254    2    1    2    0    0 -0.63829008464E+02 -0.62304644310E+02  0.65668046668E+03  0.11400393015E+04  0.92763374379E+03 0.  0.
         23    2    4    4    0    0  0.20478296144E+03 -0.34604186336E+03  0.60986373191E+03  0.73610426440E+03  0.90745160072E+02 0.  0.
         23    2    4    4    0    0 -0.26861196990E+03  0.28373721905E+03  0.46816734770E+02  0.40393503710E+03  0.91172954842E+02 0.  0.
          1    1    3    3  502    0 -0.16781083722E+01 -0.16282821932E+02 -0.10144425020E+03  0.10275642187E+03  0.00000000000E+00 0. -1.
         -2    1    3    3    0  502  0.65507116836E+02  0.78587466243E+02 -0.38651189467E+03  0.39982323210E+03  0.00000000000E+00 0.  1.
         13    1    5    5    0    0  0.21096388669E+03 -0.30590000581E+03  0.55035652857E+03  0.66405789174E+03  0.00000000000E+00 0.  1.
        -13    1    5    5    0    0 -0.61809252482E+01 -0.40141857546E+02  0.59507203339E+02  0.72046372660E+02  0.00000000000E+00 0. -1.
          1    1    6    6  503    0 -0.96454468300E+02  0.65220857510E+02 -0.19237798487E+02  0.11801405679E+03  0.00000000000E+00 0. -1.
         -1    1    6    6    0  503 -0.17215750160E+03  0.21851636154E+03  0.66054533257E+02  0.28592098031E+03  0.00000000000E+00 0.  1.
<mgrwt>
<rscale>  0 0.16339306E+04</rscale>
<asrwt>0</asrwt>
<pdfrwt beam="1">  1        1 0.13933410E+00 0.16339306E+04</pdfrwt>
<pdfrwt beam="2">  1       -2 0.11337651E+00 0.16339306E+04</pdfrwt>
<totfact> 0.92152973E+00</totfact>
</mgrwt>
</event>
<event>
12    5  0.5095719E-008  0.1266728E+04  0.7818608E-02  0.9056374E-01
          1   -1    0    0  501    0  0.00000000000E+00  0.00000000000E+00  0.65281188624E+03  0.65281188624E+03  0.00000000000E+00 0. -1.
         -2   -1    0    0    0  501 -0.00000000000E+00 -0.00000000000E+00 -0.61449577468E+03  0.61449577468E+03  0.00000000000E+00 0.  1.
        -24    2    1    2    0    0 -0.13108879935E+03 -0.32121060788E+02  0.28142561326E+03  0.32670626357E+03  0.96543104345E+02 0.  0.
        254    2    1    2    0    0  0.13108879935E+03  0.32121060788E+02 -0.24310950170E+03  0.94060139734E+03  0.89856147425E+03 0.  0.
         23    2    4    4    0    0  0.27146236579E+02 -0.40022300837E+03 -0.25886611315E+03  0.48609774599E+03  0.91454795032E+02 0.  0.
         23    2    4    4    0    0  0.10394256277E+03  0.43234406915E+03  0.15756611449E+02  0.45450365135E+03  0.92735364351E+02 0.  0.
          3    1    3    3  502    0 -0.13832875472E+03 -0.29397863996E+02  0.20018462593E+03  0.24509786463E+03  0.00000000000E+00 0. -1.
         -4    1    3    3    0  502  0.72399553699E+01 -0.27231967913E+01  0.81240987332E+02  0.81608398937E+02  0.00000000000E+00 0.  1.
         13    1    5    5    0    0  0.55518912123E+02 -0.20886186747E+03 -0.11343215574E+03  0.24407474929E+03  0.00000000000E+00 0. -1.
        -13    1    5    5    0    0 -0.28372675545E+02 -0.19136114089E+03 -0.14543395741E+03  0.24202299670E+03  0.00000000000E+00 0.  1.
          1    1    6    6  503    0  0.90363850030E+01  0.62395483006E+02  0.34964483345E+02  0.72092771129E+02  0.00000000000E+00 0. -1.
         -1    1    6    6    0  503  0.94906177767E+02  0.36994858615E+03 -0.19207871896E+02  0.38241088022E+03  0.00000000000E+00 0.  1.
<mgrwt>
<rscale>  0 0.12667283E+04</rscale>
<asrwt>0</asrwt>
<pdfrwt beam="1">  1        1 0.10043260E+00 0.12667283E+04</pdfrwt>
<pdfrwt beam="2">  1       -2 0.94537811E-01 0.12667283E+04</pdfrwt>
<totfact> 0.24602203E+01</totfact>
</mgrwt>
</event>
<event>
12    5  0.5095719E-008  0.1792339E+04  0.7818608E-02  0.8710384E-01
          1   -1    0    0  501    0  0.00000000000E+00  0.00000000000E+00  0.11828947636E+04  0.11828947636E+04  0.00000000000E+00 0. -1.
         -2   -1    0    0    0  501 -0.00000000000E+00 -0.00000000000E+00 -0.67894436403E+03  0.67894436403E+03  0.00000000000E+00 0.  1.
        -24    2    1    2    0    0  0.76899069942E+02  0.51766178501E+03  0.61854288445E+03  0.81416650616E+03  0.79903749833E+02 0.  0.
        254    2    1    2    0    0 -0.76899069942E+02 -0.51766178501E+03 -0.11459248484E+03  0.10476726215E+04  0.90033287936E+03 0.  0.
         23    2    4    4    0    0  0.14109772208E+03 -0.55271258806E+03 -0.37932564084E+03  0.69159333261E+03  0.94940106035E+02 0.  0.
         23    2    4    4    0    0 -0.21799679202E+03  0.35050803043E+02  0.26473315601E+03  0.35607928890E+03  0.89205694693E+02 0.  0.
          3    1    3    3  502    0  0.69249132947E+02  0.51137499192E+03  0.61664604101E+03  0.80408467506E+03  0.00000000000E+00 0. -1.
         -4    1    3    3    0  502  0.76499369948E+01  0.62867930935E+01  0.18968434433E+01  0.10081831107E+02  0.00000000000E+00 0.  1.
         13    1    5    5    0    0  0.41418299565E+02 -0.26521223416E+03 -0.13023605936E+03  0.29835287135E+03  0.00000000000E+00 0.  1.
        -13    1    5    5    0    0  0.99679422518E+02 -0.28750035390E+03 -0.24908958149E+03  0.39324046126E+03  0.00000000000E+00 0. -1.
          3    1    6    6  503    0 -0.18579631235E+03  0.20935893950E+02  0.26051929122E+03  0.32066942860E+03  0.00000000000E+00 0. -1.
         -3    1    6    6    0  503 -0.32200479674E+02  0.14114909094E+02  0.42138647834E+01  0.35409860298E+02  0.00000000000E+00 0.  1.
<mgrwt>
<rscale>  0 0.17923390E+04</rscale>
<asrwt>0</asrwt>
<pdfrwt beam="1">  1        1 0.18198381E+00 0.17923390E+04</pdfrwt>
<pdfrwt beam="2">  1       -2 0.10445298E+00 0.17923390E+04</pdfrwt>
<totfact> 0.67806486E+00</totfact>
</mgrwt>
</event>
<event>
12    5  0.5095719E-008  0.1799852E+04  0.7818608E-02  0.8706378E-01
          1   -1    0    0  501    0  0.00000000000E+00  0.00000000000E+00  0.16026324096E+04  0.16026324096E+04  0.00000000000E+00 0. -1.
         -4   -1    0    0    0  501 -0.00000000000E+00 -0.00000000000E+00 -0.50533542487E+03  0.50533542487E+03  0.00000000000E+00 0.  1.
        -24    2    1    2    0    0  0.42056754489E+03 -0.50661503326E+03  0.23721871568E+03  0.70429094514E+03  0.78848998710E+02 0.  0.
        254    2    1    2    0    0 -0.42056754489E+03  0.50661503326E+03  0.86007826901E+03  0.14036768893E+04  0.89277003140E+03 0.  0.
         23    2    4    4    0    0 -0.15299092284E+03 -0.19285485597E+02 -0.14802878645E+03  0.23212671268E+03  0.90510423119E+02 0.  0.
         23    2    4    4    0    0 -0.26757662205E+03  0.52590051886E+03  0.10081070555E+04  0.11715501766E+04  0.89896477459E+02 0.  0.
          1    1    3    3  502    0  0.39361507651E+02 -0.59373764532E+02  0.18799679487E+01  0.71260834115E+02  0.00000000000E+00 0. -1.
         -4    1    3    3    0  502  0.38120603724E+03 -0.44724126873E+03  0.23533874773E+03  0.63303011103E+03  0.00000000000E+00 0.  1.
         13    1    5    5    0    0 -0.15537612056E+03  0.49431868398E+00 -0.11406467865E+03  0.19275044515E+03  0.00000000000E+00 0. -1.
        -13    1    5    5    0    0  0.23851977162E+01 -0.19779804281E+02 -0.33964107796E+02  0.39376267522E+02  0.00000000000E+00 0.  1.
          2    1    6    6  503    0 -0.11519245034E+03  0.13590821074E+03  0.30241408469E+03  0.35099091296E+03  0.00000000000E+00 0.  1.
         -2    1    6    6    0  503 -0.15238417171E+03  0.38999230812E+03  0.70569297077E+03  0.82055926366E+03  0.00000000000E+00 0. -1.
<mgrwt>
<rscale>  0 0.17998521E+04</rscale>
<asrwt>0</asrwt>
<pdfrwt beam="1">  1        1 0.24655883E+00 0.17998521E+04</pdfrwt>
<pdfrwt beam="2">  1       -4 0.77743912E-01 0.17998521E+04</pdfrwt>
<totfact> 0.38102580E+00</totfact>
</mgrwt>
</event>
<event>
12    5  0.5095719E-008  0.1811134E+04  0.7818608E-02  0.8700401E-01
          1   -1    0    0  501    0  0.00000000000E+00  0.00000000000E+00  0.83341332958E+03  0.83341332958E+03  0.00000000000E+00 0. -1.
         -2   -1    0    0    0  501 -0.00000000000E+00 -0.00000000000E+00 -0.98396727444E+03  0.98396727444E+03  0.00000000000E+00 0.  1.
        -24    2    1    2    0    0 -0.39495852494E+03 -0.23214168033E+03  0.44249458890E+03  0.64201143893E+03  0.80592991833E+02 0.  0.
        254    2    1    2    0    0  0.39495852494E+03  0.23214168033E+03 -0.59304853376E+03  0.11753691651E+04  0.90548556846E+03 0.  0.
         23    2    4    4    0    0  0.49951447430E+03  0.49848054922E+03 -0.45827344527E+03  0.84630310715E+03  0.90646734895E+02 0.  0.
         23    2    4    4    0    0 -0.10455594936E+03 -0.26633886888E+03 -0.13477508849E+03  0.32906605795E+03  0.90839453929E+02 0.  0.
          3    1    3    3  502    0 -0.25177408516E+03 -0.10318358044E+03  0.27158887175E+03  0.38444447777E+03  0.00000000000E+00 0. -1.
         -4    1    3    3    0  502 -0.14318443979E+03 -0.12895809989E+03  0.17090571715E+03  0.25756696116E+03  0.00000000000E+00 0.  1.
         13    1    5    5    0    0  0.43444255169E+03  0.47024400635E+03 -0.40451016246E+03  0.75729665769E+03  0.00000000000E+00 0.  1.
        -13    1    5    5    0    0  0.65071922615E+02  0.28236542869E+02 -0.53763282814E+02  0.89006449457E+02  0.00000000000E+00 0. -1.
          3    1    6    6  503    0 -0.53126452593E+02 -0.36056851137E+02 -0.30993854307E+02  0.71296111281E+02  0.00000000000E+00 0. -1.
         -3    1    6    6    0  503 -0.51429496766E+02 -0.23028201775E+03 -0.10378123418E+03  0.25776994666E+03  0.00000000000E+00 0.  1.
<mgrwt>
<rscale>  0 0.18111338E+04</rscale>
<asrwt>0</asrwt>
<pdfrwt beam="1">  1        1 0.12821743E+00 0.18111338E+04</pdfrwt>
<pdfrwt beam="2">  1       -2 0.15137958E+00 0.18111338E+04</pdfrwt>
<totfact> 0.49950173E+00</totfact>
</mgrwt>
</event>
<event>
12    5  0.5095719E-008  0.3497864E+04  0.7818608E-02  0.8114296E-01
          1   -1    0    0  501    0  0.00000000000E+00  0.00000000000E+00  0.16097827769E+04  0.16097827769E+04  0.00000000000E+00 0. -1.
         -2   -1    0    0    0  501 -0.00000000000E+00 -0.00000000000E+00 -0.19001088965E+04  0.19001088965E+04  0.00000000000E+00 0.  1.
        -24    2    1    2    0    0 -0.52078404011E+03  0.13671660900E+04 -0.82408905179E+03  0.16811521581E+04  0.82405578742E+02 0.  0.
        254    2    1    2    0    0  0.52078404011E+03 -0.13671660900E+04  0.53376293217E+03  0.18287395153E+04  0.95865854877E+03 0.  0.
         23    2    4    4    0    0  0.28409480111E+03 -0.11056839111E+04 -0.43509540956E+02  0.11461456827E+04  0.92250087056E+02 0.  0.
         23    2    4    4    0    0  0.23668923900E+03 -0.26148217890E+03  0.57727247312E+03  0.68259383263E+03  0.91082964251E+02 0.  0.
          3    1    3    3  502    0 -0.36587701625E+03  0.10117543441E+04 -0.56922870674E+03  0.12171828805E+04  0.00000000000E+00 0. -1.
         -4    1    3    3    0  502 -0.15490702385E+03  0.35541174583E+03 -0.25486034506E+03  0.46396927764E+03  0.00000000000E+00 0.  1.
         13    1    5    5    0    0  0.26125258471E+03 -0.91224350844E+03 -0.13130997672E+02  0.94900661473E+03  0.00000000000E+00 0. -1.
        -13    1    5    5    0    0  0.22842216399E+02 -0.19344040264E+03 -0.30378543284E+02  0.19713906796E+03  0.00000000000E+00 0.  1.
          4    1    6    6  503    0  0.22406392803E+03 -0.21161726925E+03  0.52797843154E+03  0.61134911193E+03  0.00000000000E+00 0. -1.
         -4    1    6    6    0  503  0.12625310963E+02 -0.49864909648E+02  0.49294041584E+02  0.71244720695E+02  0.00000000000E+00 0.  1.
<mgrwt>
<rscale>  0 0.34978637E+04</rscale>
<asrwt>0</asrwt>
<pdfrwt beam="1">  1        1 0.24765889E+00 0.34978637E+04</pdfrwt>
<pdfrwt beam="2">  1       -2 0.29232444E+00 0.34978637E+04</pdfrwt>
<totfact> 0.13946676E-01</totfact>
</mgrwt>
</event>
<event>
12    5  0.5095719E-008  0.1211976E+04  0.7818608E-02  0.9102438E-01
         -2   -1    0    0    0  501 -0.00000000000E+00  0.00000000000E+00  0.15056977775E+03  0.15056977775E+03  0.00000000000E+00 0.  1.
          1   -1    0    0  501    0  0.00000000000E+00 -0.00000000000E+00 -0.24388808137E+04  0.24388808137E+04  0.00000000000E+00 0. -1.
        -24    2    1    2    0    0 -0.10465853687E+02 -0.18696769257E+03 -0.12471494856E+03  0.23928319866E+03  0.81462743672E+02 0.  0.
        254    2    1    2    0    0  0.10465853687E+02  0.18696769257E+03 -0.21635960874E+04  0.23501673928E+04  0.89837202350E+03 0.  0.
         23    2    4    4    0    0 -0.18306727065E+02 -0.17101126025E+03 -0.18605795326E+04  0.18712050886E+04  0.10036084572E+03 0.  0.
         23    2    4    4    0    0  0.28772580752E+02  0.35797895282E+03 -0.30301655479E+03  0.47896230412E+03  0.92785043117E+02 0.  0.
          3    1    3    3  502    0  0.17924479017E+02 -0.11886011010E+02 -0.33564496466E+02  0.39864014208E+02  0.00000000000E+00 0. -1.
         -4    1    3    3    0  502 -0.28390332705E+02 -0.17508168156E+03 -0.91150452095E+02  0.19941918445E+03  0.00000000000E+00 0.  1.
         13    1    5    5    0    0 -0.43417600629E+02 -0.89492722289E+02 -0.64372909416E+03  0.65136869902E+03  0.00000000000E+00 0.  1.
        -13    1    5    5    0    0  0.25110873565E+02 -0.81518537962E+02 -0.12168504384E+04  0.12198363896E+04  0.00000000000E+00 0. -1.
          4    1    6    6  503    0 -0.19986969396E+02  0.25881577900E+03 -0.22698601275E+03  0.34483001085E+03  0.00000000000E+00 0. -1.
         -4    1    6    6    0  503  0.48759550148E+02  0.99163173824E+02 -0.76030542044E+02  0.13413229327E+03  0.00000000000E+00 0.  1.
<mgrwt>
<rscale>  0 0.12119765E+04</rscale>
<asrwt>0</asrwt>
<pdfrwt beam="1">  1        1 0.37521243E+00 0.12119765E+04</pdfrwt>
<pdfrwt beam="2">  1       -2 0.23164581E-01 0.12119765E+04</pdfrwt>
<totfact> 0.21464082E+01</totfact>
</mgrwt>
</event>
<event>
12    5  0.5095719E-008  0.1525978E+04  0.7818608E-02  0.8867359E-01
          3   -1    0    0  501    0  0.00000000000E+00  0.00000000000E+00  0.21083496507E+04  0.21083496507E+04  0.00000000000E+00 0. -1.
         -4   -1    0    0    0  501 -0.00000000000E+00 -0.00000000000E+00 -0.27611750928E+03  0.27611750928E+03  0.00000000000E+00 0.  1.
        -24    2    1    2    0    0  0.16192953930E+03 -0.38117253720E+03  0.17683303387E+03  0.45767709120E+03  0.81760131633E+02 0.  0.
        254    2    1    2    0    0 -0.16192953930E+03  0.38117253720E+03  0.16553991076E+04  0.19267900688E+04  0.89479611370E+03 0.  0.
         23    2    4    4    0    0 -0.61827919954E+02 -0.15422441916E+03  0.78566494988E+01  0.18939362767E+03  0.90555817639E+02 0.  0.
         23    2    4    4    0    0 -0.10010161935E+03  0.53539695637E+03  0.16475424581E+04  0.17373964411E+04  0.86487036228E+02 0.  0.
          3    1    3    3  502    0 -0.42297895050E+01 -0.28045668871E+02  0.28398376721E+02  0.40136248729E+02  0.00000000000E+00 0. -1.
         -4    1    3    3    0  502  0.16615932881E+03 -0.35312686833E+03  0.14843465715E+03  0.41754084247E+03  0.00000000000E+00 0.  1.
         13    1    5    5    0    0 -0.34738379249E+02 -0.15775504780E+03  0.24950676254E+01  0.16155381599E+03  0.00000000000E+00 0. -1.
        -13    1    5    5    0    0 -0.27089540705E+02  0.35306286339E+01  0.53615818735E+01  0.27839811679E+02  0.00000000000E+00 0.  1.
          1    1    6    6  503    0 -0.11563883459E+03  0.48791334507E+03  0.15078470911E+04  0.15890357525E+04  0.00000000000E+00 0. -1.
         -1    1    6    6    0  503  0.15537215245E+02  0.47483611299E+02  0.13969536694E+03  0.14836068867E+03  0.00000000000E+00 0.  1.
<mgrwt>
<rscale>  0 0.15259781E+04</rscale>
<asrwt>0</asrwt>
<pdfrwt beam="1">  1        3 0.32436147E+00 0.15259781E+04</pdfrwt>
<pdfrwt beam="2">  1       -4 0.42479618E-01 0.15259781E+04</pdfrwt>
<totfact> 0.34153475E-01</totfact>
</mgrwt>
</event>
<event>
12    5  0.5095719E-008  0.1926554E+04  0.7818608E-02  0.8641750E-01
          1   -1    0    0  501    0  0.00000000000E+00  0.00000000000E+00  0.35592499563E+04  0.35592499563E+04  0.00000000000E+00 0. -1.
         -2   -1    0    0    0  501 -0.00000000000E+00 -0.00000000000E+00 -0.26070176546E+03  0.26070176546E+03  0.00000000000E+00 0.  1.
        -24    2    1    2    0    0 -0.42733224652E+03  0.60847589528E+03  0.11803988763E+04  0.13973715288E+04  0.80311384085E+02 0.  0.
        254    2    1    2    0    0  0.42733224652E+03 -0.60847589528E+03  0.21181493146E+04  0.24225801930E+04  0.91075930322E+03 0.  0.
         23    2    4    4    0    0  0.93668219117E+02  0.12664555958E+03  0.11247806358E+04  0.11394015673E+04  0.91058332318E+02 0.  0.
         23    2    4    4    0    0  0.33366402740E+03 -0.73512145486E+03  0.99336867885E+03  0.12831786257E+04  0.89614824533E+02 0.  0.
          1    1    3    3  502    0 -0.33614538212E+02  0.21586760598E+02  0.82753293121E+02  0.91891419266E+02  0.00000000000E+00 0. -1.
         -2    1    3    3    0  502 -0.39371770831E+03  0.58688913468E+03  0.10976455831E+04  0.13054801095E+04  0.00000000000E+00 0.  1.
         13    1    5    5    0    0  0.95530540150E+02  0.58420212254E+02  0.62046149754E+03  0.63048511103E+03  0.00000000000E+00 0.  1.
        -13    1    5    5    0    0 -0.18623210325E+01  0.68225347331E+02  0.50431913824E+03  0.50891645626E+03  0.00000000000E+00 0. -1.
          4    1    6    6  503    0  0.18844726534E+03 -0.31258416210E+03  0.46840845797E+03  0.59382464896E+03  0.00000000000E+00 0. -1.
         -4    1    6    6    0  503  0.14521676206E+03 -0.42253729277E+03  0.52496022088E+03  0.68935397676E+03  0.00000000000E+00 0.  1.
<mgrwt>
<rscale>  0 0.19265542E+04</rscale>
<asrwt>0</asrwt>
<pdfrwt beam="1">  1        1 0.54757688E+00 0.19265542E+04</pdfrwt>
<pdfrwt beam="2">  1       -2 0.40107966E-01 0.19265542E+04</pdfrwt>
<totfact> 0.10880062E+00</totfact>
</mgrwt>
</event>
<event>
12    5  0.5095719E-008  0.1400751E+04  0.7818608E-02  0.8953275E-01
          1   -1    0    0  501    0  0.00000000000E+00  0.00000000000E+00  0.15836984332E+04  0.15836984332E+04  0.00000000000E+00 0. -1.
         -2   -1    0    0    0  501 -0.00000000000E+00 -0.00000000000E+00 -0.30973432042E+03  0.30973432042E+03  0.00000000000E+00 0.  1.
        -24    2    1    2    0    0 -0.25701913752E+01 -0.22260412936E+03 -0.73889766329E+02  0.25125505571E+03  0.90056655279E+02 0.  0.
        254    2    1    2    0    0  0.25701913752E+01  0.22260412936E+03  0.13478538791E+04  0.16421776979E+04  0.91130582563E+03 0.  0.
         23    2    4    4    0    0 -0.26337026879E+03  0.47233870314E+03  0.93479569196E+03  0.10837728340E+04  0.90845038052E+02 0.  0.
         23    2    4    4    0    0  0.26594046017E+03 -0.24973457377E+03  0.41305818717E+03  0.55840486398E+03  0.90040215686E+02 0.  0.
          1    1    3    3  502    0  0.34899546614E+02 -0.50119480542E+02 -0.35429477058E+02  0.70605867520E+02  0.00000000000E+00 0. -1.
         -2    1    3    3    0  502 -0.37469737990E+02 -0.17248464882E+03 -0.38460289271E+02  0.18064918819E+03  0.00000000000E+00 0.  1.
         13    1    5    5    0    0 -0.11655228034E+03  0.27356668714E+03  0.57419667105E+03  0.64662584499E+03  0.00000000000E+00 0. -1.
        -13    1    5    5    0    0 -0.14681798845E+03  0.19877201599E+03  0.36059902092E+03  0.43714698897E+03  0.00000000000E+00 0.  1.
          2    1    6    6  503    0  0.88007801175E+02 -0.12140950185E+03  0.11846784606E+03  0.19110277538E+03  0.00000000000E+00 0. -1.
         -2    1    6    6    0  503  0.17793265899E+03 -0.12832507193E+03  0.29459034111E+03  0.36730208861E+03  0.00000000000E+00 0.  1.
<mgrwt>
<rscale>  0 0.14007509E+04</rscale>
<asrwt>0</asrwt>
<pdfrwt beam="1">  1        1 0.24364591E+00 0.14007509E+04</pdfrwt>
<pdfrwt beam="2">  1       -2 0.47651435E-01 0.14007509E+04</pdfrwt>
<totfact> 0.20446518E+01</totfact>
</mgrwt>
</event>
<event>
12    5  0.5095719E-008  0.1523776E+04  0.7818608E-02  0.8868794E-01
         -2   -1    0    0    0  501 -0.00000000000E+00  0.00000000000E+00  0.22104841298E+04  0.22104841298E+04  0.00000000000E+00 0.  1.
          1   -1    0    0  501    0  0.00000000000E+00 -0.00000000000E+00 -0.26260018413E+03  0.26260018413E+03  0.00000000000E+00 0. -1.
        -24    2    1    2    0    0  0.64725916422E+02  0.39989787004E+03  0.18746524596E+03  0.45381233830E+03  0.81820958355E+02 0.  0.
        254    2    1    2    0    0 -0.64725916422E+02 -0.39989787004E+03  0.17604186997E+04  0.20192719756E+04  0.90237329447E+03 0.  0.
         23    2    4    4    0    0 -0.45440496151E+03 -0.68249377659E+02  0.84607883313E+03  0.96702863628E+03  0.90294766872E+02 0.  0.
         23    2    4    4    0    0  0.38967904509E+03 -0.33164849238E+03  0.91433986660E+03  0.10522433394E+04  0.96737649888E+02 0.  0.
          1    1    3    3  502    0  0.60143500885E+02  0.26505245044E+03  0.16230168936E+03  0.31656260132E+03  0.00000000000E+00 0. -1.
         -2    1    3    3    0  502  0.45824155367E+01  0.13484541960E+03  0.25163556595E+02  0.13724973698E+03  0.00000000000E+00 0.  1.
         13    1    5    5    0    0 -0.66183766599E+01  0.11339000418E+02  0.30607346456E+02  0.33304436599E+02  0.00000000000E+00 0.  1.
        -13    1    5    5    0    0 -0.44778658485E+03 -0.79588378077E+02  0.81547148667E+03  0.93372419968E+03  0.00000000000E+00 0. -1.
          1    1    6    6  503    0  0.22802224904E+03 -0.21382757513E+03  0.46400165060E+03  0.55947646036E+03  0.00000000000E+00 0. -1.
         -1    1    6    6    0  503  0.16165679605E+03 -0.11782091726E+03  0.45033821600E+03  0.49276687900E+03  0.00000000000E+00 0.  1.
<mgrwt>
<rscale>  0 0.15237763E+04</rscale>
<asrwt>0</asrwt>
<pdfrwt beam="1">  1        1 0.40400030E-01 0.15237763E+04</pdfrwt>
<pdfrwt beam="2">  1       -2 0.34007447E+00 0.15237763E+04</pdfrwt>
<totfact> 0.15889621E+00</totfact>
</mgrwt>
</event>
<event>
12    5  0.5095719E-008  0.2826373E+04  0.7818608E-02  0.8295127E-01
         -2   -1    0    0    0  501 -0.00000000000E+00  0.00000000000E+00  0.11767763393E+04  0.11767763393E+04  0.00000000000E+00 0.  1.
          1   -1    0    0  501    0  0.00000000000E+00 -0.00000000000E+00 -0.16970902831E+04  0.16970902831E+04  0.00000000000E+00 0. -1.
        -24    2    1    2    0    0  0.11289099801E+04 -0.43570322467E+03  0.15256780567E+03  0.12222412774E+04  0.79509506895E+02 0.  0.
        254    2    1    2    0    0 -0.11289099801E+04  0.43570322467E+03 -0.67288174946E+03  0.16516253450E+04  0.90045621124E+03 0.  0.
         23    2    4    4    0    0 -0.97784690262E+03  0.45811941278E+03 -0.14349395040E+03  0.10932187934E+04  0.92080699418E+02 0.  0.
         23    2    4    4    0    0 -0.15106307747E+03 -0.22416188112E+02 -0.52938779906E+03  0.55840655156E+03  0.90795903932E+02 0.  0.
          3    1    3    3  502    0  0.72269572511E+02 -0.31189229611E+02  0.29846003082E+02  0.84181013623E+02  0.00000000000E+00 0. -1.
         -4    1    3    3    0  502  0.10566404076E+04 -0.40451399506E+03  0.12272180259E+03  0.11380602638E+04  0.00000000000E+00 0.  1.
         13    1    5    5    0    0 -0.75751138036E+02  0.48864063485E+02  0.10418358959E+02  0.90744001550E+02  0.00000000000E+00 0. -1.
        -13    1    5    5    0    0 -0.90209576458E+03  0.40925534930E+03 -0.15391230936E+03  0.10024747919E+04  0.00000000000E+00 0.  1.
          2    1    6    6  503    0 -0.92189182530E+02 -0.34526056513E+02 -0.43869243002E+03  0.44960198188E+03  0.00000000000E+00 0.  1.
         -2    1    6    6    0  503 -0.58873894944E+02  0.12109868401E+02 -0.90695369032E+02  0.10880456968E+03  0.00000000000E+00 0. -1.
<mgrwt>
<rscale>  0 0.28263727E+04</rscale>
<asrwt>0</asrwt>
<pdfrwt beam="1">  1        1 0.26109081E+00 0.28263727E+04</pdfrwt>
<pdfrwt beam="2">  1       -2 0.18104251E+00 0.28263727E+04</pdfrwt>
<totfact> 0.64805785E-01</totfact>
</mgrwt>
</event>
<event>
12    5  0.5095719E-008  0.4482206E+04  0.7818608E-02  0.7913759E-01
          1   -1    0    0  501    0  0.00000000000E+00  0.00000000000E+00  0.19492801558E+04  0.19492801558E+04  0.00000000000E+00 0. -1.
         -2   -1    0    0    0  501 -0.00000000000E+00 -0.00000000000E+00 -0.25766139383E+04  0.25766139383E+04  0.00000000000E+00 0.  1.
        -24    2    1    2    0    0 -0.89340842038E+03 -0.40608317678E+03  0.16297169663E+04  0.19041317147E+04  0.81596842144E+02 0.  0.
        254    2    1    2    0    0  0.89340842038E+03  0.40608317678E+03 -0.22570507488E+04  0.26217623794E+04  0.90348090131E+03 0.  0.
         23    2    4    4    0    0  0.34817359743E+03 -0.27745428215E+03 -0.79652212577E+03  0.91712188825E+03  0.91974607535E+02 0.  0.
         23    2    4    4    0    0  0.54523482295E+03  0.68353745893E+03 -0.14605286230E+04  0.17046404911E+04  0.90282198027E+02 0.  0.
          3    1    3    3  502    0 -0.62431801864E+03 -0.28312752880E+03  0.12086295538E+04  0.13895033589E+04  0.00000000000E+00 0. -1.
         -4    1    3    3    0  502 -0.26909040174E+03 -0.12295564799E+03  0.42108741250E+03  0.51462835585E+03  0.00000000000E+00 0.  1.
         13    1    5    5    0    0  0.28088257933E+03 -0.22399193661E+03 -0.70688566783E+03  0.79294057685E+03  0.00000000000E+00 0. -1.
        -13    1    5    5    0    0  0.67291018102E+02 -0.53462345541E+02 -0.89636457944E+02  0.12418131140E+03  0.00000000000E+00 0.  1.
          3    1    6    6  503    0  0.38190029882E+03  0.46955696151E+03 -0.92788931497E+03  0.11078403130E+04  0.00000000000E+00 0. -1.
         -3    1    6    6    0  503  0.16333452413E+03  0.21398049742E+03 -0.53263930807E+03  0.59680017808E+03  0.00000000000E+00 0.  1.
<mgrwt>
<rscale>  0 0.44822059E+04</rscale>
<asrwt>0</asrwt>
<pdfrwt beam="1">  1        1 0.29988926E+00 0.44822059E+04</pdfrwt>
<pdfrwt beam="2">  1       -2 0.39640214E+00 0.44822059E+04</pdfrwt>
<totfact> 0.16708444E-02</totfact>
</mgrwt>
</event>
<event>
12    5  0.5095719E-008  0.1961756E+04  0.7818608E-02  0.8624713E-01
         -2   -1    0    0    0  501 -0.00000000000E+00  0.00000000000E+00  0.11028812048E+04  0.11028812048E+04  0.00000000000E+00 0.  1.
          1   -1    0    0  501    0  0.00000000000E+00 -0.00000000000E+00 -0.87237123055E+03  0.87237123055E+03  0.00000000000E+00 0. -1.
        -24    2    1    2    0    0 -0.65544087312E+02  0.36284018912E+03  0.77527185111E+03  0.86202447864E+03  0.78043119117E+02 0.  0.
        254    2    1    2    0    0  0.65544087312E+02 -0.36284018912E+03 -0.54476187684E+03  0.11132279567E+04  0.89808794165E+03 0.  0.
         23    2    4    4    0    0 -0.96550534969E+02 -0.49940365711E+03  0.49602769404E+01  0.51684619464E+03  0.91538877095E+02 0.  0.
         23    2    4    4    0    0  0.16209462228E+03  0.13656346800E+03 -0.54972215378E+03  0.59638176208E+03  0.92479794662E+02 0.  0.
          3    1    3    3  502    0 -0.77458541801E+02  0.23347749743E+03  0.47715981520E+03  0.53683615448E+03  0.00000000000E+00 0. -1.
         -4    1    3    3    0  502  0.11914454489E+02  0.12936269168E+03  0.29811203590E+03  0.32518832417E+03  0.00000000000E+00 0.  1.
         13    1    5    5    0    0 -0.35019391537E+02 -0.83150971143E+02 -0.28822463460E+02  0.94716293136E+02  0.00000000000E+00 0. -1.
        -13    1    5    5    0    0 -0.61531143432E+02 -0.41625268597E+03  0.33782740400E+02  0.42212990150E+03  0.00000000000E+00 0.  1.
          3    1    6    6  503    0  0.51807799110E+02  0.22463393569E+02 -0.63779977284E+02  0.85185313297E+02  0.00000000000E+00 0. -1.
         -3    1    6    6    0  503  0.11028682317E+03  0.11410007443E+03 -0.48594217650E+03  0.51119644878E+03  0.00000000000E+00 0.  1.
<mgrwt>
<rscale>  0 0.19617562E+04</rscale>
<asrwt>0</asrwt>
<pdfrwt beam="1">  1        1 0.13421096E+00 0.19617562E+04</pdfrwt>
<pdfrwt beam="2">  1       -2 0.16967403E+00 0.19617562E+04</pdfrwt>
<totfact> 0.33508676E+00</totfact>
</mgrwt>
</event>
<event>
12    5  0.5095719E-008  0.1773825E+04  0.7818608E-02  0.8720344E-01
          1   -1    0    0  501    0  0.00000000000E+00  0.00000000000E+00  0.69883235225E+03  0.69883235225E+03  0.00000000000E+00 0. -1.
         -2   -1    0    0    0  501 -0.00000000000E+00 -0.00000000000E+00 -0.11256112627E+04  0.11256112627E+04  0.00000000000E+00 0.  1.
        -24    2    1    2    0    0 -0.16343059134E+01  0.59577008754E+03  0.10436531054E+03  0.61086891593E+03  0.85580641740E+02 0.  0.
        254    2    1    2    0    0  0.16343059134E+01 -0.59577008754E+03 -0.53114422103E+03  0.12135746991E+04  0.91416885667E+03 0.  0.
         23    2    4    4    0    0  0.25474886099E+03 -0.65296391099E+03 -0.11723457121E+03  0.71693295543E+03  0.94815962055E+02 0.  0.
         23    2    4    4    0    0 -0.25311455508E+03  0.57193823446E+02 -0.41390964981E+03  0.49664174363E+03  0.89407560515E+02 0.  0.
          1    1    3    3  502    0  0.21995870437E+02  0.38695810620E+03  0.33204274322E+02  0.38900246542E+03  0.00000000000E+00 0. -1.
         -2    1    3    3    0  502 -0.23630176350E+02  0.20881198134E+03  0.71161036217E+02  0.22186645051E+03  0.00000000000E+00 0.  1.
         13    1    5    5    0    0  0.23786871765E+03 -0.63899666940E+03 -0.12592075526E+03  0.69336448348E+03  0.00000000000E+00 0. -1.
        -13    1    5    5    0    0  0.16880143336E+02 -0.13967241589E+02  0.86861840509E+01  0.23568471949E+02  0.00000000000E+00 0.  1.
          1    1    6    6  503    0 -0.12400399966E+03  0.62112732735E+02 -0.15995334486E+03  0.21170747751E+03  0.00000000000E+00 0. -1.
         -1    1    6    6    0  503 -0.12911055542E+03 -0.49189092890E+01 -0.25395630495E+03  0.28493426612E+03  0.00000000000E+00 0.  1.
<mgrwt>
<rscale>  0 0.17738248E+04</rscale>
<asrwt>0</asrwt>
<pdfrwt beam="1">  1        1 0.10751267E+00 0.17738248E+04</pdfrwt>
<pdfrwt beam="2">  1       -2 0.17317096E+00 0.17738248E+04</pdfrwt>
<totfact> 0.45750934E+00</totfact>
</mgrwt>
</event>
<event>
12    5  0.5095719E-008  0.1231714E+04  0.7818608E-02  0.9085541E-01
          1   -1    0    0  501    0  0.00000000000E+00  0.00000000000E+00  0.12819512198E+04  0.12819512198E+04  0.00000000000E+00 0. -1.
         -2   -1    0    0    0  501 -0.00000000000E+00 -0.00000000000E+00 -0.29586152328E+03  0.29586152328E+03  0.00000000000E+00 0.  1.
        -24    2    1    2    0    0  0.10441726974E+03 -0.14420822046E+03  0.50351796127E+03  0.54018501830E+03  0.81058865074E+02 0.  0.
        254    2    1    2    0    0 -0.10441726974E+03  0.14420822046E+03  0.48257173526E+03  0.10376277248E+04  0.90116415737E+03 0.  0.
         23    2    4    4    0    0 -0.41053064851E+03  0.33658799225E+03  0.34790032785E+03  0.64111990102E+03  0.90405749103E+02 0.  0.
         23    2    4    4    0    0  0.30611337877E+03 -0.19237977179E+03  0.13467140741E+03  0.39650782378E+03  0.91469607453E+02 0.  0.
          1    1    3    3  502    0  0.15683646333E+02 -0.74262248838E+02  0.27467864233E+03  0.28497230553E+03  0.00000000000E+00 0. -1.
         -2    1    3    3    0  502  0.88733623402E+02 -0.69945971620E+02  0.22883931893E+03  0.25521271277E+03  0.00000000000E+00 0.  1.
         13    1    5    5    0    0 -0.32273676602E+03  0.26889275707E+03  0.22854492912E+03  0.47822078539E+03  0.00000000000E+00 0.  1.
        -13    1    5    5    0    0 -0.87793882486E+02  0.67695235177E+02  0.11935539873E+03  0.16289911563E+03  0.00000000000E+00 0. -1.
          1    1    6    6  503    0  0.12734750456E+03 -0.94720697167E+02  0.13019375027E+02  0.15924478490E+03  0.00000000000E+00 0. -1.
         -1    1    6    6    0  503  0.17876587421E+03 -0.97659074627E+02  0.12165203238E+03  0.23726303888E+03  0.00000000000E+00 0.  1.
<mgrwt>
<rscale>  0 0.12317143E+04</rscale>
<asrwt>0</asrwt>
<pdfrwt beam="1">  1        1 0.19722326E+00 0.12317143E+04</pdfrwt>
<pdfrwt beam="2">  1       -2 0.45517158E-01 0.12317143E+04</pdfrwt>
<totfact> 0.36939980E+01</totfact>
</mgrwt>
</event>
<event>
12    5  0.5095719E-008  0.2354919E+04  0.7818608E-02  0.8456577E-01
          1   -1    0    0  501    0  0.00000000000E+00  0.00000000000E+00  0.70176080203E+03  0.70176080203E+03  0.00000000000E+00 0. -1.
         -2   -1    0    0    0  501 -0.00000000000E+00 -0.00000000000E+00 -0.19756168739E+04  0.19756168739E+04  0.00000000000E+00 0.  1.
        -24    2    1    2    0    0 -0.60369704409E+02  0.12236216101E+03  0.58829899021E+03  0.60931518867E+03  0.80946263746E+02 0.  0.
        254    2    1    2    0    0  0.60369704409E+02 -0.12236216101E+03 -0.18621550621E+04  0.20680624873E+04  0.88918163292E+03 0.  0.
         23    2    4    4    0    0 -0.33040515111E+03  0.97604073926E+02 -0.12747616203E+04  0.13234307106E+04  0.88076887446E+02 0.  0.
         23    2    4    4    0    0  0.39077485552E+03 -0.21996623493E+03 -0.58739344186E+03  0.74463177671E+03  0.91407303478E+02 0.  0.
          1    1    3    3  502    0 -0.69137067405E+02  0.12943528397E+03  0.55855848224E+03  0.57751277467E+03  0.00000000000E+00 0. -1.
         -2    1    3    3    0  502  0.87673629962E+01 -0.70731229626E+01  0.29740507969E+02  0.31802414006E+02  0.00000000000E+00 0.  1.
         13    1    5    5    0    0 -0.13406464393E+03  0.34002202014E+02 -0.35948837639E+03  0.38517706480E+03  0.00000000000E+00 0. -1.
        -13    1    5    5    0    0 -0.19634050718E+03  0.63601871913E+02 -0.91527324387E+03  0.93825364577E+03  0.00000000000E+00 0.  1.
          4    1    6    6  503    0  0.29320252110E+03 -0.17514848051E+03 -0.50333623574E+03  0.60826973853E+03  0.00000000000E+00 0. -1.
         -4    1    6    6    0  503  0.97572334422E+02 -0.44817754426E+02 -0.84057206126E+02  0.13636203818E+03  0.00000000000E+00 0.  1.
<mgrwt>
<rscale>  0 0.23549187E+04</rscale>
<asrwt>0</asrwt>
<pdfrwt beam="1">  1        1 0.10796320E+00 0.23549187E+04</pdfrwt>
<pdfrwt beam="2">  1       -2 0.30394105E+00 0.23549187E+04</pdfrwt>
<totfact> 0.64356567E-01</totfact>
</mgrwt>
</event>
<event>
12    5  0.5095719E-008  0.1507426E+04  0.7818608E-02  0.8879530E-01
          1   -1    0    0  501    0  0.00000000000E+00  0.00000000000E+00  0.14985662918E+04  0.14985662918E+04  0.00000000000E+00 0. -1.
         -2   -1    0    0    0  501 -0.00000000000E+00 -0.00000000000E+00 -0.37908442117E+03  0.37908442117E+03  0.00000000000E+00 0.  1.
        -24    2    1    2    0    0 -0.67548528609E+02  0.42833129504E+03  0.73595856443E+03  0.85796218610E+03  0.80209738821E+02 0.  0.
        254    2    1    2    0    0  0.67548528609E+02 -0.42833129504E+03  0.38352330616E+03  0.10196885268E+04  0.83943079724E+03 0.  0.
         23    2    4    4    0    0  0.19236305304E+02 -0.15385942944E+03  0.61828929058E+03  0.64399336813E+03  0.91668161778E+02 0.  0.
         23    2    4    4    0    0  0.48312223305E+02 -0.27447186559E+03 -0.23476598442E+03  0.37569515870E+03  0.91448941540E+02 0.  0.
          3    1    3    3  502    0 -0.82649318259E+02  0.40189602760E+03  0.67775379706E+03  0.79227617422E+03  0.00000000000E+00 0. -1.
         -4    1    3    3    0  502  0.15100789650E+02  0.26435267436E+02  0.58204767366E+02  0.65686011879E+02  0.00000000000E+00 0.  1.
         13    1    5    5    0    0 -0.14719268621E+02 -0.18791356241E+02  0.23457383793E+03  0.23578519330E+03  0.00000000000E+00 0. -1.
        -13    1    5    5    0    0  0.33955573925E+02 -0.13506807320E+03  0.38371545265E+03  0.40820817484E+03  0.00000000000E+00 0.  1.
          3    1    6    6  503    0  0.31917309507E+02 -0.21287698864E+03 -0.12542436328E+03  0.24913168775E+03  0.00000000000E+00 0. -1.
         -3    1    6    6    0  503  0.16394913798E+02 -0.61594876954E+02 -0.10934162114E+03  0.12656347095E+03  0.00000000000E+00 0.  1.
<mgrwt>
<rscale>  0 0.15074258E+04</rscale>
<asrwt>0</asrwt>
<pdfrwt beam="1">  1        1 0.23054866E+00 0.15074258E+04</pdfrwt>
<pdfrwt beam="2">  1       -2 0.58320681E-01 0.15074258E+04</pdfrwt>
<totfact> 0.15294819E+01</totfact>
</mgrwt>
</event>
<event>
12    5  0.5095719E-008  0.1477609E+04  0.7818608E-02  0.8899481E-01
          1   -1    0    0  501    0  0.00000000000E+00  0.00000000000E+00  0.25985963180E+03  0.25985963180E+03  0.00000000000E+00 0. -1.
         -2   -1    0    0    0  501 -0.00000000000E+00 -0.00000000000E+00 -0.21004869809E+04  0.21004869809E+04  0.00000000000E+00 0.  1.
        -24    2    1    2    0    0  0.30873208196E+03  0.36818474358E+02 -0.11072036048E+04  0.11528019971E+04  0.79884439300E+02 0.  0.
        254    2    1    2    0    0 -0.30873208196E+03 -0.36818474358E+02 -0.73342374430E+03  0.12075446156E+04  0.90751446898E+03 0.  0.
         23    2    4    4    0    0 -0.14520664198E+03  0.37802527406E+03 -0.60631790302E+03  0.73497296301E+03  0.92605508076E+02 0.  0.
         23    2    4    4    0    0 -0.16352543998E+03 -0.41484374842E+03 -0.12710584128E+03  0.47257165256E+03  0.91280703287E+02 0.  0.
          1    1    3    3  502    0 -0.42905591636E+01 -0.62197903135E+00 -0.33322992180E+02  0.33603832575E+02  0.00000000000E+00 0. -1.
         -2    1    3    3    0  502  0.31302264112E+03  0.37440453390E+02 -0.10738806126E+04  0.11191981645E+04  0.00000000000E+00 0.  1.
         13    1    5    5    0    0 -0.11688061911E+03  0.21376452428E+03 -0.41499092786E+03  0.48122117698E+03  0.00000000000E+00 0. -1.
        -13    1    5    5    0    0 -0.28326022865E+02  0.16426074978E+03 -0.19132697516E+03  0.25375178603E+03  0.00000000000E+00 0.  1.
          1    1    6    6  503    0 -0.15845917834E+03 -0.39195269770E+03 -0.14057796409E+03  0.44553158409E+03  0.00000000000E+00 0. -1.
         -1    1    6    6    0  503 -0.50662616467E+01 -0.22891050718E+02  0.13472122806E+02  0.27040068472E+02  0.00000000000E+00 0.  1.
<mgrwt>
<rscale>  0 0.14776086E+04</rscale>
<asrwt>0</asrwt>
<pdfrwt beam="1">  1        1 0.39978406E-01 0.14776086E+04</pdfrwt>
<pdfrwt beam="2">  1       -2 0.32315183E+00 0.14776086E+04</pdfrwt>
<totfact> 0.20593599E+00</totfact>
</mgrwt>
</event>
<event>
12    5  0.5095719E-008  0.1753557E+04  0.7818608E-02  0.8731395E-01
         -4   -1    0    0    0  501 -0.00000000000E+00  0.00000000000E+00  0.12413031553E+04  0.12413031553E+04  0.00000000000E+00 0.  1.
          3   -1    0    0  501    0  0.00000000000E+00 -0.00000000000E+00 -0.61930110220E+03  0.61930110220E+03  0.00000000000E+00 0. -1.
        -24    2    1    2    0    0  0.46755388044E+03 -0.28385189239E+03  0.59185183143E+03  0.80992142332E+03  0.80657260389E+02 0.  0.
        254    2    1    2    0    0 -0.46755388044E+03  0.28385189239E+03  0.30150221717E+02  0.10506828342E+04  0.89657506899E+03 0.  0.
         23    2    4    4    0    0 -0.20750675766E+01 -0.10070299020E+03  0.33983754881E+03  0.36630870540E+03  0.92450581017E+02 0.  0.
         23    2    4    4    0    0 -0.46547881287E+03  0.38455488259E+03 -0.30968732709E+03  0.68437412882E+03  0.88931010819E+02 0.  0.
          1    1    3    3  502    0  0.14361590328E+02  0.81386437374E-01  0.33917433382E+01  0.14756890708E+02  0.00000000000E+00 0. -1.
         -2    1    3    3    0  502  0.45319229012E+03 -0.28393327882E+03  0.58846008809E+03  0.79516453261E+03  0.00000000000E+00 0.  1.
         13    1    5    5    0    0  0.43716116627E+02 -0.32665220931E+02  0.12783658670E+03  0.13899751224E+03  0.00000000000E+00 0.  1.
        -13    1    5    5    0    0 -0.45791184204E+02 -0.68037769269E+02  0.21200096211E+03  0.22731119316E+03  0.00000000000E+00 0. -1.
          1    1    6    6  503    0 -0.25326455878E+03  0.26247248619E+03 -0.16879596725E+03  0.40190399513E+03  0.00000000000E+00 0. -1.
         -1    1    6    6    0  503 -0.21221425409E+03  0.12208239639E+03 -0.14089135985E+03  0.28247013369E+03  0.00000000000E+00 0.  1.
<mgrwt>
<rscale>  0 0.17535569E+04</rscale>
<asrwt>0</asrwt>
<pdfrwt beam="1">  1        3 0.95277093E-01 0.17535569E+04</pdfrwt>
<pdfrwt beam="2">  1       -4 0.19096972E+00 0.17535569E+04</pdfrwt>
<totfact> 0.32072143E-01</totfact>
</mgrwt>
</event>
<event>
12    5  0.5095719E-008  0.1850031E+04  0.7818608E-02  0.8680137E-01
         -2   -1    0    0    0  501 -0.00000000000E+00  0.00000000000E+00  0.13624337479E+04  0.13624337479E+04  0.00000000000E+00 0.  1.
          1   -1    0    0  501    0  0.00000000000E+00 -0.00000000000E+00 -0.62803328702E+03  0.62803328702E+03  0.00000000000E+00 0. -1.
        -24    2    1    2    0    0  0.36323120978E+03 -0.40781964484E+03  0.78108492802E+03  0.95642857512E+03  0.80051108973E+02 0.  0.
        254    2    1    2    0    0 -0.36323120978E+03  0.40781964484E+03 -0.46684467169E+02  0.10340384598E+04  0.87681373298E+03 0.  0.
         23    2    4    4    0    0 -0.25785883367E+03  0.66559341509E+03  0.59258083336E+02  0.72219962030E+03  0.92493236490E+02 0.  0.
         23    2    4    4    0    0 -0.10537237611E+03 -0.25777377026E+03 -0.10594255051E+03  0.31183883948E+03  0.92027080363E+02 0.  0.
          1    1    3    3  502    0  0.10350605749E+03 -0.12069074778E+03  0.29373288709E+03  0.33400414592E+03  0.00000000000E+00 0. -1.
         -2    1    3    3    0  502  0.25972515230E+03 -0.28712889705E+03  0.48735204093E+03  0.62242442920E+03  0.00000000000E+00 0.  1.
         13    1    5    5    0    0  0.60560585317E+01  0.30710713008E+02  0.10107407878E+02  0.32893516571E+02  0.00000000000E+00 0. -1.
        -13    1    5    5    0    0 -0.26391489221E+03  0.63488270208E+03  0.49150675457E+02  0.68930610372E+03  0.00000000000E+00 0.  1.
          1    1    6    6  503    0  0.15454122519E+02 -0.27341987209E+02 -0.22366030673E+02  0.38557145842E+02  0.00000000000E+00 0. -1.
         -1    1    6    6    0  503 -0.12082649863E+03 -0.23043178305E+03 -0.83576519832E+02  0.27328169364E+03  0.00000000000E+00 0.  1.
<mgrwt>
<rscale>  0 0.18500311E+04</rscale>
<asrwt>0</asrwt>
<pdfrwt beam="1">  1        1 0.96620506E-01 0.18500311E+04</pdfrwt>
<pdfrwt beam="2">  1       -2 0.20960519E+00 0.18500311E+04</pdfrwt>
<totfact> 0.30341271E+00</totfact>
</mgrwt>
</event>
<event>
12    5  0.5095719E-008  0.1151873E+04  0.7818608E-02  0.9156057E-01
          1   -1    0    0  501    0  0.00000000000E+00  0.00000000000E+00  0.37744284143E+03  0.37744284143E+03  0.00000000000E+00 0. -1.
         -2   -1    0    0    0  501 -0.00000000000E+00 -0.00000000000E+00 -0.87881630192E+03  0.87881630192E+03  0.00000000000E+00 0.  1.
        -24    2    1    2    0    0 -0.21547741862E+03  0.40883944014E+02 -0.10549114518E+03  0.25478245547E+03  0.75390338172E+02 0.  0.
        254    2    1    2    0    0  0.21547741862E+03 -0.40883944014E+02 -0.39588231531E+03  0.10014766879E+04  0.89338162840E+03 0.  0.
         23    2    4    4    0    0  0.49666949432E+03  0.17015215713E+03 -0.34566104900E+03  0.63541330955E+03  0.92930995855E+02 0.  0.
         23    2    4    4    0    0 -0.28119207570E+03 -0.21103610115E+03 -0.50221266315E+02  0.36606337832E+03  0.88741207666E+02 0.  0.
          1    1    3    3  502    0 -0.19724303212E+03  0.58350191567E+02 -0.86282657062E+02  0.22305661946E+03  0.00000000000E+00 0. -1.
         -2    1    3    3    0  502 -0.18234386507E+02 -0.17466247553E+02 -0.19208488122E+02  0.31725836014E+02  0.00000000000E+00 0.  1.
         13    1    5    5    0    0  0.37707583780E+03  0.16866005283E+03 -0.25652140194E+03  0.48624647097E+03  0.00000000000E+00 0. -1.
        -13    1    5    5    0    0  0.11959365652E+03  0.14921043039E+01 -0.89139647051E+02  0.14916683858E+03  0.00000000000E+00 0.  1.
          1    1    6    6  503    0 -0.27317614199E+03 -0.20212325899E+03 -0.28199033165E+02  0.34099003189E+03  0.00000000000E+00 0. -1.
         -1    1    6    6    0  503 -0.80159337095E+01 -0.89128421539E+01 -0.22022233150E+02  0.25073346434E+02  0.00000000000E+00 0.  1.
<mgrwt>
<rscale>  0 0.11518731E+04</rscale>
<asrwt>0</asrwt>
<pdfrwt beam="1">  1        1 0.58068130E-01 0.11518731E+04</pdfrwt>
<pdfrwt beam="2">  1       -2 0.13520251E+00 0.11518731E+04</pdfrwt>
<totfact> 0.22076499E+01</totfact>
</mgrwt>
</event>
<event>
12    5  0.5095719E-008  0.1973490E+04  0.7818608E-02  0.8619116E-01
         -2   -1    0    0    0  501 -0.00000000000E+00  0.00000000000E+00  0.44399604909E+03  0.44399604909E+03  0.00000000000E+00 0.  1.
          1   -1    0    0  501    0  0.00000000000E+00 -0.00000000000E+00 -0.21929598138E+04  0.21929598138E+04  0.00000000000E+00 0. -1.
        -24    2    1    2    0    0  0.72093881253E+03  0.29691793298E+03 -0.58889174550E+03  0.98004262989E+03  0.76006829549E+02 0.  0.
        254    2    1    2    0    0 -0.72093881253E+03 -0.29691793298E+03 -0.11600720193E+04  0.16569132331E+04  0.88976476759E+03 0.  0.
         23    2    4    4    0    0  0.13858518387E+03  0.46075702476E+01  0.15491728563E+02  0.16705377631E+03  0.91868861067E+02 0.  0.
         23    2    4    4    0    0 -0.85952399640E+03 -0.30152550323E+03 -0.11755637478E+04  0.14898594567E+04  0.89621125578E+02 0.  0.
          3    1    3    3  502    0  0.49595147864E+03  0.22462859655E+03 -0.44667772173E+03  0.70423494847E+03  0.00000000000E+00 0. -1.
         -4    1    3    3    0  502  0.22498733389E+03  0.72289336436E+02 -0.14221402376E+03  0.27580768141E+03  0.00000000000E+00 0.  1.
         13    1    5    5    0    0  0.51187637263E+02  0.35314905824E+02  0.36442604533E+02  0.72078985891E+02  0.00000000000E+00 0.  1.
        -13    1    5    5    0    0  0.87397546609E+02 -0.30707335577E+02 -0.20950875970E+02  0.94974790420E+02  0.00000000000E+00 0. -1.
          1    1    6    6  503    0 -0.10653855301E+03 -0.51137733663E+02 -0.11137116009E+03  0.16238554856E+03  0.00000000000E+00 0. -1.
         -1    1    6    6    0  503 -0.75298544339E+03 -0.25038776957E+03 -0.10641925877E+04  0.13274739082E+04  0.00000000000E+00 0.  1.
<mgrwt>
<rscale>  0 0.19734898E+04</rscale>
<asrwt>0</asrwt>
<pdfrwt beam="1">  1        1 0.33737843E+00 0.19734898E+04</pdfrwt>
<pdfrwt beam="2">  1       -2 0.68307085E-01 0.19734898E+04</pdfrwt>
<totfact> 0.35277158E+00</totfact>
</mgrwt>
</event>
<event>
12    5  0.5095719E-008  0.1972561E+04  0.7818608E-02  0.8619558E-01
         -2   -1    0    0    0  501 -0.00000000000E+00  0.00000000000E+00  0.13540652747E+04  0.13540652747E+04  0.00000000000E+00 0.  1.
          1   -1    0    0  501    0  0.00000000000E+00 -0.00000000000E+00 -0.71839155977E+03  0.71839155977E+03  0.00000000000E+00 0. -1.
        -24    2    1    2    0    0 -0.41057331265E+02  0.42249263518E+03 -0.43329741365E+03  0.61174987457E+03  0.79407361938E+02 0.  0.
        254    2    1    2    0    0  0.41057331265E+02 -0.42249263518E+03  0.10689711286E+04  0.14607069599E+04  0.90043312787E+03 0.  0.
         23    2    4    4    0    0  0.34844745323E+03 -0.52891740912E+03  0.82518890205E+03  0.10443080336E+04  0.92050484744E+02 0.  0.
         23    2    4    4    0    0 -0.30739012196E+03  0.10642477394E+03  0.24378222658E+03  0.41639892630E+03  0.90240635184E+02 0.  0.
          3    1    3    3  502    0 -0.49428667855E+02  0.41608545777E+03 -0.43069873182E+03  0.60089241880E+03  0.00000000000E+00 0. -1.
         -4    1    3    3    0  502  0.83713365896E+01  0.64071774014E+01 -0.25986818295E+01  0.10857455770E+02  0.00000000000E+00 0.  1.
         13    1    5    5    0    0  0.86209047785E+02 -0.12090234934E+03  0.26110678638E+03  0.30037665004E+03  0.00000000000E+00 0. -1.
        -13    1    5    5    0    0  0.26223840544E+03 -0.40801505977E+03  0.56408211567E+03  0.74393138360E+03  0.00000000000E+00 0.  1.
          4    1    6    6  503    0 -0.16430998432E+03  0.23765403280E+02  0.82079810202E+02  0.18520167543E+03  0.00000000000E+00 0. -1.
         -4    1    6    6    0  503 -0.14308013764E+03  0.82659370661E+02  0.16170241637E+03  0.23119725086E+03  0.00000000000E+00 0.  1.
<mgrwt>
<rscale>  0 0.19725608E+04</rscale>
<asrwt>0</asrwt>
<pdfrwt beam="1">  1        1 0.11052178E+00 0.19725608E+04</pdfrwt>
<pdfrwt beam="2">  1       -2 0.20831773E+00 0.19725608E+04</pdfrwt>
<totfact> 0.25024221E+00</totfact>
</mgrwt>
</event>
<event>
12    5  0.5095719E-008  0.2184001E+04  0.7818608E-02  0.8525117E-01
         -2   -1    0    0    0  501 -0.00000000000E+00  0.00000000000E+00  0.28709637952E+03  0.28709637952E+03  0.00000000000E+00 0.  1.
          1   -1    0    0  501    0  0.00000000000E+00 -0.00000000000E+00 -0.41535349815E+04  0.41535349815E+04  0.00000000000E+00 0. -1.
        -24    2    1    2    0    0 -0.21288944770E+03 -0.34798325924E+03  0.36924724975E+02  0.41500479688E+03  0.66717917091E+02 0.  0.
        254    2    1    2    0    0  0.21288944770E+03  0.34798325924E+03 -0.39033633270E+04  0.40256265642E+04  0.89610808839E+03 0.  0.
         23    2    4    4    0    0  0.51097267501E+03  0.99667082576E+02 -0.28649835026E+04  0.29133167236E+04  0.90869465090E+02 0.  0.
         23    2    4    4    0    0 -0.29808322731E+03  0.24831617667E+03 -0.10383798244E+04  0.11123098406E+04  0.92119421551E+02 0.  0.
          1    1    3    3  502    0 -0.70296030839E+02 -0.12599854393E+03 -0.18337456895E+02  0.14544217872E+03  0.00000000000E+00 0. -1.
         -2    1    3    3    0  502 -0.14259341686E+03 -0.22198471531E+03  0.55262181871E+02  0.26956261816E+03  0.00000000000E+00 0.  1.
         13    1    5    5    0    0  0.67900978541E+02  0.45900777167E+02 -0.47358180991E+03  0.48062163384E+03  0.00000000000E+00 0. -1.
        -13    1    5    5    0    0  0.44307169647E+03  0.53766305410E+02 -0.23914016927E+04  0.24326950897E+04  0.00000000000E+00 0.  1.
          2    1    6    6  503    0 -0.89732717947E+02  0.10687992033E+03 -0.47786461634E+03  0.49782513957E+03  0.00000000000E+00 0. -1.
         -2    1    6    6    0  503 -0.20835050936E+03  0.14143625634E+03 -0.56051520804E+03  0.61448470103E+03  0.00000000000E+00 0.  1.
<mgrwt>
<rscale>  0 0.21840008E+04</rscale>
<asrwt>0</asrwt>
<pdfrwt beam="1">  1        1 0.63900538E+00 0.21840008E+04</pdfrwt>
<pdfrwt beam="2">  1       -2 0.44168674E-01 0.21840008E+04</pdfrwt>
<totfact> 0.27421717E-01</totfact>
</mgrwt>
</event>
<event>
12    5  0.5095719E-008  0.1374685E+04  0.7818608E-02  0.8972349E-01
          1   -1    0    0  501    0  0.00000000000E+00  0.00000000000E+00  0.24421207124E+04  0.24421207124E+04  0.00000000000E+00 0. -1.
         -2   -1    0    0    0  501 -0.00000000000E+00 -0.00000000000E+00 -0.19345480982E+03  0.19345480982E+03  0.00000000000E+00 0.  1.
        -24    2    1    2    0    0 -0.12587980073E+03 -0.15884470276E+03  0.10701288281E+04  0.10920000424E+04  0.78810024640E+02 0.  0.
        254    2    1    2    0    0  0.12587980073E+03  0.15884470276E+03  0.11785370745E+04  0.15435754799E+04  0.97601140477E+03 0.  0.
         23    2    4    4    0    0  0.24401766480E+03 -0.29682729121E+02 -0.69842217765E+02  0.27205114035E+03  0.93317749864E+02 0.  0.
         23    2    4    4    0    0 -0.11813786406E+03  0.18852743188E+03  0.12483792923E+04  0.12715243395E+04  0.93936899797E+02 0.  0.
          3    1    3    3  502    0 -0.12844305702E+03 -0.15300769625E+03  0.10656389005E+04  0.10842025827E+04  0.00000000000E+00 0. -1.
         -4    1    3    3    0  502  0.25632562876E+01 -0.58370065116E+01  0.44899275751E+01  0.77974596788E+01  0.00000000000E+00 0.  1.
         13    1    5    5    0    0  0.61162085449E+02  0.13858748820E+01  0.22087244168E+02  0.65042814366E+02  0.00000000000E+00 0. -1.
        -13    1    5    5    0    0  0.18285557935E+03 -0.31068604003E+02 -0.91929461934E+02  0.20700832598E+03  0.00000000000E+00 0.  1.
          4    1    6    6  503    0 -0.78911237301E+02  0.41186794643E+02  0.45309632554E+03  0.46175709593E+03  0.00000000000E+00 0. -1.
         -4    1    6    6    0  503 -0.39226626763E+02  0.14734063724E+03  0.79528296671E+03  0.80976724357E+03  0.00000000000E+00 0.  1.
<mgrwt>
<rscale>  0 0.13746854E+04</rscale>
<asrwt>0</asrwt>
<pdfrwt beam="1">  1        1 0.37571086E+00 0.13746854E+04</pdfrwt>
<pdfrwt beam="2">  1       -2 0.29762280E-01 0.13746854E+04</pdfrwt>
<totfact> 0.13309664E+01</totfact>
</mgrwt>
</event>
<event>
12    5  0.5095719E-008  0.2554326E+04  0.7818608E-02  0.8383883E-01
          3   -1    0    0  501    0  0.00000000000E+00  0.00000000000E+00  0.96807577268E+03  0.96807577268E+03  0.00000000000E+00 0. -1.
         -4   -1    0    0    0  501 -0.00000000000E+00 -0.00000000000E+00 -0.16849361485E+04  0.16849361485E+04  0.00000000000E+00 0.  1.
        -24    2    1    2    0    0  0.86225440794E+03  0.58283038608E+03 -0.72527646149E+03  0.12711325342E+04  0.81105183950E+02 0.  0.
        254    2    1    2    0    0 -0.86225440794E+03 -0.58283038608E+03  0.84160857263E+01  0.13818793870E+04  0.90903569056E+03 0.  0.
         23    2    4    4    0    0 -0.10373109536E+04 -0.56191358593E+03  0.82036375429E+01  0.11832509128E+04  0.90854445986E+02 0.  0.
         23    2    4    4    0    0  0.17505654571E+03 -0.20916800145E+02  0.21244818343E+00  0.19862847418E+03  0.91492725911E+02 0.  0.
          1    1    3    3  502    0  0.56025679000E+03  0.40044555362E+03 -0.43775104335E+03  0.81600875492E+03  0.00000000000E+00 0. -1.
         -2    1    3    3    0  502  0.30199761794E+03  0.18238483245E+03 -0.28752541814E+03  0.45512377924E+03  0.00000000000E+00 0.  1.
         13    1    5    5    0    0 -0.24874227143E+01 -0.75936015241E+01 -0.46449930495E+01  0.92426195581E+01  0.00000000000E+00 0. -1.
        -13    1    5    5    0    0 -0.10348235309E+04 -0.55431998441E+03  0.12848630592E+02  0.11740082932E+04  0.00000000000E+00 0.  1.
          2    1    6    6  503    0  0.47992695313E+02 -0.45879089206E+02 -0.15518996156E+02  0.68183787453E+02  0.00000000000E+00 0. -1.
         -2    1    6    6    0  503  0.12706385040E+03  0.24962289061E+02  0.15731444340E+02  0.13044468672E+03  0.00000000000E+00 0.  1.
<mgrwt>
<rscale>  0 0.25543264E+04</rscale>
<asrwt>0</asrwt>
<pdfrwt beam="1">  1        3 0.14893474E+00 0.25543264E+04</pdfrwt>
<pdfrwt beam="2">  1       -4 0.25922094E+00 0.25543264E+04</pdfrwt>
<totfact> 0.36855500E-02</totfact>
</mgrwt>
</event>
<event>
12    5  0.5095719E-008  0.1620647E+04  0.7818608E-02  0.8807963E-01
          1   -1    0    0  501    0  0.00000000000E+00  0.00000000000E+00  0.18751206829E+04  0.18751206829E+04  0.00000000000E+00 0. -1.
         -2   -1    0    0    0  501 -0.00000000000E+00 -0.00000000000E+00 -0.35017692159E+03  0.35017692159E+03  0.00000000000E+00 0.  1.
        -24    2    1    2    0    0 -0.24592629996E+03  0.46339315261E+03  0.25971249840E+03  0.59067427848E+03  0.78946580326E+02 0.  0.
        254    2    1    2    0    0  0.24592629996E+03 -0.46339315261E+03  0.12652312629E+04  0.16346233260E+04  0.89217168211E+03 0.  0.
         23    2    4    4    0    0 -0.22594518192E+03  0.86907332353E+02  0.56969130171E+03  0.62572589520E+03  0.91545655416E+02 0.  0.
         23    2    4    4    0    0  0.47187148188E+03 -0.55030048496E+03  0.69553996120E+03  0.10088974308E+04  0.92762433608E+02 0.  0.
          1    1    3    3  502    0 -0.35007327249E+02  0.46741284030E+02  0.56915857706E+02  0.81545542197E+02  0.00000000000E+00 0. -1.
         -2    1    3    3    0  502 -0.21091897271E+03  0.41665186858E+03  0.20279664069E+03  0.50912873629E+03  0.00000000000E+00 0.  1.
         13    1    5    5    0    0 -0.23392938800E+03  0.77950097537E+02  0.53708379436E+03  0.59098069210E+03  0.00000000000E+00 0. -1.
        -13    1    5    5    0    0  0.79842060803E+01  0.89572348168E+01  0.32607507355E+02  0.34745203096E+02  0.00000000000E+00 0.  1.
          3    1    6    6  503    0  0.17710246859E+02 -0.44515242527E+01  0.62951540987E+01  0.19315741692E+02  0.00000000000E+00 0.  1.
         -3    1    6    6    0  503  0.45416123502E+03 -0.54584896071E+03  0.68924480710E+03  0.98958168911E+03  0.00000000000E+00 0. -1.
<mgrwt>
<rscale>  0 0.16206468E+04</rscale>
<asrwt>0</asrwt>
<pdfrwt beam="1">  1        1 0.28848010E+00 0.16206468E+04</pdfrwt>
<pdfrwt beam="2">  1       -2 0.53873374E-01 0.16206468E+04</pdfrwt>
<totfact> 0.98879800E+00</totfact>
</mgrwt>
</event>
<event>
12    5  0.5095719E-008  0.2092074E+04  0.7818608E-02  0.8564743E-01
          1   -1    0    0  501    0  0.00000000000E+00  0.00000000000E+00  0.20810106512E+04  0.20810106512E+04  0.00000000000E+00 0. -1.
         -2   -1    0    0    0  501 -0.00000000000E+00 -0.00000000000E+00 -0.52579883894E+03  0.52579883894E+03  0.00000000000E+00 0.  1.
        -24    2    1    2    0    0  0.39260513703E+03  0.63639173900E+03  0.11493246430E+04  0.13735219752E+04  0.80512373377E+02 0.  0.
        254    2    1    2    0    0 -0.39260513703E+03 -0.63639173900E+03  0.40588716925E+03  0.12332875149E+04  0.89281602877E+03 0.  0.
         23    2    4    4    0    0 -0.35260188204E+03 -0.79530818853E+03  0.51647435975E+03  0.10157966472E+04  0.90850769223E+02 0.  0.
         23    2    4    4    0    0 -0.40003254982E+02  0.15891644953E+03 -0.11058719050E+03  0.21749086770E+03  0.90653474780E+02 0.  0.
          3    1    3    3  502    0  0.36838717296E+03  0.54718227235E+03  0.10071822890E+04  0.12039658266E+04  0.00000000000E+00 0. -1.
         -4    1    3    3    0  502  0.24217964063E+02  0.89209466649E+02  0.14214235393E+03  0.16955614853E+03  0.00000000000E+00 0.  1.
         13    1    5    5    0    0 -0.17172837964E+03 -0.27889454574E+03  0.19330217780E+03  0.38031373359E+03  0.00000000000E+00 0. -1.
        -13    1    5    5    0    0 -0.18087350241E+03 -0.51641364279E+03  0.32317218195E+03  0.63548291363E+03  0.00000000000E+00 0.  1.
          4    1    6    6  503    0  0.94046174629E+01  0.58608775088E+02 -0.83487056768E+02  0.10243790312E+03  0.00000000000E+00 0. -1.
         -4    1    6    6    0  503 -0.49407872445E+02  0.10030767444E+03 -0.27100133735E+02  0.11505296459E+03  0.00000000000E+00 0.  1.
<mgrwt>
<rscale>  0 0.20920736E+04</rscale>
<asrwt>0</asrwt>
<pdfrwt beam="1">  1        1 0.32015548E+00 0.20920736E+04</pdfrwt>
<pdfrwt beam="2">  1       -2 0.80892130E-01 0.20920736E+04</pdfrwt>
<totfact> 0.28611056E+00</totfact>
</mgrwt>
</event>
<event>
12    5  0.5095719E-008  0.1401473E+04  0.7818608E-02  0.8952753E-01
         -2   -1    0    0    0  501 -0.00000000000E+00  0.00000000000E+00  0.83148605747E+03  0.83148605747E+03  0.00000000000E+00 0.  1.
          1   -1    0    0  501    0  0.00000000000E+00 -0.00000000000E+00 -0.59054668295E+03  0.59054668295E+03  0.00000000000E+00 0. -1.
        -24    2    1    2    0    0 -0.28327812708E+02  0.21162948617E+03  0.43111760072E+03  0.48786955453E+03  0.81023528628E+02 0.  0.
        254    2    1    2    0    0  0.28327812708E+02 -0.21162948617E+03 -0.19017822620E+03  0.93416318590E+03  0.88932760880E+03 0.  0.
         23    2    4    4    0    0 -0.22746756382E+02  0.25669681781E+03  0.18030276682E+03  0.32717856541E+03  0.90144632345E+02 0.  0.
         23    2    4    4    0    0  0.51074569090E+02 -0.46832630398E+03 -0.37048099303E+03  0.60698462048E+03  0.96104238726E+02 0.  0.
          3    1    3    3  502    0 -0.22759798266E+01  0.97310341213E+01 -0.11555319433E+01  0.10060236742E+02  0.00000000000E+00 0. -1.
         -4    1    3    3    0  502 -0.26051832882E+02  0.20189845205E+03  0.43227313267E+03  0.47780931778E+03  0.00000000000E+00 0.  1.
         13    1    5    5    0    0 -0.57602246436E+02  0.15177518233E+03  0.10255780939E+03  0.19202038702E+03  0.00000000000E+00 0.  1.
        -13    1    5    5    0    0  0.34855490054E+02  0.10492163548E+03  0.77744957436E+02  0.13515817839E+03  0.00000000000E+00 0. -1.
          3    1    6    6  503    0  0.21188167723E+02 -0.37811014776E+03 -0.25107007819E+03  0.45437034064E+03  0.00000000000E+00 0. -1.
         -3    1    6    6    0  503  0.29886401367E+02 -0.90216156223E+02 -0.11941091484E+03  0.15261427985E+03  0.00000000000E+00 0.  1.
<mgrwt>
<rscale>  0 0.14014726E+04</rscale>
<asrwt>0</asrwt>
<pdfrwt beam="1">  1        1 0.90853336E-01 0.14014726E+04</pdfrwt>
<pdfrwt beam="2">  1       -2 0.12792093E+00 0.14014726E+04</pdfrwt>
<totfact> 0.13519174E+01</totfact>
</mgrwt>
</event>
<event>
12    5  0.5095719E-008  0.1372280E+04  0.7818608E-02  0.8974132E-01
          1   -1    0    0  501    0  0.00000000000E+00  0.00000000000E+00  0.31994140872E+03  0.31994140872E+03  0.00000000000E+00 0. -1.
         -2   -1    0    0    0  501 -0.00000000000E+00 -0.00000000000E+00 -0.14714814840E+04  0.14714814840E+04  0.00000000000E+00 0.  1.
        -24    2    1    2    0    0 -0.10799765799E+03  0.26030820213E+03 -0.65882263847E+03  0.72113348398E+03  0.81008508940E+02 0.  0.
        254    2    1    2    0    0  0.10799765799E+03 -0.26030820213E+03 -0.49271743684E+03  0.10702894088E+04  0.90737263113E+03 0.  0.
         23    2    4    4    0    0  0.21848690798E+02 -0.48809709026E+03 -0.60863543190E+03  0.78583600647E+03  0.91569674531E+02 0.  0.
         23    2    4    4    0    0  0.86148967195E+02  0.22778888812E+03  0.11591799506E+03  0.28445340230E+03  0.90373305796E+02 0.  0.
          3    1    3    3  502    0  0.20056809405E+01  0.43915822367E+02 -0.55463120703E+02  0.70772734639E+02  0.00000000000E+00 0. -1.
         -4    1    3    3    0  502 -0.11000333893E+03  0.21639237977E+03 -0.60335951777E+03  0.65036074934E+03  0.00000000000E+00 0.  1.
         13    1    5    5    0    0  0.19393207343E+02 -0.38675449696E+02 -0.87937204284E+02  0.98004279486E+02  0.00000000000E+00 0. -1.
        -13    1    5    5    0    0  0.24554834551E+01 -0.44942164056E+03 -0.52069822762E+03  0.68783172698E+03  0.00000000000E+00 0.  1.
          4    1    6    6  503    0  0.16406523165E+02  0.33883803001E+01 -0.82529233003E+01  0.18675274199E+02  0.00000000000E+00 0. -1.
         -4    1    6    6    0  503  0.69742444029E+02  0.22440050782E+03  0.12417091836E+03  0.26577812810E+03  0.00000000000E+00 0.  1.
<mgrwt>
<rscale>  0 0.13722796E+04</rscale>
<asrwt>0</asrwt>
<pdfrwt beam="1">  1        1 0.49221755E-01 0.13722796E+04</pdfrwt>
<pdfrwt beam="2">  1       -2 0.22638177E+00 0.13722796E+04</pdfrwt>
<totfact> 0.61947121E+00</totfact>
</mgrwt>
</event>
<event>
12    5  0.5095719E-008  0.1515630E+04  0.7818608E-02  0.8874125E-01
         -2   -1    0    0    0  501 -0.00000000000E+00  0.00000000000E+00  0.69067823229E+03  0.69067823229E+03  0.00000000000E+00 0.  1.
          1   -1    0    0  501    0  0.00000000000E+00 -0.00000000000E+00 -0.83147752574E+03  0.83147752574E+03  0.00000000000E+00 0. -1.
        -24    2    1    2    0    0 -0.26196662518E+03  0.46988552851E+02  0.36271977643E+03  0.45732600693E+03  0.82140146046E+02 0.  0.
        254    2    1    2    0    0  0.26196662518E+03 -0.46988552851E+02 -0.50351906989E+03  0.10648297511E+04  0.89972023889E+03 0.  0.
         23    2    4    4    0    0  0.25303344720E+03  0.97699679551E+02  0.19477725102E+03  0.34594020948E+03  0.90362039815E+02 0.  0.
         23    2    4    4    0    0  0.89331779825E+01 -0.14468823240E+03 -0.69829632091E+03  0.71888954161E+03  0.90387692653E+02 0.  0.
          1    1    3    3  502    0 -0.32400678789E+02  0.17734553747E+02  0.15512177437E+02  0.40061777687E+02  0.00000000000E+00 0. -1.
         -2    1    3    3    0  502 -0.22956594639E+03  0.29253999105E+02  0.34720759900E+03  0.41726422925E+03  0.00000000000E+00 0.  1.
         13    1    5    5    0    0  0.94922842632E+01 -0.14551785911E+02  0.79193860204E+01  0.19093836929E+02  0.00000000000E+00 0.  1.
        -13    1    5    5    0    0  0.24354116293E+03  0.11225146546E+03  0.18685786500E+03  0.32684637256E+03  0.00000000000E+00 0. -1.
          1    1    6    6  503    0 -0.98598052470E+01 -0.14172414476E+03 -0.50327233748E+03  0.52293976196E+03  0.00000000000E+00 0. -1.
         -1    1    6    6    0  503  0.18792983229E+02 -0.29640876475E+01 -0.19502398343E+03  0.19594977965E+03  0.00000000000E+00 0.  1.
<mgrwt>
<rscale>  0 0.15156298E+04</rscale>
<asrwt>0</asrwt>
<pdfrwt beam="1">  1        1 0.12791962E+00 0.15156298E+04</pdfrwt>
<pdfrwt beam="2">  1       -2 0.10625819E+00 0.15156298E+04</pdfrwt>
<totfact> 0.12556614E+01</totfact>
</mgrwt>
</event>
<event>
12    5  0.5095719E-008  0.1091482E+04  0.7818608E-02  0.9213534E-01
         -2   -1    0    0    0  501 -0.00000000000E+00  0.00000000000E+00  0.11882882509E+03  0.11882882509E+03  0.00000000000E+00 0.  1.
          1   -1    0    0  501    0  0.00000000000E+00 -0.00000000000E+00 -0.25064060076E+04  0.25064060076E+04  0.00000000000E+00 0. -1.
        -24    2    1    2    0    0  0.17605573832E+02  0.78903203925E+02 -0.52032240553E+02  0.12231654181E+03  0.75619511524E+02 0.  0.
        254    2    1    2    0    0 -0.17605573832E+02 -0.78903203925E+02 -0.23355449419E+04  0.25029182908E+04  0.89626677003E+03 0.  0.
         23    2    4    4    0    0 -0.10180705399E+03 -0.33693305881E+03 -0.21046265856E+04  0.21353643766E+04  0.80245833232E+02 0.  0.
         23    2    4    4    0    0  0.84201480155E+02  0.25802985488E+03 -0.23091835635E+03  0.36755391425E+03  0.90018316530E+02 0.  0.
          1    1    3    3  502    0 -0.29506074978E+02  0.25158518276E+02 -0.23636591378E+02  0.45411980296E+02  0.00000000000E+00 0. -1.
         -2    1    3    3    0  502  0.47111648810E+02  0.53744685649E+02 -0.28395649174E+02  0.76904561511E+02  0.00000000000E+00 0.  1.
         13    1    5    5    0    0  0.12436382448E+02 -0.32565326518E+02 -0.25709079669E+03  0.25944333070E+03  0.00000000000E+00 0.  1.
        -13    1    5    5    0    0 -0.11424343644E+03 -0.30436773229E+03 -0.18475357889E+04  0.18759210459E+04  0.00000000000E+00 0. -1.
          2    1    6    6  503    0  0.88277022972E+02  0.24503760178E+03 -0.23745458416E+03  0.35244990936E+03  0.00000000000E+00 0. -1.
         -2    1    6    6    0  503 -0.40755428164E+01  0.12992253101E+02  0.65362278033E+01  0.15104004892E+02  0.00000000000E+00 0.  1.
<mgrwt>
<rscale>  0 0.10914821E+04</rscale>
<asrwt>0</asrwt>
<pdfrwt beam="1">  1        1 0.38560090E+00 0.10914821E+04</pdfrwt>
<pdfrwt beam="2">  1       -2 0.18281359E-01 0.10914821E+04</pdfrwt>
<totfact> 0.29627553E+01</totfact>
</mgrwt>
</event>
<event>
12    5  0.5095719E-008  0.1707169E+04  0.7818608E-02  0.8757286E-01
          1   -1    0    0  501    0  0.00000000000E+00  0.00000000000E+00  0.54077903106E+04  0.54077903106E+04  0.00000000000E+00 0. -1.
         -2   -1    0    0    0  501 -0.00000000000E+00 -0.00000000000E+00 -0.13473277396E+03  0.13473277396E+03  0.00000000000E+00 0.  1.
        -24    2    1    2    0    0 -0.23508860851E+03 -0.46486706706E+03  0.29408409104E+04  0.29877641272E+04  0.82590407874E+02 0.  0.
        254    2    1    2    0    0  0.23508860851E+03  0.46486706706E+03  0.23322166262E+04  0.25547589574E+04  0.90343283908E+03 0.  0.
         23    2    4    4    0    0  0.47005055950E+03  0.89313292727E+02  0.17568808469E+04  0.18230495830E+04  0.89191250101E+02 0.  0.
         23    2    4    4    0    0 -0.23496195098E+03  0.37555377433E+03  0.57533577929E+03  0.73170937435E+03  0.90219697123E+02 0.  0.
          1    1    3    3  502    0 -0.15985284731E+03 -0.26320783011E+03  0.15404231935E+04  0.15709025780E+04  0.00000000000E+00 0. -1.
         -2    1    3    3    0  502 -0.75235761206E+02 -0.20165923695E+03  0.14004177169E+04  0.14168615492E+04  0.00000000000E+00 0.  1.
         13    1    5    5    0    0  0.27863929060E+02  0.97760970322E+01  0.50376537196E+02  0.58393202650E+02  0.00000000000E+00 0. -1.
        -13    1    5    5    0    0  0.44218663044E+03  0.79537195695E+02  0.17065043097E+04  0.17646563804E+04  0.00000000000E+00 0.  1.
          1    1    6    6  503    0 -0.73108765261E+02  0.65067376040E+02  0.16929899040E+03  0.19555255849E+03  0.00000000000E+00 0. -1.
         -1    1    6    6    0  503 -0.16185318572E+03  0.31048639829E+03  0.40603678889E+03  0.53615681585E+03  0.00000000000E+00 0.  1.
<mgrwt>
<rscale>  0 0.17071691E+04</rscale>
<asrwt>0</asrwt>
<pdfrwt beam="1">  1        1 0.83196757E+00 0.17071691E+04</pdfrwt>
<pdfrwt beam="2">  1       -2 0.20728123E-01 0.17071691E+04</pdfrwt>
<totfact> 0.38550548E-02</totfact>
</mgrwt>
</event>
<event>
12    5  0.5095719E-008  0.1514295E+04  0.7818608E-02  0.8875002E-01
         -2   -1    0    0    0  501 -0.00000000000E+00  0.00000000000E+00  0.24205232530E+03  0.24205232530E+03  0.00000000000E+00 0.  1.
          1   -1    0    0  501    0  0.00000000000E+00 -0.00000000000E+00 -0.23683831053E+04  0.23683831053E+04  0.00000000000E+00 0. -1.
        -24    2    1    2    0    0 -0.28352574394E+03  0.51766488472E+02 -0.13710232360E+04  0.14032188789E+04  0.79068904976E+02 0.  0.
        254    2    1    2    0    0  0.28352574394E+03 -0.51766488472E+02 -0.75530754396E+03  0.12072165516E+04  0.89655769462E+03 0.  0.
         23    2    4    4    0    0  0.79862584847E+02 -0.14080217238E+03  0.16938050883E+03  0.25189347071E+03  0.92505565302E+02 0.  0.
         23    2    4    4    0    0  0.20366315909E+03  0.89035683903E+02 -0.92468805279E+03  0.95532308092E+03  0.90488444496E+02 0.  0.
          1    1    3    3  502    0 -0.21234312086E+03  0.64777072816E+02 -0.11285396780E+04  0.11501684550E+04  0.00000000000E+00 0. -1.
         -2    1    3    3    0  502 -0.71182623079E+02 -0.13010584344E+02 -0.24248355798E+03  0.25305042387E+03  0.00000000000E+00 0.  1.
         13    1    5    5    0    0  0.55526694801E+01  0.13502265253E+02  0.83778490437E+01  0.16832458522E+02  0.00000000000E+00 0.  1.
        -13    1    5    5    0    0  0.74309915367E+02 -0.15430443763E+03  0.16100265979E+03  0.23506101219E+03  0.00000000000E+00 0. -1.
          4    1    6    6  503    0  0.25948724886E+02  0.57164231093E+01 -0.28409946208E+03  0.28533930359E+03  0.00000000000E+00 0. -1.
         -4    1    6    6    0  503  0.17771443420E+03  0.83319260794E+02 -0.64058859071E+03  0.66998377734E+03  0.00000000000E+00 0.  1.
<mgrwt>
<rscale>  0 0.15142954E+04</rscale>
<asrwt>0</asrwt>
<pdfrwt beam="1">  1        1 0.36436662E+00 0.15142954E+04</pdfrwt>
<pdfrwt beam="2">  1       -2 0.37238821E-01 0.15142954E+04</pdfrwt>
<totfact> 0.96528083E+00</totfact>
</mgrwt>
</event>
<event>
12    5  0.5095719E-008  0.1670965E+04  0.7818608E-02  0.8778099E-01
          1   -1    0    0  501    0  0.00000000000E+00  0.00000000000E+00  0.46641510708E+03  0.46641510708E+03  0.00000000000E+00 0. -1.
         -2   -1    0    0    0  501 -0.00000000000E+00 -0.00000000000E+00 -0.14965878613E+04  0.14965878613E+04  0.00000000000E+00 0.  1.
        -24    2    1    2    0    0  0.58534195630E+02 -0.47819844615E+03  0.25436219291E+02  0.48914020193E+03  0.80691572840E+02 0.  0.
        254    2    1    2    0    0 -0.58534195630E+02  0.47819844615E+03 -0.10556089735E+04  0.14738627664E+04  0.90876902643E+03 0.  0.
         23    2    4    4    0    0 -0.43684501248E+03  0.70854671735E+02 -0.58666801534E+03  0.74062517278E+03  0.92153876189E+02 0.  0.
         23    2    4    4    0    0  0.37831081685E+03  0.40734377442E+03 -0.46894095814E+03  0.73323759365E+03  0.93186489437E+02 0.  0.
          1    1    3    3  502    0  0.55792669714E+02 -0.40428364879E+03 -0.74733572200E+01  0.40818371078E+03  0.00000000000E+00 0. -1.
         -2    1    3    3    0  502  0.27415259158E+01 -0.73914797363E+02  0.32909576511E+02  0.80956491152E+02  0.00000000000E+00 0.  1.
         13    1    5    5    0    0 -0.40156318542E+03  0.37210022289E+02 -0.52177053211E+03  0.65945588618E+03  0.00000000000E+00 0. -1.
        -13    1    5    5    0    0 -0.35281827062E+02  0.33644649446E+02 -0.64897483230E+02  0.81169286597E+02  0.00000000000E+00 0.  1.
          1    1    6    6  503    0  0.32596805508E+03  0.38137599527E+03 -0.44306131219E+03  0.66933261467E+03  0.00000000000E+00 0. -1.
         -1    1    6    6    0  503  0.52342761772E+02  0.25967779149E+02 -0.25879645951E+02  0.63904978980E+02  0.00000000000E+00 0.  1.
<mgrwt>
<rscale>  0 0.16709652E+04</rscale>
<asrwt>0</asrwt>
<pdfrwt beam="1">  1        1 0.71756172E-01 0.16709652E+04</pdfrwt>
<pdfrwt beam="2">  1       -2 0.23024428E+00 0.16709652E+04</pdfrwt>
<totfact> 0.34652026E+00</totfact>
</mgrwt>
</event>
<event>
12    5  0.5095719E-008  0.2259770E+04  0.7818608E-02  0.8493954E-01
          1   -1    0    0  501    0  0.00000000000E+00  0.00000000000E+00  0.26497125635E+04  0.26497125635E+04  0.00000000000E+00 0. -1.
         -2   -1    0    0    0  501 -0.00000000000E+00 -0.00000000000E+00 -0.48180327389E+03  0.48180327389E+03  0.00000000000E+00 0.  1.
        -24    2    1    2    0    0  0.42204239468E+02 -0.92190053423E+03  0.60021792098E+03  0.11038357551E+04  0.80684749396E+02 0.  0.
        254    2    1    2    0    0 -0.42204239468E+02  0.92190053423E+03  0.15676913686E+04  0.20276800822E+04  0.89562743137E+03 0.  0.
         23    2    4    4    0    0  0.16351480035E+03 -0.10524484884E+03  0.14580716069E+03  0.25919359121E+03  0.90044552727E+02 0.  0.
         23    2    4    4    0    0 -0.20571903981E+03  0.10271453831E+04  0.14218842079E+04  0.17684864910E+04  0.91879306123E+02 0.  0.
          1    1    3    3  502    0  0.19657580612E+02 -0.48063471568E+02  0.40639350347E+02  0.65939931539E+02  0.00000000000E+00 0. -1.
         -2    1    3    3    0  502  0.22546658856E+02 -0.87383706267E+03  0.55957857063E+03  0.10378958236E+04  0.00000000000E+00 0.  1.
         13    1    5    5    0    0  0.11830484890E+03 -0.11650875123E+03  0.12658571895E+03  0.20879241037E+03  0.00000000000E+00 0.  1.
        -13    1    5    5    0    0  0.45209951449E+02  0.11263902393E+02  0.19221441733E+02  0.50401180834E+02  0.00000000000E+00 0. -1.
          2    1    6    6  503    0 -0.13275942600E+03  0.44533490127E+03  0.60175701426E+03  0.76030240280E+03  0.00000000000E+00 0. -1.
         -2    1    6    6    0  503 -0.72959613813E+02  0.58181048180E+03  0.82012719364E+03  0.10081840882E+04  0.00000000000E+00 0.  1.
<mgrwt>
<rscale>  0 0.22597701E+04</rscale>
<asrwt>0</asrwt>
<pdfrwt beam="1">  1        1 0.40764808E+00 0.22597701E+04</pdfrwt>
<pdfrwt beam="2">  1       -2 0.74123582E-01 0.22597701E+04</pdfrwt>
<totfact> 0.13913304E+00</totfact>
</mgrwt>
</event>
<event>
12    5  0.5095719E-008  0.2192379E+04  0.7818608E-02  0.8521607E-01
         -2   -1    0    0    0  501 -0.00000000000E+00  0.00000000000E+00  0.29523868803E+03  0.29523868803E+03  0.00000000000E+00 0.  1.
          1   -1    0    0  501    0  0.00000000000E+00 -0.00000000000E+00 -0.40700354036E+04  0.40700354036E+04  0.00000000000E+00 0. -1.
        -24    2    1    2    0    0  0.65517719742E+02  0.14099675746E+03  0.21367837572E+03  0.27704417425E+03  0.83200775368E+02 0.  0.
        254    2    1    2    0    0 -0.65517719742E+02 -0.14099675746E+03 -0.39884750912E+04  0.40882299173E+04  0.88403486716E+03 0.  0.
         23    2    4    4    0    0 -0.15988189083E+03 -0.10598923272E+03 -0.39387890754E+04  0.39447235006E+04  0.99940880150E+02 0.  0.
         23    2    4    4    0    0  0.94364171089E+02 -0.35007524741E+02 -0.49686015845E+02  0.14350641671E+03  0.89416261894E+02 0.  0.
          1    1    3    3  502    0 -0.12898074506E+02  0.22341078121E+02  0.80540267650E+01  0.27025015166E+02  0.00000000000E+00 0. -1.
         -2    1    3    3    0  502  0.78415794247E+02  0.11865567934E+03  0.20562434895E+03  0.25001915909E+03  0.00000000000E+00 0.  1.
         13    1    5    5    0    0 -0.16632146053E+03 -0.73799618648E+02 -0.34862624950E+04  0.34910077909E+04  0.00000000000E+00 0. -1.
        -13    1    5    5    0    0  0.64395696957E+01 -0.32189614075E+02 -0.45252658041E+03  0.45371570977E+03  0.00000000000E+00 0.  1.
          1    1    6    6  503    0  0.86892038660E+02 -0.49256367434E+02 -0.66687832512E+02  0.12009863913E+03  0.00000000000E+00 0. -1.
         -1    1    6    6    0  503  0.74721324295E+01  0.14248842693E+02  0.17001816667E+02  0.23407777577E+02  0.00000000000E+00 0.  1.
<mgrwt>
<rscale>  0 0.21923794E+04</rscale>
<asrwt>0</asrwt>
<pdfrwt beam="1">  1        1 0.62615921E+00 0.21923794E+04</pdfrwt>
<pdfrwt beam="2">  1       -2 0.45421343E-01 0.21923794E+04</pdfrwt>
<totfact> 0.30828195E-01</totfact>
</mgrwt>
</event>
<event>
12    5  0.5095719E-008  0.1607944E+04  0.7818608E-02  0.8815683E-01
          1   -1    0    0  501    0  0.00000000000E+00  0.00000000000E+00  0.51055214813E+03  0.51055214813E+03  0.00000000000E+00 0. -1.
         -2   -1    0    0    0  501 -0.00000000000E+00 -0.00000000000E+00 -0.12660232219E+04  0.12660232219E+04  0.00000000000E+00 0.  1.
        -24    2    1    2    0    0  0.30405144439E+02 -0.17132891518E+03 -0.83700698850E+03  0.85852656755E+03  0.78797832450E+02 0.  0.
        254    2    1    2    0    0 -0.30405144439E+02  0.17132891518E+03  0.81535914713E+02  0.91804880250E+03  0.89771233054E+03 0.  0.
         23    2    4    4    0    0  0.26782218133E+03 -0.25830206169E+03  0.48487521871E+02  0.38603943011E+03  0.90701300636E+02 0.  0.
         23    2    4    4    0    0 -0.29822732577E+03  0.42963097687E+03  0.33048392842E+02  0.53200937239E+03  0.91757625967E+02 0.  0.
          1    1    3    3  502    0  0.30894604709E+02 -0.42542853895E+02 -0.13643074079E+03  0.14621121041E+03  0.00000000000E+00 0. -1.
         -2    1    3    3    0  502 -0.48946026977E+00 -0.12878606128E+03 -0.70057624772E+03  0.71231535714E+03  0.00000000000E+00 0.  1.
         13    1    5    5    0    0  0.58341850893E+02 -0.21839323017E+02  0.31171636722E+02  0.69659159709E+02  0.00000000000E+00 0. -1.
        -13    1    5    5    0    0  0.20948033044E+03 -0.23646273867E+03  0.17315885149E+02  0.31638027040E+03  0.00000000000E+00 0.  1.
          3    1    6    6  503    0 -0.11421974081E+03  0.15463266228E+03  0.56282821086E+02  0.20031266906E+03  0.00000000000E+00 0. -1.
         -3    1    6    6    0  503 -0.18400758496E+03  0.27499831458E+03 -0.23234428244E+02  0.33169670333E+03  0.00000000000E+00 0.  1.
<mgrwt>
<rscale>  0 0.16079439E+04</rscale>
<asrwt>0</asrwt>
<pdfrwt beam="1">  1        1 0.78546485E-01 0.16079439E+04</pdfrwt>
<pdfrwt beam="2">  1       -2 0.19477280E+00 0.16079439E+04</pdfrwt>
<totfact> 0.51967648E+00</totfact>
</mgrwt>
</event>
<event>
12    5  0.5095719E-008  0.2214579E+04  0.7818608E-02  0.8512385E-01
          1   -1    0    0  501    0  0.00000000000E+00  0.00000000000E+00  0.16487608318E+04  0.16487608318E+04  0.00000000000E+00 0. -1.
         -2   -1    0    0    0  501 -0.00000000000E+00 -0.00000000000E+00 -0.74364322188E+03  0.74364322188E+03  0.00000000000E+00 0.  1.
        -24    2    1    2    0    0  0.82590433405E+03 -0.58289123637E+02  0.85920585645E+03  0.11960228102E+04  0.81977239992E+02 0.  0.
        254    2    1    2    0    0 -0.82590433405E+03  0.58289123637E+02  0.45911753512E+02  0.11963812435E+04  0.86238309337E+03 0.  0.
         23    2    4    4    0    0 -0.13046863695E+03  0.37976433810E+03  0.91899330922E+02  0.42255592909E+03  0.94154173917E+02 0.  0.
         23    2    4    4    0    0 -0.69543569710E+03 -0.32147521447E+03 -0.45987577410E+02  0.77382531440E+03  0.98557788146E+02 0.  0.
          1    1    3    3  502    0  0.71191504766E+03 -0.71736813657E+02  0.71266586700E+03  0.10098820939E+04  0.00000000000E+00 0. -1.
         -2    1    3    3    0  502  0.11398928638E+03  0.13447690020E+02  0.14653998945E+03  0.18614071635E+03  0.00000000000E+00 0.  1.
         13    1    5    5    0    0 -0.32678942094E+02  0.17227985708E+02  0.75878429174E+01  0.37713288216E+02  0.00000000000E+00 0. -1.
        -13    1    5    5    0    0 -0.97789694852E+02  0.36253635240E+03  0.84311488005E+02  0.38484264088E+03  0.00000000000E+00 0.  1.
          2    1    6    6  503    0 -0.44956583473E+03 -0.16589399487E+03  0.35847661911E+00  0.47919764794E+03  0.00000000000E+00 0. -1.
         -2    1    6    6    0  503 -0.24586986237E+03 -0.15558121960E+03 -0.46346054029E+02  0.29462766646E+03  0.00000000000E+00 0.  1.
<mgrwt>
<rscale>  0 0.22145788E+04</rscale>
<asrwt>0</asrwt>
<pdfrwt beam="1">  1        1 0.25365551E+00 0.22145788E+04</pdfrwt>
<pdfrwt beam="2">  1       -2 0.11440665E+00 0.22145788E+04</pdfrwt>
<totfact> 0.24668019E+00</totfact>
</mgrwt>
</event>
<event>
12    5  0.5095719E-008  0.2531509E+04  0.7818608E-02  0.8391845E-01
          1   -1    0    0  501    0  0.00000000000E+00  0.00000000000E+00  0.29683838456E+04  0.29683838456E+04  0.00000000000E+00 0. -1.
         -2   -1    0    0    0  501 -0.00000000000E+00 -0.00000000000E+00 -0.53973310493E+03  0.53973310493E+03  0.00000000000E+00 0.  1.
        -24    2    1    2    0    0 -0.10786918751E+04  0.23785395930E+03  0.10170171691E+04  0.15037225119E+04  0.81895074631E+02 0.  0.
        254    2    1    2    0    0  0.10786918751E+04 -0.23785395930E+03  0.14116335716E+04  0.20043944386E+04  0.89707137825E+03 0.  0.
         23    2    4    4    0    0  0.10607235019E+04 -0.33637714797E+03  0.79065011122E+03  0.13688784049E+04  0.10206152990E+03 0.  0.
         23    2    4    4    0    0  0.17968373193E+02  0.98523188665E+02  0.62098346041E+03  0.63551603371E+03  0.90722047246E+02 0.  0.
          3    1    3    3  502    0 -0.89671688179E+03  0.20767037534E+03  0.88495247372E+03  0.12768590492E+04  0.00000000000E+00 0. -1.
         -4    1    3    3    0  502 -0.18197499334E+03  0.30183583960E+02  0.13206469534E+03  0.22686346268E+03  0.00000000000E+00 0.  1.
         13    1    5    5    0    0  0.82005601966E+03 -0.23352237393E+03  0.56077355426E+03  0.10205349351E+04  0.00000000000E+00 0.  1.
        -13    1    5    5    0    0  0.24066748227E+03 -0.10285477404E+03  0.22987655696E+03  0.34834346987E+03  0.00000000000E+00 0. -1.
          3    1    6    6  503    0  0.42103704573E+02  0.17667044345E+02  0.14211450136E+03  0.14926948078E+03  0.00000000000E+00 0. -1.
         -3    1    6    6    0  503 -0.24135331380E+02  0.80856144320E+02  0.47886895905E+03  0.48624655293E+03  0.00000000000E+00 0.  1.
<mgrwt>
<rscale>  0 0.25315095E+04</rscale>
<asrwt>0</asrwt>
<pdfrwt beam="1">  1        1 0.45667443E+00 0.25315095E+04</pdfrwt>
<pdfrwt beam="2">  1       -2 0.83035864E-01 0.25315095E+04</pdfrwt>
<totfact> 0.62394144E-01</totfact>
</mgrwt>
</event>
<event>
12    5  0.5095719E-008  0.2892534E+04  0.7818608E-02  0.8275102E-01
          1   -1    0    0  501    0  0.00000000000E+00  0.00000000000E+00  0.10667181784E+04  0.10667181784E+04  0.00000000000E+00 0. -1.
         -2   -1    0    0    0  501 -0.00000000000E+00 -0.00000000000E+00 -0.19608630595E+04  0.19608630595E+04  0.00000000000E+00 0.  1.
        -24    2    1    2    0    0 -0.14317738604E+03 -0.12328501412E+04  0.14150599056E+02  0.12438118732E+04  0.80302563991E+02 0.  0.
        254    2    1    2    0    0  0.14317738604E+03  0.12328501412E+04 -0.90829548022E+03  0.17837693647E+04  0.90355588228E+03 0.  0.
         23    2    4    4    0    0 -0.24831966347E+03  0.74567580233E+03 -0.16487839292E+03  0.80821994750E+03  0.91321090946E+02 0.  0.
         23    2    4    4    0    0  0.39149704951E+03  0.48717433891E+03 -0.74341708730E+03  0.97554941718E+03  0.91754691504E+02 0.  0.
          3    1    3    3  502    0 -0.14287924214E+03 -0.10178355158E+04 -0.62244351511E+01  0.10278338186E+04  0.00000000000E+00 0. -1.
         -4    1    3    3    0  502 -0.29814389908E+00 -0.21501462548E+03  0.20375034207E+02  0.21597805462E+03  0.00000000000E+00 0.  1.
         13    1    5    5    0    0 -0.15495540815E+03  0.56584025281E+03 -0.14697118226E+03  0.60480318999E+03  0.00000000000E+00 0.  1.
        -13    1    5    5    0    0 -0.93364255319E+02  0.17983554952E+03 -0.17907210654E+02  0.20341675751E+03  0.00000000000E+00 0. -1.
          2    1    6    6  503    0  0.20804319966E+03  0.32876886956E+03 -0.47115302982E+03  0.61102873911E+03  0.00000000000E+00 0. -1.
         -2    1    6    6    0  503  0.18345384985E+03  0.15840546935E+03 -0.27226405748E+03  0.36452067807E+03  0.00000000000E+00 0.  1.
<mgrwt>
<rscale>  0 0.28925340E+04</rscale>
<asrwt>0</asrwt>
<pdfrwt beam="1">  1        1 0.16411049E+00 0.28925340E+04</pdfrwt>
<pdfrwt beam="2">  1       -2 0.30167124E+00 0.28925340E+04</pdfrwt>
<totfact> 0.31438233E-01</totfact>
</mgrwt>
</event>
<event>
12    5  0.5095719E-008  0.1823170E+04  0.7818608E-02  0.8694074E-01
         -2   -1    0    0    0  501 -0.00000000000E+00  0.00000000000E+00  0.96259487704E+03  0.96259487704E+03  0.00000000000E+00 0.  1.
          1   -1    0    0  501    0  0.00000000000E+00 -0.00000000000E+00 -0.86327837676E+03  0.86327837676E+03  0.00000000000E+00 0. -1.
        -24    2    1    2    0    0  0.68626032669E+03 -0.35910645677E+02 -0.15864941458E+02  0.69208973499E+03  0.80583462666E+02 0.  0.
        254    2    1    2    0    0 -0.68626032669E+03  0.35910645677E+02  0.11518144174E+03  0.11337835188E+04  0.89440231023E+03 0.  0.
         23    2    4    4    0    0 -0.75234647574E+02  0.38368046863E+03 -0.53206753096E+02  0.40483305241E+03  0.90486946825E+02 0.  0.
         23    2    4    4    0    0 -0.61102567912E+03 -0.34776982295E+03  0.16838819483E+03  0.72895046640E+03  0.93370059512E+02 0.  0.
          3    1    3    3  502    0  0.20654653982E+03  0.18530225218E+02  0.17708105990E+02  0.20813077470E+03  0.00000000000E+00 0. -1.
         -4    1    3    3    0  502  0.47971378686E+03 -0.54440870896E+02 -0.33573047447E+02  0.48395896029E+03  0.00000000000E+00 0.  1.
         13    1    5    5    0    0 -0.43338603599E+02  0.35535470427E+03 -0.40208825659E+02  0.36023874038E+03  0.00000000000E+00 0.  1.
        -13    1    5    5    0    0 -0.31896043975E+02  0.28325764355E+02 -0.12997927437E+02  0.44594312028E+02  0.00000000000E+00 0. -1.
          1    1    6    6  503    0 -0.12257601826E+03 -0.10299660728E+03  0.11471268274E+02  0.16051408461E+03  0.00000000000E+00 0. -1.
         -1    1    6    6    0  503 -0.48844966085E+03 -0.24477321568E+03  0.15691692656E+03  0.56843638179E+03  0.00000000000E+00 0.  1.
<mgrwt>
<rscale>  0 0.18231701E+04</rscale>
<asrwt>0</asrwt>
<pdfrwt beam="1">  1        1 0.13281206E+00 0.18231701E+04</pdfrwt>
<pdfrwt beam="2">  1       -2 0.14809152E+00 0.18231701E+04</pdfrwt>
<totfact> 0.49910626E+00</totfact>
</mgrwt>
</event>
<event>
12    5  0.5095719E-008  0.2106196E+04  0.7818608E-02  0.8558519E-01
          1   -1    0    0  501    0  0.00000000000E+00  0.00000000000E+00  0.11269627218E+04  0.11269627218E+04  0.00000000000E+00 0. -1.
         -2   -1    0    0    0  501 -0.00000000000E+00 -0.00000000000E+00 -0.98407441380E+03  0.98407441380E+03  0.00000000000E+00 0.  1.
        -24    2    1    2    0    0 -0.57091238242E+03 -0.30963025138E+03 -0.44815596483E+03  0.79336913961E+03  0.82334572914E+02 0.  0.
        254    2    1    2    0    0  0.57091238242E+03  0.30963025138E+03  0.59104427285E+03  0.13176679960E+04  0.98239695351E+03 0.  0.
         23    2    4    4    0    0  0.37753696279E+03  0.25072037900E+03 -0.19408978081E+03  0.50177156608E+03  0.93321995197E+02 0.  0.
         23    2    4    4    0    0  0.19337541963E+03  0.58909872388E+02  0.78513405367E+03  0.81589642993E+03  0.91580981486E+02 0.  0.
          1    1    3    3  502    0 -0.21321375572E+03 -0.12800649284E+03 -0.21896249627E+03  0.33134625787E+03  0.00000000000E+00 0. -1.
         -2    1    3    3    0  502 -0.35769862671E+03 -0.18162375855E+03 -0.22919346856E+03  0.46202288174E+03  0.00000000000E+00 0.  1.
         13    1    5    5    0    0  0.37555311809E+03  0.23691739097E+03 -0.17312891280E+03  0.47659586139E+03  0.00000000000E+00 0. -1.
        -13    1    5    5    0    0  0.19838447016E+01  0.13802988027E+02 -0.20960868015E+02  0.25175704682E+02  0.00000000000E+00 0.  1.
          1    1    6    6  503    0  0.14940346169E+03  0.83281193188E+02  0.63088231109E+03  0.65365865859E+03  0.00000000000E+00 0. -1.
         -1    1    6    6    0  503  0.43971957937E+02 -0.24371320800E+02  0.15425174257E+03  0.16223777134E+03  0.00000000000E+00 0.  1.
<mgrwt>
<rscale>  0 0.21061958E+04</rscale>
<asrwt>0</asrwt>
<pdfrwt beam="1">  1        1 0.17337888E+00 0.21061958E+04</pdfrwt>
<pdfrwt beam="2">  1       -2 0.15139606E+00 0.21061958E+04</pdfrwt>
<totfact> 0.28518231E+00</totfact>
</mgrwt>
</event>
<event>
12    5  0.5095719E-008  0.1336822E+04  0.7818608E-02  0.9000864E-01
          1   -1    0    0  501    0  0.00000000000E+00  0.00000000000E+00  0.15713607915E+04  0.15713607915E+04  0.00000000000E+00 0. -1.
         -2   -1    0    0    0  501 -0.00000000000E+00 -0.00000000000E+00 -0.28432251279E+03  0.28432251279E+03  0.00000000000E+00 0.  1.
        -24    2    1    2    0    0  0.14732436349E+03 -0.18753075508E+03 -0.18298070788E+02  0.25134200161E+03  0.77238139547E+02 0.  0.
        254    2    1    2    0    0 -0.14732436349E+03  0.18753075508E+03  0.13053363495E+04  0.16043413027E+04  0.90174041606E+03 0.  0.
         23    2    4    4    0    0  0.34105135966E+03 -0.64524869630E+02  0.36958368605E+03  0.51511731156E+03  0.90962931706E+02 0.  0.
         23    2    4    4    0    0 -0.48837572315E+03  0.25205562471E+03  0.93575266345E+03  0.10892239911E+04  0.93450365220E+02 0.  0.
          3    1    3    3  502    0  0.24285942659E+02 -0.51516320276E+02 -0.35528320424E+02  0.67126744430E+02  0.00000000000E+00 0. -1.
         -4    1    3    3    0  502  0.12303842084E+03 -0.13601443480E+03  0.17230249636E+02  0.18421525718E+03  0.00000000000E+00 0.  1.
         13    1    5    5    0    0  0.23225778640E+03 -0.84856404031E+02  0.23837408586E+03  0.34346250663E+03  0.00000000000E+00 0. -1.
        -13    1    5    5    0    0  0.10879357326E+03  0.20331534401E+02  0.13120960019E+03  0.17165480493E+03  0.00000000000E+00 0.  1.
          2    1    6    6  503    0 -0.23573693099E+03  0.15176528042E+03  0.40013840708E+03  0.48858504459E+03  0.00000000000E+00 0. -1.
         -2    1    6    6    0  503 -0.25263879216E+03  0.10029034429E+03  0.53561425637E+03  0.60063894653E+03  0.00000000000E+00 0.  1.
<mgrwt>
<rscale>  0 0.13368220E+04</rscale>
<asrwt>0</asrwt>
<pdfrwt beam="1">  1        1 0.24174781E+00 0.13368220E+04</pdfrwt>
<pdfrwt beam="2">  1       -2 0.43741926E-01 0.13368220E+04</pdfrwt>
<totfact> 0.24883172E+01</totfact>
</mgrwt>
</event>
<event>
12    5  0.5095719E-008  0.1470682E+04  0.7818608E-02  0.8904187E-01
          1   -1    0    0  501    0  0.00000000000E+00  0.00000000000E+00  0.46810900227E+03  0.46810900227E+03  0.00000000000E+00 0. -1.
         -2   -1    0    0    0  501 -0.00000000000E+00 -0.00000000000E+00 -0.11551285557E+04  0.11551285557E+04  0.00000000000E+00 0.  1.
        -24    2    1    2    0    0  0.15096365246E+03  0.35944159721E+03 -0.43950672116E+03  0.59300529352E+03  0.80627749699E+02 0.  0.
        254    2    1    2    0    0 -0.15096365246E+03 -0.35944159721E+03 -0.24751283231E+03  0.10302322645E+04  0.92093845097E+03 0.  0.
         23    2    4    4    0    0 -0.59961823689E+02  0.29181508985E+03  0.24478871633E+02  0.31287085919E+03  0.92398551999E+02 0.  0.
         23    2    4    4    0    0 -0.91001828770E+02 -0.65125668706E+03 -0.27199170395E+03  0.71736140531E+03  0.90616188002E+02 0.  0.
          1    1    3    3  502    0  0.12456230495E+03  0.19567777778E+03 -0.24547217902E+03  0.33773088577E+03  0.00000000000E+00 0. -1.
         -2    1    3    3    0  502  0.26401347512E+02  0.16376381944E+03 -0.19403454215E+03  0.25527440775E+03  0.00000000000E+00 0.  1.
         13    1    5    5    0    0 -0.54100780664E+02  0.20231837040E+03  0.57695741703E+02  0.21722894853E+03  0.00000000000E+00 0. -1.
        -13    1    5    5    0    0 -0.58610430253E+01  0.89496719444E+02 -0.33216870070E+02  0.95641910655E+02  0.00000000000E+00 0.  1.
          3    1    6    6  503    0 -0.87805040702E+02 -0.51802240299E+03 -0.25157168617E+03  0.58253347411E+03  0.00000000000E+00 0. -1.
         -3    1    6    6    0  503 -0.31967880678E+01 -0.13323428407E+03 -0.20420017774E+02  0.13482793120E+03  0.00000000000E+00 0.  1.
<mgrwt>
<rscale>  0 0.14706816E+04</rscale>
<asrwt>0</asrwt>
<pdfrwt beam="1">  1        1 0.72016769E-01 0.14706816E+04</pdfrwt>
<pdfrwt beam="2">  1       -2 0.17771209E+00 0.14706816E+04</pdfrwt>
<totfact> 0.77298763E+00</totfact>
</mgrwt>
</event>
<event>
12    5  0.5095719E-008  0.1371217E+04  0.7818608E-02  0.8974920E-01
          1   -1    0    0  501    0  0.00000000000E+00  0.00000000000E+00  0.31210474804E+03  0.31210474804E+03  0.00000000000E+00 0. -1.
         -2   -1    0    0    0  501 -0.00000000000E+00 -0.00000000000E+00 -0.15060945544E+04  0.15060945544E+04  0.00000000000E+00 0.  1.
        -24    2    1    2    0    0 -0.31583737412E+03  0.20992474940E+03 -0.32067798495E+03  0.50122854968E+03  0.67631661826E+02 0.  0.
        254    2    1    2    0    0  0.31583737412E+03 -0.20992474940E+03 -0.87331182143E+03  0.13169707528E+04  0.90989932350E+03 0.  0.
         23    2    4    4    0    0 -0.56999755105E+02  0.97095627363E+02  0.13372564545E+03  0.19634599244E+03  0.89401720121E+02 0.  0.
         23    2    4    4    0    0  0.37283712923E+03 -0.30702037677E+03 -0.10070374669E+04  0.11206247603E+04  0.91686188068E+02 0.  0.
          3    1    3    3  502    0 -0.12850344753E+03  0.94394795626E+02 -0.17781393339E+03  0.23883322294E+03  0.00000000000E+00 0. -1.
         -4    1    3    3    0  502 -0.18733392659E+03  0.11552995378E+03 -0.14286405155E+03  0.26239532675E+03  0.00000000000E+00 0.  1.
         13    1    5    5    0    0 -0.12179180604E+02  0.89733534754E+02  0.11698289260E+03  0.14793727340E+03  0.00000000000E+00 0. -1.
        -13    1    5    5    0    0 -0.44820574501E+02  0.73620926081E+01  0.16742752854E+02  0.48408719042E+02  0.00000000000E+00 0.  1.
          3    1    6    6  503    0  0.85734735995E+02 -0.90892840902E+02 -0.35154054068E+03  0.37308538597E+03  0.00000000000E+00 0.  1.
         -3    1    6    6    0  503  0.28710239323E+03 -0.21612753586E+03 -0.65549692620E+03  0.74753937436E+03  0.00000000000E+00 0. -1.
<mgrwt>
<rscale>  0 0.13712174E+04</rscale>
<asrwt>0</asrwt>
<pdfrwt beam="1">  1        1 0.48016116E-01 0.13712174E+04</pdfrwt>
<pdfrwt beam="2">  1       -2 0.23170685E+00 0.13712174E+04</pdfrwt>
<totfact> 0.59275592E+00</totfact>
</mgrwt>
</event>
<event>
12    5  0.5095719E-008  0.1590351E+04  0.7818608E-02  0.8826498E-01
         -2   -1    0    0    0  501 -0.00000000000E+00  0.00000000000E+00  0.44896206975E+03  0.44896206975E+03  0.00000000000E+00 0.  1.
          1   -1    0    0  501    0  0.00000000000E+00 -0.00000000000E+00 -0.14083683522E+04  0.14083683522E+04  0.00000000000E+00 0. -1.
        -24    2    1    2    0    0 -0.43786788937E+03  0.10129818969E+03 -0.15840774131E+02  0.45681408007E+03  0.80240649605E+02 0.  0.
        254    2    1    2    0    0  0.43786788937E+03 -0.10129818969E+03 -0.94356550829E+03  0.14005163419E+04  0.93227707447E+03 0.  0.
         23    2    4    4    0    0  0.19767169736E+03  0.14049016984E+03  0.11855934115E+03  0.28125308661E+03  0.78964508455E+02 0.  0.
         23    2    4    4    0    0  0.24019619201E+03 -0.24178835953E+03 -0.10621248494E+04  0.11192632552E+04  0.92115239118E+02 0.  0.
          3    1    3    3  502    0 -0.47832060239E+02 -0.12905196894E+02 -0.89485092588E+01  0.50344075238E+02  0.00000000000E+00 0. -1.
         -4    1    3    3    0  502 -0.39003582913E+03  0.11420338658E+03 -0.68922648721E+01  0.40647000483E+03  0.00000000000E+00 0.  1.
         13    1    5    5    0    0  0.17514928665E+03  0.11300769096E+03  0.12784853452E+03  0.24452660103E+03  0.00000000000E+00 0. -1.
        -13    1    5    5    0    0  0.22522410710E+02  0.27482478886E+02 -0.92891933761E+01  0.36726485586E+02  0.00000000000E+00 0.  1.
          3    1    6    6  503    0  0.90462194715E+02 -0.40615194421E+02 -0.23813395238E+03  0.25795499988E+03  0.00000000000E+00 0.  1.
         -3    1    6    6    0  503  0.14973399729E+03 -0.20117316511E+03 -0.82399089706E+03  0.86130825535E+03  0.00000000000E+00 0. -1.
<mgrwt>
<rscale>  0 0.15903509E+04</rscale>
<asrwt>0</asrwt>
<pdfrwt beam="1">  1        1 0.21667205E+00 0.15903509E+04</pdfrwt>
<pdfrwt beam="2">  1       -2 0.69071088E-01 0.15903509E+04</pdfrwt>
<totfact> 0.12222193E+01</totfact>
</mgrwt>
</event>
<event>
12    5  0.5095719E-008  0.1419206E+04  0.7818608E-02  0.8940032E-01
         -2   -1    0    0    0  501 -0.00000000000E+00  0.00000000000E+00  0.67608054947E+03  0.67608054947E+03  0.00000000000E+00 0.  1.
          1   -1    0    0  501    0  0.00000000000E+00 -0.00000000000E+00 -0.74478809627E+03  0.74478809627E+03  0.00000000000E+00 0. -1.
        -24    2    1    2    0    0  0.73665209137E+02  0.24031941552E+03 -0.35166929183E+03  0.43965879041E+03  0.80303030186E+02 0.  0.
        254    2    1    2    0    0 -0.73665209137E+02 -0.24031941552E+03  0.28296174502E+03  0.98120985533E+03  0.90527644758E+03 0.  0.
         23    2    4    4    0    0 -0.21347595939E+03 -0.50454388328E+03 -0.66186293688E+01  0.55533387229E+03  0.90638777956E+02 0.  0.
         23    2    4    4    0    0  0.13981075025E+03  0.26422446776E+03  0.28958037439E+03  0.42587598304E+03  0.90288119088E+02 0.  0.
          1    1    3    3  502    0  0.60006832129E+01  0.54726104984E+02 -0.13844917073E+03  0.14899371679E+03  0.00000000000E+00 0. -1.
         -2    1    3    3    0  502  0.67664525924E+02  0.18559331054E+03 -0.21322012110E+03  0.29066507363E+03  0.00000000000E+00 0.  1.
         13    1    5    5    0    0 -0.84354969475E+02 -0.24515266881E+03  0.38459040694E+02  0.26209671824E+03  0.00000000000E+00 0.  1.
        -13    1    5    5    0    0 -0.12912098991E+03 -0.25939121447E+03 -0.45077670062E+02  0.29323715405E+03  0.00000000000E+00 0. -1.
          1    1    6    6  503    0  0.17178173627E+02  0.32618342601E+02  0.87481057534E+02  0.94931456064E+02  0.00000000000E+00 0. -1.
         -1    1    6    6    0  503  0.12263257662E+03  0.23160612516E+03  0.20209931686E+03  0.33094452697E+03  0.00000000000E+00 0.  1.
<mgrwt>
<rscale>  0 0.14192065E+04</rscale>
<asrwt>0</asrwt>
<pdfrwt beam="1">  1        1 0.11458278E+00 0.14192065E+04</pdfrwt>
<pdfrwt beam="2">  1       -2 0.10401239E+00 0.14192065E+04</pdfrwt>
<totfact> 0.15876199E+01</totfact>
</mgrwt>
</event>
<event>
12    5  0.5095719E-008  0.1287991E+04  0.7818608E-02  0.9039143E-01
         -2   -1    0    0    0  501 -0.00000000000E+00  0.00000000000E+00  0.35218761857E+03  0.35218761857E+03  0.00000000000E+00 0.  1.
          1   -1    0    0  501    0  0.00000000000E+00 -0.00000000000E+00 -0.11775824675E+04  0.11775824675E+04  0.00000000000E+00 0. -1.
        -24    2    1    2    0    0 -0.13242620698E+03 -0.24162007181E+03 -0.12746534388E+02  0.28745750174E+03  0.80946783578E+02 0.  0.
        254    2    1    2    0    0  0.13242620698E+03  0.24162007181E+03 -0.81264831450E+03  0.12423125843E+04  0.89834643353E+03 0.  0.
         23    2    4    4    0    0 -0.14703635150E+02  0.52198685426E+03 -0.23920556100E+03  0.58097408166E+03  0.87321877266E+02 0.  0.
         23    2    4    4    0    0  0.14712984213E+03 -0.28036678244E+03 -0.57344275351E+03  0.66133850264E+03  0.90990660924E+02 0.  0.
          3    1    3    3  502    0 -0.96706661671E+02 -0.12401310202E+03 -0.38433003470E+02  0.16189046803E+03  0.00000000000E+00 0. -1.
         -4    1    3    3    0  502 -0.35719545309E+02 -0.11760696979E+03  0.25686469082E+02  0.12556703371E+03  0.00000000000E+00 0.  1.
         13    1    5    5    0    0 -0.20618470235E+02  0.38190813333E+03 -0.13243561837E+03  0.40474453255E+03  0.00000000000E+00 0.  1.
        -13    1    5    5    0    0  0.59148350847E+01  0.14007872092E+03 -0.10676994263E+03  0.17622954911E+03  0.00000000000E+00 0. -1.
          2    1    6    6  503    0  0.49920984207E+02 -0.10848453948E+03 -0.13353763357E+03  0.17914602856E+03  0.00000000000E+00 0. -1.
         -2    1    6    6    0  503  0.97208857923E+02 -0.17188224296E+03 -0.43990511994E+03  0.48219247408E+03  0.00000000000E+00 0.  1.
<mgrwt>
<rscale>  0 0.12879906E+04</rscale>
<asrwt>0</asrwt>
<pdfrwt beam="1">  1        1 0.18116653E+00 0.12879906E+04</pdfrwt>
<pdfrwt beam="2">  1       -2 0.54182710E-01 0.12879906E+04</pdfrwt>
<totfact> 0.30697685E+01</totfact>
</mgrwt>
</event>
<event>
12    5  0.5095719E-008  0.2010174E+04  0.7818608E-02  0.8601879E-01
         -4   -1    0    0    0  501 -0.00000000000E+00  0.00000000000E+00  0.11453296334E+04  0.11453296334E+04  0.00000000000E+00 0.  1.
          3   -1    0    0  501    0  0.00000000000E+00 -0.00000000000E+00 -0.88201685183E+03  0.88201685183E+03  0.00000000000E+00 0. -1.
        -24    2    1    2    0    0  0.25991157336E+03 -0.22454786217E+03 -0.62620730942E+03  0.71868098411E+03  0.79943693794E+02 0.  0.
        254    2    1    2    0    0 -0.25991157336E+03  0.22454786217E+03  0.88952009102E+03  0.13086655012E+04  0.89631670363E+03 0.  0.
         23    2    4    4    0    0  0.16790139725E+03  0.10181006411E+03  0.82099628612E+03  0.84916007782E+03  0.92096512343E+02 0.  0.
         23    2    4    4    0    0 -0.42781297061E+03  0.12273779805E+03  0.68523804902E+02  0.45950542334E+03  0.91439692401E+02 0.  0.
          3    1    3    3  502    0  0.18417238120E+03 -0.17072731932E+03 -0.37961442670E+03  0.45516414238E+03  0.00000000000E+00 0. -1.
         -4    1    3    3    0  502  0.75739192163E+02 -0.53820542853E+02 -0.24659288272E+03  0.26351684172E+03  0.00000000000E+00 0.  1.
         13    1    5    5    0    0  0.14387287294E+03  0.38338885083E+02  0.55058696411E+03  0.57036416326E+03  0.00000000000E+00 0. -1.
        -13    1    5    5    0    0  0.24028524312E+02  0.63471179032E+02  0.27040932201E+03  0.27879591456E+03  0.00000000000E+00 0.  1.
          4    1    6    6  503    0 -0.23770752792E+03  0.28885620367E+02  0.10444301104E+02  0.23968381530E+03  0.00000000000E+00 0.  1.
         -4    1    6    6    0  503 -0.19010544269E+03  0.93852177687E+02  0.58079503799E+02  0.21982160803E+03  0.00000000000E+00 0. -1.
<mgrwt>
<rscale>  0 0.20101742E+04</rscale>
<asrwt>0</asrwt>
<pdfrwt beam="1">  1        3 0.13569490E+00 0.20101742E+04</pdfrwt>
<pdfrwt beam="2">  1       -4 0.17620456E+00 0.20101742E+04</pdfrwt>
<totfact> 0.16948808E-01</totfact>
</mgrwt>
</event>
<event>
12    5  0.5095719E-008  0.1377146E+04  0.7818608E-02  0.8970530E-01
         -2   -1    0    0    0  501 -0.00000000000E+00  0.00000000000E+00  0.16276731425E+03  0.16276731425E+03  0.00000000000E+00 0.  1.
          1   -1    0    0  501    0  0.00000000000E+00 -0.00000000000E+00 -0.29129467126E+04  0.29129467126E+04  0.00000000000E+00 0. -1.
        -24    2    1    2    0    0  0.21034229566E+03 -0.85175647631E+02 -0.15020271405E+04  0.15211201304E+04  0.78880594167E+02 0.  0.
        254    2    1    2    0    0 -0.21034229566E+03  0.85175647631E+02 -0.12481522579E+04  0.15545938964E+04  0.89854290476E+03 0.  0.
         23    2    4    4    0    0 -0.42930935349E+02  0.74397838668E+02  0.12094700299E+03  0.17220030291E+03  0.87445201016E+02 0.  0.
         23    2    4    4    0    0 -0.16741136031E+03  0.10777808963E+02 -0.13690992608E+04  0.13823935935E+04  0.91850621168E+02 0.  0.
          3    1    3    3  502    0  0.18533276498E+03 -0.71005772668E+02 -0.10778536232E+04  0.10959737618E+04  0.00000000000E+00 0. -1.
         -4    1    3    3    0  502  0.25009530676E+02 -0.14169874964E+02 -0.42417351727E+03  0.42514636860E+03  0.00000000000E+00 0.  1.
         13    1    5    5    0    0 -0.63133468122E+02  0.53888466882E+02  0.53199935256E+02  0.98590236693E+02  0.00000000000E+00 0.  1.
        -13    1    5    5    0    0  0.20202532773E+02  0.20509371786E+02  0.67747067735E+02  0.73610066215E+02  0.00000000000E+00 0. -1.
          1    1    6    6  503    0 -0.13745650677E+03  0.35504150102E+02 -0.12232565325E+04  0.12314671657E+04  0.00000000000E+00 0. -1.
         -1    1    6    6    0  503 -0.29954853541E+02 -0.24726341139E+02 -0.14584272836E+03  0.15092642781E+03  0.00000000000E+00 0.  1.
<mgrwt>
<rscale>  0 0.13771456E+04</rscale>
<asrwt>0</asrwt>
<pdfrwt beam="1">  1        1 0.44814559E+00 0.13771456E+04</pdfrwt>
<pdfrwt beam="2">  1       -2 0.25041128E-01 0.13771456E+04</pdfrwt>
<totfact> 0.85457345E+00</totfact>
</mgrwt>
</event>
<event>
12    5  0.5095719E-008  0.1327982E+04  0.7818608E-02  0.9007665E-01
         -2   -1    0    0    0  501 -0.00000000000E+00  0.00000000000E+00  0.30635435750E+03  0.30635435750E+03  0.00000000000E+00 0.  1.
          1   -1    0    0  501    0  0.00000000000E+00 -0.00000000000E+00 -0.14391299610E+04  0.14391299610E+04  0.00000000000E+00 0. -1.
        -24    2    1    2    0    0  0.10405047991E+03  0.34250281584E+03 -0.31982730435E+03  0.48641489013E+03  0.78582819437E+02 0.  0.
        254    2    1    2    0    0 -0.10405047991E+03 -0.34250281584E+03 -0.81294829914E+03  0.12590694284E+04  0.89232068626E+03 0.  0.
         23    2    4    4    0    0 -0.44702744439E+03 -0.12848969275E+01 -0.28871093332E+03  0.53985501846E+03  0.90852908265E+02 0.  0.
         23    2    4    4    0    0  0.34297696448E+03 -0.34121791891E+03 -0.52423736582E+03  0.71921440990E+03  0.91551544674E+02 0.  0.
          3    1    3    3  502    0  0.79510575419E+02  0.29167367655E+03 -0.30176937934E+03  0.42715362986E+03  0.00000000000E+00 0. -1.
         -4    1    3    3    0  502  0.24539904491E+02  0.50829139292E+02 -0.18057925001E+02  0.59261260271E+02  0.00000000000E+00 0.  1.
         13    1    5    5    0    0 -0.22061549485E+03 -0.41994069248E+02 -0.16485494227E+03  0.27858903498E+03  0.00000000000E+00 0. -1.
        -13    1    5    5    0    0 -0.22641194954E+03  0.40709172320E+02 -0.12385599106E+03  0.26126598348E+03  0.00000000000E+00 0.  1.
          3    1    6    6  503    0  0.18136962239E+03 -0.14233562777E+03 -0.19472029215E+03  0.30177866564E+03  0.00000000000E+00 0. -1.
         -3    1    6    6    0  503  0.16160734209E+03 -0.19888229114E+03 -0.32951707367E+03  0.41743574426E+03  0.00000000000E+00 0.  1.
<mgrwt>
<rscale>  0 0.13279815E+04</rscale>
<asrwt>0</asrwt>
<pdfrwt beam="1">  1        1 0.22140461E+00 0.13279815E+04</pdfrwt>
<pdfrwt beam="2">  1       -2 0.47131439E-01 0.13279815E+04</pdfrwt>
<totfact> 0.26471771E+01</totfact>
</mgrwt>
</event>
<event>
12    5  0.5095719E-008  0.1424581E+04  0.7818608E-02  0.8936216E-01
         -2   -1    0    0    0  501 -0.00000000000E+00  0.00000000000E+00  0.85198086676E+03  0.85198086676E+03  0.00000000000E+00 0.  1.
          1   -1    0    0  501    0  0.00000000000E+00 -0.00000000000E+00 -0.59550338738E+03  0.59550338738E+03  0.00000000000E+00 0. -1.
        -24    2    1    2    0    0 -0.31710198338E+03 -0.30590940313E+03  0.19269641177E+03  0.48762408756E+03  0.80691467174E+02 0.  0.
        254    2    1    2    0    0  0.31710198338E+03  0.30590940313E+03  0.63781067603E+02  0.95986016658E+03  0.85037008650E+03 0.  0.
         23    2    4    4    0    0 -0.11553797377E+03 -0.41273289695E+02 -0.26682916787E+03  0.30761152293E+03  0.91512493058E+02 0.  0.
         23    2    4    4    0    0  0.43263995715E+03  0.34718269283E+03  0.33061023547E+03  0.65224864365E+03  0.91717013774E+02 0.  0.
          1    1    3    3  502    0 -0.54923753784E+02 -0.98511075468E+02  0.61877013958E+02  0.12864608652E+03  0.00000000000E+00 0. -1.
         -2    1    3    3    0  502 -0.26217822959E+03 -0.20739832767E+03  0.13081939781E+03  0.35897800105E+03  0.00000000000E+00 0.  1.
         13    1    5    5    0    0 -0.52068897958E+02 -0.10277894029E+02 -0.21101724897E+03  0.21758925663E+03  0.00000000000E+00 0.  1.
        -13    1    5    5    0    0 -0.63469075816E+02 -0.30995395667E+02 -0.55811918906E+02  0.90022266298E+02  0.00000000000E+00 0. -1.
          1    1    6    6  503    0  0.25760500897E+03  0.24734930789E+03  0.17528306646E+03  0.39782681427E+03  0.00000000000E+00 0. -1.
         -1    1    6    6    0  503  0.17503494818E+03  0.99833384942E+02  0.15532716901E+03  0.25442182938E+03  0.00000000000E+00 0.  1.
<mgrwt>
<rscale>  0 0.14245806E+04</rscale>
<asrwt>0</asrwt>
<pdfrwt beam="1">  1        1 0.91615905E-01 0.14245806E+04</pdfrwt>
<pdfrwt beam="2">  1       -2 0.13107398E+00 0.14245806E+04</pdfrwt>
<totfact> 0.12535428E+01</totfact>
</mgrwt>
</event>
<event>
12    5  0.5095719E-008  0.3098245E+04  0.7818608E-02  0.8216220E-01
         -2   -1    0    0    0  501 -0.00000000000E+00  0.00000000000E+00  0.91802217535E+03  0.91802217535E+03  0.00000000000E+00 0.  1.
          1   -1    0    0  501    0  0.00000000000E+00 -0.00000000000E+00 -0.26140771621E+04  0.26140771621E+04  0.00000000000E+00 0. -1.
        -24    2    1    2    0    0 -0.75371091694E+03 -0.66333605696E+01  0.59265007769E+03  0.96219833017E+03  0.80419924173E+02 0.  0.
        254    2    1    2    0    0  0.75371091694E+03  0.66333605696E+01 -0.22887050644E+04  0.25699010073E+04  0.89336228229E+03 0.  0.
         23    2    4    4    0    0  0.41959265723E+02  0.94266201869E+02  0.30415425419E+02  0.14069320410E+03  0.90679560999E+02 0.  0.
         23    2    4    4    0    0  0.71175165122E+03 -0.87632841299E+02 -0.23191204898E+04  0.24292078032E+04  0.91982479982E+02 0.  0.
          3    1    3    3  502    0 -0.47210021191E+03  0.29553594235E+01  0.32175157241E+03  0.57132426745E+03  0.00000000000E+00 0. -1.
         -4    1    3    3    0  502 -0.28161070504E+03 -0.95887199931E+01  0.27089850528E+03  0.39087406272E+03  0.00000000000E+00 0.  1.
         13    1    5    5    0    0  0.59917723906E+02  0.24598142697E+02  0.21245316092E+02  0.68165722457E+02  0.00000000000E+00 0. -1.
        -13    1    5    5    0    0 -0.17958458183E+02  0.69668059172E+02  0.91701093269E+01  0.72527481648E+02  0.00000000000E+00 0.  1.
          2    1    6    6  503    0  0.63723346028E+03 -0.95143087393E+02 -0.19912395212E+04  0.20928816308E+04  0.00000000000E+00 0. -1.
         -2    1    6    6    0  503  0.74518190936E+02  0.75102460939E+01 -0.32788096866E+03  0.33632617232E+03  0.00000000000E+00 0.  1.
<mgrwt>
<rscale>  0 0.30982452E+04</rscale>
<asrwt>0</asrwt>
<pdfrwt beam="1">  1        1 0.40216572E+00 0.30982452E+04</pdfrwt>
<pdfrwt beam="2">  1       -2 0.14123418E+00 0.30982452E+04</pdfrwt>
<totfact> 0.29392864E-01</totfact>
</mgrwt>
</event>
<event>
12    5  0.5095719E-008  0.1170638E+04  0.7818608E-02  0.9138953E-01
          1   -1    0    0  501    0  0.00000000000E+00  0.00000000000E+00  0.17060291668E+04  0.17060291668E+04  0.00000000000E+00 0. -1.
         -2   -1    0    0    0  501 -0.00000000000E+00 -0.00000000000E+00 -0.20081619487E+03  0.20081619487E+03  0.00000000000E+00 0.  1.
        -24    2    1    2    0    0 -0.13120695037E+03 -0.18251642611E+03  0.27427445932E+03  0.36334253065E+03  0.79144209668E+02 0.  0.
        254    2    1    2    0    0  0.13120695037E+03  0.18251642611E+03  0.12309385126E+04  0.15435028311E+04  0.90369456009E+03 0.  0.
         23    2    4    4    0    0 -0.26735727291E+03  0.10126407389E+03  0.10451585826E+04  0.10872536314E+04  0.89608437465E+02 0.  0.
         23    2    4    4    0    0  0.39856422327E+03  0.81252352214E+02  0.18577993003E+03  0.45624919968E+03  0.90519417799E+02 0.  0.
          3    1    3    3  502    0 -0.66511000781E+02 -0.87742461127E+02  0.19478604863E+03  0.22374998872E+03  0.00000000000E+00 0. -1.
         -4    1    3    3    0  502 -0.64695949584E+02 -0.94773964980E+02  0.79488410688E+02  0.13959254194E+03  0.00000000000E+00 0.  1.
         13    1    5    5    0    0 -0.18136965178E+02 -0.15142228574E+02  0.62284623840E+02  0.66615395810E+02  0.00000000000E+00 0. -1.
        -13    1    5    5    0    0 -0.24922030773E+03  0.11640630247E+03  0.98287395878E+03  0.10206382356E+04  0.00000000000E+00 0.  1.
          3    1    6    6  503    0  0.14452533047E+03  0.68802656228E+02  0.48667403980E+02  0.16730180173E+03  0.00000000000E+00 0. -1.
         -3    1    6    6    0  503  0.25403889280E+03  0.12449695986E+02  0.13711252605E+03  0.28894739795E+03  0.00000000000E+00 0.  1.
<mgrwt>
<rscale>  0 0.11706379E+04</rscale>
<asrwt>0</asrwt>
<pdfrwt beam="1">  1        1 0.26246602E+00 0.11706379E+04</pdfrwt>
<pdfrwt beam="2">  1       -2 0.30894800E-01 0.11706379E+04</pdfrwt>
<totfact> 0.39902919E+01</totfact>
</mgrwt>
</event>
<event>
12    5  0.5095719E-008  0.1983407E+04  0.7818608E-02  0.8614418E-01
         -2   -1    0    0    0  501 -0.00000000000E+00  0.00000000000E+00  0.43141648326E+03  0.43141648326E+03  0.00000000000E+00 0.  1.
          1   -1    0    0  501    0  0.00000000000E+00 -0.00000000000E+00 -0.22796425091E+04  0.22796425091E+04  0.00000000000E+00 0. -1.
        -24    2    1    2    0    0 -0.10217407142E+03  0.17699270900E+03 -0.16781934010E+04  0.16923380925E+04  0.76871114570E+02 0.  0.
        254    2    1    2    0    0  0.10217407142E+03 -0.17699270900E+03 -0.17003262480E+03  0.10187208998E+04  0.98342016369E+03 0.  0.
         23    2    4    4    0    0  0.22214373990E+03 -0.45864619816E+03  0.17777762313E+03  0.54654689299E+03  0.86049094626E+02 0.  0.
         23    2    4    4    0    0 -0.11996966848E+03  0.28165348917E+03 -0.34781024794E+03  0.47217400684E+03  0.90856561958E+02 0.  0.
          1    1    3    3  502    0 -0.10391614800E+03  0.17677107452E+03 -0.16780977412E+04  0.16905793704E+04  0.00000000000E+00 0. -1.
         -2    1    3    3    0  502  0.17420765806E+01  0.22163447484E+00 -0.95659809075E-01  0.17587221078E+01  0.00000000000E+00 0.  1.
         13    1    5    5    0    0  0.10109864465E+03 -0.23863474650E+03  0.13361135285E+03  0.29158098669E+03  0.00000000000E+00 0. -1.
        -13    1    5    5    0    0  0.12104509525E+03 -0.22001145166E+03  0.44166270285E+02  0.25496590630E+03  0.00000000000E+00 0.  1.
          2    1    6    6  503    0 -0.27776977946E+02  0.68965373575E+02 -0.15008920681E+03  0.16749493502E+03  0.00000000000E+00 0. -1.
         -2    1    6    6    0  503 -0.92192690532E+02  0.21268811559E+03 -0.19772104113E+03  0.30467907182E+03  0.00000000000E+00 0.  1.
<mgrwt>
<rscale>  0 0.19834065E+04</rscale>
<asrwt>0</asrwt>
<pdfrwt beam="1">  1        1 0.35071424E+00 0.19834065E+04</pdfrwt>
<pdfrwt beam="2">  1       -2 0.66371765E-01 0.19834065E+04</pdfrwt>
<totfact> 0.32735177E+00</totfact>
</mgrwt>
</event>
<event>
12    5  0.5939794E-008  0.1567022E+04  0.7818608E-02  0.8841068E-01
         -2   -1    0    0    0  501 -0.00000000000E+00  0.00000000000E+00  0.46376189681E+03  0.46376189681E+03  0.00000000000E+00 0.  1.
          1   -1    0    0  501    0  0.00000000000E+00 -0.00000000000E+00 -0.13237165024E+04  0.13237165024E+04  0.00000000000E+00 0. -1.
        -24    2    1    2    0    0  0.42173167981E+03  0.22240818996E+03 -0.58636965375E+02  0.48636552996E+03  0.76092853226E+02 0.  0.
        254    2    1    2    0    0 -0.42173167981E+03 -0.22240818996E+03 -0.80131764018E+03  0.13011128692E+04  0.90744791876E+03 0.  0.
         23    2    4    4    0    0 -0.95523722106E+02  0.33880283053E+03 -0.22192273838E+03  0.42641665721E+03  0.93109206186E+02 0.  0.
         23    2    4    4    0    0 -0.32620795770E+03 -0.56121102049E+03 -0.57939490180E+03  0.87469621200E+03  0.89585544982E+02 0.  0.
          3    1    3    3  502    0  0.13636383604E+02 -0.41489252156E+01 -0.92562306208E+01  0.16995362413E+02  0.00000000000E+00 0. -1.
         -4    1    3    3    0  502  0.40809529621E+03  0.22655711517E+03 -0.49380734754E+02  0.46937016755E+03  0.00000000000E+00 0.  1.
         13    1    5    5    0    0 -0.11704223828E+02  0.31232570048E+01  0.45048511718E+01  0.12924290070E+02  0.00000000000E+00 0. -1.
        -13    1    5    5    0    0 -0.83819498278E+02  0.33567957353E+03 -0.22642758955E+03  0.41349236714E+03  0.00000000000E+00 0.  1.
          2    1    6    6  503    0 -0.34252814985E+02 -0.22914950323E+02 -0.53269027411E+02  0.67349384288E+02  0.00000000000E+00 0. -1.
         -2    1    6    6    0  503 -0.29195514272E+03 -0.53829607017E+03 -0.52612587439E+03  0.80734682772E+03  0.00000000000E+00 0.  1.
<mgrwt>
<rscale>  0 0.15670217E+04</rscale>
<asrwt>0</asrwt>
<pdfrwt beam="1">  1        1 0.20364869E+00 0.15670217E+04</pdfrwt>
<pdfrwt beam="2">  1       -2 0.71347984E-01 0.15670217E+04</pdfrwt>
<totfact> 0.13090738E+01</totfact>
</mgrwt>
</event>
<event>
12    5  0.5095719E-008  0.3331053E+04  0.7818608E-02  0.8155039E-01
         -2   -1    0    0    0  501 -0.00000000000E+00  0.00000000000E+00  0.17172588527E+04  0.17172588527E+04  0.00000000000E+00 0.  1.
          1   -1    0    0  501    0  0.00000000000E+00 -0.00000000000E+00 -0.16153526147E+04  0.16153526147E+04  0.00000000000E+00 0. -1.
        -24    2    1    2    0    0  0.72555395158E+03  0.89966474215E+03 -0.97605697299E+03  0.15148510942E+04  0.79129250473E+02 0.  0.
        254    2    1    2    0    0 -0.72555395158E+03 -0.89966474215E+03  0.10779632110E+04  0.18177603731E+04  0.89801052596E+03 0.  0.
         23    2    4    4    0    0 -0.27731626209E+03 -0.58051921685E+03  0.55224018841E+02  0.65283541792E+03  0.96112019419E+02 0.  0.
         23    2    4    4    0    0 -0.44823768949E+03 -0.31914552530E+03  0.10227391922E+04  0.11649249552E+04  0.91015401762E+02 0.  0.
          3    1    3    3  502    0  0.51263052967E+03  0.67547751988E+03 -0.68269165120E+03  0.10886357657E+04  0.00000000000E+00 0. -1.
         -4    1    3    3    0  502  0.21292342191E+03  0.22418722227E+03 -0.29336532179E+03  0.42621532851E+03  0.00000000000E+00 0.  1.
         13    1    5    5    0    0 -0.11549587905E+03 -0.24641219154E+03  0.71075385831E+02  0.28126495816E+03  0.00000000000E+00 0.  1.
        -13    1    5    5    0    0 -0.16182038304E+03 -0.33410702531E+03 -0.15851366989E+02  0.37157045976E+03  0.00000000000E+00 0. -1.
          3    1    6    6  503    0 -0.31273692546E+03 -0.25398743376E+03  0.67529899740E+03  0.78634772013E+03  0.00000000000E+00 0. -1.
         -3    1    6    6    0  503 -0.13550076403E+03 -0.65158091534E+02  0.34744019478E+03  0.37857723504E+03  0.00000000000E+00 0.  1.
<mgrwt>
<rscale>  0 0.33310530E+04</rscale>
<asrwt>0</asrwt>
<pdfrwt beam="1">  1        1 0.24851579E+00 0.33310530E+04</pdfrwt>
<pdfrwt beam="2">  1       -2 0.26419367E+00 0.33310530E+04</pdfrwt>
<totfact> 0.20822714E-01</totfact>
</mgrwt>
</event>
<event>
12    5  0.5095719E-008  0.1700818E+04  0.7818608E-02  0.8760898E-01
          1   -1    0    0  501    0  0.00000000000E+00  0.00000000000E+00  0.94177027428E+03  0.94177027428E+03  0.00000000000E+00 0. -1.
         -2   -1    0    0    0  501 -0.00000000000E+00 -0.00000000000E+00 -0.76791069499E+03  0.76791069499E+03  0.00000000000E+00 0.  1.
        -24    2    1    2    0    0  0.23599532537E+03 -0.13310414552E+03 -0.48553983402E+03  0.56164287327E+03  0.79267140245E+02 0.  0.
        254    2    1    2    0    0 -0.23599532537E+03  0.13310414552E+03  0.65939941331E+03  0.11480380960E+04  0.89987408921E+03 0.  0.
         23    2    4    4    0    0 -0.37455118414E+03 -0.83870487065E+02  0.76076084754E+03  0.85695522900E+03  0.91062337022E+02 0.  0.
         23    2    4    4    0    0  0.13855585877E+03  0.21697463258E+03 -0.10136143422E+03  0.29108286700E+03  0.90439913354E+02 0.  0.
          1    1    3    3  502    0  0.11357687619E+02 -0.70781259236E+01 -0.80752748119E+02  0.81854158498E+02  0.00000000000E+00 0. -1.
         -4    1    3    3    0  502  0.22463763775E+03 -0.12602601959E+03 -0.40478708591E+03  0.47978871477E+03  0.00000000000E+00 0.  1.
         13    1    5    5    0    0 -0.10044806599E+03 -0.43758310452E+01  0.12765788355E+03  0.16249768334E+03  0.00000000000E+00 0.  1.
        -13    1    5    5    0    0 -0.27410311815E+03 -0.79494656019E+02  0.63310296398E+03  0.69445754566E+03  0.00000000000E+00 0. -1.
          1    1    6    6  503    0  0.70710913727E+02  0.17750983395E+03 -0.91898557257E+02  0.21202622313E+03  0.00000000000E+00 0. -1.
         -1    1    6    6    0  503  0.67844945046E+02  0.39464798636E+02 -0.94628769675E+01  0.79056643871E+02  0.00000000000E+00 0.  1.
<mgrwt>
<rscale>  0 0.17008180E+04</rscale>
<asrwt>0</asrwt>
<pdfrwt beam="1">  1        1 0.14488773E+00 0.17008180E+04</pdfrwt>
<pdfrwt beam="2">  1       -2 0.11814011E+00 0.17008180E+04</pdfrwt>
<totfact> 0.77466037E+00</totfact>
</mgrwt>
</event>
<event>
12    5  0.5095719E-008  0.2538105E+04  0.7818608E-02  0.8389535E-01
         -2   -1    0    0    0  501 -0.00000000000E+00  0.00000000000E+00  0.25015590837E+04  0.25015590837E+04  0.00000000000E+00 0.  1.
          1   -1    0    0  501    0  0.00000000000E+00 -0.00000000000E+00 -0.64379601177E+03  0.64379601177E+03  0.00000000000E+00 0. -1.
        -24    2    1    2    0    0  0.10799879152E+04  0.24593558428E+03  0.74943366707E+03  0.13396654054E+04  0.78704310497E+02 0.  0.
        254    2    1    2    0    0 -0.10799879152E+04 -0.24593558428E+03  0.11083294049E+04  0.18056896901E+04  0.89736446256E+03 0.  0.
         23    2    4    4    0    0 -0.45094611546E+03 -0.15764866517E+03  0.10549355237E+04  0.11615293942E+04  0.89755632965E+02 0.  0.
         23    2    4    4    0    0 -0.62904179971E+03 -0.88286919114E+02  0.53393881117E+02  0.64416029589E+03  0.92754592283E+02 0.  0.
          3    1    3    3  502    0  0.73042183928E+03  0.14698932243E+03  0.54163875700E+03  0.92113759411E+03  0.00000000000E+00 0. -1.
         -4    1    3    3    0  502  0.34956607590E+03  0.98946261852E+02  0.20779491007E+03  0.41852781127E+03  0.00000000000E+00 0.  1.
         13    1    5    5    0    0 -0.10655046966E+03 -0.40761301498E+02  0.35289608217E+03  0.37087751495E+03  0.00000000000E+00 0. -1.
        -13    1    5    5    0    0 -0.34439564580E+03 -0.11688736367E+03  0.70203944157E+03  0.79065187925E+03  0.00000000000E+00 0.  1.
          1    1    6    6  503    0 -0.11870580960E+03 -0.20860086310E+02 -0.26015114065E+02  0.12330044037E+03  0.00000000000E+00 0. -1.
         -1    1    6    6    0  503 -0.51033599011E+03 -0.67426832804E+02  0.79408995182E+02  0.52085985553E+03  0.00000000000E+00 0.  1.
<mgrwt>
<rscale>  0 0.25381046E+04</rscale>
<asrwt>0</asrwt>
<pdfrwt beam="1">  1        1 0.99045541E-01 0.25381046E+04</pdfrwt>
<pdfrwt beam="2">  1       -2 0.38485524E+00 0.25381046E+04</pdfrwt>
<totfact> 0.22340018E-01</totfact>
</mgrwt>
</event>
<event>
12    5  0.5095719E-008  0.2057526E+04  0.7818608E-02  0.8580188E-01
         -2   -1    0    0    0  501 -0.00000000000E+00  0.00000000000E+00  0.12299466538E+04  0.12299466538E+04  0.00000000000E+00 0.  1.
          1   -1    0    0  501    0  0.00000000000E+00 -0.00000000000E+00 -0.86048717038E+03  0.86048717038E+03  0.00000000000E+00 0. -1.
        -24    2    1    2    0    0 -0.63809252610E+03  0.36136736770E+03 -0.23894280330E+03  0.77542275395E+03  0.80239253447E+02 0.  0.
        254    2    1    2    0    0  0.63809252610E+03 -0.36136736770E+03  0.60840228668E+03  0.13150110702E+04  0.90628490332E+03 0.  0.
         23    2    4    4    0    0  0.64735086849E+03 -0.11954520677E+03  0.76486248084E+03  0.10122869266E+04  0.79724548916E+02 0.  0.
         23    2    4    4    0    0 -0.92583423863E+01 -0.24182216092E+03 -0.15646019416E+03  0.30272414363E+03  0.92727775568E+02 0.  0.
          1    1    3    3  502    0 -0.59522757978E+03  0.35144631583E+03 -0.20878584448E+03  0.72208165293E+03  0.00000000000E+00 0. -1.
         -2    1    3    3    0  502 -0.42864946318E+02  0.99210518703E+01 -0.30156958814E+02  0.53341101019E+02  0.00000000000E+00 0.  1.
         13    1    5    5    0    0  0.23897463433E+03 -0.78058411199E+02  0.32074987414E+03  0.40753217440E+03  0.00000000000E+00 0.  1.
        -13    1    5    5    0    0  0.40837623416E+03 -0.41486795574E+02  0.44411260670E+03  0.60475475216E+03  0.00000000000E+00 0. -1.
          1    1    6    6  503    0  0.25272463398E+02 -0.18442580553E+03 -0.84553442382E+02  0.20445258563E+03  0.00000000000E+00 0. -1.
         -1    1    6    6    0  503 -0.34530805785E+02 -0.57396355394E+02 -0.71906751777E+02  0.98271558000E+02  0.00000000000E+00 0.  1.
<mgrwt>
<rscale>  0 0.20575260E+04</rscale>
<asrwt>0</asrwt>
<pdfrwt beam="1">  1        1 0.13238264E+00 0.20575260E+04</pdfrwt>
<pdfrwt beam="2">  1       -2 0.18922256E+00 0.20575260E+04</pdfrwt>
<totfact> 0.24895351E+00</totfact>
</mgrwt>
</event>
<event>
12    5  0.5095719E-008  0.1751974E+04  0.7818608E-02  0.8732264E-01
          3   -1    0    0  501    0  0.00000000000E+00  0.00000000000E+00  0.16672003419E+04  0.16672003419E+04  0.00000000000E+00 0. -1.
         -4   -1    0    0    0  501 -0.00000000000E+00 -0.00000000000E+00 -0.46026480813E+03  0.46026480813E+03  0.00000000000E+00 0.  1.
        -24    2    1    2    0    0  0.23764245848E+03 -0.41334852221E+03 -0.77539303695E+02  0.48946353521E+03  0.78938392391E+02 0.  0.
        254    2    1    2    0    0 -0.23764245848E+03  0.41334852221E+03  0.12844748374E+04  0.16380016148E+04  0.89768744181E+03 0.  0.
         23    2    4    4    0    0 -0.25787112642E+03 -0.23073876564E+03  0.55712989570E+03  0.66185878225E+03  0.89024890536E+02 0.  0.
         23    2    4    4    0    0  0.20228667938E+02  0.64408728785E+03  0.72734494173E+03  0.97614283255E+03  0.92555561171E+02 0.  0.
          3    1    3    3  502    0  0.62260016764E+02 -0.17753154706E+03 -0.13041315500E+02  0.18858376335E+03  0.00000000000E+00 0. -1.
         -4    1    3    3    0  502  0.17538244172E+03 -0.23581697515E+03 -0.64497988195E+02  0.30087977185E+03  0.00000000000E+00 0.  1.
         13    1    5    5    0    0 -0.22354418127E+03 -0.19617519452E+03  0.52534794449E+03  0.60369460052E+03  0.00000000000E+00 0. -1.
        -13    1    5    5    0    0 -0.34326945148E+02 -0.34563571126E+02  0.31781951219E+02  0.58164181723E+02  0.00000000000E+00 0.  1.
          3    1    6    6  503    0  0.33164766048E+02  0.31142343261E+03  0.29288135364E+03  0.42879359067E+03  0.00000000000E+00 0. -1.
         -3    1    6    6    0  503 -0.12936098110E+02  0.33266385524E+03  0.43446358809E+03  0.54734924189E+03  0.00000000000E+00 0.  1.
<mgrwt>
<rscale>  0 0.17519745E+04</rscale>
<asrwt>0</asrwt>
<pdfrwt beam="1">  1        3 0.25649236E+00 0.17519745E+04</pdfrwt>
<pdfrwt beam="2">  1       -4 0.70809971E-01 0.17519745E+04</pdfrwt>
<totfact> 0.26918519E-01</totfact>
</mgrwt>
</event>
<event>
12    5  0.5095719E-008  0.2830225E+04  0.7818608E-02  0.8293946E-01
          1   -1    0    0  501    0  0.00000000000E+00  0.00000000000E+00  0.16166878709E+04  0.16166878709E+04  0.00000000000E+00 0. -1.
         -2   -1    0    0    0  501 -0.00000000000E+00 -0.00000000000E+00 -0.12386702641E+04  0.12386702641E+04  0.00000000000E+00 0.  1.
        -24    2    1    2    0    0  0.16743629046E+03  0.76390166587E+03 -0.84001017272E+03  0.11505186768E+04  0.80594472059E+02 0.  0.
        254    2    1    2    0    0 -0.16743629046E+03 -0.76390166587E+03  0.12180277795E+04  0.17048394582E+04  0.90072484148E+03 0.  0.
         23    2    4    4    0    0  0.56467285935E+02  0.17327811971E+03  0.99982836391E+02  0.22617397314E+03  0.89130451606E+02 0.  0.
         23    2    4    4    0    0 -0.22390357640E+03 -0.93717978558E+03  0.11180449431E+04  0.14786654851E+04  0.89377624793E+02 0.  0.
          1    1    3    3  502    0  0.53234979676E+02  0.37141188418E+03 -0.35912213038E+03  0.51937409957E+03  0.00000000000E+00 0. -1.
         -2    1    3    3    0  502  0.11420131078E+03  0.39248978170E+03 -0.48088804234E+03  0.63114457724E+03  0.00000000000E+00 0.  1.
         13    1    5    5    0    0 -0.19782365804E+02  0.44187210307E+02  0.46117541585E+02  0.66863137777E+02  0.00000000000E+00 0. -1.
        -13    1    5    5    0    0  0.76249651739E+02  0.12909090940E+03  0.53865294807E+02  0.15931083537E+03  0.00000000000E+00 0.  1.
          3    1    6    6  503    0  0.82306201120E+01 -0.47896563255E+02  0.54589306999E+02  0.73087730282E+02  0.00000000000E+00 0. -1.
         -3    1    6    6    0  503 -0.23213419651E+03 -0.88928322233E+03  0.10634556361E+04  0.14055777548E+04  0.00000000000E+00 0.  1.
<mgrwt>
<rscale>  0 0.28302249E+04</rscale>
<asrwt>0</asrwt>
<pdfrwt beam="1">  1        1 0.24872121E+00 0.28302249E+04</pdfrwt>
<pdfrwt beam="2">  1       -2 0.19056466E+00 0.28302249E+04</pdfrwt>
<totfact> 0.63345949E-01</totfact>
</mgrwt>
</event>
<event>
12    5  0.5095719E-008  0.2658356E+04  0.7818608E-02  0.8348645E-01
          1   -1    0    0  501    0  0.00000000000E+00  0.00000000000E+00  0.37155075205E+04  0.37155075205E+04  0.00000000000E+00 0. -1.
         -2   -1    0    0    0  501 -0.00000000000E+00 -0.00000000000E+00 -0.47549744246E+03  0.47549744246E+03  0.00000000000E+00 0.  1.
        -24    2    1    2    0    0 -0.31953139035E+03  0.10509968011E+04  0.77035231310E+03  0.13440366210E+04  0.79354691078E+02 0.  0.
        254    2    1    2    0    0  0.31953139035E+03 -0.10509968011E+04  0.24696577649E+04  0.28469683419E+04  0.89404959530E+03 0.  0.
         23    2    4    4    0    0  0.57456883724E+03 -0.87687336805E+03  0.21486861140E+04  0.23925730081E+04  0.92289381760E+02 0.  0.
         23    2    4    4    0    0 -0.25503744690E+03 -0.17412343302E+03  0.32097165086E+03  0.45439533384E+03  0.89940255215E+02 0.  0.
          1    1    3    3  502    0 -0.13254446318E+03  0.48169600990E+03  0.39582186659E+03  0.63739629018E+03  0.00000000000E+00 0. -1.
         -2    1    3    3    0  502 -0.18698692717E+03  0.56930079118E+03  0.37453044651E+03  0.70664033081E+03  0.00000000000E+00 0.  1.
         13    1    5    5    0    0  0.40323688665E+03 -0.63336040945E+03  0.14431907842E+04  0.16268205293E+04  0.00000000000E+00 0.  1.
        -13    1    5    5    0    0  0.17133195060E+03 -0.24351295860E+03  0.70549532982E+03  0.76575247874E+03  0.00000000000E+00 0. -1.
          2    1    6    6  503    0 -0.39594761199E+02 -0.41374687803E+02  0.11362264003E+03  0.12723880788E+03  0.00000000000E+00 0. -1.
         -2    1    6    6    0  503 -0.21544268570E+03 -0.13274874522E+03  0.20734901083E+03  0.32715652595E+03  0.00000000000E+00 0.  1.
<mgrwt>
<rscale>  0 0.26583561E+04</rscale>
<asrwt>0</asrwt>
<pdfrwt beam="1">  1        1 0.57161652E+00 0.26583561E+04</pdfrwt>
<pdfrwt beam="2">  1       -2 0.73153455E-01 0.26583561E+04</pdfrwt>
<totfact> 0.21803175E-01</totfact>
</mgrwt>
</event>
<event>
12    5  0.5095719E-008  0.1613018E+04  0.7818608E-02  0.8812590E-01
          1   -1    0    0  501    0  0.00000000000E+00  0.00000000000E+00  0.11835713882E+04  0.11835713882E+04  0.00000000000E+00 0. -1.
         -4   -1    0    0    0  501 -0.00000000000E+00 -0.00000000000E+00 -0.54957110880E+03  0.54957110880E+03  0.00000000000E+00 0.  1.
        -24    2    1    2    0    0  0.21362424464E+03  0.19138324100E+03  0.72390120794E+03  0.78329210519E+03  0.85151044369E+02 0.  0.
        254    2    1    2    0    0 -0.21362424464E+03 -0.19138324100E+03 -0.89900928497E+02  0.94985039185E+03  0.90103869347E+03 0.  0.
         23    2    4    4    0    0  0.38189070866E+02  0.27706625959E+03 -0.25149692021E+03  0.38639258973E+03  0.88455724447E+02 0.  0.
         23    2    4    4    0    0 -0.25181331551E+03 -0.46844950059E+03  0.16159599172E+03  0.56345780212E+03  0.92285154627E+02 0.  0.
          1    1    3    3  502    0  0.19416452008E+03  0.12865628941E+03  0.58427857664E+03  0.62899424225E+03  0.00000000000E+00 0. -1.
         -2    1    3    3    0  502  0.19459724557E+02  0.62726951589E+02  0.13962263130E+03  0.15429786293E+03  0.00000000000E+00 0.  1.
         13    1    5    5    0    0 -0.11081697660E+02  0.17361829116E+03 -0.18483025675E+03  0.25382738004E+03  0.00000000000E+00 0. -1.
        -13    1    5    5    0    0  0.49270768527E+02  0.10344796843E+03 -0.66666663465E+02  0.13256520969E+03  0.00000000000E+00 0.  1.
          1    1    6    6  503    0 -0.22332223422E+03 -0.45728475686E+03  0.14811282962E+03  0.53001847085E+03  0.00000000000E+00 0. -1.
         -1    1    6    6    0  503 -0.28491081285E+02 -0.11164743735E+02  0.13483162098E+02  0.33439331268E+02  0.00000000000E+00 0.  1.
<mgrwt>
<rscale>  0 0.16130178E+04</rscale>
<asrwt>0</asrwt>
<pdfrwt beam="1">  1        1 0.18208791E+00 0.16130178E+04</pdfrwt>
<pdfrwt beam="2">  1       -4 0.84549401E-01 0.16130178E+04</pdfrwt>
<totfact> 0.62841349E+00</totfact>
</mgrwt>
</event>
<event>
12    5  0.5095719E-008  0.1750846E+04  0.7818608E-02  0.8732885E-01
          1   -1    0    0  501    0  0.00000000000E+00  0.00000000000E+00  0.89888019488E+03  0.89888019488E+03  0.00000000000E+00 0. -1.
         -2   -1    0    0    0  501 -0.00000000000E+00 -0.00000000000E+00 -0.85257795384E+03  0.85257795384E+03  0.00000000000E+00 0.  1.
        -24    2    1    2    0    0 -0.62153361783E+03  0.12792619604E+03 -0.63434489734E+02  0.64261742541E+03  0.79145885763E+02 0.  0.
        254    2    1    2    0    0  0.62153361783E+03 -0.12792619604E+03  0.10973673078E+03  0.11088407233E+04  0.90267183952E+03 0.  0.
         23    2    4    4    0    0  0.69289118830E+03 -0.34598359689E+03 -0.97779714833E+02  0.78654462306E+03  0.96378022858E+02 0.  0.
         23    2    4    4    0    0 -0.71357570468E+02  0.21805740085E+03  0.20751644561E+03  0.32229610025E+03  0.90392301165E+02 0.  0.
          1    1    3    3  502    0 -0.12205500056E+03 -0.40368874662E+01 -0.24336547047E+02  0.12452303861E+03  0.00000000000E+00 0. -1.
         -2    1    3    3    0  502 -0.49947861727E+03  0.13196308350E+03 -0.39097942687E+02  0.51809438681E+03  0.00000000000E+00 0.  1.
         13    1    5    5    0    0  0.43898759235E+02 -0.67252288171E+01  0.12102104615E+02  0.46030323713E+02  0.00000000000E+00 0. -1.
        -13    1    5    5    0    0  0.64899242906E+03 -0.33925836807E+03 -0.10988181945E+03  0.74051429934E+03  0.00000000000E+00 0.  1.
          2    1    6    6  503    0 -0.70901765208E+02  0.22550980675E+03  0.19010284968E+03  0.30334934763E+03  0.00000000000E+00 0.  1.
         -2    1    6    6    0  503 -0.45580525939E+00 -0.74524058913E+01  0.17413595927E+02  0.18946752627E+02  0.00000000000E+00 0. -1.
<mgrwt>
<rscale>  0 0.17508460E+04</rscale>
<asrwt>0</asrwt>
<pdfrwt beam="1">  1        1 0.13828926E+00 0.17508460E+04</pdfrwt>
<pdfrwt beam="2">  1       -2 0.13116584E+00 0.17508460E+04</pdfrwt>
<totfact> 0.64279122E+00</totfact>
</mgrwt>
</event>
<event>
12    5  0.5095719E-008  0.1676341E+04  0.7818608E-02  0.8774974E-01
         -2   -1    0    0    0  501 -0.00000000000E+00  0.00000000000E+00  0.43774487088E+03  0.43774487088E+03  0.00000000000E+00 0.  1.
          1   -1    0    0  501    0  0.00000000000E+00 -0.00000000000E+00 -0.16048847658E+04  0.16048847658E+04  0.00000000000E+00 0. -1.
        -24    2    1    2    0    0 -0.46710688209E+03  0.32380027137E+03 -0.21856226814E+03  0.61394010017E+03  0.78214618270E+02 0.  0.
        254    2    1    2    0    0  0.46710688209E+03 -0.32380027137E+03 -0.94857762677E+03  0.14286895365E+04  0.90460976263E+03 0.  0.
         23    2    4    4    0    0  0.42135989770E+03 -0.37454800216E+03 -0.10985643151E+04  0.12381514501E+04  0.91351461431E+02 0.  0.
         23    2    4    4    0    0  0.45746984387E+02  0.50747730789E+02  0.14998668837E+03  0.19053808642E+03  0.95606678271E+02 0.  0.
          1    1    3    3  502    0 -0.40216364908E+03  0.29105314208E+03 -0.21536542859E+03  0.54113750562E+03  0.00000000000E+00 0. -1.
         -2    1    3    3    0  502 -0.64943233008E+02  0.32747129286E+02 -0.31968395468E+01  0.72802594550E+02  0.00000000000E+00 0.  1.
         13    1    5    5    0    0  0.83688293128E+02 -0.12255641957E+03 -0.32520453313E+03  0.35746579522E+03  0.00000000000E+00 0. -1.
        -13    1    5    5    0    0  0.33767160458E+03 -0.25199158259E+03 -0.77335978201E+03  0.88068565485E+03  0.00000000000E+00 0.  1.
          1    1    6    6  503    0  0.15800060170E+02  0.24266842812E+02 -0.59471522897E+01  0.29561633612E+02  0.00000000000E+00 0. -1.
         -1    1    6    6    0  503  0.29946924217E+02  0.26480887977E+02  0.15593384066E+03  0.16097645281E+03  0.00000000000E+00 0.  1.
<mgrwt>
<rscale>  0 0.16763413E+04</rscale>
<asrwt>0</asrwt>
<pdfrwt beam="1">  1        1 0.24690535E+00 0.16763413E+04</pdfrwt>
<pdfrwt beam="2">  1       -2 0.67345364E-01 0.16763413E+04</pdfrwt>
<totfact> 0.93699488E+00</totfact>
</mgrwt>
</event>
<event>
12    5  0.5095719E-008  0.3269765E+04  0.7818608E-02  0.8170632E-01
         -2   -1    0    0    0  501 -0.00000000000E+00  0.00000000000E+00  0.12407649540E+04  0.12407649540E+04  0.00000000000E+00 0.  1.
          1   -1    0    0  501    0  0.00000000000E+00 -0.00000000000E+00 -0.21541878010E+04  0.21541878010E+04  0.00000000000E+00 0. -1.
        -24    2    1    2    0    0  0.10851645127E+04 -0.90009627104E+03  0.13158313933E+03  0.14180241362E+04  0.75650588227E+02 0.  0.
        254    2    1    2    0    0 -0.10851645127E+04  0.90009627104E+03 -0.10450059863E+04  0.19769286188E+04  0.91019444926E+03 0.  0.
         23    2    4    4    0    0 -0.61205267983E+03  0.35147084552E+03 -0.11968561350E+02  0.71102673630E+03  0.85296747555E+02 0.  0.
         23    2    4    4    0    0 -0.47311183289E+03  0.54862542551E+03 -0.10330374249E+04  0.12659018824E+04  0.10255043006E+03 0.  0.
          3    1    3    3  502    0  0.51344163455E+02 -0.38882413163E+02  0.21881531384E+02  0.68021074602E+02  0.00000000000E+00 0. -1.
         -4    1    3    3    0  502  0.10338203493E+04 -0.86121385787E+03  0.10970160794E+03  0.13500030616E+04  0.00000000000E+00 0.  1.
         13    1    5    5    0    0 -0.26124783589E+03  0.11813422214E+03 -0.36302692404E+02  0.28900521046E+03  0.00000000000E+00 0.  1.
        -13    1    5    5    0    0 -0.35080484394E+03  0.23333662338E+03  0.24334131054E+02  0.42202152585E+03  0.00000000000E+00 0. -1.
          1    1    6    6  503    0 -0.40625244597E+03  0.42345851447E+03 -0.87437990859E+03  0.10530424435E+04  0.00000000000E+00 0. -1.
         -1    1    6    6    0  503 -0.66859386916E+02  0.12516691104E+03 -0.15865751636E+03  0.21285943891E+03  0.00000000000E+00 0.  1.
<mgrwt>
<rscale>  0 0.32697650E+04</rscale>
<asrwt>0</asrwt>
<pdfrwt beam="1">  1        1 0.33141350E+00 0.32697650E+04</pdfrwt>
<pdfrwt beam="2">  1       -2 0.19088692E+00 0.32697650E+04</pdfrwt>
<totfact> 0.26180170E-01</totfact>
</mgrwt>
</event>
<event>
12    5  0.5095719E-008  0.1390037E+04  0.7818608E-02  0.8961062E-01
         -2   -1    0    0    0  501 -0.00000000000E+00  0.00000000000E+00  0.34052432935E+03  0.34052432935E+03  0.00000000000E+00 0.  1.
          1   -1    0    0  501    0  0.00000000000E+00 -0.00000000000E+00 -0.14185495892E+04  0.14185495892E+04  0.00000000000E+00 0. -1.
        -24    2    1    2    0    0 -0.13973963959E+02  0.32988460390E+03 -0.76179148655E+03  0.83414244217E+03  0.80300817503E+02 0.  0.
        254    2    1    2    0    0  0.13973963959E+02 -0.32988460390E+03 -0.31623377329E+03  0.92493147637E+03  0.80403688537E+03 0.  0.
         23    2    4    4    0    0 -0.11123856712E+03 -0.31407754656E+03 -0.54656455303E+03  0.64643781365E+03  0.90168243996E+02 0.  0.
         23    2    4    4    0    0  0.12521253108E+03 -0.15807057344E+02  0.23033077973E+03  0.27849366272E+03  0.92619712150E+02 0.  0.
          1    1    3    3  502    0  0.83900935221E+01  0.30824484118E+03 -0.70192701719E+03  0.76667255933E+03  0.00000000000E+00 0. -1.
         -2    1    3    3    0  502 -0.22364057481E+02  0.21639762727E+02 -0.59864469367E+02  0.67469882840E+02  0.00000000000E+00 0.  1.
         13    1    5    5    0    0  0.76135758329E+01 -0.39234525683E+02 -0.11011183079E+03  0.11714064121E+03  0.00000000000E+00 0. -1.
        -13    1    5    5    0    0 -0.11885214295E+03 -0.27484302088E+03 -0.43645272223E+03  0.52929717244E+03  0.00000000000E+00 0.  1.
          4    1    6    6  503    0  0.62945825298E+02 -0.50692089455E+02  0.15446906485E+03  0.17433461175E+03  0.00000000000E+00 0.  1.
         -4    1    6    6    0  503  0.62266705782E+02  0.34885032112E+02  0.75861714880E+02  0.10415905097E+03  0.00000000000E+00 0. -1.
<mgrwt>
<rscale>  0 0.13900369E+04</rscale>
<asrwt>0</asrwt>
<pdfrwt beam="1">  1        1 0.21823840E+00 0.13900369E+04</pdfrwt>
<pdfrwt beam="2">  1       -2 0.52388358E-01 0.13900369E+04</pdfrwt>
<totfact> 0.21948562E+01</totfact>
</mgrwt>
</event>
<event>
12    5  0.5095719E-008  0.1449854E+04  0.7818608E-02  0.8918502E-01
         -2   -1    0    0    0  501 -0.00000000000E+00  0.00000000000E+00  0.17423690116E+03  0.17423690116E+03  0.00000000000E+00 0.  1.
          1   -1    0    0  501    0  0.00000000000E+00 -0.00000000000E+00 -0.30161177971E+04  0.30161177971E+04  0.00000000000E+00 0. -1.
        -24    2    1    2    0    0  0.18232097888E+03  0.26157802701E+03 -0.15427120841E+04  0.15773772237E+04  0.80587391867E+02 0.  0.
        254    2    1    2    0    0 -0.18232097888E+03 -0.26157802701E+03 -0.12991688118E+04  0.16129774746E+04  0.90121735909E+03 0.  0.
         23    2    4    4    0    0 -0.22896997124E+03 -0.50705609243E+03 -0.44688278489E+03  0.71953274574E+03  0.92141305361E+02 0.  0.
         23    2    4    4    0    0  0.46648992357E+02  0.24547806542E+03 -0.85228602694E+03  0.89344472885E+03  0.97038150771E+02 0.  0.
          3    1    3    3  502    0  0.15487615898E+03  0.25527039442E+03 -0.13504326381E+04  0.13830466041E+04  0.00000000000E+00 0. -1.
         -4    1    3    3    0  502  0.27444819894E+02  0.63076325896E+01 -0.19227944603E+03  0.19433061965E+03  0.00000000000E+00 0.  1.
         13    1    5    5    0    0 -0.15355189335E+03 -0.31316379012E+03 -0.22336076211E+03  0.41417360303E+03  0.00000000000E+00 0. -1.
        -13    1    5    5    0    0 -0.75418077889E+02 -0.19389230231E+03 -0.22352202278E+03  0.30535914271E+03  0.00000000000E+00 0.  1.
          1    1    6    6  503    0  0.17730637597E+02 -0.14724673759E+01 -0.86315829211E+02  0.88130392273E+02  0.00000000000E+00 0. -1.
         -1    1    6    6    0  503  0.28918354760E+02  0.24695053280E+03 -0.76597019773E+03  0.80531433658E+03  0.00000000000E+00 0.  1.
<mgrwt>
<rscale>  0 0.14498538E+04</rscale>
<asrwt>0</asrwt>
<pdfrwt beam="1">  1        1 0.46401812E+00 0.14498538E+04</pdfrwt>
<pdfrwt beam="2">  1       -2 0.26805677E-01 0.14498538E+04</pdfrwt>
<totfact> 0.63123723E+00</totfact>
</mgrwt>
</event>
<event>
12    5  0.5095719E-008  0.2188121E+04  0.7818608E-02  0.8523389E-01
         -2   -1    0    0    0  501 -0.00000000000E+00  0.00000000000E+00  0.11303703268E+04  0.11303703268E+04  0.00000000000E+00 0.  1.
          1   -1    0    0  501    0  0.00000000000E+00 -0.00000000000E+00 -0.10589174718E+04  0.10589174718E+04  0.00000000000E+00 0. -1.
        -24    2    1    2    0    0 -0.14784699598E+02 -0.65591627025E+03 -0.56672503276E+03  0.87064089651E+03  0.79959783604E+02 0.  0.
        254    2    1    2    0    0  0.14784699598E+02  0.65591627025E+03  0.63817788770E+03  0.13186469021E+04  0.94927019082E+03 0.  0.
         23    2    4    4    0    0 -0.14127037246E+02  0.18297985959E+03  0.78782920623E+03  0.81431203255E+03  0.93530882447E+02 0.  0.
         23    2    4    4    0    0  0.28911736843E+02  0.47293641066E+03 -0.14965131853E+03  0.50433486956E+03  0.86333113352E+02 0.  0.
          3    1    3    3  502    0 -0.40649103500E+02 -0.48569017542E+03 -0.39360360753E+03  0.62647513596E+03  0.00000000000E+00 0. -1.
         -4    1    3    3    0  502  0.25864403903E+02 -0.17022609483E+03 -0.17312142523E+03  0.24416576055E+03  0.00000000000E+00 0.  1.
         13    1    5    5    0    0  0.16859595986E+02  0.38872770451E+02  0.72670685244E+02  0.84121143319E+02  0.00000000000E+00 0. -1.
        -13    1    5    5    0    0 -0.30986633232E+02  0.14410708914E+03  0.71515852099E+03  0.73019088923E+03  0.00000000000E+00 0.  1.
          1    1    6    6  503    0  0.12662349709E+02  0.27383506946E+03 -0.13064997590E+03  0.30366988091E+03  0.00000000000E+00 0. -1.
         -1    1    6    6    0  503  0.16249387134E+02  0.19910134119E+03 -0.19001342628E+02  0.20066498865E+03  0.00000000000E+00 0.  1.
<mgrwt>
<rscale>  0 0.21881215E+04</rscale>
<asrwt>0</asrwt>
<pdfrwt beam="1">  1        1 0.16291038E+00 0.21881215E+04</pdfrwt>
<pdfrwt beam="2">  1       -2 0.17390313E+00 0.21881215E+04</pdfrwt>
<totfact> 0.21804636E+00</totfact>
</mgrwt>
</event>
<event>
12    5  0.5095719E-008  0.1385158E+04  0.7818608E-02  0.8964633E-01
         -2   -1    0    0    0  501 -0.00000000000E+00  0.00000000000E+00  0.59368422785E+03  0.59368422785E+03  0.00000000000E+00 0.  1.
          1   -1    0    0  501    0  0.00000000000E+00 -0.00000000000E+00 -0.80794714821E+03  0.80794714821E+03  0.00000000000E+00 0. -1.
        -24    2    1    2    0    0 -0.10897558656E+03 -0.66083350749E+02 -0.43682417518E+03  0.46204768430E+03  0.80187373283E+02 0.  0.
        254    2    1    2    0    0  0.10897558656E+03  0.66083350749E+02  0.22256125482E+03  0.93958369175E+03  0.90390337644E+03 0.  0.
         23    2    4    4    0    0  0.23856892366E+03 -0.25654973606E+03  0.40014584298E+03  0.53940271878E+03  0.90031655328E+02 0.  0.
         23    2    4    4    0    0 -0.12959333710E+03  0.32263308680E+03 -0.17758458816E+03  0.40018097297E+03  0.87874816964E+02 0.  0.
          1    1    3    3  502    0 -0.11540188684E+03 -0.67200892459E+02 -0.43533496055E+03  0.45535709428E+03  0.00000000000E+00 0. -1.
         -4    1    3    3    0  502  0.64263002714E+01  0.11175417097E+01 -0.14892146299E+01  0.66905900237E+01  0.00000000000E+00 0.  1.
         13    1    5    5    0    0  0.14496814386E+02  0.16569438160E+01  0.41166109034E+02  0.43675526593E+02  0.00000000000E+00 0. -1.
        -13    1    5    5    0    0  0.22407210927E+03 -0.25820667987E+03  0.35897973395E+03  0.49572719218E+03  0.00000000000E+00 0.  1.
          3    1    6    6  503    0 -0.14255562704E+03  0.28226113392E+03 -0.15627349544E+03  0.35272490684E+03  0.00000000000E+00 0.  1.
         -3    1    6    6    0  503  0.12962289949E+02  0.40371952882E+02 -0.21311092716E+02  0.47456066135E+02  0.00000000000E+00 0. -1.
<mgrwt>
<rscale>  0 0.13851577E+04</rscale>
<asrwt>0</asrwt>
<pdfrwt beam="1">  1        1 0.12429956E+00 0.13851577E+04</pdfrwt>
<pdfrwt beam="2">  1       -2 0.91336035E-01 0.13851577E+04</pdfrwt>
<totfact> 0.19009529E+01</totfact>
</mgrwt>
</event>
<event>
12    5  0.5095719E-008  0.1391394E+04  0.7818608E-02  0.8960071E-01
          1   -1    0    0  501    0  0.00000000000E+00  0.00000000000E+00  0.81382911018E+03  0.81382911018E+03  0.00000000000E+00 0. -1.
         -2   -1    0    0    0  501 -0.00000000000E+00 -0.00000000000E+00 -0.59471287966E+03  0.59471287966E+03  0.00000000000E+00 0.  1.
        -24    2    1    2    0    0  0.13787998823E+03 -0.26109957510E+03 -0.21145436879E+03  0.37127531157E+03  0.77126698530E+02 0.  0.
        254    2    1    2    0    0 -0.13787998823E+03  0.26109957510E+03  0.43057059932E+03  0.10372666783E+04  0.89629640276E+03 0.  0.
         23    2    4    4    0    0 -0.42382801609E+03  0.39188582550E+03  0.14462452449E+03  0.60210653642E+03  0.91713361379E+02 0.  0.
         23    2    4    4    0    0  0.28594802786E+03 -0.13078625040E+03  0.28594607482E+03  0.43516014186E+03  0.93423088286E+02 0.  0.
          1    1    3    3  502    0  0.27545994308E+02 -0.11294368692E+03 -0.52437220923E+02  0.12753321275E+03  0.00000000000E+00 0. -1.
         -2    1    3    3    0  502  0.11033399392E+03 -0.14815588818E+03 -0.15901714787E+03  0.24374209882E+03  0.00000000000E+00 0.  1.
         13    1    5    5    0    0 -0.46109175107E+01  0.26943801790E+02 -0.16019686315E+01  0.27382390668E+02  0.00000000000E+00 0.  1.
        -13    1    5    5    0    0 -0.41921709858E+03  0.36494202371E+03  0.14622649313E+03  0.57472414575E+03  0.00000000000E+00 0. -1.
          4    1    6    6  503    0  0.36694146525E+02 -0.54777649029E+02  0.75279826239E+02  0.10007049246E+03  0.00000000000E+00 0.  1.
         -4    1    6    6    0  503  0.24925388134E+03 -0.76008601376E+02  0.21066624858E+03  0.33508964940E+03  0.00000000000E+00 0. -1.
<mgrwt>
<rscale>  0 0.13913945E+04</rscale>
<asrwt>0</asrwt>
<pdfrwt beam="1">  1        1 0.12520448E+00 0.13913945E+04</pdfrwt>
<pdfrwt beam="2">  1       -2 0.91494289E-01 0.13913945E+04</pdfrwt>
<totfact> 0.18703707E+01</totfact>
</mgrwt>
</event>
<event>
12    5  0.5095719E-008  0.1506254E+04  0.7818608E-02  0.8880304E-01
          1   -1    0    0  501    0  0.00000000000E+00  0.00000000000E+00  0.12685007688E+04  0.12685007688E+04  0.00000000000E+00 0. -1.
         -2   -1    0    0    0  501 -0.00000000000E+00 -0.00000000000E+00 -0.44714243450E+03  0.44714243450E+03  0.00000000000E+00 0.  1.
        -24    2    1    2    0    0 -0.31936651193E+03  0.34450167110E+03  0.17097332289E+03  0.50625269956E+03  0.79897110955E+02 0.  0.
        254    2    1    2    0    0  0.31936651193E+03 -0.34450167110E+03  0.65038501140E+03  0.12093905037E+04  0.90495765487E+03 0.  0.
         23    2    4    4    0    0  0.42972098012E+03 -0.10074768959E+03  0.77814164914E+03  0.89927019145E+03  0.91499909282E+02 0.  0.
         23    2    4    4    0    0 -0.11035446819E+03 -0.24375398151E+03 -0.12775663774E+03  0.31012031227E+03  0.90877595957E+02 0.  0.
          1    1    3    3  502    0 -0.15318550808E+03  0.18605115427E+03  0.47825270461E+02  0.24569918272E+03  0.00000000000E+00 0. -1.
         -2    1    3    3    0  502 -0.16618100384E+03  0.15845051682E+03  0.12314805243E+03  0.26055351684E+03  0.00000000000E+00 0.  1.
         13    1    5    5    0    0  0.13391325033E+03  0.10942530697E+02  0.24465604357E+03  0.27912197558E+03  0.00000000000E+00 0.  1.
        -13    1    5    5    0    0  0.29580772979E+03 -0.11169022029E+03  0.53348560557E+03  0.62014821588E+03  0.00000000000E+00 0. -1.
          4    1    6    6  503    0 -0.52080660574E+02 -0.45221869667E+02 -0.62733930414E+02  0.93236037706E+02  0.00000000000E+00 0. -1.
         -4    1    6    6    0  503 -0.58273807616E+02 -0.19853211184E+03 -0.65022707325E+02  0.21688427457E+03  0.00000000000E+00 0.  1.
<mgrwt>
<rscale>  0 0.15062543E+04</rscale>
<asrwt>0</asrwt>
<pdfrwt beam="1">  1        1 0.19515396E+00 0.15062543E+04</pdfrwt>
<pdfrwt beam="2">  1       -2 0.68791144E-01 0.15062543E+04</pdfrwt>
<totfact> 0.15605309E+01</totfact>
</mgrwt>
</event>
<event>
12    5  0.5095719E-008  0.1339477E+04  0.7818608E-02  0.8998833E-01
         -2   -1    0    0    0  501 -0.00000000000E+00  0.00000000000E+00  0.48376007317E+03  0.48376007317E+03  0.00000000000E+00 0.  1.
          1   -1    0    0  501    0  0.00000000000E+00 -0.00000000000E+00 -0.92721458143E+03  0.92721458143E+03  0.00000000000E+00 0. -1.
        -24    2    1    2    0    0  0.13253815829E+03  0.20964845180E+02 -0.47788713503E+03  0.50288225482E+03  0.80675648441E+02 0.  0.
        254    2    1    2    0    0 -0.13253815829E+03 -0.20964845180E+02  0.34432626759E+02  0.90809239978E+03  0.89746326533E+03 0.  0.
         23    2    4    4    0    0  0.22701877050E+03  0.22988668923E+03 -0.21269799963E+03  0.39680393421E+03  0.88473222576E+02 0.  0.
         23    2    4    4    0    0 -0.35955692879E+03 -0.25085153441E+03  0.24713062639E+03  0.51128846557E+03  0.90192411942E+02 0.  0.
          3    1    3    3  502    0  0.12374400293E+03  0.42604318500E+01 -0.30809745239E+03  0.33204633669E+03  0.00000000000E+00 0. -1.
         -4    1    3    3    0  502  0.87941553657E+01  0.16704413330E+02 -0.16978968264E+03  0.17083591813E+03  0.00000000000E+00 0.  1.
         13    1    5    5    0    0  0.15633264773E+03  0.97144066389E+02 -0.10586480010E+03  0.21233045537E+03  0.00000000000E+00 0. -1.
        -13    1    5    5    0    0  0.70686122774E+02  0.13274262284E+03 -0.10683319953E+03  0.18447347883E+03  0.00000000000E+00 0.  1.
          3    1    6    6  503    0 -0.35284227132E+03 -0.25765567668E+03  0.24664899668E+03  0.50171689599E+03  0.00000000000E+00 0. -1.
         -3    1    6    6    0  503 -0.67146574718E+01  0.68041422784E+01  0.48162970889E+00  0.95715695831E+01  0.00000000000E+00 0.  1.
<mgrwt>
<rscale>  0 0.13394766E+04</rscale>
<asrwt>0</asrwt>
<pdfrwt beam="1">  1        1 0.14264840E+00 0.13394766E+04</pdfrwt>
<pdfrwt beam="2">  1       -2 0.74424627E-01 0.13394766E+04</pdfrwt>
<totfact> 0.24116525E+01</totfact>
</mgrwt>
</event>
<event>
12    5  0.5365445E-008  0.2247578E+04  0.7818608E-02  0.8498882E-01
          1   -1    0    0  501    0  0.00000000000E+00  0.00000000000E+00  0.17714006159E+04  0.17714006159E+04  0.00000000000E+00 0. -1.
         -2   -1    0    0    0  501 -0.00000000000E+00 -0.00000000000E+00 -0.71293935133E+03  0.71293935133E+03  0.00000000000E+00 0.  1.
        -24    2    1    2    0    0  0.43623681890E+03 -0.13317921991E+03  0.13551414183E+04  0.14320275820E+04  0.79091499211E+02 0.  0.
        254    2    1    2    0    0 -0.43623681890E+03  0.13317921991E+03 -0.29668015377E+03  0.10523123852E+04  0.90072358446E+03 0.  0.
         23    2    4    4    0    0 -0.36441647220E+03  0.45375636109E+03  0.16754157430E+02  0.58920948248E+03  0.90514706050E+02 0.  0.
         23    2    4    4    0    0 -0.71820346697E+02 -0.32057714118E+03 -0.31343431120E+03  0.46310290270E+03  0.91078896611E+02 0.  0.
          3    1    3    3  502    0  0.39612505470E+03 -0.99207654790E+02  0.12385911827E+04  0.13041722799E+04  0.00000000000E+00 0. -1.
         -4    1    3    3    0  502  0.40111764199E+02 -0.33971565123E+02  0.11655023559E+03  0.12785530212E+03  0.00000000000E+00 0.  1.
         13    1    5    5    0    0 -0.34098548637E+03  0.44938052206E+03  0.22984415787E+02  0.56457261614E+03  0.00000000000E+00 0. -1.
        -13    1    5    5    0    0 -0.23430985826E+02  0.43758390348E+01 -0.62302583570E+01  0.24636866344E+02  0.00000000000E+00 0.  1.
          4    1    6    6  503    0 -0.73206618259E+02 -0.27490795051E+03 -0.30418135874E+03  0.41648516085E+03  0.00000000000E+00 0. -1.
         -4    1    6    6    0  503  0.13862715620E+01 -0.45669190676E+02 -0.92529524598E+01  0.46617741849E+02  0.00000000000E+00 0.  1.
<mgrwt>
<rscale>  0 0.22475775E+04</rscale>
<asrwt>0</asrwt>
<pdfrwt beam="1">  1        1 0.27252317E+00 0.22475775E+04</pdfrwt>
<pdfrwt beam="2">  1       -2 0.10968298E+00 0.22475775E+04</pdfrwt>
<totfact> 0.22479990E+00</totfact>
</mgrwt>
</event>
<event>
12    5  0.5095719E-008  0.2670177E+04  0.7818608E-02  0.8344747E-01
         -4   -1    0    0    0  501 -0.00000000000E+00  0.00000000000E+00  0.80335254791E+03  0.80335254791E+03  0.00000000000E+00 0.  1.
          3   -1    0    0  501    0  0.00000000000E+00 -0.00000000000E+00 -0.22187782692E+04  0.22187782692E+04  0.00000000000E+00 0. -1.
        -24    2    1    2    0    0  0.56392631142E+03 -0.10092568559E+04 -0.35829624264E+03  0.12128332428E+04  0.77304537588E+02 0.  0.
        254    2    1    2    0    0 -0.56392631142E+03  0.10092568559E+04 -0.10571294787E+04  0.18092975743E+04  0.90521969269E+03 0.  0.
         23    2    4    4    0    0 -0.21167220126E+03  0.10701892997E+04 -0.72340649027E+03  0.13120015370E+04  0.88999017140E+02 0.  0.
         23    2    4    4    0    0 -0.35225411017E+03 -0.60932443818E+02 -0.33372298841E+03  0.49729603733E+03  0.90203075962E+02 0.  0.
          1    1    3    3  502    0  0.73850109173E+02 -0.97245477429E+02 -0.55417514964E+02  0.13409557215E+03  0.00000000000E+00 0. -1.
         -2    1    3    3    0  502  0.49007620225E+03 -0.91201137842E+03 -0.30287872768E+03  0.10787376706E+04  0.00000000000E+00 0.  1.
         13    1    5    5    0    0 -0.13742486734E+03  0.87116864715E+03 -0.57335755245E+03  0.10519312187E+04  0.00000000000E+00 0. -1.
        -13    1    5    5    0    0 -0.74247333920E+02  0.19902065252E+03 -0.15004893782E+03  0.26007031831E+03  0.00000000000E+00 0.  1.
          1    1    6    6  503    0 -0.33716550629E+03 -0.76046728528E+02 -0.30160508375E+03  0.45872574605E+03  0.00000000000E+00 0. -1.
         -1    1    6    6    0  503 -0.15088603880E+02  0.15114284711E+02 -0.32117904665E+02  0.38570291280E+02  0.00000000000E+00 0.  1.
<mgrwt>
<rscale>  0 0.26701769E+04</rscale>
<asrwt>0</asrwt>
<pdfrwt beam="1">  1        3 0.34135050E+00 0.26701769E+04</pdfrwt>
<pdfrwt beam="2">  1       -4 0.12359270E+00 0.26701769E+04</pdfrwt>
<totfact> 0.22697574E-02</totfact>
</mgrwt>
</event>
<event>
12    5  0.5095719E-008  0.1242516E+04  0.7818608E-02  0.9076435E-01
          1   -1    0    0  501    0  0.00000000000E+00  0.00000000000E+00  0.11664789842E+04  0.11664789842E+04  0.00000000000E+00 0. -1.
         -2   -1    0    0    0  501 -0.00000000000E+00 -0.00000000000E+00 -0.33087732118E+03  0.33087732118E+03  0.00000000000E+00 0.  1.
        -24    2    1    2    0    0  0.19887007078E+03  0.20664718602E+03  0.20958894882E+03  0.36367039105E+03  0.77950377286E+02 0.  0.
        254    2    1    2    0    0 -0.19887007078E+03 -0.20664718602E+03  0.62601271418E+03  0.11336859143E+04  0.90061060922E+03 0.  0.
         23    2    4    4    0    0 -0.42346514620E+03 -0.42765170750E+03  0.33151478291E+03  0.69307232482E+03  0.90766090431E+02 0.  0.
         23    2    4    4    0    0  0.22459507542E+03  0.22100452148E+03  0.29449793127E+03  0.44061358948E+03  0.90140763828E+02 0.  0.
          3    1    3    3  502    0 -0.69669739822E+01  0.36441970957E+01  0.80622033984E+01  0.11261350833E+02  0.00000000000E+00 0. -1.
         -4    1    3    3    0  502  0.20583704476E+03  0.20300298893E+03  0.20152674542E+03  0.35240904022E+03  0.00000000000E+00 0.  1.
         13    1    5    5    0    0 -0.30884067600E+02 -0.15382193676E+02  0.42135272225E+02  0.54459330507E+02  0.00000000000E+00 0. -1.
        -13    1    5    5    0    0 -0.39258107860E+03 -0.41226951382E+03  0.28937951069E+03  0.63861299432E+03  0.00000000000E+00 0.  1.
          1    1    6    6  503    0  0.60745172623E+01  0.13908962452E+02 -0.49709571005E+01  0.15970892616E+02  0.00000000000E+00 0. -1.
         -1    1    6    6    0  503  0.21852055816E+03  0.20709555902E+03  0.29946888837E+03  0.42464269687E+03  0.00000000000E+00 0.  1.
<mgrwt>
<rscale>  0 0.12425159E+04</rscale>
<asrwt>0</asrwt>
<pdfrwt beam="1">  1        1 0.17945830E+00 0.12425159E+04</pdfrwt>
<pdfrwt beam="2">  1       -2 0.50904204E-01 0.12425159E+04</pdfrwt>
<totfact> 0.35697442E+01</totfact>
</mgrwt>
</event>
<event>
12    5  0.5095719E-008  0.2490214E+04  0.7818608E-02  0.8406480E-01
          1   -1    0    0  501    0  0.00000000000E+00  0.00000000000E+00  0.19683823723E+04  0.19683823723E+04  0.00000000000E+00 0. -1.
         -2   -1    0    0    0  501 -0.00000000000E+00 -0.00000000000E+00 -0.78759674138E+03  0.78759674138E+03  0.00000000000E+00 0.  1.
        -24    2    1    2    0    0  0.20726638989E+03 -0.44182549786E+03 -0.54839132748E+03  0.73961168566E+03  0.90129188232E+02 0.  0.
        254    2    1    2    0    0 -0.20726638989E+03  0.44182549786E+03  0.17291769584E+04  0.20163674280E+04  0.91515874271E+03 0.  0.
         23    2    4    4    0    0  0.60378407871E+02  0.35396358914E+03  0.16752469520E+04  0.17156312876E+04  0.89457198169E+02 0.  0.
         23    2    4    4    0    0 -0.26764479776E+03  0.87861908719E+02  0.53930006405E+02  0.30073614040E+03  0.90445164497E+02 0.  0.
          3    1    3    3  502    0  0.73814502771E+02 -0.83808587369E+02 -0.15675325492E+03  0.19246829106E+03  0.00000000000E+00 0. -1.
         -4    1    3    3    0  502  0.13345188712E+03 -0.35801691049E+03 -0.39163807255E+03  0.54714339459E+03  0.00000000000E+00 0.  1.
         13    1    5    5    0    0  0.22317195405E+02  0.59158469695E+02  0.17144773727E+03  0.18273507699E+03  0.00000000000E+00 0.  1.
        -13    1    5    5    0    0  0.38061212466E+02  0.29480511945E+03  0.15037992147E+04  0.15328962106E+04  0.00000000000E+00 0. -1.
          2    1    6    6  503    0 -0.25493503935E+03  0.10074173737E+03  0.61809000601E+02  0.28100022151E+03  0.00000000000E+00 0. -1.
         -2    1    6    6    0  503 -0.12709758414E+02 -0.12879828647E+02 -0.78789941961E+01  0.19735918890E+02  0.00000000000E+00 0.  1.
<mgrwt>
<rscale>  0 0.24902141E+04</rscale>
<asrwt>0</asrwt>
<pdfrwt beam="1">  1        1 0.30282806E+00 0.24902141E+04</pdfrwt>
<pdfrwt beam="2">  1       -2 0.12116873E+00 0.24902141E+04</pdfrwt>
<totfact> 0.12679487E+00</totfact>
</mgrwt>
</event>
<event>
12    5  0.5095719E-008  0.1817888E+04  0.7818608E-02  0.8696844E-01
         -2   -1    0    0    0  501 -0.00000000000E+00  0.00000000000E+00  0.53654193444E+03  0.53654193444E+03  0.00000000000E+00 0.  1.
          1   -1    0    0  501    0  0.00000000000E+00 -0.00000000000E+00 -0.15398218278E+04  0.15398218278E+04  0.00000000000E+00 0. -1.
        -24    2    1    2    0    0 -0.66481909175E+03 -0.62248713429E-02 -0.57021377402E+03  0.88054515545E+03  0.90728153894E+02 0.  0.
        254    2    1    2    0    0  0.66481909175E+03  0.62248713429E-02 -0.43306611936E+03  0.11958186068E+04  0.89467952467E+03 0.  0.
         23    2    4    4    0    0  0.32021990218E+03  0.43200456028E+03 -0.29004201513E+03  0.61773610248E+03  0.91130652941E+02 0.  0.
         23    2    4    4    0    0  0.34459918956E+03 -0.43199833541E+03 -0.14302410422E+03  0.57808250433E+03  0.91391050833E+02 0.  0.
          1    1    3    3  502    0 -0.14271503067E+03  0.68802484964E+01 -0.17364575263E+03  0.22487277560E+03  0.00000000000E+00 0. -1.
         -2    1    3    3    0  502 -0.52210406107E+03 -0.68864733678E+01 -0.39656802139E+03  0.65567237985E+03  0.00000000000E+00 0.  1.
         13    1    5    5    0    0  0.83773701948E+02  0.55546681806E+02 -0.45110823049E+02  0.11017464933E+03  0.00000000000E+00 0.  1.
        -13    1    5    5    0    0  0.23644620023E+03  0.37645787848E+03 -0.24493119209E+03  0.50756145316E+03  0.00000000000E+00 0. -1.
          1    1    6    6  503    0  0.24915946287E+03 -0.25184483833E+03 -0.11397209748E+03  0.37215037221E+03  0.00000000000E+00 0. -1.
         -1    1    6    6    0  503  0.95439726690E+02 -0.18015349708E+03 -0.29052006739E+02  0.20593213211E+03  0.00000000000E+00 0.  1.
<mgrwt>
<rscale>  0 0.18178878E+04</rscale>
<asrwt>0</asrwt>
<pdfrwt beam="1">  1        1 0.23689566E+00 0.18178878E+04</pdfrwt>
<pdfrwt beam="2">  1       -2 0.82544915E-01 0.18178878E+04</pdfrwt>
<totfact> 0.65378014E+00</totfact>
</mgrwt>
</event>
<event>
12    5  0.5095719E-008  0.1396118E+04  0.7818608E-02  0.8956634E-01
         -2   -1    0    0    0  501 -0.00000000000E+00  0.00000000000E+00  0.11242446016E+04  0.11242446016E+04  0.00000000000E+00 0.  1.
          1   -1    0    0  501    0  0.00000000000E+00 -0.00000000000E+00 -0.43343431523E+03  0.43343431523E+03  0.00000000000E+00 0. -1.
        -24    2    1    2    0    0  0.39576036128E+03  0.13648660987E+02  0.20769495334E+03  0.45384707110E+03  0.77636465591E+02 0.  0.
        254    2    1    2    0    0 -0.39576036128E+03 -0.13648660987E+02  0.48311533299E+03  0.11038318457E+04  0.91007239774E+03 0.  0.
         23    2    4    4    0    0 -0.38388613356E+03 -0.34742771630E+03  0.22045308577E+02  0.52652225553E+03  0.93086563759E+02 0.  0.
         23    2    4    4    0    0 -0.11874227721E+02  0.33377905531E+03  0.46107002442E+03  0.57730959018E+03  0.95662638728E+02 0.  0.
          3    1    3    3  502    0  0.54623040140E+00 -0.48227698363E+01 -0.28902435168E+01  0.56489808047E+01  0.00000000000E+00 0. -1.
         -4    1    3    3    0  502  0.39521413088E+03  0.18471430824E+02  0.21058519686E+03  0.44819809029E+03  0.00000000000E+00 0.  1.
         13    1    5    5    0    0 -0.26741435926E+03 -0.18660326553E+03  0.32345297907E+02  0.32768496539E+03  0.00000000000E+00 0.  1.
        -13    1    5    5    0    0 -0.11647177430E+03 -0.16082445076E+03 -0.10299989330E+02  0.19883729015E+03  0.00000000000E+00 0. -1.
          3    1    6    6  503    0  0.77254258477E+01  0.48551519756E+02  0.13487791415E+03  0.14355829478E+03  0.00000000000E+00 0. -1.
         -3    1    6    6    0  503 -0.19599653569E+02  0.28522753555E+03  0.32619211027E+03  0.43375129540E+03  0.00000000000E+00 0.  1.
<mgrwt>
<rscale>  0 0.13961177E+04</rscale>
<asrwt>0</asrwt>
<pdfrwt beam="1">  1        1 0.66682203E-01 0.13961177E+04</pdfrwt>
<pdfrwt beam="2">  1       -2 0.17296071E+00 0.13961177E+04</pdfrwt>
<totfact> 0.93168086E+00</totfact>
</mgrwt>
</event>
<event>
12    5  0.5095719E-008  0.2319014E+04  0.7818608E-02  0.8470462E-01
         -2   -1    0    0    0  501 -0.00000000000E+00  0.00000000000E+00  0.10320719922E+04  0.10320719922E+04  0.00000000000E+00 0.  1.
          1   -1    0    0  501    0  0.00000000000E+00 -0.00000000000E+00 -0.13026773889E+04  0.13026773889E+04  0.00000000000E+00 0. -1.
        -24    2    1    2    0    0  0.25252787355E+03  0.91340301951E+03  0.13045138533E+03  0.95999067919E+03  0.80555181269E+02 0.  0.
        254    2    1    2    0    0 -0.25252787355E+03 -0.91340301951E+03 -0.40105678203E+03  0.13747587019E+04  0.91161370279E+03 0.  0.
         23    2    4    4    0    0 -0.18792079837E+03 -0.48329511925E+03  0.25297184564E+03  0.58406970369E+03  0.90852987450E+02 0.  0.
         23    2    4    4    0    0 -0.64607075175E+02 -0.43010790026E+03 -0.65402862767E+03  0.79068899823E+03  0.90932755837E+02 0.  0.
          1    1    3    3  502    0  0.48358710980E+02  0.11818000437E+03 -0.54348580777E+01  0.12780694834E+03  0.00000000000E+00 0. -1.
         -2    1    3    3    0  502  0.20416916257E+03  0.79522301514E+03  0.13588624340E+03  0.83218373085E+03  0.00000000000E+00 0.  1.
         13    1    5    5    0    0 -0.65209492199E+02 -0.17505982868E+03  0.14053977172E+03  0.23377264366E+03  0.00000000000E+00 0.  1.
        -13    1    5    5    0    0 -0.12271130617E+03 -0.30823529058E+03  0.11243207392E+03  0.35029706003E+03  0.00000000000E+00 0. -1.
          1    1    6    6  503    0  0.19960486743E+02 -0.15249124209E+03 -0.24127196546E+03  0.28611913824E+03  0.00000000000E+00 0. -1.
         -1    1    6    6    0  503 -0.84567561918E+02 -0.27761665817E+03 -0.41275666220E+03  0.50456985999E+03  0.00000000000E+00 0.  1.
<mgrwt>
<rscale>  0 0.23190143E+04</rscale>
<asrwt>0</asrwt>
<pdfrwt beam="1">  1        1 0.20041191E+00 0.23190143E+04</pdfrwt>
<pdfrwt beam="2">  1       -2 0.15878031E+00 0.23190143E+04</pdfrwt>
<totfact> 0.18343471E+00</totfact>
</mgrwt>
</event>
<event>
12    5  0.5095719E-008  0.1263760E+04  0.7818608E-02  0.9058808E-01
          1   -1    0    0  501    0  0.00000000000E+00  0.00000000000E+00  0.59192700330E+03  0.59192700330E+03  0.00000000000E+00 0. -1.
         -2   -1    0    0    0  501 -0.00000000000E+00 -0.00000000000E+00 -0.67452927757E+03  0.67452927757E+03  0.00000000000E+00 0.  1.
        -24    2    1    2    0    0 -0.17565417596E+02  0.22344188717E+03 -0.23230226652E+03  0.33512831457E+03  0.90065661357E+02 0.  0.
        254    2    1    2    0    0  0.17565417596E+02 -0.22344188717E+03  0.14969999226E+03  0.93132796630E+03  0.89147454944E+03 0.  0.
         23    2    4    4    0    0 -0.32679749489E+03 -0.33774018146E+03 -0.89521599349E+02  0.48742464397E+03  0.93293268583E+02 0.  0.
         23    2    4    4    0    0  0.34436291249E+03  0.11429829429E+03  0.23922159160E+03  0.44390332233E+03  0.90406161916E+02 0.  0.
          1    1    3    3  502    0 -0.18412054602E+02  0.13161664084E+03 -0.73978989010E+02  0.15210139616E+03  0.00000000000E+00 0. -1.
         -2    1    3    3    0  502  0.84663700579E+00  0.91825246334E+02 -0.15832327751E+03  0.18302691840E+03  0.00000000000E+00 0.  1.
         13    1    5    5    0    0 -0.29830967397E+03 -0.29787469628E+03 -0.50091839759E+02  0.42453172870E+03  0.00000000000E+00 0. -1.
        -13    1    5    5    0    0 -0.28487820920E+02 -0.39865485183E+02 -0.39429759590E+02  0.62892915268E+02  0.00000000000E+00 0.  1.
          3    1    6    6  503    0  0.24797077236E+03  0.98611755109E+02  0.12824693184E+03  0.29607610123E+03  0.00000000000E+00 0. -1.
         -3    1    6    6    0  503  0.96392140125E+02  0.15686539180E+02  0.11097465976E+03  0.14782722110E+03  0.00000000000E+00 0.  1.
<mgrwt>
<rscale>  0 0.12637596E+04</rscale>
<asrwt>0</asrwt>
<pdfrwt beam="1">  1        1 0.91065693E-01 0.12637596E+04</pdfrwt>
<pdfrwt beam="2">  1       -2 0.10377373E+00 0.12637596E+04</pdfrwt>
<totfact> 0.22766894E+01</totfact>
</mgrwt>
</event>
<event>
12    5  0.5095719E-008  0.2270256E+04  0.7818608E-02  0.8489742E-01
          1   -1    0    0  501    0  0.00000000000E+00  0.00000000000E+00  0.26355989123E+04  0.26355989123E+04  0.00000000000E+00 0. -1.
         -2   -1    0    0    0  501 -0.00000000000E+00 -0.00000000000E+00 -0.48888923445E+03  0.48888923445E+03  0.00000000000E+00 0.  1.
        -24    2    1    2    0    0  0.68217074933E+03  0.63587958827E+03  0.11821883190E+04  0.15081496712E+04  0.85125949556E+02 0.  0.
        254    2    1    2    0    0 -0.68217074933E+03 -0.63587958827E+03  0.96452135891E+03  0.16163384756E+04  0.90141490654E+03 0.  0.
         23    2    4    4    0    0  0.58344283095E+02 -0.37505661412E+03  0.27708143181E+02  0.39066510879E+03  0.88204120431E+02 0.  0.
         23    2    4    4    0    0 -0.74051503243E+03 -0.26082297414E+03  0.93681321573E+03  0.12256733668E+04  0.90912395895E+02 0.  0.
          1    1    3    3  502    0  0.50096829684E+03  0.41488304675E+03  0.83588428448E+03  0.10591504680E+04  0.00000000000E+00 0. -1.
         -2    1    3    3    0  502  0.18120245249E+03  0.22099654152E+03  0.34630403447E+03  0.44899920317E+03  0.00000000000E+00 0.  1.
         13    1    5    5    0    0  0.45077800536E+01 -0.12864138266E+02  0.20258627150E+02  0.24417577856E+02  0.00000000000E+00 0. -1.
        -13    1    5    5    0    0  0.53836503041E+02 -0.36219247586E+03  0.74495160311E+01  0.36624753094E+03  0.00000000000E+00 0.  1.
          3    1    6    6  503    0 -0.13557831427E+03 -0.80483362142E+02  0.21784227234E+03  0.26891319510E+03  0.00000000000E+00 0. -1.
         -3    1    6    6    0  503 -0.60493671816E+03 -0.18033961200E+03  0.71897094340E+03  0.95676017166E+03  0.00000000000E+00 0.  1.
<mgrwt>
<rscale>  0 0.22702563E+04</rscale>
<asrwt>0</asrwt>
<pdfrwt beam="1">  1        1 0.40547675E+00 0.22702563E+04</pdfrwt>
<pdfrwt beam="2">  1       -2 0.75213730E-01 0.22702563E+04</pdfrwt>
<totfact> 0.13768488E+00</totfact>
</mgrwt>
</event>
<event>
12    5  0.5095719E-008  0.1771411E+04  0.7818608E-02  0.8721652E-01
         -2   -1    0    0    0  501 -0.00000000000E+00  0.00000000000E+00  0.95590673399E+03  0.95590673399E+03  0.00000000000E+00 0.  1.
          1   -1    0    0  501    0  0.00000000000E+00 -0.00000000000E+00 -0.82065941803E+03  0.82065941803E+03  0.00000000000E+00 0. -1.
        -24    2    1    2    0    0 -0.17576375795E+03  0.51295762212E+03 -0.30855700267E+03  0.62874460745E+03  0.78063671511E+02 0.  0.
        254    2    1    2    0    0  0.17576375795E+03 -0.51295762212E+03  0.44380431863E+03  0.11478215446E+04  0.90912793612E+03 0.  0.
         23    2    4    4    0    0 -0.69857673514E+02 -0.69790959667E+03  0.17436071340E+03  0.72856067384E+03  0.91875445097E+02 0.  0.
         23    2    4    4    0    0  0.24562143146E+03  0.18495197455E+03  0.26944360523E+03  0.41926087073E+03  0.92966127395E+02 0.  0.
          1    1    3    3  502    0 -0.17769334493E+03  0.49785821860E+03 -0.31101473475E+03  0.61332527740E+03  0.00000000000E+00 0. -1.
         -2    1    3    3    0  502  0.19295869804E+01  0.15099403514E+02  0.24577320819E+01  0.15419330056E+02  0.00000000000E+00 0.  1.
         13    1    5    5    0    0 -0.31750077626E+02 -0.49288454422E+03  0.16145277508E+03  0.51962509556E+03  0.00000000000E+00 0. -1.
        -13    1    5    5    0    0 -0.38107595888E+02 -0.20502505245E+03  0.12907938325E+02  0.20893557827E+03  0.00000000000E+00 0.  1.
          3    1    6    6  503    0  0.51088192832E+02  0.86250876624E+02  0.11154042503E+03  0.14996827525E+03  0.00000000000E+00 0. -1.
         -3    1    6    6    0  503  0.19453323863E+03  0.98701097928E+02  0.15790318020E+03  0.26929259548E+03  0.00000000000E+00 0.  1.
<mgrwt>
<rscale>  0 0.17714106E+04</rscale>
<asrwt>0</asrwt>
<pdfrwt beam="1">  1        1 0.12625529E+00 0.17714106E+04</pdfrwt>
<pdfrwt beam="2">  1       -2 0.14706258E+00 0.17714106E+04</pdfrwt>
<totfact> 0.55489239E+00</totfact>
</mgrwt>
</event>
<event>
12    5  0.5095719E-008  0.2493432E+04  0.7818608E-02  0.8405329E-01
          1   -1    0    0  501    0  0.00000000000E+00  0.00000000000E+00  0.16093814433E+04  0.16093814433E+04  0.00000000000E+00 0. -1.
         -2   -1    0    0    0  501 -0.00000000000E+00 -0.00000000000E+00 -0.96577490692E+03  0.96577490692E+03  0.00000000000E+00 0.  1.
        -24    2    1    2    0    0 -0.12084186759E+03  0.22829900929E+03  0.13676933685E+04  0.13941085573E+04  0.78932406062E+02 0.  0.
        254    2    1    2    0    0  0.12084186759E+03 -0.22829900929E+03 -0.72408683210E+03  0.11810477929E+04  0.89657624001E+03 0.  0.
         23    2    4    4    0    0 -0.12299861242E+03 -0.40956367641E+03 -0.54635874183E+02  0.44002948990E+03  0.88146523142E+02 0.  0.
         23    2    4    4    0    0  0.24384048001E+03  0.18126466711E+03 -0.66945095792E+03  0.74101830303E+03  0.92889617988E+02 0.  0.
          1    1    3    3  502    0 -0.80211460154E+02  0.20985534384E+03  0.10979408181E+04  0.11206904941E+04  0.00000000000E+00 0. -1.
         -2    1    3    3    0  502 -0.40630407436E+02  0.18443665452E+02  0.26975255047E+03  0.27341806321E+03  0.00000000000E+00 0.  1.
         13    1    5    5    0    0 -0.12433846153E+03 -0.27456776187E+03 -0.44071763470E+02  0.30461423015E+03  0.00000000000E+00 0. -1.
        -13    1    5    5    0    0  0.13398491116E+01 -0.13499591453E+03 -0.10564110713E+02  0.13541525975E+03  0.00000000000E+00 0.  1.
          2    1    6    6  503    0  0.12190807008E+02  0.47719945373E+02 -0.83532867147E+02  0.96971897247E+02  0.00000000000E+00 0.  1.
         -2    1    6    6    0  503  0.23164967300E+03  0.13354472174E+03 -0.58591809077E+03  0.64404640578E+03  0.00000000000E+00 0. -1.
<mgrwt>
<rscale>  0 0.24934315E+04</rscale>
<asrwt>0</asrwt>
<pdfrwt beam="1">  1        1 0.24759715E+00 0.24934315E+04</pdfrwt>
<pdfrwt beam="2">  1       -2 0.14858075E+00 0.24934315E+04</pdfrwt>
<totfact> 0.13188820E+00</totfact>
</mgrwt>
</event>
<event>
12    5  0.5095719E-008  0.2168907E+04  0.7818608E-02  0.8531482E-01
         -2   -1    0    0    0  501 -0.00000000000E+00  0.00000000000E+00  0.23578925748E+04  0.23578925748E+04  0.00000000000E+00 0.  1.
          1   -1    0    0  501    0  0.00000000000E+00 -0.00000000000E+00 -0.49876701331E+03  0.49876701331E+03  0.00000000000E+00 0. -1.
        -24    2    1    2    0    0  0.43662171752E+02 -0.60250357353E+03 -0.56448168624E+02  0.61247067513E+03  0.83767480572E+02 0.  0.
        254    2    1    2    0    0 -0.43662171752E+02  0.60250357353E+03  0.19155737301E+04  0.22441889130E+04  0.10010215883E+04 0.  0.
         23    2    4    4    0    0 -0.24342574612E+03  0.14935668282E+03  0.40873214230E+02  0.30312454728E+03  0.93007305873E+02 0.  0.
         23    2    4    4    0    0  0.19976357436E+03  0.45314689071E+03  0.18747005159E+04  0.19410643657E+04  0.89337882940E+02 0.  0.
          1    1    3    3  502    0  0.38844608818E+02 -0.58149195512E+03 -0.70047754725E+02  0.58698252568E+03  0.00000000000E+00 0. -1.
         -2    1    3    3    0  502  0.48175629338E+01 -0.21011618403E+02  0.13599586101E+02  0.25488149456E+02  0.00000000000E+00 0.  1.
         13    1    5    5    0    0 -0.12218567859E+03  0.47383807104E+02  0.58900976191E+02  0.14367981843E+03  0.00000000000E+00 0. -1.
        -13    1    5    5    0    0 -0.12124006752E+03  0.10197287572E+03 -0.18027761961E+02  0.15944472885E+03  0.00000000000E+00 0.  1.
          3    1    6    6  503    0  0.18778391269E+03  0.40863751056E+03  0.15790507924E+04  0.16418431161E+04  0.00000000000E+00 0. -1.
         -3    1    6    6    0  503  0.11979661678E+02  0.44509380146E+02  0.29564972355E+03  0.29922124967E+03  0.00000000000E+00 0.  1.
<mgrwt>
<rscale>  0 0.21689067E+04</rscale>
<asrwt>0</asrwt>
<pdfrwt beam="1">  1        1 0.76733388E-01 0.21689067E+04</pdfrwt>
<pdfrwt beam="2">  1       -2 0.36275270E+00 0.21689067E+04</pdfrwt>
<totfact> 0.46061312E-01</totfact>
</mgrwt>
</event>
<event>
12    5  0.5095719E-008  0.1133703E+04  0.7818608E-02  0.9172952E-01
         -2   -1    0    0    0  501 -0.00000000000E+00  0.00000000000E+00  0.10086888484E+04  0.10086888484E+04  0.00000000000E+00 0.  1.
          1   -1    0    0  501    0  0.00000000000E+00 -0.00000000000E+00 -0.31855249394E+03  0.31855249394E+03  0.00000000000E+00 0. -1.
        -24    2    1    2    0    0  0.78328976122E+02  0.55208213786E+02 -0.42578598846E+02  0.13141566831E+03  0.79207104658E+02 0.  0.
        254    2    1    2    0    0 -0.78328976122E+02 -0.55208213786E+02  0.73271495334E+03  0.11958256741E+04  0.94018320797E+03 0.  0.
         23    2    4    4    0    0 -0.45455284085E+03 -0.88420184174E+02  0.64150097455E+03  0.79631116510E+03  0.90285974692E+02 0.  0.
         23    2    4    4    0    0  0.37622386473E+03  0.33211970388E+02  0.91213978791E+02  0.39951450897E+03  0.92975381593E+02 0.  0.
          3    1    3    3  502    0  0.89104431739E+02  0.63268308590E+02 -0.44159642294E+02  0.11786667313E+03  0.00000000000E+00 0. -1.
         -4    1    3    3    0  502 -0.10775455618E+02 -0.80600948039E+01  0.15810434476E+01  0.13548995180E+02  0.00000000000E+00 0.  1.
         13    1    5    5    0    0 -0.43179528764E+03 -0.69001454063E+02  0.62297959079E+03  0.76112544408E+03  0.00000000000E+00 0.  1.
        -13    1    5    5    0    0 -0.22757553209E+02 -0.19418730111E+02  0.18521383756E+02  0.35185721017E+02  0.00000000000E+00 0. -1.
          2    1    6    6  503    0  0.11228086853E+03  0.35978261341E+02 -0.64200286701E+01  0.11807897990E+03  0.00000000000E+00 0. -1.
         -2    1    6    6    0  503  0.26394299620E+03 -0.27662909534E+01  0.97634007461E+02  0.28143552906E+03  0.00000000000E+00 0.  1.
<mgrwt>
<rscale>  0 0.11337025E+04</rscale>
<asrwt>0</asrwt>
<pdfrwt beam="1">  1        1 0.49008077E-01 0.11337025E+04</pdfrwt>
<pdfrwt beam="2">  1       -2 0.15518290E+00 0.11337025E+04</pdfrwt>
<totfact> 0.19227504E+01</totfact>
</mgrwt>
</event>
<event>
12    5  0.5095719E-008  0.1596957E+04  0.7818608E-02  0.8822419E-01
         -4   -1    0    0    0  501 -0.00000000000E+00  0.00000000000E+00  0.44756738514E+03  0.44756738514E+03  0.00000000000E+00 0.  1.
          3   -1    0    0  501    0  0.00000000000E+00 -0.00000000000E+00 -0.14245191466E+04  0.14245191466E+04  0.00000000000E+00 0. -1.
        -24    2    1    2    0    0  0.21711610934E+03 -0.24766373825E+03  0.18347639206E+03  0.38528502711E+03  0.79399203324E+02 0.  0.
        254    2    1    2    0    0 -0.21711610934E+03  0.24766373825E+03 -0.11604281535E+04  0.14868015046E+04  0.86919990940E+03 0.  0.
         23    2    4    4    0    0  0.13256442558E+02  0.52688543662E+03 -0.83501432424E+03  0.99135319715E+03  0.88024105877E+02 0.  0.
         23    2    4    4    0    0 -0.23037255190E+03 -0.27922169837E+03 -0.32541382925E+03  0.49544830746E+03  0.92404521457E+02 0.  0.
          3    1    3    3  502    0  0.45826054306E+02 -0.36917557277E+02  0.24383123243E+01  0.58897187161E+02  0.00000000000E+00 0. -1.
         -4    1    3    3    0  502  0.17129005504E+03 -0.21074618098E+03  0.18103807973E+03  0.32638783995E+03  0.00000000000E+00 0.  1.
         13    1    5    5    0    0 -0.16096350445E+02  0.15226547859E+03 -0.18101172548E+03  0.23708461197E+03  0.00000000000E+00 0.  1.
        -13    1    5    5    0    0  0.29352793003E+02  0.37461995803E+03 -0.65400259876E+03  0.75426858518E+03  0.00000000000E+00 0. -1.
          1    1    6    6  503    0 -0.11398378876E+03 -0.76159745024E+02 -0.93353132591E+02  0.16585360481E+03  0.00000000000E+00 0. -1.
         -1    1    6    6    0  503 -0.11638876314E+03 -0.20306195334E+03 -0.23206069666E+03  0.32959470265E+03  0.00000000000E+00 0.  1.
<mgrwt>
<rscale>  0 0.15969575E+04</rscale>
<asrwt>0</asrwt>
<pdfrwt beam="1">  1        3 0.21915679E+00 0.15969575E+04</pdfrwt>
<pdfrwt beam="2">  1       -4 0.68856521E-01 0.15969575E+04</pdfrwt>
<totfact> 0.47935045E-01</totfact>
</mgrwt>
</event>
<event>
12    5  0.5095719E-008  0.1328081E+04  0.7818608E-02  0.9007588E-01
          1   -1    0    0  501    0  0.00000000000E+00  0.00000000000E+00  0.49576148758E+03  0.49576148758E+03  0.00000000000E+00 0. -1.
         -2   -1    0    0    0  501 -0.00000000000E+00 -0.00000000000E+00 -0.88943940145E+03  0.88943940145E+03  0.00000000000E+00 0.  1.
        -24    2    1    2    0    0 -0.19833086738E+03  0.28204211259E+03  0.55456314186E+02  0.35884548400E+03  0.82533583304E+02 0.  0.
        254    2    1    2    0    0  0.19833086738E+03 -0.28204211259E+03 -0.44913422806E+03  0.10263554050E+04  0.85603795266E+03 0.  0.
         23    2    4    4    0    0  0.34458745708E+03 -0.41581149082E+03 -0.22090443043E+02  0.54692988480E+03  0.83693486872E+02 0.  0.
         23    2    4    4    0    0 -0.14625658970E+03  0.13376937823E+03 -0.42704378502E+03  0.47942552023E+03  0.90538381614E+02 0.  0.
          1    1    3    3  502    0 -0.19598851698E+03  0.22909617280E+03  0.45094992807E+02  0.30484440877E+03  0.00000000000E+00 0. -1.
         -2    1    3    3    0  502 -0.23423504010E+01  0.52945939788E+02  0.10361321379E+02  0.54001075231E+02  0.00000000000E+00 0.  1.
         13    1    5    5    0    0  0.16470404110E+03 -0.13483848438E+03 -0.94123711321E+01  0.21306672841E+03  0.00000000000E+00 0.  1.
        -13    1    5    5    0    0  0.17988341598E+03 -0.28097300643E+03 -0.12678071911E+02  0.33386315639E+03  0.00000000000E+00 0. -1.
          3    1    6    6  503    0  0.76215880950E+01  0.45952993478E+01 -0.62972053350E+02  0.63597837104E+02  0.00000000000E+00 0. -1.
         -3    1    6    6    0  503 -0.15387817779E+03  0.12917407888E+03 -0.36407173167E+03  0.41582768313E+03  0.00000000000E+00 0.  1.
<mgrwt>
<rscale>  0 0.13280810E+04</rscale>
<asrwt>0</asrwt>
<pdfrwt beam="1">  1        1 0.76270999E-01 0.13280810E+04</pdfrwt>
<pdfrwt beam="2">  1       -2 0.13683683E+00 0.13280810E+04</pdfrwt>
<totfact> 0.14642999E+01</totfact>
</mgrwt>
</event>
<event>
12    5  0.5095719E-008  0.1501803E+04  0.7818608E-02  0.8883255E-01
          1   -1    0    0  501    0  0.00000000000E+00  0.00000000000E+00  0.49055885723E+03  0.49055885723E+03  0.00000000000E+00 0. -1.
         -2   -1    0    0    0  501 -0.00000000000E+00 -0.00000000000E+00 -0.11494103644E+04  0.11494103644E+04  0.00000000000E+00 0.  1.
        -24    2    1    2    0    0  0.14805834085E+03 -0.14344998221E+03  0.25648832013E+03  0.33814922175E+03  0.77842585499E+02 0.  0.
        254    2    1    2    0    0 -0.14805834085E+03  0.14344998221E+03 -0.91533982729E+03  0.13018199999E+04  0.90243511842E+03 0.  0.
         23    2    4    4    0    0  0.32089768583E+03  0.16620707403E+03 -0.15548136767E+03  0.40396679083E+03  0.91731107984E+02 0.  0.
         23    2    4    4    0    0 -0.46895602668E+03 -0.22757091827E+02 -0.75985845962E+03  0.89785320904E+03  0.91202336291E+02 0.  0.
          3    1    3    3  502    0  0.74915944119E+02 -0.29229168915E+02  0.64517997061E+02  0.10309856907E+03  0.00000000000E+00 0. -1.
         -4    1    3    3    0  502  0.73142396735E+02 -0.11422081329E+03  0.19197032307E+03  0.23505065268E+03  0.00000000000E+00 0.  1.
         13    1    5    5    0    0 -0.36192374306E+01  0.74804539880E+01 -0.13416369881E+02  0.15781478138E+02  0.00000000000E+00 0. -1.
        -13    1    5    5    0    0  0.32451692326E+03  0.15872662004E+03 -0.14206499779E+03  0.38818531269E+03  0.00000000000E+00 0.  1.
          2    1    6    6  503    0 -0.31146800059E+03 -0.65954150874E+01 -0.42000076881E+03  0.52293064616E+03  0.00000000000E+00 0.  1.
         -2    1    6    6    0  503 -0.15748802609E+03 -0.16161676740E+02 -0.33985769081E+03  0.37492256288E+03  0.00000000000E+00 0. -1.
<mgrwt>
<rscale>  0 0.15018035E+04</rscale>
<asrwt>0</asrwt>
<pdfrwt beam="1">  1        1 0.75470594E-01 0.15018035E+04</pdfrwt>
<pdfrwt beam="2">  1       -2 0.17683236E+00 0.15018035E+04</pdfrwt>
<totfact> 0.73349962E+00</totfact>
</mgrwt>
</event>
<event>
12    5  0.5095719E-008  0.2093291E+04  0.7818608E-02  0.8564205E-01
          1   -1    0    0  501    0  0.00000000000E+00  0.00000000000E+00  0.25508738397E+04  0.25508738397E+04  0.00000000000E+00 0. -1.
         -2   -1    0    0    0  501 -0.00000000000E+00 -0.00000000000E+00 -0.42944758930E+03  0.42944758930E+03  0.00000000000E+00 0.  1.
        -24    2    1    2    0    0  0.31718923010E+02 -0.17900220070E+03 -0.31549124453E+03  0.37199024795E+03  0.76119256826E+02 0.  0.
        254    2    1    2    0    0 -0.31718923010E+02  0.17900220070E+03  0.24369174949E+04  0.26083311811E+04  0.91201797955E+03 0.  0.
         23    2    4    4    0    0  0.20533462217E+03 -0.23261566594E+03  0.16740549010E+04  0.17049668772E+04  0.90442720844E+02 0.  0.
         23    2    4    4    0    0 -0.23705354518E+03  0.41161786664E+03  0.76286259397E+03  0.90336430387E+03  0.92109048467E+02 0.  0.
          3    1    3    3  502    0 -0.22082418205E+02 -0.31696915242E+02 -0.44823300850E+02  0.59173101395E+02  0.00000000000E+00 0. -1.
         -4    1    3    3    0  502  0.53801341215E+02 -0.14730528546E+03 -0.27066794368E+03  0.31281714655E+03  0.00000000000E+00 0.  1.
         13    1    5    5    0    0  0.18361518442E+03 -0.20232943490E+03  0.12624361002E+04  0.12916642920E+04  0.00000000000E+00 0.  1.
        -13    1    5    5    0    0  0.21719437750E+02 -0.30286231041E+02  0.41161880074E+03  0.41330258515E+03  0.00000000000E+00 0. -1.
          4    1    6    6  503    0 -0.95172745367E+02  0.22405513206E+03  0.32160869743E+03  0.40334936212E+03  0.00000000000E+00 0. -1.
         -4    1    6    6    0  503 -0.14188079981E+03  0.18756273458E+03  0.44125389654E+03  0.50001494175E+03  0.00000000000E+00 0.  1.
<mgrwt>
<rscale>  0 0.20932908E+04</rscale>
<asrwt>0</asrwt>
<pdfrwt beam="1">  1        1 0.39244212E+00 0.20932908E+04</pdfrwt>
<pdfrwt beam="2">  1       -2 0.66068861E-01 0.20932908E+04</pdfrwt>
<totfact> 0.21286613E+00</totfact>
</mgrwt>
</event>
<event>
12    5  0.5095719E-008  0.2512891E+04  0.7818608E-02  0.8398408E-01
         -2   -1    0    0    0  501 -0.00000000000E+00  0.00000000000E+00  0.90064817333E+03  0.90064817333E+03  0.00000000000E+00 0.  1.
          1   -1    0    0  501    0  0.00000000000E+00 -0.00000000000E+00 -0.17527985426E+04  0.17527985426E+04  0.00000000000E+00 0. -1.
        -24    2    1    2    0    0 -0.61108614880E+02  0.10890150586E+04 -0.27854877235E+03  0.11284379309E+04  0.78068461586E+02 0.  0.
        254    2    1    2    0    0  0.61108614880E+02 -0.10890150586E+04 -0.57360159695E+03  0.15250087851E+04  0.89830114208E+03 0.  0.
         23    2    4    4    0    0  0.39959890912E+03 -0.28019389865E+03 -0.37415064010E+03  0.62082633291E+03  0.85139445272E+02 0.  0.
         23    2    4    4    0    0 -0.33849029424E+03 -0.80882115994E+03 -0.19945095685E+03  0.90418245216E+03  0.94857126979E+02 0.  0.
          1    1    3    3  502    0 -0.12483649448E+02  0.30124305151E+03 -0.11306858011E+03  0.32200577851E+03  0.00000000000E+00 0. -1.
         -2    1    3    3    0  502 -0.48624965432E+02  0.78777200708E+03 -0.16548019225E+03  0.80643215240E+03  0.00000000000E+00 0.  1.
         13    1    5    5    0    0  0.16054714219E+03 -0.84304657102E+02 -0.96748228507E+02  0.20553072713E+03  0.00000000000E+00 0. -1.
        -13    1    5    5    0    0  0.23905176692E+03 -0.19588924155E+03 -0.27740241160E+03  0.41529560578E+03  0.00000000000E+00 0.  1.
          3    1    6    6  503    0 -0.33165191175E+03 -0.78871726091E+03 -0.17786334362E+03  0.87390118276E+03  0.00000000000E+00 0. -1.
         -3    1    6    6    0  503 -0.68383824807E+01 -0.20103899031E+02 -0.21587613229E+02  0.30281269394E+02  0.00000000000E+00 0.  1.
<mgrwt>
<rscale>  0 0.25128906E+04</rscale>
<asrwt>0</asrwt>
<pdfrwt beam="1">  1        1 0.26966131E+00 0.25128906E+04</pdfrwt>
<pdfrwt beam="2">  1       -2 0.13856126E+00 0.25128906E+04</pdfrwt>
<totfact> 0.12617137E+00</totfact>
</mgrwt>
</event>
<event>
12    5  0.5095719E-008  0.1749004E+04  0.7818608E-02  0.8733899E-01
          1   -1    0    0  501    0  0.00000000000E+00  0.00000000000E+00  0.64910942069E+03  0.64910942069E+03  0.00000000000E+00 0. -1.
         -2   -1    0    0    0  501 -0.00000000000E+00 -0.00000000000E+00 -0.11781587513E+04  0.11781587513E+04  0.00000000000E+00 0.  1.
        -24    2    1    2    0    0  0.74343496102E+02 -0.36228477306E+03 -0.73504036539E+03  0.82671348130E+03  0.79960172623E+02 0.  0.
        254    2    1    2    0    0 -0.74343496102E+02  0.36228477306E+03  0.20599103483E+03  0.10005546906E+04  0.90658710024E+03 0.  0.
         23    2    4    4    0    0  0.15355012818E+03  0.76113713434E+02 -0.30744123091E+03  0.36366657430E+03  0.91445762945E+02 0.  0.
         23    2    4    4    0    0 -0.22789362429E+03  0.28617105963E+03  0.51343226575E+03  0.63688811633E+03  0.90467684057E+02 0.  0.
          1    1    3    3  502    0  0.28460932299E+02 -0.36917786254E+02 -0.60291000709E+02  0.76209923079E+02  0.00000000000E+00 0. -1.
         -2    1    3    3    0  502  0.45882563803E+02 -0.32536698681E+03 -0.67474936468E+03  0.75050355822E+03  0.00000000000E+00 0.  1.
         13    1    5    5    0    0  0.12982458197E+03  0.22556944176E+02 -0.17687863769E+03  0.22056584116E+03  0.00000000000E+00 0. -1.
        -13    1    5    5    0    0  0.23725546210E+02  0.53556769258E+02 -0.13056259323E+03  0.14310073315E+03  0.00000000000E+00 0.  1.
          4    1    6    6  503    0 -0.15830798365E+03  0.24498267186E+03  0.35891156134E+03  0.46248830911E+03  0.00000000000E+00 0. -1.
         -4    1    6    6    0  503 -0.69585640636E+02  0.41188387768E+02  0.15452070441E+03  0.17439980723E+03  0.00000000000E+00 0.  1.
<mgrwt>
<rscale>  0 0.17490042E+04</rscale>
<asrwt>0</asrwt>
<pdfrwt beam="1">  1        1 0.99862988E-01 0.17490042E+04</pdfrwt>
<pdfrwt beam="2">  1       -2 0.18125519E+00 0.17490042E+04</pdfrwt>
<totfact> 0.44974276E+00</totfact>
</mgrwt>
</event>
<event>
12    5  0.5095719E-008  0.2469422E+04  0.7818608E-02  0.8413961E-01
         -2   -1    0    0    0  501 -0.00000000000E+00  0.00000000000E+00  0.51030045433E+03  0.51030045433E+03  0.00000000000E+00 0.  1.
          1   -1    0    0  501    0  0.00000000000E+00 -0.00000000000E+00 -0.29874774766E+04  0.29874774766E+04  0.00000000000E+00 0. -1.
        -24    2    1    2    0    0 -0.74565128340E+03  0.72784189202E+03 -0.13726233748E+04  0.17251626678E+04  0.79634447013E+02 0.  0.
        254    2    1    2    0    0  0.74565128340E+03 -0.72784189202E+03 -0.11045536475E+04  0.17726152632E+04  0.91453619650E+03 0.  0.
         23    2    4    4    0    0  0.80057053286E+03 -0.36081863917E+03 -0.39572336658E+03  0.96723366571E+03  0.88547799368E+02 0.  0.
         23    2    4    4    0    0 -0.54919249462E+02 -0.36702325285E+03 -0.70883028094E+03  0.80538159744E+03  0.92070398191E+02 0.  0.
          1    1    3    3  502    0 -0.72072610285E+03  0.71100762771E+03 -0.13503925629E+04  0.16877612497E+04  0.00000000000E+00 0. -1.
         -2    1    3    3    0  502 -0.24925180551E+02  0.16834264303E+02 -0.22230811889E+02  0.37401418120E+02  0.00000000000E+00 0.  1.
         13    1    5    5    0    0  0.16521725031E+03 -0.11502251760E+03 -0.93256765618E+02  0.22186424608E+03  0.00000000000E+00 0. -1.
        -13    1    5    5    0    0  0.63535328255E+03 -0.24579612157E+03 -0.30246660096E+03  0.74536941963E+03  0.00000000000E+00 0.  1.
          4    1    6    6  503    0 -0.23763914520E+02 -0.10523397767E+03 -0.30108570555E+03  0.31983044848E+03  0.00000000000E+00 0. -1.
         -4    1    6    6    0  503 -0.31155334942E+02 -0.26178927518E+03 -0.40774457539E+03  0.48555114896E+03  0.00000000000E+00 0.  1.
<mgrwt>
<rscale>  0 0.24694219E+04</rscale>
<asrwt>0</asrwt>
<pdfrwt beam="1">  1        1 0.45961192E+00 0.24694219E+04</pdfrwt>
<pdfrwt beam="2">  1       -2 0.78507762E-01 0.24694219E+04</pdfrwt>
<totfact> 0.68948808E-01</totfact>
</mgrwt>
</event>
<event>
12    5  0.5095719E-008  0.2122627E+04  0.7818608E-02  0.8551341E-01
          1   -1    0    0  501    0  0.00000000000E+00  0.00000000000E+00  0.10526612239E+04  0.10526612239E+04  0.00000000000E+00 0. -1.
         -2   -1    0    0    0  501 -0.00000000000E+00 -0.00000000000E+00 -0.10700370649E+04  0.10700370649E+04  0.00000000000E+00 0.  1.
        -24    2    1    2    0    0 -0.11271618697E+03 -0.17636718923E+03  0.83911932044E+03  0.86847368385E+03  0.79466856932E+02 0.  0.
        254    2    1    2    0    0  0.11271618697E+03  0.17636718923E+03 -0.85649516137E+03  0.12542246049E+04  0.89201181266E+03 0.  0.
         23    2    4    4    0    0 -0.30687055158E+03 -0.12046593316E+03 -0.55500760818E+03  0.65195442381E+03  0.91266363504E+02 0.  0.
         23    2    4    4    0    0  0.41958673855E+03  0.29683312239E+03 -0.30148755319E+03  0.60227018112E+03  0.87588199134E+02 0.  0.
          3    1    3    3  502    0 -0.10795579819E+03 -0.16183438746E+03  0.64362911198E+03  0.67238624102E+03  0.00000000000E+00 0. -1.
         -4    1    3    3    0  502 -0.47603887831E+01 -0.14532801771E+02  0.19549020846E+03  0.19608744283E+03  0.00000000000E+00 0.  1.
         13    1    5    5    0    0 -0.21624223782E+02 -0.18469727108E+02 -0.11004671011E+03  0.11366185059E+03  0.00000000000E+00 0. -1.
        -13    1    5    5    0    0 -0.28524632780E+03 -0.10199620605E+03 -0.44496089807E+03  0.53829257322E+03  0.00000000000E+00 0.  1.
          2    1    6    6  503    0  0.28453467484E+03  0.18237730108E+03 -0.24138493925E+03  0.41531692722E+03  0.00000000000E+00 0.  1.
         -2    1    6    6    0  503  0.13505206371E+03  0.11445582131E+03 -0.60102613938E+02  0.18695325391E+03  0.00000000000E+00 0. -1.
<mgrwt>
<rscale>  0 0.21226272E+04</rscale>
<asrwt>0</asrwt>
<pdfrwt beam="1">  1        1 0.16194788E+00 0.21226272E+04</pdfrwt>
<pdfrwt beam="2">  1       -2 0.16462109E+00 0.21226272E+04</pdfrwt>
<totfact> 0.25827681E+00</totfact>
</mgrwt>
</event>
<event>
12    5  0.5095719E-008  0.1290267E+04  0.7818608E-02  0.9037319E-01
          1   -1    0    0  501    0  0.00000000000E+00  0.00000000000E+00  0.17040822801E+04  0.17040822801E+04  0.00000000000E+00 0. -1.
         -2   -1    0    0    0  501 -0.00000000000E+00 -0.00000000000E+00 -0.24423549763E+03  0.24423549763E+03  0.00000000000E+00 0.  1.
        -24    2    1    2    0    0  0.21760883992E+03  0.14979162505E+03  0.89937909594E+02  0.29037121528E+03  0.80221424402E+02 0.  0.
        254    2    1    2    0    0 -0.21760883992E+03 -0.14979162505E+03  0.13699088728E+04  0.16579465624E+04  0.89573731964E+03 0.  0.
         23    2    4    4    0    0 -0.18306154345E+02 -0.15597589983E+03 -0.74571608038E+02  0.19697580450E+03  0.92601005500E+02 0.  0.
         23    2    4    4    0    0 -0.19930268558E+03  0.61842747835E+01  0.14444804809E+04  0.14609707579E+04  0.90287818137E+02 0.  0.
          1    1    3    3  502    0  0.12687002735E+03  0.12714059117E+03  0.38709889215E+02  0.18373673907E+03  0.00000000000E+00 0. -1.
         -2    1    3    3    0  502  0.90738812577E+02  0.22651033875E+02  0.51228020379E+02  0.10663447620E+03  0.00000000000E+00 0.  1.
         13    1    5    5    0    0  0.34179133246E+02 -0.90229512465E+02 -0.53183603823E+02  0.11017292673E+03  0.00000000000E+00 0.  1.
        -13    1    5    5    0    0 -0.52485287591E+02 -0.65746387364E+02 -0.21388004215E+02  0.86802877770E+02  0.00000000000E+00 0. -1.
          2    1    6    6  503    0 -0.10528496380E+03  0.11418750269E+02  0.10535658850E+04  0.10588750566E+04  0.00000000000E+00 0. -1.
         -2    1    6    6    0  503 -0.94017721775E+02 -0.52344754853E+01  0.39091459591E+03  0.40209570134E+03  0.00000000000E+00 0.  1.
<mgrwt>
<rscale>  0 0.12902672E+04</rscale>
<asrwt>0</asrwt>
<pdfrwt beam="1">  1        1 0.26216650E+00 0.12902672E+04</pdfrwt>
<pdfrwt beam="2">  1       -2 0.37574693E-01 0.12902672E+04</pdfrwt>
<totfact> 0.27310342E+01</totfact>
</mgrwt>
</event>
<event>
12    5  0.5095719E-008  0.1509443E+04  0.7818608E-02  0.8878198E-01
          1   -1    0    0  501    0  0.00000000000E+00  0.00000000000E+00  0.62266277586E+03  0.62266277586E+03  0.00000000000E+00 0. -1.
         -2   -1    0    0    0  501 -0.00000000000E+00 -0.00000000000E+00 -0.91478834920E+03  0.91478834920E+03  0.00000000000E+00 0.  1.
        -24    2    1    2    0    0  0.37053701421E+03  0.20928990077E+03  0.90184638558E+02  0.44182226893E+03  0.77289758887E+02 0.  0.
        254    2    1    2    0    0 -0.37053701421E+03 -0.20928990077E+03 -0.38231021190E+03  0.10956288561E+04  0.93442043578E+03 0.  0.
         23    2    4    4    0    0 -0.27589337810E+03 -0.56926255882E+03 -0.20377086137E+03  0.67046964714E+03  0.88487099843E+02 0.  0.
         23    2    4    4    0    0 -0.94643636110E+02  0.35997265805E+03 -0.17853935053E+03  0.42515920899E+03  0.10171686636E+03 0.  0.
          1    1    3    3  502    0  0.33788638458E+03  0.19848727012E+03  0.60748444256E+02  0.39655362659E+03  0.00000000000E+00 0. -1.
         -2    1    3    3    0  502  0.32650629632E+02  0.10802630643E+02  0.29436194301E+02  0.45268642338E+02  0.00000000000E+00 0.  1.
         13    1    5    5    0    0 -0.13803537448E+03 -0.19389737207E+03 -0.59260099706E+02  0.24527885136E+03  0.00000000000E+00 0. -1.
        -13    1    5    5    0    0 -0.13785800362E+03 -0.37536518674E+03 -0.14451076166E+03  0.42519079578E+03  0.00000000000E+00 0.  1.
          2    1    6    6  503    0 -0.10499707891E+03  0.26097787757E+03 -0.10064994144E+03  0.29877123334E+03  0.00000000000E+00 0.  1.
         -2    1    6    6    0  503  0.10353442805E+02  0.98994780481E+02 -0.77889409086E+02  0.12638797565E+03  0.00000000000E+00 0. -1.
<mgrwt>
<rscale>  0 0.15094431E+04</rscale>
<asrwt>0</asrwt>
<pdfrwt beam="1">  1        1 0.95794273E-01 0.15094431E+04</pdfrwt>
<pdfrwt beam="2">  1       -2 0.14073667E+00 0.15094431E+04</pdfrwt>
<totfact> 0.97204168E+00</totfact>
</mgrwt>
</event>
<event>
12    5  0.5095719E-008  0.1190292E+04  0.7818608E-02  0.9121397E-01
         -2   -1    0    0    0  501 -0.00000000000E+00  0.00000000000E+00  0.19594047019E+03  0.19594047019E+03  0.00000000000E+00 0.  1.
          1   -1    0    0  501    0  0.00000000000E+00 -0.00000000000E+00 -0.18076852856E+04  0.18076852856E+04  0.00000000000E+00 0. -1.
        -24    2    1    2    0    0 -0.92135654341E+02 -0.18303944497E+03 -0.13444532959E+03  0.25572876550E+03  0.73001627639E+02 0.  0.
        254    2    1    2    0    0  0.92135654341E+02  0.18303944497E+03 -0.14772994858E+04  0.17478969903E+04  0.91144813382E+03 0.  0.
         23    2    4    4    0    0 -0.28587980163E+02  0.40826061183E+03 -0.24431981237E+03  0.48541935729E+03  0.91900935457E+02 0.  0.
         23    2    4    4    0    0  0.12072363450E+03 -0.22522116685E+03 -0.12329796734E+04  0.12624776330E+04  0.91170876667E+02 0.  0.
          1    1    3    3  502    0 -0.79711773513E+02 -0.11346992928E+03 -0.12046771670E+03  0.18368958178E+03  0.00000000000E+00 0. -1.
         -2    1    3    3    0  502 -0.12423880827E+02 -0.69569515688E+02 -0.13977612882E+02  0.72039183711E+02  0.00000000000E+00 0.  1.
         13    1    5    5    0    0  0.11465279065E+02  0.23984810905E+03 -0.10027932825E+03  0.26022012165E+03  0.00000000000E+00 0. -1.
        -13    1    5    5    0    0 -0.40053259228E+02  0.16841250278E+03 -0.14404048412E+03  0.22519923564E+03  0.00000000000E+00 0.  1.
          1    1    6    6  503    0 -0.12763597552E+02 -0.35224669297E+02 -0.22503003557E+03  0.22812760389E+03  0.00000000000E+00 0. -1.
         -1    1    6    6    0  503  0.13348723206E+03 -0.18999649756E+03 -0.10079496379E+04  0.10343500291E+04  0.00000000000E+00 0.  1.
<mgrwt>
<rscale>  0 0.11902919E+04</rscale>
<asrwt>0</asrwt>
<pdfrwt beam="1">  1        1 0.27810544E+00 0.11902919E+04</pdfrwt>
<pdfrwt beam="2">  1       -2 0.30144686E-01 0.11902919E+04</pdfrwt>
<totfact> 0.35593097E+01</totfact>
</mgrwt>
</event>
<event>
12    5  0.5095719E-008  0.2311030E+04  0.7818608E-02  0.8473585E-01
         -2   -1    0    0    0  501 -0.00000000000E+00  0.00000000000E+00  0.23443328512E+04  0.23443328512E+04  0.00000000000E+00 0.  1.
          1   -1    0    0  501    0  0.00000000000E+00 -0.00000000000E+00 -0.56954988497E+03  0.56954988497E+03  0.00000000000E+00 0. -1.
        -24    2    1    2    0    0  0.56176422339E+03 -0.65453592367E+03  0.27060893405E+03  0.90744577181E+03  0.78945015850E+02 0.  0.
        254    2    1    2    0    0 -0.56176422339E+03  0.65453592367E+03  0.15041740322E+04  0.20064369644E+04  0.10095808313E+04 0.  0.
         23    2    4    4    0    0 -0.69666754569E+03  0.73307767762E+03  0.15168746884E+04  0.18253402864E+04  0.90607892777E+02 0.  0.
         23    2    4    4    0    0  0.13490332230E+03 -0.78541753958E+02 -0.12700656211E+02  0.18109667796E+03  0.90922970800E+02 0.  0.
          1    1    3    3  502    0  0.28491884606E+03 -0.31640898723E+03  0.93594727147E+02  0.43595110849E+03  0.00000000000E+00 0. -1.
         -2    1    3    3    0  502  0.27684537734E+03 -0.33812693643E+03  0.17701420691E+03  0.47149466332E+03  0.00000000000E+00 0.  1.
         13    1    5    5    0    0 -0.52699086073E+03  0.60646949510E+03  0.11853121939E+04  0.14319530763E+04  0.00000000000E+00 0. -1.
        -13    1    5    5    0    0 -0.16967668496E+03  0.12660818252E+03  0.33156249454E+03  0.39338721012E+03  0.00000000000E+00 0.  1.
          3    1    6    6  503    0  0.91528559986E+02 -0.97040361140E+02 -0.12036820082E+02  0.13393727644E+03  0.00000000000E+00 0. -1.
         -3    1    6    6    0  503  0.43374762311E+02  0.18498607182E+02 -0.66383612912E+00  0.47159401519E+02  0.00000000000E+00 0.  1.
<mgrwt>
<rscale>  0 0.23110296E+04</rscale>
<asrwt>0</asrwt>
<pdfrwt beam="1">  1        1 0.87623060E-01 0.23110296E+04</pdfrwt>
<pdfrwt beam="2">  1       -2 0.36066659E+00 0.23110296E+04</pdfrwt>
<totfact> 0.38930407E-01</totfact>
</mgrwt>
</event>
<event>
12    5  0.5095719E-008  0.2058307E+04  0.7818608E-02  0.8579835E-01
          1   -1    0    0  501    0  0.00000000000E+00  0.00000000000E+00  0.70056624670E+03  0.70056624670E+03  0.00000000000E+00 0. -1.
         -2   -1    0    0    0  501 -0.00000000000E+00 -0.00000000000E+00 -0.15118585835E+04  0.15118585835E+04  0.00000000000E+00 0.  1.
        -24    2    1    2    0    0 -0.74576903695E+02  0.73254932224E+03  0.79871890922E+02  0.74656931620E+03  0.93786997198E+02 0.  0.
        254    2    1    2    0    0  0.74576903695E+02 -0.73254932224E+03 -0.89116422776E+03  0.14658555140E+04  0.90131486348E+03 0.  0.
         23    2    4    4    0    0  0.60787464652E+02 -0.36469231047E+03 -0.10008449619E+04  0.10707170477E+04  0.89714889030E+02 0.  0.
         23    2    4    4    0    0  0.13789439043E+02 -0.36785701178E+03  0.10968073416E+03  0.39513846632E+03  0.92712536241E+02 0.  0.
          3    1    3    3  502    0 -0.56807954441E+02  0.70622833010E+03  0.64947789742E+02  0.71148001610E+03  0.00000000000E+00 0. -1.
         -4    1    3    3    0  502 -0.17768949254E+02  0.26320992147E+02  0.14924101180E+02  0.35089300096E+02  0.00000000000E+00 0.  1.
         13    1    5    5    0    0  0.62133843220E+01 -0.24591854180E+03 -0.57916856300E+03  0.62924618371E+03  0.00000000000E+00 0.  1.
        -13    1    5    5    0    0  0.54574080330E+02 -0.11877376867E+03 -0.42167639892E+03  0.44147086401E+03  0.00000000000E+00 0. -1.
          3    1    6    6  503    0  0.26665615939E+01 -0.13677582449E+01 -0.92110613127E+01  0.96863287089E+01  0.00000000000E+00 0. -1.
         -3    1    6    6    0  503  0.11122877449E+02 -0.36648925353E+03  0.11889179547E+03  0.38545213761E+03  0.00000000000E+00 0.  1.
<mgrwt>
<rscale>  0 0.20583072E+04</rscale>
<asrwt>0</asrwt>
<pdfrwt beam="1">  1        1 0.10777942E+00 0.20583072E+04</pdfrwt>
<pdfrwt beam="2">  1       -2 0.23259363E+00 0.20583072E+04</pdfrwt>
<totfact> 0.18114551E+00</totfact>
</mgrwt>
</event>
<event>
12    5  0.5095719E-008  0.1631951E+04  0.7818608E-02  0.8801156E-01
         -2   -1    0    0    0  501 -0.00000000000E+00  0.00000000000E+00  0.79923556085E+03  0.79923556085E+03  0.00000000000E+00 0.  1.
          1   -1    0    0  501    0  0.00000000000E+00 -0.00000000000E+00 -0.83306593801E+03  0.83306593801E+03  0.00000000000E+00 0. -1.
        -24    2    1    2    0    0 -0.36357239364E+03 -0.15891705233E+03  0.38792147974E+03  0.56060830495E+03  0.79743853611E+02 0.  0.
        254    2    1    2    0    0  0.36357239364E+03  0.15891705233E+03 -0.42175185691E+03  0.10716931939E+04  0.90178276660E+03 0.  0.
         23    2    4    4    0    0  0.39474141240E+03 -0.22265280900E+03  0.40135449890E+02  0.46393003739E+03  0.90692718743E+02 0.  0.
         23    2    4    4    0    0 -0.31169018758E+02  0.38156986133E+03 -0.46188730680E+03  0.60776315652E+03  0.97309318351E+02 0.  0.
          1    1    3    3  502    0 -0.23253398436E+02 -0.32994605678E+02  0.25468173296E+02  0.47728318572E+02  0.00000000000E+00 0. -1.
         -2    1    3    3    0  502 -0.34031899521E+03 -0.12592244665E+03  0.36245330644E+03  0.51287998637E+03  0.00000000000E+00 0.  1.
         13    1    5    5    0    0  0.17957038062E+03 -0.12611775050E+03 -0.20606869560E+02  0.22039930050E+03  0.00000000000E+00 0. -1.
        -13    1    5    5    0    0  0.21517103179E+03 -0.96535058498E+02  0.60742319450E+02  0.24353073689E+03  0.00000000000E+00 0.  1.
          3    1    6    6  503    0 -0.10172929478E+02  0.17871346897E+03 -0.14240858563E+03  0.22874045936E+03  0.00000000000E+00 0. -1.
         -3    1    6    6    0  503 -0.20996089281E+02  0.20285639236E+03 -0.31947872117E+03  0.37902269717E+03  0.00000000000E+00 0.  1.
<mgrwt>
<rscale>  0 0.16319509E+04</rscale>
<asrwt>0</asrwt>
<pdfrwt beam="1">  1        1 0.12816399E+00 0.16319509E+04</pdfrwt>
<pdfrwt beam="2">  1       -2 0.12295932E+00 0.16319509E+04</pdfrwt>
<totfact> 0.86721532E+00</totfact>
</mgrwt>
</event>
<event>
12    5  0.5095719E-008  0.2579317E+04  0.7818608E-02  0.8375261E-01
          1   -1    0    0  501    0  0.00000000000E+00  0.00000000000E+00  0.83224944759E+03  0.83224944759E+03  0.00000000000E+00 0. -1.
         -2   -1    0    0    0  501 -0.00000000000E+00 -0.00000000000E+00 -0.19984628393E+04  0.19984628393E+04  0.00000000000E+00 0.  1.
        -24    2    1    2    0    0 -0.24683482113E+03  0.37239245240E+03 -0.16514543226E+04  0.17125633948E+04  0.77255640593E+02 0.  0.
        254    2    1    2    0    0  0.24683482113E+03 -0.37239245240E+03  0.48524093091E+03  0.11181488921E+04  0.90288128582E+03 0.  0.
         23    2    4    4    0    0  0.13775972365E+03  0.22061612107E+03  0.42380646426E+03  0.50546367922E+03  0.90732560441E+02 0.  0.
         23    2    4    4    0    0  0.10907509748E+03 -0.59300857347E+03  0.61434466657E+02  0.61268521286E+03  0.89735340062E+02 0.  0.
          3    1    3    3  502    0 -0.18551015515E+02  0.24329878027E+02 -0.20985523017E+03  0.21207380972E+03  0.00000000000E+00 0. -1.
         -4    1    3    3    0  502 -0.22828380562E+03  0.34806257437E+03 -0.14415990924E+04  0.15004895850E+04  0.00000000000E+00 0.  1.
         13    1    5    5    0    0  0.10645466782E+03  0.19257186109E+03  0.28275364243E+03  0.35828220761E+03  0.00000000000E+00 0. -1.
        -13    1    5    5    0    0  0.31305055828E+02  0.28044259988E+02  0.14105282183E+03  0.14718147161E+03  0.00000000000E+00 0.  1.
          1    1    6    6  503    0  0.68952032790E+02 -0.50274149588E+03  0.27338465723E+02  0.50818381145E+03  0.00000000000E+00 0. -1.
         -1    1    6    6    0  503  0.40123064690E+02 -0.90267077591E+02  0.34096000934E+02  0.10450140141E+03  0.00000000000E+00 0.  1.
<mgrwt>
<rscale>  0 0.25793174E+04</rscale>
<asrwt>0</asrwt>
<pdfrwt beam="1">  1        1 0.12803838E+00 0.25793174E+04</pdfrwt>
<pdfrwt beam="2">  1       -2 0.30745582E+00 0.25793174E+04</pdfrwt>
<totfact> 0.45902060E-01</totfact>
</mgrwt>
</event>
<event>
12    5  0.5095719E-008  0.1236823E+04  0.7818608E-02  0.9081223E-01
          1   -1    0    0  501    0  0.00000000000E+00  0.00000000000E+00  0.10977403036E+04  0.10977403036E+04  0.00000000000E+00 0. -1.
         -2   -1    0    0    0  501 -0.00000000000E+00 -0.00000000000E+00 -0.34838162383E+03  0.34838162383E+03  0.00000000000E+00 0.  1.
        -24    2    1    2    0    0 -0.60156493660E+02  0.17186419924E+03  0.42970274549E+03  0.47322783838E+03  0.78383868402E+02 0.  0.
        254    2    1    2    0    0  0.60156493660E+02 -0.17186419924E+03  0.31965593429E+03  0.97289408907E+03  0.90065913947E+03 0.  0.
         23    2    4    4    0    0  0.10882206514E+03 -0.26431330691E+03 -0.24798595715E+03  0.38945881792E+03  0.92072633506E+02 0.  0.
         23    2    4    4    0    0 -0.48665571477E+02  0.92449107677E+02  0.56764189144E+03  0.58343527115E+03  0.85230413239E+02 0.  0.
          1    1    3    3  502    0 -0.83332999763E+01  0.85194100063E+02  0.27887204525E+03  0.29171406581E+03  0.00000000000E+00 0. -1.
         -2    1    3    3    0  502 -0.51823193684E+02  0.86670099174E+02  0.15083070025E+03  0.18151377257E+03  0.00000000000E+00 0.  1.
         13    1    5    5    0    0  0.63168281783E+02 -0.24078773511E+03 -0.20454455925E+03  0.32219162298E+03  0.00000000000E+00 0. -1.
        -13    1    5    5    0    0  0.45653783354E+02 -0.23525571805E+02 -0.43441397900E+02  0.67267194938E+02  0.00000000000E+00 0.  1.
          3    1    6    6  503    0  0.83900705895E+01  0.68224134080E+02  0.22623638479E+03  0.23644836129E+03  0.00000000000E+00 0. -1.
         -3    1    6    6    0  503 -0.57055642066E+02  0.24224973597E+02  0.34140550665E+03  0.34698690985E+03  0.00000000000E+00 0.  1.
<mgrwt>
<rscale>  0 0.12368226E+04</rscale>
<asrwt>0</asrwt>
<pdfrwt beam="1">  1        1 0.16888312E+00 0.12368226E+04</pdfrwt>
<pdfrwt beam="2">  1       -2 0.53597173E-01 0.12368226E+04</pdfrwt>
<totfact> 0.36138227E+01</totfact>
</mgrwt>
</event>
<event>
12    5  0.5095719E-008  0.1782543E+04  0.7818608E-02  0.8715638E-01
         -4   -1    0    0    0  501 -0.00000000000E+00  0.00000000000E+00  0.91830229911E+03  0.91830229911E+03  0.00000000000E+00 0.  1.
          3   -1    0    0  501    0  0.00000000000E+00 -0.00000000000E+00 -0.86503641087E+03  0.86503641087E+03  0.00000000000E+00 0. -1.
        -24    2    1    2    0    0 -0.70793221664E+02 -0.38945278878E+03 -0.50597817813E+03  0.64760856420E+03  0.81839970447E+02 0.  0.
        254    2    1    2    0    0  0.70793221664E+02  0.38945278878E+03  0.55924406637E+03  0.11357301458E+04  0.90578357423E+03 0.  0.
         23    2    4    4    0    0 -0.14411098930E+03  0.26486885885E+03  0.74693606871E+03  0.81054939509E+03  0.90295855446E+02 0.  0.
         23    2    4    4    0    0  0.21490421096E+03  0.12458392992E+03 -0.18769200234E+03  0.32518075069E+03  0.93857644311E+02 0.  0.
          1    1    3    3  502    0 -0.34181625703E+02 -0.29143072657E+03 -0.31963446280E+03  0.43389681001E+03  0.00000000000E+00 0. -1.
         -2    1    3    3    0  502 -0.36611595961E+02 -0.98022062210E+02 -0.18634371532E+03  0.21371175419E+03  0.00000000000E+00 0.  1.
         13    1    5    5    0    0 -0.63610179252E+02  0.19440195634E+03  0.54312908251E+03  0.58036848278E+03  0.00000000000E+00 0.  1.
        -13    1    5    5    0    0 -0.80500810047E+02  0.70466902516E+02  0.20380698619E+03  0.23018091231E+03  0.00000000000E+00 0. -1.
          1    1    6    6  503    0  0.20653960493E+03  0.13803821807E+03 -0.18334343116E+03  0.30875228227E+03  0.00000000000E+00 0. -1.
         -1    1    6    6    0  503  0.83646060290E+01 -0.13454288147E+02 -0.43485711720E+01  0.16428468426E+02  0.00000000000E+00 0.  1.
<mgrwt>
<rscale>  0 0.17825430E+04</rscale>
<asrwt>0</asrwt>
<pdfrwt beam="1">  1        3 0.13308252E+00 0.17825430E+04</pdfrwt>
<pdfrwt beam="2">  1       -4 0.14127728E+00 0.17825430E+04</pdfrwt>
<totfact> 0.33133770E-01</totfact>
</mgrwt>
</event>
<event>
12    5  0.8743428E-008  0.2906802E+04  0.7818608E-02  0.8270857E-01
          3   -1    0    0  501    0  0.00000000000E+00  0.00000000000E+00  0.19183220063E+04  0.19183220063E+04  0.00000000000E+00 0. -1.
         -4   -1    0    0    0  501 -0.00000000000E+00 -0.00000000000E+00 -0.11011571408E+04  0.11011571408E+04  0.00000000000E+00 0.  1.
        -24    2    1    2    0    0  0.55578908447E+03 -0.90705292994E+03 -0.43153662542E+03  0.11509301007E+04  0.82278268285E+02 0.  0.
        254    2    1    2    0    0 -0.55578908447E+03  0.90705292994E+03  0.12487014909E+04  0.18685490465E+04  0.89474778663E+03 0.  0.
         23    2    4    4    0    0 -0.61298594651E+03  0.26023954819E+03  0.90730071253E+03  0.11291171428E+04  0.90744400319E+02 0.  0.
         23    2    4    4    0    0  0.57196862044E+02  0.64681338175E+03  0.34140077839E+03  0.73943190370E+03  0.92552778888E+02 0.  0.
          3    1    3    3  502    0  0.29893637543E+02 -0.20839025356E+02 -0.13455149271E+02  0.38845020083E+02  0.00000000000E+00 0. -1.
         -4    1    3    3    0  502  0.52589544692E+03 -0.88621390458E+03 -0.41808147615E+03  0.11120850806E+04  0.00000000000E+00 0.  1.
         13    1    5    5    0    0 -0.11186455626E+01 -0.94200075334E+00 -0.19700973571E+01  0.24535722754E+01  0.00000000000E+00 0.  1.
        -13    1    5    5    0    0 -0.61186730095E+03  0.26118154894E+03  0.90927080989E+03  0.11266635705E+04  0.00000000000E+00 0. -1.
          3    1    6    6  503    0  0.76741315962E+02  0.60308185524E+03  0.31394763624E+03  0.68422223874E+03  0.00000000000E+00 0. -1.
         -3    1    6    6    0  503 -0.19544453918E+02  0.43731526509E+02  0.27453142158E+02  0.55209664952E+02  0.00000000000E+00 0.  1.
<mgrwt>
<rscale>  0 0.29068017E+04</rscale>
<asrwt>0</asrwt>
<pdfrwt beam="1">  1        3 0.29512646E+00 0.29068017E+04</pdfrwt>
<pdfrwt beam="2">  1       -4 0.16940879E+00 0.29068017E+04</pdfrwt>
<totfact> 0.17263149E-02</totfact>
</mgrwt>
</event>
<event>
12    5  0.5095719E-008  0.3386188E+04  0.7818608E-02  0.8141305E-01
          1   -1    0    0  501    0  0.00000000000E+00  0.00000000000E+00  0.22197579019E+04  0.22197579019E+04  0.00000000000E+00 0. -1.
         -2   -1    0    0    0  501 -0.00000000000E+00 -0.00000000000E+00 -0.12913875357E+04  0.12913875357E+04  0.00000000000E+00 0.  1.
        -24    2    1    2    0    0  0.13116330818E+04  0.40542024707E+03  0.12282910102E+04  0.18439156608E+04  0.81112516774E+02 0.  0.
        254    2    1    2    0    0 -0.13116330818E+04 -0.40542024707E+03 -0.29992064399E+03  0.16672297768E+04  0.89719330025E+03 0.  0.
         23    2    4    4    0    0 -0.34562384770E+03  0.27368504824E+03 -0.14902626744E+03  0.47329934681E+03  0.86279160766E+02 0.  0.
         23    2    4    4    0    0 -0.96600923411E+03 -0.67910529531E+03 -0.15089437655E+03  0.11939304300E+04  0.91339566078E+02 0.  0.
          1    1    3    3  502    0  0.94614792833E+03  0.25668049231E+03  0.89353431904E+03  0.13264555615E+04  0.00000000000E+00 0. -1.
         -2    1    3    3    0  502  0.36548515348E+03  0.14873975476E+03  0.33475669119E+03  0.51746009929E+03  0.00000000000E+00 0.  1.
         13    1    5    5    0    0 -0.63147212046E+01 -0.22511048226E+01  0.62903329327E+01  0.91930117599E+01  0.00000000000E+00 0. -1.
        -13    1    5    5    0    0 -0.33930912649E+03  0.27593615306E+03 -0.15531660037E+03  0.46410633505E+03  0.00000000000E+00 0.  1.
          1    1    6    6  503    0 -0.20019049610E+02 -0.31126168344E+02  0.24345951380E+01  0.37088110717E+02  0.00000000000E+00 0. -1.
         -1    1    6    6    0  503 -0.94599018450E+03 -0.64797912696E+03 -0.15332897169E+03  0.11568423193E+04  0.00000000000E+00 0.  1.
<mgrwt>
<rscale>  0 0.33861882E+04</rscale>
<asrwt>0</asrwt>
<pdfrwt beam="1">  1        1 0.34150121E+00 0.33861882E+04</pdfrwt>
<pdfrwt beam="2">  1       -2 0.19867501E+00 0.33861882E+04</pdfrwt>
<totfact> 0.20761338E-01</totfact>
</mgrwt>
</event>
<event>
12    5  0.5095719E-008  0.1292764E+04  0.7818608E-02  0.9035323E-01
         -2   -1    0    0    0  501 -0.00000000000E+00  0.00000000000E+00  0.75692218290E+03  0.75692218290E+03  0.00000000000E+00 0.  1.
          1   -1    0    0  501    0  0.00000000000E+00 -0.00000000000E+00 -0.55198504573E+03  0.55198504573E+03  0.00000000000E+00 0. -1.
        -24    2    1    2    0    0  0.23852745270E+03  0.74693400608E+02 -0.16587171772E+03  0.31043418149E+03  0.79884319576E+02 0.  0.
        254    2    1    2    0    0 -0.23852745270E+03 -0.74693400608E+02  0.37080885489E+03  0.99847304713E+03  0.89273443375E+03 0.  0.
         23    2    4    4    0    0 -0.19852770789E+03 -0.16905655465E+03  0.63947570038E+03  0.69669473300E+03  0.91983749287E+02 0.  0.
         23    2    4    4    0    0 -0.39999744803E+02  0.94363154042E+02 -0.26866684549E+03  0.30177831414E+03  0.91563598615E+02 0.  0.
          3    1    3    3  502    0  0.37182365786E+02 -0.14570015696E+02 -0.41081406880E+02  0.57293068290E+02  0.00000000000E+00 0. -1.
         -2    1    3    3    0  502  0.20134508691E+03  0.89263416304E+02 -0.12479031084E+03  0.25314111320E+03  0.00000000000E+00 0.  1.
         13    1    5    5    0    0 -0.10173416884E+03 -0.47557876833E+02  0.18514808765E+03  0.21654423825E+03  0.00000000000E+00 0. -1.
        -13    1    5    5    0    0 -0.96793539052E+02 -0.12149867782E+03  0.45432761273E+03  0.48015049475E+03  0.00000000000E+00 0.  1.
          1    1    6    6  503    0 -0.58512770319E+02  0.93751792121E+02 -0.25734099078E+03  0.28006700689E+03  0.00000000000E+00 0. -1.
         -1    1    6    6    0  503  0.18513025516E+02  0.61136192104E+00 -0.11325854716E+02  0.21711307243E+02  0.00000000000E+00 0.  1.
<mgrwt>
<rscale>  0 0.12927641E+04</rscale>
<asrwt>0</asrwt>
<pdfrwt beam="1">  1        1 0.84920776E-01 0.12927641E+04</pdfrwt>
<pdfrwt beam="2">  1       -2 0.11644957E+00 0.12927641E+04</pdfrwt>
<totfact> 0.18975825E+01</totfact>
</mgrwt>
</event>
<event>
12    5  0.5095719E-008  0.1489578E+04  0.7818608E-02  0.8891413E-01
          1   -1    0    0  501    0  0.00000000000E+00  0.00000000000E+00  0.12396227118E+04  0.12396227118E+04  0.00000000000E+00 0. -1.
         -2   -1    0    0    0  501 -0.00000000000E+00 -0.00000000000E+00 -0.44748356569E+03  0.44748356569E+03  0.00000000000E+00 0.  1.
        -24    2    1    2    0    0  0.30073930887E+02  0.12562623792E+03 -0.25889228422E+03  0.29955847941E+03  0.77612336546E+02 0.  0.
        254    2    1    2    0    0 -0.30073930887E+02 -0.12562623792E+03  0.10510314304E+04  0.13875477981E+04  0.89662446511E+03 0.  0.
         23    2    4    4    0    0  0.77844803749E+02 -0.41675763393E+03  0.95724440721E+03  0.10508571078E+04  0.90758289130E+02 0.  0.
         23    2    4    4    0    0 -0.10791873464E+03  0.29113139602E+03  0.93787023150E+02  0.33669069026E+03  0.90336438754E+02 0.  0.
          3    1    3    3  502    0  0.45808144423E+01  0.24645357581E+02 -0.55936231926E+01  0.25683966432E+02  0.00000000000E+00 0. -1.
         -2    1    3    3    0  502  0.25493116445E+02  0.10098088034E+03 -0.25329866103E+03  0.27387451298E+03  0.00000000000E+00 0.  1.
         13    1    5    5    0    0 -0.12547830189E+02 -0.42182835268E+02  0.60346520424E+02  0.74689638913E+02  0.00000000000E+00 0. -1.
        -13    1    5    5    0    0  0.90392633937E+02 -0.37457479867E+03  0.89689788679E+03  0.97616746893E+03  0.00000000000E+00 0.  1.
          4    1    6    6  503    0  0.15134457484E+02  0.54421323027E+02  0.13324339307E+02  0.58036800578E+02  0.00000000000E+00 0. -1.
         -4    1    6    6    0  503 -0.12305319212E+03  0.23671007299E+03  0.80462683842E+02  0.27865388969E+03  0.00000000000E+00 0.  1.
<mgrwt>
<rscale>  0 0.14895782E+04</rscale>
<asrwt>0</asrwt>
<pdfrwt beam="1">  1        1 0.19071119E+00 0.14895782E+04</pdfrwt>
<pdfrwt beam="2">  1       -2 0.68843626E-01 0.14895782E+04</pdfrwt>
<totfact> 0.16367681E+01</totfact>
</mgrwt>
</event>
<event>
12    5  0.5095719E-008  0.1322560E+04  0.7818608E-02  0.9011864E-01
         -2   -1    0    0    0  501 -0.00000000000E+00  0.00000000000E+00  0.76789493960E+03  0.76789493960E+03  0.00000000000E+00 0.  1.
          1   -1    0    0  501    0  0.00000000000E+00 -0.00000000000E+00 -0.56946740172E+03  0.56946740172E+03  0.00000000000E+00 0. -1.
        -24    2    1    2    0    0  0.31054135238E+03  0.19817917845E+02 -0.10045376274E+03  0.33687350956E+03  0.81019266762E+02 0.  0.
        254    2    1    2    0    0 -0.31054135238E+03 -0.19817917845E+02  0.29888130062E+03  0.10004888318E+04  0.90267335688E+03 0.  0.
         23    2    4    4    0    0  0.23497303582E+03 -0.11769857798E+03 -0.11765661039E+03  0.30178988753E+03  0.90381278039E+02 0.  0.
         23    2    4    4    0    0 -0.54551438820E+03  0.97880660137E+02  0.41653791102E+03  0.69869894424E+03  0.86659171487E+02 0.  0.
          1    1    3    3  502    0  0.20992489479E+03  0.44077648069E+02 -0.90784610933E+02  0.23292304758E+03  0.00000000000E+00 0. -1.
         -2    1    3    3    0  502  0.10061645759E+03 -0.24259730224E+02 -0.96691518099E+01  0.10395046198E+03  0.00000000000E+00 0.  1.
         13    1    5    5    0    0  0.79583858394E+02 -0.75993885360E+02 -0.15290360593E+02  0.11109660776E+03  0.00000000000E+00 0. -1.
        -13    1    5    5    0    0  0.15538917743E+03 -0.41704692622E+02 -0.10236624980E+03  0.19069327976E+03  0.00000000000E+00 0.  1.
          4    1    6    6  503    0 -0.26763384392E+03  0.82745167469E+02  0.17577775162E+03  0.33071506636E+03  0.00000000000E+00 0. -1.
         -4    1    6    6    0  503 -0.27788054428E+03  0.15135492668E+02  0.24076015940E+03  0.36798387788E+03  0.00000000000E+00 0.  1.
<mgrwt>
<rscale>  0 0.13225598E+04</rscale>
<asrwt>0</asrwt>
<pdfrwt beam="1">  1        1 0.87610370E-01 0.13225598E+04</pdfrwt>
<pdfrwt beam="2">  1       -2 0.11813768E+00 0.13225598E+04</pdfrwt>
<totfact> 0.17485417E+01</totfact>
</mgrwt>
</event>
<event>
12    5  0.5095719E-008  0.1657719E+04  0.7818608E-02  0.8785853E-01
         -4   -1    0    0    0  501 -0.00000000000E+00  0.00000000000E+00  0.88055257572E+03  0.88055257572E+03  0.00000000000E+00 0.  1.
          3   -1    0    0  501    0  0.00000000000E+00 -0.00000000000E+00 -0.78020095394E+03  0.78020095394E+03  0.00000000000E+00 0. -1.
        -24    2    1    2    0    0 -0.28350309200E+03  0.25882660592E+03  0.45112667681E+03  0.59768673435E+03  0.79680228353E+02 0.  0.
        254    2    1    2    0    0  0.28350309200E+03 -0.25882660592E+03 -0.35077505503E+03  0.10630667953E+04  0.92720151906E+03 0.  0.
         23    2    4    4    0    0  0.57632281311E+03 -0.35304419769E+03 -0.21253252891E+03  0.71333161963E+03  0.82968266795E+02 0.  0.
         23    2    4    4    0    0 -0.29281972111E+03  0.94217591773E+02 -0.13824252612E+03  0.34973517567E+03  0.92646389081E+02 0.  0.
          3    1    3    3  502    0 -0.49306330550E+02  0.70625194155E+02  0.14569783150E+03  0.16925392281E+03  0.00000000000E+00 0. -1.
         -2    1    3    3    0  502 -0.23419676145E+03  0.18820141176E+03  0.30542884530E+03  0.42843281154E+03  0.00000000000E+00 0.  1.
         13    1    5    5    0    0  0.39027698524E+03 -0.26175045008E+03 -0.11244814010E+03  0.48319148123E+03  0.00000000000E+00 0. -1.
        -13    1    5    5    0    0  0.18604582787E+03 -0.91293747609E+02 -0.10008438881E+03  0.23014013840E+03  0.00000000000E+00 0.  1.
          4    1    6    6  503    0 -0.88888441218E+01  0.21576036765E+02 -0.28385791236E+02  0.36746293097E+02  0.00000000000E+00 0.  1.
         -4    1    6    6    0  503 -0.28393087698E+03  0.72641555008E+02 -0.10985673488E+03  0.31298888258E+03  0.00000000000E+00 0. -1.
<mgrwt>
<rscale>  0 0.16577189E+04</rscale>
<asrwt>0</asrwt>
<pdfrwt beam="1">  1        3 0.12003092E+00 0.16577189E+04</pdfrwt>
<pdfrwt beam="2">  1       -4 0.13546963E+00 0.16577189E+04</pdfrwt>
<totfact> 0.48160105E-01</totfact>
</mgrwt>
</event>
<event>
12    5  0.5095719E-008  0.1621624E+04  0.7818608E-02  0.8807373E-01
          1   -1    0    0  501    0  0.00000000000E+00  0.00000000000E+00  0.23729826667E+04  0.23729826667E+04  0.00000000000E+00 0. -1.
         -2   -1    0    0    0  501 -0.00000000000E+00 -0.00000000000E+00 -0.27704215173E+03  0.27704215173E+03  0.00000000000E+00 0.  1.
        -24    2    1    2    0    0  0.53329067710E+03 -0.60365588403E+02  0.47156470539E+03  0.71895648681E+03  0.80512160676E+02 0.  0.
        254    2    1    2    0    0 -0.53329067710E+03  0.60365588403E+02  0.16243758096E+04  0.19310683316E+04  0.89575955486E+03 0.  0.
         23    2    4    4    0    0  0.76257918666E+02  0.32613324117E+03  0.35233685616E+03  0.49281442572E+03  0.80911289911E+02 0.  0.
         23    2    4    4    0    0 -0.60954859576E+03 -0.26576765277E+03  0.12720389534E+04  0.14382539059E+04  0.91155158838E+02 0.  0.
          3    1    3    3  502    0  0.22113515523E+03 -0.60296085288E+02  0.17490275057E+03  0.28831813494E+03  0.00000000000E+00 0. -1.
         -4    1    3    3    0  502  0.31215552187E+03 -0.69503114646E-01  0.29666195482E+03  0.43063835187E+03  0.00000000000E+00 0.  1.
         13    1    5    5    0    0  0.90672580893E+02  0.29917802021E+03  0.33245492349E+03  0.45634995437E+03  0.00000000000E+00 0.  1.
        -13    1    5    5    0    0 -0.14414662227E+02  0.26955220959E+02  0.19881932671E+02  0.36464471349E+02  0.00000000000E+00 0. -1.
          1    1    6    6  503    0 -0.17398333832E+02  0.51855197718E+01  0.55443060702E+02  0.58339734447E+02  0.00000000000E+00 0. -1.
         -1    1    6    6    0  503 -0.59215026193E+03 -0.27095317254E+03  0.12165958927E+04  0.13799141715E+04  0.00000000000E+00 0.  1.
<mgrwt>
<rscale>  0 0.16216242E+04</rscale>
<asrwt>0</asrwt>
<pdfrwt beam="1">  1        1 0.36507424E+00 0.16216242E+04</pdfrwt>
<pdfrwt beam="2">  1       -2 0.42621871E-01 0.16216242E+04</pdfrwt>
<totfact> 0.72884103E+00</totfact>
</mgrwt>
</event>
<event>
12    5  0.5095719E-008  0.3312303E+04  0.7818608E-02  0.8159772E-01
          1   -1    0    0  501    0  0.00000000000E+00  0.00000000000E+00  0.19814534735E+04  0.19814534735E+04  0.00000000000E+00 0. -1.
         -2   -1    0    0    0  501 -0.00000000000E+00 -0.00000000000E+00 -0.13842552588E+04  0.13842552588E+04  0.00000000000E+00 0.  1.
        -24    2    1    2    0    0 -0.10042925250E+04  0.15330355281E+03  0.14401150348E+04  0.17641079076E+04  0.77717059380E+02 0.  0.
        254    2    1    2    0    0  0.10042925250E+04 -0.15330355281E+03 -0.84291682007E+03  0.16016008247E+04  0.90692391146E+03 0.  0.
         23    2    4    4    0    0  0.53785096359E+03  0.27553321839E+03 -0.72943936759E+03  0.95156227220E+03  0.90480679702E+02 0.  0.
         23    2    4    4    0    0  0.46644156140E+03 -0.42883677120E+03 -0.11347745248E+03  0.65003855254E+03  0.90577486327E+02 0.  0.
          1    1    3    3  502    0 -0.58293719189E+03  0.60202774283E+02  0.87378324749E+03  0.10521108817E+04  0.00000000000E+00 0. -1.
         -2    1    3    3    0  502 -0.42135533310E+03  0.93100778527E+02  0.56633178728E+03  0.71199702596E+03  0.00000000000E+00 0.  1.
         13    1    5    5    0    0  0.44407897798E+03  0.24339409186E+03 -0.65319514684E+03  0.82650512551E+03  0.00000000000E+00 0. -1.
        -13    1    5    5    0    0  0.93771985608E+02  0.32139126538E+02 -0.76244220752E+02  0.12505714669E+03  0.00000000000E+00 0.  1.
          1    1    6    6  503    0  0.46480799113E+03 -0.40750344292E+03 -0.10488537835E+03  0.62698203101E+03  0.00000000000E+00 0. -1.
         -1    1    6    6    0  503  0.16335702686E+01 -0.21333328283E+02 -0.85920741273E+01  0.23056521534E+02  0.00000000000E+00 0.  1.
<mgrwt>
<rscale>  0 0.33123028E+04</rscale>
<asrwt>0</asrwt>
<pdfrwt beam="1">  1        1 0.30483900E+00 0.33123028E+04</pdfrwt>
<pdfrwt beam="2">  1       -2 0.21296235E+00 0.33123028E+04</pdfrwt>
<totfact> 0.24497842E-01</totfact>
</mgrwt>
</event>
<event>
12    5  0.5095719E-008  0.3063811E+04  0.7818608E-02  0.8225740E-01
          1   -1    0    0  501    0  0.00000000000E+00  0.00000000000E+00  0.15413237383E+04  0.15413237383E+04  0.00000000000E+00 0. -1.
         -2   -1    0    0    0  501 -0.00000000000E+00 -0.00000000000E+00 -0.15225448535E+04  0.15225448535E+04  0.00000000000E+00 0.  1.
        -24    2    1    2    0    0  0.40150830667E+03 -0.63607475541E+03 -0.11712334898E+04  0.13944541155E+04  0.83152737890E+02 0.  0.
        254    2    1    2    0    0 -0.40150830667E+03  0.63607475541E+03  0.11900123746E+04  0.16694144763E+04  0.89722640801E+03 0.  0.
         23    2    4    4    0    0 -0.24681536489E+03  0.18076315529E+03  0.11324310483E+04  0.11766203413E+04  0.91881475572E+02 0.  0.
         23    2    4    4    0    0 -0.15469294178E+03  0.45531160012E+03  0.57581326298E+02  0.49279413509E+03  0.91059820984E+02 0.  0.
          1    1    3    3  502    0  0.17111132735E+03 -0.31542089451E+03 -0.49499712591E+03  0.61138497013E+03  0.00000000000E+00 0. -1.
         -2    1    3    3    0  502  0.23039697932E+03 -0.32065386090E+03 -0.67623636386E+03  0.78306914535E+03  0.00000000000E+00 0.  1.
         13    1    5    5    0    0 -0.21209262288E+03  0.11488398006E+03  0.78162417251E+03  0.81799630599E+03  0.00000000000E+00 0. -1.
        -13    1    5    5    0    0 -0.34722742000E+02  0.65879175238E+02  0.35080687583E+03  0.35862403527E+03  0.00000000000E+00 0.  1.
          2    1    6    6  503    0 -0.49639609970E+02  0.10170779777E+03 -0.22334102583E+02  0.11535761416E+03  0.00000000000E+00 0.  1.
         -2    1    6    6    0  503 -0.10505333181E+03  0.35360380234E+03  0.79915428881E+02  0.37743652093E+03  0.00000000000E+00 0. -1.
<mgrwt>
<rscale>  0 0.30638110E+04</rscale>
<asrwt>0</asrwt>
<pdfrwt beam="1">  1        1 0.23712673E+00 0.30638110E+04</pdfrwt>
<pdfrwt beam="2">  1       -2 0.23423767E+00 0.30638110E+04</pdfrwt>
<totfact> 0.36630338E-01</totfact>
</mgrwt>
</event>
<event>
12    5  0.5095719E-008  0.1473737E+04  0.7818608E-02  0.8902108E-01
          1   -1    0    0  501    0  0.00000000000E+00  0.00000000000E+00  0.90043894612E+03  0.90043894612E+03  0.00000000000E+00 0. -1.
         -2   -1    0    0    0  501 -0.00000000000E+00 -0.00000000000E+00 -0.60301187018E+03  0.60301187018E+03  0.00000000000E+00 0.  1.
        -24    2    1    2    0    0  0.22741379264E+03  0.31286903551E+03 -0.14988425830E+03  0.42275306130E+03  0.81552397220E+02 0.  0.
        254    2    1    2    0    0 -0.22741379264E+03 -0.31286903551E+03  0.44731133424E+03  0.10806977550E+04  0.90455300645E+03 0.  0.
         23    2    4    4    0    0 -0.55579041981E+03 -0.12448057318E+03  0.16450877893E+03  0.59964583539E+03  0.90075444505E+02 0.  0.
         23    2    4    4    0    0  0.32837662717E+03 -0.18838846232E+03  0.28280255531E+03  0.48105191961E+03  0.90067985770E+02 0.  0.
          1    1    3    3  502    0  0.99543134165E+01  0.16804249070E+01  0.66700353985E+01  0.12099651056E+02  0.00000000000E+00 0. -1.
         -2    1    3    3    0  502  0.21745947922E+03  0.31118861060E+03 -0.15655429370E+03  0.41065341025E+03  0.00000000000E+00 0.  1.
         13    1    5    5    0    0 -0.29625818144E+02 -0.29206543171E+02  0.17095963550E+02  0.44977585911E+02  0.00000000000E+00 0. -1.
        -13    1    5    5    0    0 -0.52616460167E+03 -0.95274030013E+02  0.14741281538E+03  0.55466824948E+03  0.00000000000E+00 0.  1.
          1    1    6    6  503    0  0.50635569151E+02  0.37835051723E+01  0.28089570284E+02  0.58028439005E+02  0.00000000000E+00 0. -1.
         -1    1    6    6    0  503  0.27774105802E+03 -0.19217196750E+03  0.25471298502E+03  0.42302348061E+03  0.00000000000E+00 0.  1.
<mgrwt>
<rscale>  0 0.14737373E+04</rscale>
<asrwt>0</asrwt>
<pdfrwt beam="1">  1        1 0.13852907E+00 0.14737373E+04</pdfrwt>
<pdfrwt beam="2">  1       -2 0.92771057E-01 0.14737373E+04</pdfrwt>
<totfact> 0.15216708E+01</totfact>
</mgrwt>
</event>
<event>
12    5  0.5095719E-008  0.1522936E+04  0.7818608E-02  0.8869342E-01
         -2   -1    0    0    0  501 -0.00000000000E+00  0.00000000000E+00  0.76651525825E+03  0.76651525825E+03  0.00000000000E+00 0.  1.
          1   -1    0    0  501    0  0.00000000000E+00 -0.00000000000E+00 -0.75645441668E+03  0.75645441668E+03  0.00000000000E+00 0. -1.
        -24    2    1    2    0    0  0.42860729260E+03  0.65183983980E+02 -0.25635111140E+03  0.50990381937E+03  0.79579203634E+02 0.  0.
        254    2    1    2    0    0 -0.42860729260E+03 -0.65183983980E+02  0.26641195297E+03  0.10130658556E+04  0.87599882191E+03 0.  0.
         23    2    4    4    0    0  0.17381827642E+03 -0.27048672075E+03  0.84313318008E+02  0.34489759705E+03  0.92031285642E+02 0.  0.
         23    2    4    4    0    0 -0.60242556902E+03  0.20530273677E+03  0.18209863496E+03  0.66816825851E+03  0.90681469402E+02 0.  0.
          3    1    3    3  502    0  0.34007613535E+03  0.24900378783E+02 -0.22135664205E+03  0.40653483206E+03  0.00000000000E+00 0. -1.
         -2    1    3    3    0  502  0.88531157250E+02  0.40283605197E+02 -0.34994469348E+02  0.10336898731E+03  0.00000000000E+00 0.  1.
         13    1    5    5    0    0  0.13264086624E+03 -0.14067474909E+03  0.20277035005E+02  0.19440715670E+03  0.00000000000E+00 0. -1.
        -13    1    5    5    0    0  0.41177410186E+02 -0.12981197166E+03  0.64036283003E+02  0.15049044035E+03  0.00000000000E+00 0.  1.
          3    1    6    6  503    0 -0.29525790150E+03  0.63370563106E+02  0.11541957691E+03  0.32328738824E+03  0.00000000000E+00 0. -1.
         -3    1    6    6    0  503 -0.30716766753E+03  0.14193217367E+03  0.66679058054E+02  0.34488087027E+03  0.00000000000E+00 0.  1.
<mgrwt>
<rscale>  0 0.15229364E+04</rscale>
<asrwt>0</asrwt>
<pdfrwt beam="1">  1        1 0.11637760E+00 0.15229364E+04</pdfrwt>
<pdfrwt beam="2">  1       -2 0.11792542E+00 0.15229364E+04</pdfrwt>
<totfact> 0.11329325E+01</totfact>
</mgrwt>
</event>
<event>
12    5  0.5095719E-008  0.2345977E+04  0.7818608E-02  0.8460011E-01
         -2   -1    0    0    0  501 -0.00000000000E+00  0.00000000000E+00  0.88294906231E+03  0.88294906231E+03  0.00000000000E+00 0.  1.
          1   -1    0    0  501    0  0.00000000000E+00 -0.00000000000E+00 -0.15583025363E+04  0.15583025363E+04  0.00000000000E+00 0. -1.
        -24    2    1    2    0    0 -0.11443035520E+03 -0.61669781919E+02 -0.13220435441E+04  0.13308101599E+04  0.79743845375E+02 0.  0.
        254    2    1    2    0    0  0.11443035520E+03  0.61669781919E+02  0.64669007015E+03  0.11104414387E+04  0.89329428174E+03 0.  0.
         23    2    4    4    0    0 -0.31914913892E+03  0.15272599218E+03  0.52965015232E+03  0.64336400857E+03  0.90590077330E+02 0.  0.
         23    2    4    4    0    0  0.43357949413E+03 -0.91056210256E+02  0.11703991784E+03  0.46707743014E+03  0.90446515858E+02 0.  0.
          3    1    3    3  502    0 -0.10832791488E+02 -0.14518168855E+01 -0.49602309987E+03  0.49614350016E+03  0.00000000000E+00 0. -1.
         -4    1    3    3    0  502 -0.10359756371E+03 -0.60217965034E+02 -0.82602044427E+03  0.83466665973E+03  0.00000000000E+00 0.  1.
         13    1    5    5    0    0 -0.10449807387E+03  0.87528349780E+02  0.25106930952E+03  0.28568664239E+03  0.00000000000E+00 0. -1.
        -13    1    5    5    0    0 -0.21465106505E+03  0.65197642395E+02  0.27858084280E+03  0.35767736618E+03  0.00000000000E+00 0.  1.
          1    1    6    6  503    0  0.28121356258E+03 -0.10186480427E+03  0.68973012845E+02  0.30694426632E+03  0.00000000000E+00 0. -1.
         -1    1    6    6    0  503  0.15236593154E+03  0.10808594011E+02  0.48066904991E+02  0.16013316382E+03  0.00000000000E+00 0.  1.
<mgrwt>
<rscale>  0 0.23459768E+04</rscale>
<asrwt>0</asrwt>
<pdfrwt beam="1">  1        1 0.23973885E+00 0.23459768E+04</pdfrwt>
<pdfrwt beam="2">  1       -2 0.13583832E+00 0.23459768E+04</pdfrwt>
<totfact> 0.18301089E+00</totfact>
</mgrwt>
</event>
<event>
12    5  0.5095719E-008  0.2121754E+04  0.7818608E-02  0.8551721E-01
          1   -1    0    0  501    0  0.00000000000E+00  0.00000000000E+00  0.20050346181E+04  0.20050346181E+04  0.00000000000E+00 0. -1.
         -2   -1    0    0    0  501 -0.00000000000E+00 -0.00000000000E+00 -0.56131716576E+03  0.56131716576E+03  0.00000000000E+00 0.  1.
        -24    2    1    2    0    0 -0.73361975818E+03  0.43958525661E+03  0.79409774151E+03  0.11690604959E+04  0.68396437556E+02 0.  0.
        254    2    1    2    0    0  0.73361975818E+03 -0.43958525661E+03  0.64961971081E+03  0.13972912879E+04  0.89385906449E+03 0.  0.
         23    2    4    4    0    0 -0.12916892755E+03 -0.25509197964E+03  0.50196341845E+01  0.30067500176E+03  0.92864040619E+02 0.  0.
         23    2    4    4    0    0  0.86278868573E+03 -0.18449327697E+03  0.64460007663E+03  0.10966162861E+04  0.92822059791E+02 0.  0.
          1    1    3    3  502    0 -0.39556755403E+00  0.20598398039E+01 -0.10185291930E+01  0.23316979702E+01  0.00000000000E+00 0. -1.
         -2    1    3    3    0  502 -0.73322419063E+03  0.43752541680E+03  0.79511627070E+03  0.11667287980E+04  0.00000000000E+00 0.  1.
         13    1    5    5    0    0 -0.14354201914E+03 -0.22573070836E+03 -0.59880988568E+00  0.26750518225E+03  0.00000000000E+00 0. -1.
        -13    1    5    5    0    0  0.14373091595E+02 -0.29361271274E+02  0.56184440702E+01  0.33169819515E+02  0.00000000000E+00 0.  1.
          1    1    6    6  503    0  0.82102619190E+03 -0.15380226469E+03  0.60487931109E+03  0.10313186343E+04  0.00000000000E+00 0. -1.
         -1    1    6    6    0  503  0.41762493827E+02 -0.30691012278E+02  0.39720765540E+02  0.65297651874E+02  0.00000000000E+00 0.  1.
<mgrwt>
<rscale>  0 0.21217543E+04</rscale>
<asrwt>0</asrwt>
<pdfrwt beam="1">  1        1 0.30846686E+00 0.21217543E+04</pdfrwt>
<pdfrwt beam="2">  1       -2 0.86356487E-01 0.21217543E+04</pdfrwt>
<totfact> 0.27702149E+00</totfact>
</mgrwt>
</event>
<event>
12    5  0.5095719E-008  0.1393076E+04  0.7818608E-02  0.8958846E-01
         -2   -1    0    0    0  501 -0.00000000000E+00  0.00000000000E+00  0.25058486944E+03  0.25058486944E+03  0.00000000000E+00 0.  1.
          1   -1    0    0  501    0  0.00000000000E+00 -0.00000000000E+00 -0.19361312116E+04  0.19361312116E+04  0.00000000000E+00 0. -1.
        -24    2    1    2    0    0  0.21609350980E+03 -0.22206925820E+03 -0.10456097920E+03  0.33627978741E+03  0.78357747763E+02 0.  0.
        254    2    1    2    0    0 -0.21609350980E+03  0.22206925820E+03 -0.15809853630E+04  0.18504362937E+04  0.91026842113E+03 0.  0.
         23    2    4    4    0    0 -0.15357696300E+03  0.73638037913E+01  0.62306994735E+02  0.18942132895E+03  0.91423022799E+02 0.  0.
         23    2    4    4    0    0 -0.62516546801E+02  0.21470545441E+03 -0.16432923577E+04  0.16610149647E+04  0.92488860267E+02 0.  0.
          3    1    3    3  502    0  0.15210607690E+02 -0.85353275803E+01 -0.28478088173E+02  0.33394848542E+02  0.00000000000E+00 0. -1.
         -4    1    3    3    0  502  0.20088290211E+03 -0.21353393062E+03 -0.76082891025E+02  0.30288493887E+03  0.00000000000E+00 0.  1.
         13    1    5    5    0    0 -0.34165682441E+01 -0.19816806378E+02  0.25444716141E+02  0.32431656342E+02  0.00000000000E+00 0. -1.
        -13    1    5    5    0    0 -0.15016039476E+03  0.27180610170E+02  0.36862278594E+02  0.15698967261E+03  0.00000000000E+00 0.  1.
          3    1    6    6  503    0  0.11306428260E+02  0.10455990310E+03 -0.57658444738E+03  0.58609746085E+03  0.00000000000E+00 0. -1.
         -3    1    6    6    0  503 -0.73822975061E+02  0.11014555131E+03 -0.10667079103E+04  0.10749175039E+04  0.00000000000E+00 0.  1.
<mgrwt>
<rscale>  0 0.13930760E+04</rscale>
<asrwt>0</asrwt>
<pdfrwt beam="1">  1        1 0.29786634E+00 0.13930760E+04</pdfrwt>
<pdfrwt beam="2">  1       -2 0.38551519E-01 0.13930760E+04</pdfrwt>
<totfact> 0.17937552E+01</totfact>
</mgrwt>
</event>
<event>
12    5  0.5095719E-008  0.1679071E+04  0.7818608E-02  0.8773392E-01
         -2   -1    0    0    0  501 -0.00000000000E+00  0.00000000000E+00  0.20146574537E+04  0.20146574537E+04  0.00000000000E+00 0.  1.
          1   -1    0    0  501    0  0.00000000000E+00 -0.00000000000E+00 -0.34984599140E+03  0.34984599140E+03  0.00000000000E+00 0. -1.
        -24    2    1    2    0    0 -0.28788379922E+03  0.25110748308E+03 -0.16561905679E+02  0.39072651876E+03  0.80379511256E+02 0.  0.
        254    2    1    2    0    0  0.28788379922E+03 -0.25110748308E+03  0.16813733680E+04  0.19737769263E+04  0.96064920886E+03 0.  0.
         23    2    4    4    0    0  0.70865143099E+02  0.23357586408E+03  0.12711712831E+04  0.12977220918E+04  0.92879726535E+02 0.  0.
         23    2    4    4    0    0  0.21701865612E+03 -0.48468334717E+03  0.41020208485E+03  0.67605483458E+03  0.82276028206E+02 0.  0.
          1    1    3    3  502    0 -0.23558554946E+03  0.24062396436E+03 -0.91387071523E+01  0.33687380324E+03  0.00000000000E+00 0. -1.
         -2    1    3    3    0  502 -0.52298249766E+02  0.10483518722E+02 -0.74231985270E+01  0.53852715528E+02  0.00000000000E+00 0.  1.
         13    1    5    5    0    0 -0.22836817372E+01 -0.22184846213E+01  0.42031462947E+00  0.32114701741E+01  0.00000000000E+00 0. -1.
        -13    1    5    5    0    0  0.73148824836E+02  0.23579434871E+03  0.12707509685E+04  0.12945106216E+04  0.00000000000E+00 0.  1.
          3    1    6    6  503    0  0.82743314309E+02 -0.12897093800E+03  0.82058732501E+02  0.17382058133E+03  0.00000000000E+00 0. -1.
         -3    1    6    6    0  503  0.13427534182E+03 -0.35571240916E+03  0.32814335235E+03  0.50223425326E+03  0.00000000000E+00 0.  1.
<mgrwt>
<rscale>  0 0.16790710E+04</rscale>
<asrwt>0</asrwt>
<pdfrwt beam="1">  1        1 0.53822461E-01 0.16790710E+04</pdfrwt>
<pdfrwt beam="2">  1       -2 0.30994729E+00 0.16790710E+04</pdfrwt>
<totfact> 0.16536866E+00</totfact>
</mgrwt>
</event>
<event>
12    5  0.5095719E-008  0.2527227E+04  0.7818608E-02  0.8393349E-01
         -2   -1    0    0    0  501 -0.00000000000E+00  0.00000000000E+00  0.71912140789E+03  0.71912140789E+03  0.00000000000E+00 0.  1.
          1   -1    0    0  501    0  0.00000000000E+00 -0.00000000000E+00 -0.22203756602E+04  0.22203756602E+04  0.00000000000E+00 0. -1.
        -24    2    1    2    0    0 -0.83235841913E+03 -0.50712586994E+03 -0.12526430784E+04  0.15891457601E+04  0.79198352981E+02 0.  0.
        254    2    1    2    0    0  0.83235841913E+03  0.50712586994E+03 -0.24861117389E+03  0.13503513080E+04  0.90091284447E+03 0.  0.
         23    2    4    4    0    0 -0.10807741942E+03  0.29826966560E+03 -0.18848935151E+03  0.38076737195E+03  0.93861780856E+02 0.  0.
         23    2    4    4    0    0  0.94043583855E+03  0.20885620434E+03 -0.60121822382E+02  0.96958393603E+03  0.91858015237E+02 0.  0.
          1    1    3    3  502    0 -0.81091325310E+03 -0.48739125108E+03 -0.12322893258E+04  0.15535982486E+04  0.00000000000E+00 0. -1.
         -2    1    3    3    0  502 -0.21445166031E+02 -0.19734618855E+02 -0.20353752681E+02  0.35547511525E+02  0.00000000000E+00 0.  1.
         13    1    5    5    0    0  0.20284378000E+01  0.32223940984E+02  0.66183138507E+01  0.32959050512E+02  0.00000000000E+00 0. -1.
        -13    1    5    5    0    0 -0.11010585722E+03  0.26604572461E+03 -0.19510766536E+03  0.34780832144E+03  0.00000000000E+00 0.  1.
          3    1    6    6  503    0  0.51136368825E+03  0.15977777431E+03 -0.40357553054E+02  0.53726203189E+03  0.00000000000E+00 0. -1.
         -3    1    6    6    0  503  0.42907215030E+03  0.49078430032E+02 -0.19764269328E+02  0.43232190414E+03  0.00000000000E+00 0.  1.
<mgrwt>
<rscale>  0 0.25272275E+04</rscale>
<asrwt>0</asrwt>
<pdfrwt beam="1">  1        1 0.34159626E+00 0.25272275E+04</pdfrwt>
<pdfrwt beam="2">  1       -2 0.11063406E+00 0.25272275E+04</pdfrwt>
<totfact> 0.10648446E+00</totfact>
</mgrwt>
</event>
<event>
12    5  0.5095719E-008  0.1886035E+04  0.7818608E-02  0.8661839E-01
         -2   -1    0    0    0  501 -0.00000000000E+00  0.00000000000E+00  0.29244658286E+04  0.29244658286E+04  0.00000000000E+00 0.  1.
          3   -1    0    0  501    0  0.00000000000E+00 -0.00000000000E+00 -0.30408343782E+03  0.30408343782E+03  0.00000000000E+00 0. -1.
        -24    2    1    2    0    0 -0.56176626932E+03  0.39128430653E+03  0.13201670632E+04  0.14891363354E+04  0.77467417886E+02 0.  0.
        254    2    1    2    0    0  0.56176626932E+03 -0.39128430653E+03  0.13002153275E+04  0.17394129310E+04  0.93075920438E+03 0.  0.
         23    2    4    4    0    0  0.69205882370E+03  0.36765932027E+02  0.81948381260E+03  0.10771427385E+04  0.91572980726E+02 0.  0.
         23    2    4    4    0    0 -0.13029255438E+03 -0.42805023856E+03  0.48073151494E+03  0.66227019245E+03  0.85415817590E+02 0.  0.
          3    1    3    3  502    0 -0.35719082634E+02  0.87811057681E+01  0.49378381638E+02  0.61572601504E+02  0.00000000000E+00 0. -1.
         -4    1    3    3    0  502 -0.52604718669E+03  0.38250320076E+03  0.12707886816E+04  0.14275637339E+04  0.00000000000E+00 0.  1.
         13    1    5    5    0    0  0.15332797980E+03 -0.10639336257E+02  0.23539544369E+03  0.28112929370E+03  0.00000000000E+00 0. -1.
        -13    1    5    5    0    0  0.53873084389E+03  0.47405268283E+02  0.58408836891E+03  0.79601344481E+03  0.00000000000E+00 0.  1.
          2    1    6    6  503    0 -0.42977087357E+02 -0.43481941094E+02  0.62057984947E+02  0.87114308438E+02  0.00000000000E+00 0. -1.
         -2    1    6    6    0  503 -0.87315467018E+02 -0.38456829746E+03  0.41867352999E+03  0.57515588401E+03  0.00000000000E+00 0.  1.
<mgrwt>
<rscale>  0 0.18860346E+04</rscale>
<asrwt>0</asrwt>
<pdfrwt beam="1">  1        3 0.46782069E-01 0.18860346E+04</pdfrwt>
<pdfrwt beam="2">  1       -2 0.44991780E+00 0.18860346E+04</pdfrwt>
<totfact> 0.62847948E-02</totfact>
</mgrwt>
</event>
<event>
12    5  0.5095719E-008  0.1432058E+04  0.7818608E-02  0.8930935E-01
         -2   -1    0    0    0  501 -0.00000000000E+00  0.00000000000E+00  0.73294512898E+03  0.73294512898E+03  0.00000000000E+00 0.  1.
          1   -1    0    0  501    0  0.00000000000E+00 -0.00000000000E+00 -0.69950360814E+03  0.69950360814E+03  0.00000000000E+00 0. -1.
        -24    2    1    2    0    0  0.40365505073E+03 -0.74105982906E+02 -0.64873071910E+02  0.42336504640E+03  0.81242540435E+02 0.  0.
        254    2    1    2    0    0 -0.40365505073E+03  0.74105982906E+02  0.98314592745E+02  0.10090836907E+04  0.91659971582E+03 0.  0.
         23    2    4    4    0    0 -0.46816816902E+03 -0.56656965433E+02 -0.30554524727E+03  0.56988085995E+03  0.94946564928E+02 0.  0.
         23    2    4    4    0    0  0.64513118296E+02  0.13076294834E+03  0.40385984001E+03  0.43920283077E+03  0.92387580812E+02 0.  0.
          3    1    3    3  502    0  0.38009532550E+03 -0.77479265938E+02 -0.78736341087E+02  0.39582180906E+03  0.00000000000E+00 0. -1.
         -4    1    3    3    0  502  0.23559725225E+02  0.33732830317E+01  0.13863269177E+02  0.27543237343E+02  0.00000000000E+00 0.  1.
         13    1    5    5    0    0 -0.31575963355E+03 -0.38789149281E+02 -0.25688136493E+03  0.40889702852E+03  0.00000000000E+00 0.  1.
        -13    1    5    5    0    0 -0.15240853547E+03 -0.17867816153E+02 -0.48663882340E+02  0.16098383144E+03  0.00000000000E+00 0. -1.
          4    1    6    6  503    0  0.52180978686E+02  0.51917399000E+02  0.94891095969E+02  0.12009409207E+03  0.00000000000E+00 0. -1.
         -4    1    6    6    0  503  0.12332139610E+02  0.78845549340E+02  0.30896874404E+03  0.31910873870E+03  0.00000000000E+00 0.  1.
<mgrwt>
<rscale>  0 0.14320583E+04</rscale>
<asrwt>0</asrwt>
<pdfrwt beam="1">  1        1 0.10761594E+00 0.14320583E+04</pdfrwt>
<pdfrwt beam="2">  1       -2 0.11276079E+00 0.14320583E+04</pdfrwt>
<totfact> 0.14367084E+01</totfact>
</mgrwt>
</event>
<event>
12    5  0.5095719E-008  0.1188466E+04  0.7818608E-02  0.9123013E-01
         -2   -1    0    0    0  501 -0.00000000000E+00  0.00000000000E+00  0.50076998847E+03  0.50076998847E+03  0.00000000000E+00 0.  1.
          1   -1    0    0  501    0  0.00000000000E+00 -0.00000000000E+00 -0.70513965211E+03  0.70513965211E+03  0.00000000000E+00 0. -1.
        -24    2    1    2    0    0  0.40112122707E+02 -0.84008853631E+02  0.17165158036E+03  0.21125893255E+03  0.80620107100E+02 0.  0.
        254    2    1    2    0    0 -0.40112122707E+02  0.84008853631E+02 -0.37602124399E+03  0.99465070802E+03  0.91611766993E+03 0.  0.
         23    2    4    4    0    0 -0.24405438131E+03  0.38991273276E+03 -0.12565848503E+02  0.46943681853E+03  0.92836123549E+02 0.  0.
         23    2    4    4    0    0  0.20394225860E+03 -0.30590387913E+03 -0.36345539549E+03  0.52521388949E+03  0.92629245345E+02 0.  0.
          1    1    3    3  502    0  0.25989840947E+02 -0.21821239349E+01  0.72389011998E+01  0.27067234581E+02  0.00000000000E+00 0. -1.
         -2    1    3    3    0  502  0.14122281761E+02 -0.81826729696E+02  0.16441267916E+03  0.18419169797E+03  0.00000000000E+00 0.  1.
         13    1    5    5    0    0 -0.71973164952E+02  0.16086534793E+03 -0.42812112365E+02  0.18135786060E+03  0.00000000000E+00 0. -1.
        -13    1    5    5    0    0 -0.17208121636E+03  0.22904738484E+03  0.30246263862E+02  0.28807895793E+03  0.00000000000E+00 0.  1.
          1    1    6    6  503    0  0.78851652986E+01  0.65610556334E+01 -0.10289660042E+02  0.14529294084E+02  0.00000000000E+00 0. -1.
         -1    1    6    6    0  503  0.19605709330E+03 -0.31246493476E+03 -0.35316573545E+03  0.51068459541E+03  0.00000000000E+00 0.  1.
<mgrwt>
<rscale>  0 0.11884659E+04</rscale>
<asrwt>0</asrwt>
<pdfrwt beam="1">  1        1 0.10848302E+00 0.11884659E+04</pdfrwt>
<pdfrwt beam="2">  1       -2 0.77041537E-01 0.11884659E+04</pdfrwt>
<totfact> 0.35163172E+01</totfact>
</mgrwt>
</event>
<event>
12    5  0.5095719E-008  0.1774327E+04  0.7818608E-02  0.8720072E-01
         -2   -1    0    0    0  501 -0.00000000000E+00  0.00000000000E+00  0.36441152585E+03  0.36441152585E+03  0.00000000000E+00 0.  1.
          1   -1    0    0  501    0  0.00000000000E+00 -0.00000000000E+00 -0.21598091547E+04  0.21598091547E+04  0.00000000000E+00 0. -1.
        -24    2    1    2    0    0 -0.63249616210E+02  0.74199996297E+02 -0.15983045975E+04  0.16033175553E+04  0.80891552326E+02 0.  0.
        254    2    1    2    0    0  0.63249616210E+02 -0.74199996297E+02 -0.19709303134E+03  0.92090312528E+03  0.89426548058E+03 0.  0.
         23    2    4    4    0    0 -0.12304356125E+03  0.15565018956E+03 -0.46349996088E+03  0.51261286175E+03  0.92590673473E+02 0.  0.
         23    2    4    4    0    0  0.18629317746E+03 -0.22985018586E+03  0.26640692954E+03  0.40829026354E+03  0.90509840819E+02 0.  0.
          3    1    3    3  502    0 -0.63720897985E+02  0.12911560999E+02 -0.76049183761E+03  0.76326594075E+03  0.00000000000E+00 0. -1.
         -4    1    3    3    0  502  0.47128177466E+00  0.61288435299E+02 -0.83781275993E+03  0.84005161455E+03  0.00000000000E+00 0.  1.
         13    1    5    5    0    0 -0.52559517720E+02  0.98244145154E+02 -0.34936000185E+03  0.36669718550E+03  0.00000000000E+00 0.  1.
        -13    1    5    5    0    0 -0.70484043526E+02  0.57406044410E+02 -0.11413995903E+03  0.14591567624E+03  0.00000000000E+00 0. -1.
          2    1    6    6  503    0  0.10816444848E+03 -0.15511149008E+03  0.11195925274E+03  0.21975895100E+03  0.00000000000E+00 0. -1.
         -2    1    6    6    0  503  0.78128728974E+02 -0.74738695780E+02  0.15444767680E+03  0.18853131254E+03  0.00000000000E+00 0.  1.
<mgrwt>
<rscale>  0 0.17743273E+04</rscale>
<asrwt>0</asrwt>
<pdfrwt beam="1">  1        1 0.33227833E+00 0.17743273E+04</pdfrwt>
<pdfrwt beam="2">  1       -2 0.56063311E-01 0.17743273E+04</pdfrwt>
<totfact> 0.57584723E+00</totfact>
</mgrwt>
</event>
<event>
12    5  0.5095719E-008  0.1491535E+04  0.7818608E-02  0.8890102E-01
         -2   -1    0    0    0  501 -0.00000000000E+00  0.00000000000E+00  0.50621718058E+03  0.50621718058E+03  0.00000000000E+00 0.  1.
          1   -1    0    0  501    0  0.00000000000E+00 -0.00000000000E+00 -0.10986763678E+04  0.10986763678E+04  0.00000000000E+00 0. -1.
        -24    2    1    2    0    0  0.35743818816E+02 -0.97090357365E+02  0.29225240999E+03  0.32015102719E+03  0.79881480874E+02 0.  0.
        254    2    1    2    0    0 -0.35743818816E+02  0.97090357365E+02 -0.88471159718E+03  0.12847425212E+04  0.92582102882E+03 0.  0.
         23    2    4    4    0    0  0.24624951601E+03  0.23351244543E+03 -0.89142547547E+03  0.95835762880E+03  0.92968166877E+02 0.  0.
         23    2    4    4    0    0 -0.28199333483E+03 -0.13642208807E+03  0.67138782894E+01  0.32638489235E+03  0.91382683228E+02 0.  0.
          1    1    3    3  502    0  0.53863164637E+02 -0.36881507583E+02  0.18024594437E+03  0.19170312091E+03  0.00000000000E+00 0. -1.
         -2    1    3    3    0  502 -0.18119345821E+02 -0.60208849782E+02  0.11200646562E+03  0.12844790628E+03  0.00000000000E+00 0.  1.
         13    1    5    5    0    0  0.14491595658E+03  0.19556695410E+03 -0.63365943603E+03  0.67880140606E+03  0.00000000000E+00 0. -1.
        -13    1    5    5    0    0  0.10133355944E+03  0.37945491332E+02 -0.25776603944E+03  0.27955622274E+03  0.00000000000E+00 0.  1.
          4    1    6    6  503    0 -0.13666286142E+03 -0.99987433081E+02  0.37474699946E+02  0.17343176641E+03  0.00000000000E+00 0. -1.
         -4    1    6    6    0  503 -0.14533047341E+03 -0.36434654987E+02 -0.30760821657E+02  0.15295312594E+03  0.00000000000E+00 0.  1.
<mgrwt>
<rscale>  0 0.14915346E+04</rscale>
<asrwt>0</asrwt>
<pdfrwt beam="1">  1        1 0.16902713E+00 0.14915346E+04</pdfrwt>
<pdfrwt beam="2">  1       -2 0.77879567E-01 0.14915346E+04</pdfrwt>
<totfact> 0.15837790E+01</totfact>
</mgrwt>
</event>
<event>
12    5  0.5095719E-008  0.2016389E+04  0.7818608E-02  0.8598996E-01
          1   -1    0    0  501    0  0.00000000000E+00  0.00000000000E+00  0.79406751999E+03  0.79406751999E+03  0.00000000000E+00 0. -1.
         -2   -1    0    0    0  501 -0.00000000000E+00 -0.00000000000E+00 -0.12800625012E+04  0.12800625012E+04  0.00000000000E+00 0.  1.
        -24    2    1    2    0    0 -0.61395462766E+03  0.36391510666E+03  0.19525700329E+03  0.74414089524E+03  0.79030911331E+02 0.  0.
        254    2    1    2    0    0  0.61395462766E+03 -0.36391510666E+03 -0.68125198452E+03  0.13299891260E+04  0.89184769951E+03 0.  0.
         23    2    4    4    0    0  0.17874472289E+03  0.28250783106E+03 -0.13963551272E+03  0.37593242378E+03  0.10033324609E+03 0.  0.
         23    2    4    4    0    0  0.43520990478E+03 -0.64642293772E+03 -0.54161647179E+03  0.95405670219E+03  0.98007718313E+02 0.  0.
          3    1    3    3  502    0 -0.60761011028E+03  0.34640333056E+03  0.18922655634E+03  0.72456331895E+03  0.00000000000E+00 0. -1.
         -4    1    3    3    0  502 -0.63445173800E+01  0.17511776098E+02  0.60304469431E+01  0.19577576285E+02  0.00000000000E+00 0.  1.
         13    1    5    5    0    0  0.13997082590E+03  0.22921563628E+03 -0.64928810593E+02  0.27631031552E+03  0.00000000000E+00 0. -1.
        -13    1    5    5    0    0  0.38773896985E+02  0.53292194777E+02 -0.74706702130E+02  0.99622108262E+02  0.00000000000E+00 0.  1.
          2    1    6    6  503    0  0.80885815774E+02 -0.11536971082E+03 -0.14654940987E+03  0.20329637208E+03  0.00000000000E+00 0. -1.
         -2    1    6    6    0  503  0.35432408900E+03 -0.53105322690E+03 -0.39506706193E+03  0.75076033011E+03  0.00000000000E+00 0.  1.
<mgrwt>
<rscale>  0 0.20163889E+04</rscale>
<asrwt>0</asrwt>
<pdfrwt beam="1">  1        1 0.12216423E+00 0.20163889E+04</pdfrwt>
<pdfrwt beam="2">  1       -2 0.19693269E+00 0.20163889E+04</pdfrwt>
<totfact> 0.25293723E+00</totfact>
</mgrwt>
</event>
<event>
12    5  0.5095719E-008  0.1104636E+04  0.7818608E-02  0.9200685E-01
          3   -1    0    0  501    0  0.00000000000E+00  0.00000000000E+00  0.22740699886E+03  0.22740699886E+03  0.00000000000E+00 0. -1.
         -4   -1    0    0    0  501 -0.00000000000E+00 -0.00000000000E+00 -0.13414514461E+04  0.13414514461E+04  0.00000000000E+00 0.  1.
        -24    2    1    2    0    0 -0.21127749799E+02 -0.14660581291E+03 -0.72834910027E+02  0.18454710016E+03  0.82541273716E+02 0.  0.
        254    2    1    2    0    0  0.21127749799E+02  0.14660581291E+03 -0.10412095372E+04  0.13843113448E+04  0.90014496207E+03 0.  0.
         23    2    4    4    0    0 -0.25704887321E+02  0.18135820855E+03  0.10723862151E+03  0.23068939557E+03  0.90365558960E+02 0.  0.
         23    2    4    4    0    0  0.46832637119E+02 -0.34752395637E+02 -0.11484481587E+04  0.11536219492E+04  0.92246428407E+02 0.  0.
          1    1    3    3  502    0  0.42783199148E+01 -0.11759394007E+03 -0.20350956371E+02  0.11941859230E+03  0.00000000000E+00 0. -1.
         -2    1    3    3    0  502 -0.25406069713E+02 -0.29011872845E+02 -0.52483953656E+02  0.65128507856E+02  0.00000000000E+00 0.  1.
         13    1    5    5    0    0 -0.43785808153E+02  0.13609856615E+03  0.11214634553E+03  0.18170530955E+03  0.00000000000E+00 0.  1.
        -13    1    5    5    0    0  0.18080920832E+02  0.45259642398E+02 -0.49077240211E+01  0.48984086019E+02  0.00000000000E+00 0. -1.
          1    1    6    6  503    0 -0.13670596438E+02 -0.16183025572E+01 -0.29547821626E+02  0.32597206521E+02  0.00000000000E+00 0. -1.
         -1    1    6    6    0  503  0.60503233557E+02 -0.33134093080E+02 -0.11189003371E+04  0.11210247427E+04  0.00000000000E+00 0.  1.
<mgrwt>
<rscale>  0 0.11046365E+04</rscale>
<asrwt>0</asrwt>
<pdfrwt beam="1">  1        3 0.34985692E-01 0.11046365E+04</pdfrwt>
<pdfrwt beam="2">  1       -4 0.20637714E+00 0.11046365E+04</pdfrwt>
<totfact> 0.21933899E+00</totfact>
</mgrwt>
</event>
<event>
12    5  0.5095719E-008  0.1469453E+04  0.7818608E-02  0.8905024E-01
          1   -1    0    0  501    0  0.00000000000E+00  0.00000000000E+00  0.15524948758E+04  0.15524948758E+04  0.00000000000E+00 0. -1.
         -2   -1    0    0    0  501 -0.00000000000E+00 -0.00000000000E+00 -0.34771327419E+03  0.34771327419E+03  0.00000000000E+00 0.  1.
        -24    2    1    2    0    0  0.14757765705E+03  0.26998997103E+03  0.83989915384E+03  0.89826596658E+03  0.82325019113E+02 0.  0.
        254    2    1    2    0    0 -0.14757765705E+03 -0.26998997103E+03  0.36488244780E+03  0.10019421834E+04  0.88095129770E+03 0.  0.
         23    2    4    4    0    0  0.19623667349E+03  0.21851463452E+03  0.22200737398E+03  0.38087652584E+03  0.97581639229E+02 0.  0.
         23    2    4    4    0    0 -0.34381433054E+03 -0.48850460555E+03  0.14287507382E+03  0.62106565759E+03  0.92001199972E+02 0.  0.
          1    1    3    3  502    0  0.14611961776E+03  0.21532720694E+03  0.73937172554E+03  0.78382861473E+03  0.00000000000E+00 0. -1.
         -2    1    3    3    0  502  0.14580392888E+01  0.54662764098E+02  0.10052742830E+03  0.11443735185E+03  0.00000000000E+00 0.  1.
         13    1    5    5    0    0  0.49795722341E+01  0.45644976146E+02  0.63080525174E+02  0.78021872851E+02  0.00000000000E+00 0. -1.
        -13    1    5    5    0    0  0.19125710126E+03  0.17286965837E+03  0.15892684881E+03  0.30285465299E+03  0.00000000000E+00 0.  1.
          2    1    6    6  503    0 -0.22217641282E+03 -0.24223397343E+03  0.95963235683E+02  0.34241582746E+03  0.00000000000E+00 0.  1.
         -2    1    6    6    0  503 -0.12163791772E+03 -0.24627063212E+03  0.46911838134E+02  0.27864983013E+03  0.00000000000E+00 0. -1.
<mgrwt>
<rscale>  0 0.14694531E+04</rscale>
<asrwt>0</asrwt>
<pdfrwt beam="1">  1        1 0.23884536E+00 0.14694531E+04</pdfrwt>
<pdfrwt beam="2">  1       -2 0.53494351E-01 0.14694531E+04</pdfrwt>
<totfact> 0.16862073E+01</totfact>
</mgrwt>
</event>
<event>
12    5  0.5095719E-008  0.2010352E+04  0.7818608E-02  0.8601796E-01
          1   -1    0    0  501    0  0.00000000000E+00  0.00000000000E+00  0.17016916055E+04  0.17016916055E+04  0.00000000000E+00 0. -1.
         -2   -1    0    0    0  501 -0.00000000000E+00 -0.00000000000E+00 -0.59374982544E+03  0.59374982544E+03  0.00000000000E+00 0.  1.
        -24    2    1    2    0    0  0.42554542176E+03  0.19087812152E+03 -0.29947225568E+03  0.56097642140E+03  0.86530631463E+02 0.  0.
        254    2    1    2    0    0 -0.42554542176E+03 -0.19087812152E+03  0.14074140357E+04  0.17344650095E+04  0.90001735432E+03 0.  0.
         23    2    4    4    0    0 -0.23102378157E+03  0.23880135165E+03  0.11274843582E+04  0.11789138859E+04  0.90658145231E+02 0.  0.
         23    2    4    4    0    0 -0.19452164019E+03 -0.42967947318E+03  0.27992967757E+03  0.55555112362E+03  0.88392920564E+02 0.  0.
          3    1    3    3  502    0  0.11524580872E+03  0.95026129154E+02 -0.10225580811E+03  0.18101881654E+03  0.00000000000E+00 0. -1.
         -4    1    3    3    0  502  0.31029961304E+03  0.95851992370E+02 -0.19721644757E+03  0.37995760486E+03  0.00000000000E+00 0.  1.
         13    1    5    5    0    0 -0.21138304178E+03  0.21550187308E+03  0.10876317687E+04  0.11287456365E+04  0.00000000000E+00 0. -1.
        -13    1    5    5    0    0 -0.19640739792E+02  0.23299478570E+02  0.39852589451E+02  0.50168249393E+02  0.00000000000E+00 0.  1.
          3    1    6    6  503    0 -0.11000870660E+03 -0.30399115089E+03  0.15173164599E+03  0.35712046671E+03  0.00000000000E+00 0. -1.
         -3    1    6    6    0  503 -0.84512933592E+02 -0.12568832228E+03  0.12819803158E+03  0.19843065692E+03  0.00000000000E+00 0.  1.
<mgrwt>
<rscale>  0 0.20103523E+04</rscale>
<asrwt>0</asrwt>
<pdfrwt beam="1">  1        1 0.26179871E+00 0.20103523E+04</pdfrwt>
<pdfrwt beam="2">  1       -2 0.91346127E-01 0.20103523E+04</pdfrwt>
<totfact> 0.39495227E+00</totfact>
</mgrwt>
</event>
<event>
12    5  0.5095719E-008  0.1067674E+04  0.7818608E-02  0.9237285E-01
         -2   -1    0    0    0  501 -0.00000000000E+00  0.00000000000E+00  0.68209377722E+03  0.68209377722E+03  0.00000000000E+00 0.  1.
          3   -1    0    0  501    0  0.00000000000E+00 -0.00000000000E+00 -0.41780426263E+03  0.41780426263E+03  0.00000000000E+00 0. -1.
        -24    2    1    2    0    0  0.86351759571E+02 -0.15880876807E+02 -0.66481410701E+02  0.13600541252E+03  0.79805173001E+02 0.  0.
        254    2    1    2    0    0 -0.86351759571E+02  0.15880876807E+02  0.33077092529E+03  0.96389262733E+03  0.90109420339E+03 0.  0.
         23    2    4    4    0    0 -0.26259227554E+03  0.18877893799E+03 -0.18577344122E+03  0.38414517358E+03  0.91997566912E+02 0.  0.
         23    2    4    4    0    0  0.17624051597E+03 -0.17289806118E+03  0.51654436651E+03  0.57974745375E+03  0.91293858122E+02 0.  0.
          1    1    3    3  502    0  0.78631222117E+02 -0.84090388145E+01 -0.84055304782E+02  0.11540743168E+03  0.00000000000E+00 0. -1.
         -2    1    3    3    0  502  0.77205374535E+01 -0.74718379921E+01  0.17573894081E+02  0.20597980841E+02  0.00000000000E+00 0.  1.
         13    1    5    5    0    0 -0.24381788095E+03  0.19453095163E+03 -0.15670020777E+03  0.34906217974E+03  0.00000000000E+00 0. -1.
        -13    1    5    5    0    0 -0.18774394594E+02 -0.57520136385E+01 -0.29073233448E+02  0.35082993835E+02  0.00000000000E+00 0.  1.
          4    1    6    6  503    0  0.14842452423E+03 -0.18070594605E+03  0.47008755231E+03  0.52503979389E+03  0.00000000000E+00 0. -1.
         -4    1    6    6    0  503  0.27815991736E+02  0.78078848620E+01  0.46456814197E+02  0.54707659862E+02  0.00000000000E+00 0.  1.
<mgrwt>
<rscale>  0 0.10676735E+04</rscale>
<asrwt>0</asrwt>
<pdfrwt beam="1">  1        3 0.64277579E-01 0.10676735E+04</pdfrwt>
<pdfrwt beam="2">  1       -2 0.10493750E+00 0.10676735E+04</pdfrwt>
<totfact> 0.71675921E+00</totfact>
</mgrwt>
</event>
<event>
12    5  0.5095719E-008  0.1305218E+04  0.7818608E-02  0.9025437E-01
          1   -1    0    0  501    0  0.00000000000E+00  0.00000000000E+00  0.16695781144E+04  0.16695781144E+04  0.00000000000E+00 0. -1.
         -2   -1    0    0    0  501 -0.00000000000E+00 -0.00000000000E+00 -0.25509347478E+03  0.25509347478E+03  0.00000000000E+00 0.  1.
        -24    2    1    2    0    0 -0.29973405935E+03  0.73365620595E+02  0.61908590077E+03  0.69976459002E+03  0.10573603118E+03 0.  0.
        254    2    1    2    0    0  0.29973405935E+03 -0.73365620595E+02  0.79539873886E+03  0.12249069992E+04  0.87892831461E+03 0.  0.
         23    2    4    4    0    0  0.26852499431E+03 -0.55182136357E+02  0.97645182865E+03  0.10186086734E+04  0.94629356836E+02 0.  0.
         23    2    4    4    0    0  0.31209065043E+02 -0.18183484238E+02 -0.18105308979E+03  0.20629832574E+03  0.92055054407E+02 0.  0.
          1    1    3    3  502    0 -0.29983249642E+03  0.87242690701E+02  0.59513858703E+03  0.67208686251E+03  0.00000000000E+00 0. -1.
         -2    1    3    3    0  502  0.98437066244E-01 -0.13877070105E+02  0.23947313742E+02  0.27677727508E+02  0.00000000000E+00 0.  1.
         13    1    5    5    0    0  0.11867753319E+03 -0.61755495557E+02  0.35665813868E+03  0.38092404230E+03  0.00000000000E+00 0. -1.
        -13    1    5    5    0    0  0.14984746112E+03  0.65733591996E+01  0.61979368998E+03  0.63768463114E+03  0.00000000000E+00 0.  1.
          1    1    6    6  503    0  0.37707412200E+02  0.12067614517E+02 -0.16819484429E+03  0.17279172984E+03  0.00000000000E+00 0. -1.
         -1    1    6    6    0  503 -0.64983471571E+01 -0.30251098755E+02 -0.12858245498E+02  0.33506595903E+02  0.00000000000E+00 0.  1.
<mgrwt>
<rscale>  0 0.13052180E+04</rscale>
<asrwt>0</asrwt>
<pdfrwt beam="1">  1        1 0.25685817E+00 0.13052180E+04</pdfrwt>
<pdfrwt beam="2">  1       -2 0.39245151E-01 0.13052180E+04</pdfrwt>
<totfact> 0.26460644E+01</totfact>
</mgrwt>
</event>
<event>
12    5  0.5095719E-008  0.1183545E+04  0.7818608E-02  0.9127383E-01
         -2   -1    0    0    0  501 -0.00000000000E+00  0.00000000000E+00  0.21716940551E+03  0.21716940551E+03  0.00000000000E+00 0.  1.
          1   -1    0    0  501    0  0.00000000000E+00 -0.00000000000E+00 -0.16125418678E+04  0.16125418678E+04  0.00000000000E+00 0. -1.
        -24    2    1    2    0    0  0.16920732689E+03  0.13742977627E+03 -0.17314673717E+03  0.28947008134E+03  0.79341493036E+02 0.  0.
        254    2    1    2    0    0 -0.16920732689E+03 -0.13742977627E+03 -0.12222257251E+04  0.15402411920E+04  0.91158605925E+03 0.  0.
         23    2    4    4    0    0 -0.42373973106E+03 -0.31434998809E+03 -0.10360149468E+04  0.11669969412E+04  0.10091390440E+03 0.  0.
         23    2    4    4    0    0  0.25453240416E+03  0.17692021182E+03 -0.18621077828E+03  0.37324425074E+03  0.92462482341E+02 0.  0.
          1    1    3    3  502    0  0.43187919572E+02  0.67621736955E+02 -0.99044165469E+02  0.12746624031E+03  0.00000000000E+00 0. -1.
         -2    1    3    3    0  502  0.12601940732E+03  0.69808039315E+02 -0.74102571701E+02  0.16200384103E+03  0.00000000000E+00 0.  1.
         13    1    5    5    0    0 -0.13721038846E+03 -0.12542564346E+03 -0.46491502420E+03  0.50070376717E+03  0.00000000000E+00 0. -1.
        -13    1    5    5    0    0 -0.28652934260E+03 -0.18892434463E+03 -0.57109992261E+03  0.66629317404E+03  0.00000000000E+00 0.  1.
          2    1    6    6  503    0  0.15618573904E+02  0.70877465654E+01  0.10612009588E+02  0.20169054258E+02  0.00000000000E+00 0. -1.
         -2    1    6    6    0  503  0.23891383026E+03  0.16983246525E+03 -0.19682278787E+03  0.35307519648E+03  0.00000000000E+00 0.  1.
<mgrwt>
<rscale>  0 0.11835451E+04</rscale>
<asrwt>0</asrwt>
<pdfrwt beam="1">  1        1 0.24808336E+00 0.11835451E+04</pdfrwt>
<pdfrwt beam="2">  1       -2 0.33410678E-01 0.11835451E+04</pdfrwt>
<totfact> 0.39828021E+01</totfact>
</mgrwt>
</event>
<event>
12    5  0.5095719E-008  0.2196542E+04  0.7818608E-02  0.8519869E-01
         -2   -1    0    0    0  501 -0.00000000000E+00  0.00000000000E+00  0.56225895014E+03  0.56225895014E+03  0.00000000000E+00 0.  1.
          1   -1    0    0  501    0  0.00000000000E+00 -0.00000000000E+00 -0.21452738090E+04  0.21452738090E+04  0.00000000000E+00 0. -1.
        -24    2    1    2    0    0 -0.86266880172E+03  0.26498871896E+03 -0.58875097573E+03  0.10806711986E+04  0.82498759514E+02 0.  0.
        254    2    1    2    0    0  0.86266880172E+03 -0.26498871896E+03 -0.99426388315E+03  0.16268615606E+04  0.91853219073E+03 0.  0.
         23    2    4    4    0    0  0.23409281776E+03 -0.42653547507E+03 -0.79663228624E+02  0.50154832559E+03  0.92046369254E+02 0.  0.
         23    2    4    4    0    0  0.62857598396E+03  0.16154675611E+03 -0.91460065452E+03  0.11253132350E+04  0.92899933350E+02 0.  0.
          3    1    3    3  502    0 -0.14715690475E+03  0.78097384184E+02 -0.11449859050E+03  0.20214916091E+03  0.00000000000E+00 0. -1.
         -4    1    3    3    0  502 -0.71551189697E+03  0.18689133478E+03 -0.47425238523E+03  0.87852203764E+03  0.00000000000E+00 0.  1.
         13    1    5    5    0    0  0.19551629630E+03 -0.40566685832E+03 -0.81547014954E+02  0.45764848705E+03  0.00000000000E+00 0.  1.
        -13    1    5    5    0    0  0.38576521455E+02 -0.20868616753E+02  0.18837863301E+01  0.43899838539E+02  0.00000000000E+00 0. -1.
          3    1    6    6  503    0  0.26478083100E+03  0.10215477409E+03 -0.45352204197E+03  0.53500161578E+03  0.00000000000E+00 0. -1.
         -3    1    6    6    0  503  0.36379515296E+03  0.59391982013E+02 -0.46107861256E+03  0.59031161924E+03  0.00000000000E+00 0.  1.
<mgrwt>
<rscale>  0 0.21965422E+04</rscale>
<asrwt>0</asrwt>
<pdfrwt beam="1">  1        1 0.33004213E+00 0.21965422E+04</pdfrwt>
<pdfrwt beam="2">  1       -2 0.86501375E-01 0.21965422E+04</pdfrwt>
<totfact> 0.22017875E+00</totfact>
</mgrwt>
</event>
<event>
12    5  0.5095719E-008  0.2113922E+04  0.7818608E-02  0.8555135E-01
         -2   -1    0    0    0  501 -0.00000000000E+00  0.00000000000E+00  0.41668990876E+03  0.41668990876E+03  0.00000000000E+00 0.  1.
          1   -1    0    0  501    0  0.00000000000E+00 -0.00000000000E+00 -0.26810493420E+04  0.26810493420E+04  0.00000000000E+00 0. -1.
        -24    2    1    2    0    0 -0.28695554759E+03  0.44775398522E+03 -0.19263638211E+04  0.20000518593E+04  0.80639636612E+02 0.  0.
        254    2    1    2    0    0  0.28695554759E+03 -0.44775398522E+03 -0.33799561212E+03  0.10976873915E+04  0.89880446038E+03 0.  0.
         23    2    4    4    0    0 -0.23000148404E+03 -0.29689241092E+03  0.98670025849E+02  0.39891599542E+03  0.91391526317E+02 0.  0.
         23    2    4    4    0    0  0.51695703162E+03 -0.15086157430E+03 -0.43666563797E+03  0.69877139604E+03  0.87182552140E+02 0.  0.
          3    1    3    3  502    0 -0.24844139159E+03  0.41742711630E+03 -0.16780728041E+04  0.17469679042E+04  0.00000000000E+00 0. -1.
         -4    1    3    3    0  502 -0.38514155992E+02  0.30326868917E+02 -0.24829101703E+03  0.25308395509E+03  0.00000000000E+00 0.  1.
         13    1    5    5    0    0 -0.99724346576E+02 -0.14779526777E+03  0.13553217049E+01  0.17829813059E+03  0.00000000000E+00 0.  1.
        -13    1    5    5    0    0 -0.13027713746E+03 -0.14909714314E+03  0.97314704144E+02  0.22061786483E+03  0.00000000000E+00 0. -1.
          1    1    6    6  503    0  0.49776300854E+03 -0.13666555813E+03 -0.39211754966E+03  0.64822963539E+03  0.00000000000E+00 0. -1.
         -1    1    6    6    0  503  0.19194023079E+02 -0.14196016176E+02 -0.44548088311E+02  0.50541760648E+02  0.00000000000E+00 0.  1.
<mgrwt>
<rscale>  0 0.21139217E+04</rscale>
<asrwt>0</asrwt>
<pdfrwt beam="1">  1        1 0.41246911E+00 0.21139217E+04</pdfrwt>
<pdfrwt beam="2">  1       -2 0.64106143E-01 0.21139217E+04</pdfrwt>
<totfact> 0.18381579E+00</totfact>
</mgrwt>
</event>
<event>
12    5  0.5095719E-008  0.1245769E+04  0.7818608E-02  0.9073712E-01
          1   -1    0    0  501    0  0.00000000000E+00  0.00000000000E+00  0.11454522932E+04  0.11454522932E+04  0.00000000000E+00 0. -1.
         -2   -1    0    0    0  501 -0.00000000000E+00 -0.00000000000E+00 -0.33871755146E+03  0.33871755146E+03  0.00000000000E+00 0.  1.
        -24    2    1    2    0    0 -0.44087403727E+02 -0.33813109146E+02  0.43573418343E+03  0.44631013591E+03  0.79002742289E+02 0.  0.
        254    2    1    2    0    0  0.44087403727E+02  0.33813109146E+02  0.37100055835E+03  0.10378597088E+04  0.96769020628E+03 0.  0.
         23    2    4    4    0    0  0.22114233161E+03  0.31501784588E+03 -0.14146732171E+03  0.42013071170E+03  0.91414647311E+02 0.  0.
         23    2    4    4    0    0 -0.17705492789E+03 -0.28120473674E+03  0.51246788006E+03  0.61772899710E+03  0.92418798493E+02 0.  0.
          1    1    3    3  502    0 -0.41092679964E+02  0.14925979452E+02  0.27054442728E+03  0.27405415585E+03  0.00000000000E+00 0. -1.
         -2    1    3    3    0  502 -0.29947237630E+01 -0.48739088598E+02  0.16518975615E+03  0.17225598006E+03  0.00000000000E+00 0.  1.
         13    1    5    5    0    0  0.10025004212E+03  0.20015979665E+03 -0.11369425100E+03  0.25107846951E+03  0.00000000000E+00 0. -1.
        -13    1    5    5    0    0  0.12089228949E+03  0.11485804923E+03 -0.27773070708E+02  0.16905224218E+03  0.00000000000E+00 0.  1.
          1    1    6    6  503    0 -0.83982730129E+02 -0.17995832353E+03  0.36866348126E+03  0.41874916070E+03  0.00000000000E+00 0. -1.
         -1    1    6    6    0  503 -0.93072197756E+02 -0.10124641320E+03  0.14380439880E+03  0.19897983641E+03  0.00000000000E+00 0.  1.
<mgrwt>
<rscale>  0 0.12457685E+04</rscale>
<asrwt>0</asrwt>
<pdfrwt beam="1">  1        1 0.17622343E+00 0.12457685E+04</pdfrwt>
<pdfrwt beam="2">  1       -2 0.52110393E-01 0.12457685E+04</pdfrwt>
<totfact> 0.35254189E+01</totfact>
</mgrwt>
</event>
<event>
12    5  0.5095719E-008  0.1182651E+04  0.7818608E-02  0.9128179E-01
          1   -1    0    0  501    0  0.00000000000E+00  0.00000000000E+00  0.13321952734E+04  0.13321952734E+04  0.00000000000E+00 0. -1.
         -2   -1    0    0    0  501 -0.00000000000E+00 -0.00000000000E+00 -0.26247354970E+03  0.26247354970E+03  0.00000000000E+00 0.  1.
        -24    2    1    2    0    0  0.89982896040E+02 -0.36874801778E+02  0.51554566510E+03  0.53090318634E+03  0.81327657513E+02 0.  0.
        254    2    1    2    0    0 -0.89982896040E+02  0.36874801778E+02  0.55417605855E+03  0.10637656367E+04  0.90278987223E+03 0.  0.
         23    2    4    4    0    0 -0.42773259087E+03  0.24517824201E+03  0.32288124834E+03  0.59619180917E+03  0.90137856355E+02 0.  0.
         23    2    4    4    0    0  0.33774969483E+03 -0.20830344023E+03  0.23129481022E+03  0.46757382754E+03  0.87537508532E+02 0.  0.
          3    1    3    3  502    0  0.10200591700E+03 -0.44151486455E+02  0.47951372388E+03  0.49222756145E+03  0.00000000000E+00 0. -1.
         -2    1    3    3    0  502 -0.12023020956E+02  0.72766846764E+01  0.36031941221E+02  0.38675624894E+02  0.00000000000E+00 0.  1.
         13    1    5    5    0    0 -0.13629306897E+03  0.47248626124E+02  0.13187791765E+03  0.19544825014E+03  0.00000000000E+00 0.  1.
        -13    1    5    5    0    0 -0.29143952191E+03  0.19792961588E+03  0.19100333069E+03  0.40074355903E+03  0.00000000000E+00 0. -1.
          4    1    6    6  503    0  0.11906557708E+03 -0.94469181487E+02  0.13368105057E+03  0.20241457749E+03  0.00000000000E+00 0. -1.
         -4    1    6    6    0  503  0.21868411775E+03 -0.11383425874E+03  0.97613759645E+02  0.26515925006E+03  0.00000000000E+00 0.  1.
<mgrwt>
<rscale>  0 0.11826513E+04</rscale>
<asrwt>0</asrwt>
<pdfrwt beam="1">  1        1 0.20495312E+00 0.11826513E+04</pdfrwt>
<pdfrwt beam="2">  1       -2 0.40380547E-01 0.11826513E+04</pdfrwt>
<totfact> 0.43286044E+01</totfact>
</mgrwt>
</event>
<event>
12    5  0.5095719E-008  0.2325748E+04  0.7818608E-02  0.8467838E-01
         -2   -1    0    0    0  501 -0.00000000000E+00  0.00000000000E+00  0.16129986309E+04  0.16129986309E+04  0.00000000000E+00 0.  1.
          1   -1    0    0  501    0  0.00000000000E+00 -0.00000000000E+00 -0.83836155804E+03  0.83836155804E+03  0.00000000000E+00 0. -1.
        -24    2    1    2    0    0  0.66353630455E+03 -0.21520502009E+03 -0.40862838350E+03  0.81245098371E+03  0.80658644886E+02 0.  0.
        254    2    1    2    0    0 -0.66353630455E+03  0.21520502009E+03  0.11832654564E+04  0.16389092053E+04  0.89404284835E+03 0.  0.
         23    2    4    4    0    0 -0.72880423105E+03  0.44979117334E+03  0.10115573346E+04  0.13284892179E+04  0.90375074796E+02 0.  0.
         23    2    4    4    0    0  0.65267926504E+02 -0.23458615325E+03  0.17170812176E+03  0.31041998732E+03  0.87099505854E+02 0.  0.
          1    1    3    3  502    0  0.33730455396E+03 -0.13129549190E+03 -0.17166331070E+03  0.40060099919E+03  0.00000000000E+00 0. -1.
         -2    1    3    3    0  502  0.32623175059E+03 -0.83909528190E+02 -0.23696507281E+03  0.41184998451E+03  0.00000000000E+00 0.  1.
         13    1    5    5    0    0 -0.68098867702E+03  0.39059196706E+03  0.92539322533E+03  0.12135321522E+04  0.00000000000E+00 0. -1.
        -13    1    5    5    0    0 -0.47815554033E+02  0.59199206276E+02  0.86164109289E+02  0.11495706573E+03  0.00000000000E+00 0.  1.
          3    1    6    6  503    0  0.37285385581E+02 -0.38616196270E+02  0.95438521088E+01  0.54520598909E+02  0.00000000000E+00 0. -1.
         -3    1    6    6    0  503  0.27982540922E+02 -0.19596995698E+03  0.16216426966E+03  0.25589938841E+03  0.00000000000E+00 0.  1.
<mgrwt>
<rscale>  0 0.23257481E+04</rscale>
<asrwt>0</asrwt>
<pdfrwt beam="1">  1        1 0.12897870E+00 0.23257481E+04</pdfrwt>
<pdfrwt beam="2">  1       -2 0.24815363E+00 0.23257481E+04</pdfrwt>
<totfact> 0.10683872E+00</totfact>
</mgrwt>
</event>
<event>
12    5  0.5095719E-008  0.1280060E+04  0.7818608E-02  0.9045529E-01
         -2   -1    0    0    0  501 -0.00000000000E+00  0.00000000000E+00  0.33667452417E+03  0.33667452417E+03  0.00000000000E+00 0.  1.
          1   -1    0    0  501    0  0.00000000000E+00 -0.00000000000E+00 -0.12167185773E+04  0.12167185773E+04  0.00000000000E+00 0. -1.
        -24    2    1    2    0    0 -0.29824366566E+03 -0.91534910736E+01 -0.68918547685E+02  0.31654069381E+03  0.80094782072E+02 0.  0.
        254    2    1    2    0    0  0.29824366566E+03  0.91534910736E+01 -0.81112550544E+03  0.12368524076E+04  0.88478597537E+03 0.  0.
         23    2    4    4    0    0  0.31284498041E+03  0.19090144771E+03  0.24394211875E+02  0.37680588151E+03  0.84096672120E+02 0.  0.
         23    2    4    4    0    0 -0.14601314749E+02 -0.18174795663E+03 -0.83551971731E+03  0.86004652614E+03  0.91330777772E+02 0.  0.
          3    1    3    3  502    0 -0.27203533326E+02  0.21784093850E+02 -0.17267164912E+02  0.38893880680E+02  0.00000000000E+00 0. -1.
         -4    1    3    3    0  502 -0.27104013234E+03 -0.30937584924E+02 -0.51651382773E+02  0.27764681313E+03  0.00000000000E+00 0.  1.
         13    1    5    5    0    0  0.24878810826E+03  0.18132231119E+03  0.39278876552E+02  0.31034840662E+03  0.00000000000E+00 0.  1.
        -13    1    5    5    0    0  0.64056872152E+02  0.95791365132E+01 -0.14884664676E+02  0.66457474890E+02  0.00000000000E+00 0. -1.
          3    1    6    6  503    0 -0.47953075754E+02 -0.55673776398E+02 -0.30923875377E+03  0.31784850745E+03  0.00000000000E+00 0. -1.
         -3    1    6    6    0  503  0.33351761005E+02 -0.12607418023E+03 -0.52628096354E+03  0.54219801869E+03  0.00000000000E+00 0.  1.
<mgrwt>
<rscale>  0 0.12800596E+04</rscale>
<asrwt>0</asrwt>
<pdfrwt beam="1">  1        1 0.18718747E+00 0.12800596E+04</pdfrwt>
<pdfrwt beam="2">  1       -2 0.51796081E-01 0.12800596E+04</pdfrwt>
<totfact> 0.31558742E+01</totfact>
</mgrwt>
</event>
<event>
12    5  0.5095719E-008  0.1261068E+04  0.7818608E-02  0.9061021E-01
          1   -1    0    0  501    0  0.00000000000E+00  0.00000000000E+00  0.80213726273E+03  0.80213726273E+03  0.00000000000E+00 0. -1.
         -2   -1    0    0    0  501 -0.00000000000E+00 -0.00000000000E+00 -0.49564223055E+03  0.49564223055E+03  0.00000000000E+00 0.  1.
        -24    2    1    2    0    0  0.28368744366E+02  0.21628061730E+03  0.30273803397E+03  0.38178101851E+03  0.80773373117E+02 0.  0.
        254    2    1    2    0    0 -0.28368744366E+02 -0.21628061730E+03  0.37569982050E+01  0.91599847477E+03  0.88963869052E+03 0.  0.
         23    2    4    4    0    0  0.82940066780E+02  0.11114057664E+03 -0.36611188056E+03  0.40202523280E+03  0.91406215686E+02 0.  0.
         23    2    4    4    0    0 -0.11130881115E+03 -0.32742119394E+03  0.36986887877E+03  0.51397324197E+03  0.88154502440E+02 0.  0.
          3    1    3    3  502    0  0.14020830566E+02  0.18674177748E+03  0.20029295824E+03  0.27420128422E+03  0.00000000000E+00 0. -1.
         -4    1    3    3    0  502  0.14347913799E+02  0.29538839817E+02  0.10244507574E+03  0.10757973429E+03  0.00000000000E+00 0.  1.
         13    1    5    5    0    0  0.85960148927E+02  0.78742737188E+02 -0.18983880765E+03  0.22277418781E+03  0.00000000000E+00 0. -1.
        -13    1    5    5    0    0 -0.30200821468E+01  0.32397839454E+02 -0.17627307291E+03  0.17925104499E+03  0.00000000000E+00 0.  1.
          4    1    6    6  503    0 -0.12047599642E+03 -0.32487734555E+03  0.36504455884E+03  0.50330635333E+03  0.00000000000E+00 0. -1.
         -4    1    6    6    0  503  0.91671852717E+01 -0.25438483853E+01  0.48243199277E+01  0.10666888636E+02  0.00000000000E+00 0.  1.
<mgrwt>
<rscale>  0 0.12610680E+04</rscale>
<asrwt>0</asrwt>
<pdfrwt beam="1">  1        1 0.12340573E+00 0.12610680E+04</pdfrwt>
<pdfrwt beam="2">  1       -2 0.76252651E-01 0.12610680E+04</pdfrwt>
<totfact> 0.29256026E+01</totfact>
</mgrwt>
</event>
<event>
12    5  0.5095719E-008  0.1225437E+04  0.7818608E-02  0.9090878E-01
         -2   -1    0    0    0  501 -0.00000000000E+00  0.00000000000E+00  0.30478750247E+03  0.30478750247E+03  0.00000000000E+00 0.  1.
          1   -1    0    0  501    0  0.00000000000E+00 -0.00000000000E+00 -0.12317567811E+04  0.12317567811E+04  0.00000000000E+00 0. -1.
        -24    2    1    2    0    0  0.22658676475E+03  0.10666506460E+03 -0.81763658097E+02  0.27539086348E+03  0.80223649492E+02 0.  0.
        254    2    1    2    0    0 -0.22658676475E+03 -0.10666506460E+03 -0.84520562055E+03  0.12611534201E+04  0.90189600847E+03 0.  0.
         23    2    4    4    0    0 -0.48561997757E+03  0.14532996705E+03 -0.28623710249E+03  0.58936667061E+03  0.92053417390E+02 0.  0.
         23    2    4    4    0    0  0.25903321282E+03 -0.25199503165E+03 -0.55896851806E+03  0.67178674950E+03  0.90840141461E+02 0.  0.
          1    1    3    3  502    0  0.16494761061E+03  0.10532078986E+03 -0.85625406082E+02  0.21361622876E+03  0.00000000000E+00 0. -1.
         -2    1    3    3    0  502  0.61639154140E+02  0.13442747412E+01  0.38617479847E+01  0.61774634723E+02  0.00000000000E+00 0.  1.
         13    1    5    5    0    0 -0.34504075698E+02 -0.11957899249E+02 -0.29868340164E+02  0.47176692745E+02  0.00000000000E+00 0. -1.
        -13    1    5    5    0    0 -0.45111590187E+03  0.15728786630E+03 -0.25636876233E+03  0.54218997787E+03  0.00000000000E+00 0.  1.
          4    1    6    6  503    0  0.62932151477E+02 -0.48868598730E+02 -0.65025328003E+02  0.10284400281E+03  0.00000000000E+00 0. -1.
         -4    1    6    6    0  503  0.19610106134E+03 -0.20312643292E+03 -0.49394319006E+03  0.56894274669E+03  0.00000000000E+00 0.  1.
<mgrwt>
<rscale>  0 0.12254372E+04</rscale>
<asrwt>0</asrwt>
<pdfrwt beam="1">  1        1 0.18950104E+00 0.12254372E+04</pdfrwt>
<pdfrwt beam="2">  1       -2 0.46890386E-01 0.12254372E+04</pdfrwt>
<totfact> 0.37838753E+01</totfact>
</mgrwt>
</event>
<event>
12    5  0.5095719E-008  0.1966929E+04  0.7818608E-02  0.8622240E-01
         -2   -1    0    0    0  501 -0.00000000000E+00  0.00000000000E+00  0.57232356403E+03  0.57232356403E+03  0.00000000000E+00 0.  1.
          1   -1    0    0  501    0  0.00000000000E+00 -0.00000000000E+00 -0.16899573088E+04  0.16899573088E+04  0.00000000000E+00 0. -1.
        -24    2    1    2    0    0  0.38180695939E+03 -0.63033328871E+03 -0.15423795272E+03  0.75739430081E+03  0.82220263570E+02 0.  0.
        254    2    1    2    0    0 -0.38180695939E+03  0.63033328871E+03 -0.96339579207E+03  0.15048865720E+04  0.89076121012E+03 0.  0.
         23    2    4    4    0    0 -0.36327066123E+03  0.57045095935E+03 -0.11203095324E+04  0.13117840130E+04  0.91126166560E+02 0.  0.
         23    2    4    4    0    0 -0.18536298154E+02  0.59882329357E+02  0.15691374030E+03  0.19310255900E+03  0.93472930194E+02 0.  0.
          1    1    3    3  502    0  0.92563325226E+02 -0.21325700428E+03 -0.70827041005E+02  0.24302878182E+03  0.00000000000E+00 0. -1.
         -4    1    3    3    0  502  0.28924363416E+03 -0.41707628443E+03 -0.83410911717E+02  0.51436551899E+03  0.00000000000E+00 0.  1.
         13    1    5    5    0    0 -0.10604041914E+03  0.10674318106E+03 -0.21101568604E+03  0.25916461361E+03  0.00000000000E+00 0. -1.
        -13    1    5    5    0    0 -0.25723024210E+03  0.46370777829E+03 -0.90929384633E+03  0.10526193994E+04  0.00000000000E+00 0.  1.
          1    1    6    6  503    0 -0.78013780386E+01  0.10765193469E+02 -0.11354665840E+02  0.17483687428E+02  0.00000000000E+00 0. -1.
         -1    1    6    6    0  503 -0.10734920116E+02  0.49117135888E+02  0.16826840614E+03  0.17561887157E+03  0.00000000000E+00 0.  1.
<mgrwt>
<rscale>  0 0.19669290E+04</rscale>
<asrwt>0</asrwt>
<pdfrwt beam="1">  1        1 0.25999343E+00 0.19669290E+04</pdfrwt>
<pdfrwt beam="2">  1       -2 0.88049779E-01 0.19669290E+04</pdfrwt>
<totfact> 0.43952911E+00</totfact>
</mgrwt>
</event>
<event>
12    5  0.5095719E-008  0.1815183E+04  0.7818608E-02  0.8698267E-01
          1   -1    0    0  501    0  0.00000000000E+00  0.00000000000E+00  0.16117308167E+04  0.16117308167E+04  0.00000000000E+00 0. -1.
         -2   -1    0    0    0  501 -0.00000000000E+00 -0.00000000000E+00 -0.51107911762E+03  0.51107911762E+03  0.00000000000E+00 0.  1.
        -24    2    1    2    0    0  0.91039476497E+02  0.65505025374E+03  0.23504297650E+03  0.70635138375E+03  0.79423266884E+02 0.  0.
        254    2    1    2    0    0 -0.91039476497E+02 -0.65505025374E+03  0.86560872261E+03  0.14164585506E+04  0.90537138442E+03 0.  0.
         23    2    4    4    0    0  0.22643890485E+03 -0.69943378097E+03  0.77562076844E+03  0.10724642440E+04  0.90054353863E+02 0.  0.
         23    2    4    4    0    0 -0.31747838134E+03  0.44383527232E+02  0.89987954173E+02  0.34399430660E+03  0.86439753385E+02 0.  0.
          1    1    3    3  502    0  0.29928029386E+02  0.13187988334E+03  0.80677728570E+02  0.15747027167E+03  0.00000000000E+00 0. -1.
         -2    1    3    3    0  502  0.61111447111E+02  0.52317037040E+03  0.15436524793E+03  0.54888111208E+03  0.00000000000E+00 0.  1.
         13    1    5    5    0    0  0.38918306638E+01 -0.67485291401E+02  0.45277284859E+02  0.81359962055E+02  0.00000000000E+00 0.  1.
        -13    1    5    5    0    0  0.22254707418E+03 -0.63194848957E+03  0.73034348358E+03  0.99110428195E+03  0.00000000000E+00 0. -1.
          2    1    6    6  503    0 -0.21790792271E+03  0.20742886457E+02  0.10098916564E+03  0.24106625997E+03  0.00000000000E+00 0. -1.
         -2    1    6    6    0  503 -0.99570458636E+02  0.23640640775E+02 -0.11001211471E+02  0.10292804663E+03  0.00000000000E+00 0.  1.
<mgrwt>
<rscale>  0 0.18151826E+04</rscale>
<asrwt>0</asrwt>
<pdfrwt beam="1">  1        1 0.24795858E+00 0.18151826E+04</pdfrwt>
<pdfrwt beam="2">  1       -2 0.78627557E-01 0.18151826E+04</pdfrwt>
<totfact> 0.65109804E+00</totfact>
</mgrwt>
</event>
<event>
12    5  0.5095719E-008  0.1421963E+04  0.7818608E-02  0.8938072E-01
         -2   -1    0    0    0  501 -0.00000000000E+00  0.00000000000E+00  0.93761038213E+03  0.93761038213E+03  0.00000000000E+00 0.  1.
          1   -1    0    0  501    0  0.00000000000E+00 -0.00000000000E+00 -0.53913073837E+03  0.53913073837E+03  0.00000000000E+00 0. -1.
        -24    2    1    2    0    0 -0.58238926978E+02  0.15349582690E+03  0.51112578064E+03  0.54262766896E+03  0.79009379153E+02 0.  0.
        254    2    1    2    0    0  0.58238926978E+02 -0.15349582690E+03 -0.11264613688E+03  0.93411345154E+03  0.91264782184E+03 0.  0.
         23    2    4    4    0    0  0.12166101741E+03 -0.48547722139E+03  0.10811237142E+03  0.52017127404E+03  0.91653335088E+02 0.  0.
         23    2    4    4    0    0 -0.63422090437E+02  0.33198139449E+03 -0.22075850831E+03  0.41394217751E+03  0.91541244727E+02 0.  0.
          1    1    3    3  502    0 -0.39130100329E+02  0.14333168754E+02  0.11144942635E+03  0.11898562565E+03  0.00000000000E+00 0. -1.
         -2    1    3    3    0  502 -0.19108826649E+02  0.13916265815E+03  0.39967635429E+03  0.42364204330E+03  0.00000000000E+00 0.  1.
         13    1    5    5    0    0  0.70044923893E+02 -0.41546033108E+03  0.98252115648E+02  0.43262808079E+03  0.00000000000E+00 0. -1.
        -13    1    5    5    0    0  0.51616093521E+02 -0.70016890313E+02  0.98602557760E+01  0.87543193245E+02  0.00000000000E+00 0.  1.
          1    1    6    6  503    0 -0.49022536018E+02  0.31983904670E+03 -0.18297956797E+03  0.37172805534E+03  0.00000000000E+00 0. -1.
         -1    1    6    6    0  503 -0.14399554419E+02  0.12142347788E+02 -0.37778940336E+02  0.42214122165E+02  0.00000000000E+00 0.  1.
<mgrwt>
<rscale>  0 0.14219628E+04</rscale>
<asrwt>0</asrwt>
<pdfrwt beam="1">  1        1 0.82943191E-01 0.14219628E+04</pdfrwt>
<pdfrwt beam="2">  1       -2 0.14424775E+00 0.14219628E+04</pdfrwt>
<totfact> 0.11277384E+01</totfact>
</mgrwt>
</event>
<event>
12    5  0.5095719E-008  0.1225392E+04  0.7818608E-02  0.9090917E-01
         -4   -1    0    0    0  501 -0.00000000000E+00  0.00000000000E+00  0.60727432175E+03  0.60727432175E+03  0.00000000000E+00 0.  1.
          1   -1    0    0  501    0  0.00000000000E+00 -0.00000000000E+00 -0.61816579206E+03  0.61816579206E+03  0.00000000000E+00 0. -1.
        -24    2    1    2    0    0  0.13029661369E+03 -0.23358785931E+03 -0.51688141511E+02  0.28419333530E+03  0.80954878164E+02 0.  0.
        254    2    1    2    0    0 -0.13029661369E+03  0.23358785931E+03  0.40796671208E+02  0.94124677852E+03  0.90152128879E+03 0.  0.
         23    2    4    4    0    0 -0.19347470006E+03  0.30417349332E+03  0.40800438492E+03  0.55107897121E+03  0.85243655435E+02 0.  0.
         23    2    4    4    0    0  0.63178086372E+02 -0.70585634009E+02 -0.36720771371E+03  0.39016780731E+03  0.91736636771E+02 0.  0.
          3    1    3    3  502    0  0.13249860373E+03 -0.22064296060E+03 -0.30369598492E+02  0.25915537533E+03  0.00000000000E+00 0. -1.
         -4    1    3    3    0  502 -0.22019900357E+01 -0.12944898710E+02 -0.21318543019E+02  0.25037959964E+02  0.00000000000E+00 0.  1.
         13    1    5    5    0    0 -0.95041309648E+02  0.10936048997E+03  0.21765061899E+03  0.26146578983E+03  0.00000000000E+00 0. -1.
        -13    1    5    5    0    0 -0.98433390413E+02  0.19481300335E+03  0.19035376593E+03  0.28961318137E+03  0.00000000000E+00 0.  1.
          1    1    6    6  503    0  0.10668093004E+02 -0.11004893204E+02 -0.90383494289E+00  0.15353592426E+02  0.00000000000E+00 0. -1.
         -1    1    6    6    0  503  0.52509993368E+02 -0.59580740805E+02 -0.36630387877E+03  0.37481421488E+03  0.00000000000E+00 0.  1.
<mgrwt>
<rscale>  0 0.12253917E+04</rscale>
<asrwt>0</asrwt>
<pdfrwt beam="1">  1        1 0.95102429E-01 0.12253917E+04</pdfrwt>
<pdfrwt beam="2">  1       -4 0.93426819E-01 0.12253917E+04</pdfrwt>
<totfact> 0.15148681E+01</totfact>
</mgrwt>
</event>
<event>
12    5  0.5095719E-008  0.1239457E+04  0.7818608E-02  0.9079004E-01
          1   -1    0    0  501    0  0.00000000000E+00  0.00000000000E+00  0.98124599464E+03  0.98124599464E+03  0.00000000000E+00 0. -1.
         -2   -1    0    0    0  501 -0.00000000000E+00 -0.00000000000E+00 -0.39140400957E+03  0.39140400957E+03  0.00000000000E+00 0.  1.
        -24    2    1    2    0    0 -0.91330201771E+02  0.25546948448E+03  0.82347436469E+02  0.29474518298E+03  0.80546628347E+02 0.  0.
        254    2    1    2    0    0  0.91330201771E+02 -0.25546948448E+03  0.50749454860E+03  0.10779048212E+04  0.91143964337E+03 0.  0.
         23    2    4    4    0    0 -0.28565008827E+03  0.79512959317E+02  0.47153211681E+03  0.56441156986E+03  0.91102137063E+02 0.  0.
         23    2    4    4    0    0  0.37698029004E+03 -0.33498244380E+03  0.35962431790E+02  0.51349325137E+03  0.89747679466E+02 0.  0.
          3    1    3    3  502    0 -0.68975229318E+02  0.10351845409E+03  0.64511602972E+02  0.14012636981E+03  0.00000000000E+00 0. -1.
         -4    1    3    3    0  502 -0.22354972453E+02  0.15195103039E+03  0.17835833497E+02  0.15461881317E+03  0.00000000000E+00 0.  1.
         13    1    5    5    0    0 -0.23670104149E+03  0.99768382287E+02  0.40063310169E+03  0.47590754913E+03  0.00000000000E+00 0. -1.
        -13    1    5    5    0    0 -0.48949046782E+02 -0.20255422970E+02  0.70899015122E+02  0.88504020732E+02  0.00000000000E+00 0.  1.
          3    1    6    6  503    0  0.23511867538E+03 -0.26111372523E+03  0.10419269843E+02  0.35152486427E+03  0.00000000000E+00 0. -1.
         -3    1    6    6    0  503  0.14186161466E+03 -0.73868718566E+02  0.25543161947E+02  0.16196838710E+03  0.00000000000E+00 0.  1.
<mgrwt>
<rscale>  0 0.12394573E+04</rscale>
<asrwt>0</asrwt>
<pdfrwt beam="1">  1        1 0.15096092E+00 0.12394573E+04</pdfrwt>
<pdfrwt beam="2">  1       -2 0.60216002E-01 0.12394573E+04</pdfrwt>
<totfact> 0.34810986E+01</totfact>
</mgrwt>
</event>
<event>
12    5  0.5095719E-008  0.1146677E+04  0.7818608E-02  0.9160854E-01
          1   -1    0    0  501    0  0.00000000000E+00  0.00000000000E+00  0.40058674297E+03  0.40058674297E+03  0.00000000000E+00 0. -1.
         -2   -1    0    0    0  501 -0.00000000000E+00 -0.00000000000E+00 -0.82058958639E+03  0.82058958639E+03  0.00000000000E+00 0.  1.
        -24    2    1    2    0    0 -0.42272743671E+02  0.47277329928E+02  0.13280479277E+03  0.16745862260E+03  0.79894596300E+02 0.  0.
        254    2    1    2    0    0  0.42272743671E+02 -0.47277329928E+02 -0.55280763619E+03  0.10537177068E+04  0.89481986574E+03 0.  0.
         23    2    4    4    0    0 -0.29326166830E+03  0.38347301330E+02  0.88009043803E+02  0.31965134958E+03  0.83417455479E+02 0.  0.
         23    2    4    4    0    0  0.33553441198E+03 -0.85624631258E+02 -0.64081667999E+03  0.73406635718E+03  0.91063056689E+02 0.  0.
          1    1    3    3  502    0 -0.25836423304E+02  0.69242197763E+02  0.10496689625E+03  0.12837465493E+03  0.00000000000E+00 0. -1.
         -2    1    3    3    0  502 -0.16436320368E+02 -0.21964867835E+02  0.27837896522E+02  0.39083967672E+02  0.00000000000E+00 0.  1.
         13    1    5    5    0    0 -0.23880995672E+03 -0.12441208265E+01  0.79982045284E+02  0.25185089008E+03  0.00000000000E+00 0. -1.
        -13    1    5    5    0    0 -0.54451711582E+02  0.39591422156E+02  0.80269985187E+01  0.67800459496E+02  0.00000000000E+00 0.  1.
          3    1    6    6  503    0  0.16229646014E+03  0.53020121651E+01 -0.28613223901E+03  0.32899834423E+03  0.00000000000E+00 0. -1.
         -3    1    6    6    0  503  0.17323795183E+03 -0.90926643423E+02 -0.35468444099E+03  0.40506801295E+03  0.00000000000E+00 0.  1.
<mgrwt>
<rscale>  0 0.11466775E+04</rscale>
<asrwt>0</asrwt>
<pdfrwt beam="1">  1        1 0.61628730E-01 0.11466775E+04</pdfrwt>
<pdfrwt beam="2">  1       -2 0.12624455E+00 0.11466775E+04</pdfrwt>
<totfact> 0.24291346E+01</totfact>
</mgrwt>
</event>
<event>
12    5  0.5095719E-008  0.2226442E+04  0.7818608E-02  0.8507502E-01
         -2   -1    0    0    0  501 -0.00000000000E+00  0.00000000000E+00  0.99558107033E+03  0.99558107033E+03  0.00000000000E+00 0.  1.
          1   -1    0    0  501    0  0.00000000000E+00 -0.00000000000E+00 -0.12447618555E+04  0.12447618555E+04  0.00000000000E+00 0. -1.
        -24    2    1    2    0    0 -0.59776157138E+03  0.57548249348E+03  0.33523955968E+03  0.89865983955E+03  0.81883748843E+02 0.  0.
        254    2    1    2    0    0  0.59776157138E+03 -0.57548249348E+03 -0.58442034488E+03  0.13416830863E+04  0.87753482441E+03 0.  0.
         23    2    4    4    0    0  0.22297659791E+03 -0.29890323418E+03  0.19463088986E+03  0.43004526066E+03  0.89420558658E+02 0.  0.
         23    2    4    4    0    0  0.37478497347E+03 -0.27657925930E+03 -0.77905123473E+03  0.91163782565E+03  0.84869522169E+02 0.  0.
          1    1    3    3  502    0 -0.27409532774E+02  0.19159514445E+02 -0.19629715784E+01  0.33499593103E+02  0.00000000000E+00 0. -1.
         -2    1    3    3    0  502 -0.57035203860E+03  0.55632297904E+03  0.33720253126E+03  0.86516024645E+03  0.00000000000E+00 0.  1.
         13    1    5    5    0    0  0.15095198077E+02  0.11070609919E+00 -0.34505236684E+01  0.15484940245E+02  0.00000000000E+00 0. -1.
        -13    1    5    5    0    0  0.20788139983E+03 -0.29901394028E+03  0.19808141352E+03  0.41456032041E+03  0.00000000000E+00 0.  1.
          2    1    6    6  503    0  0.42498903819E+02 -0.69780670396E+02 -0.14862544063E+03  0.16960253651E+03  0.00000000000E+00 0. -1.
         -2    1    6    6    0  503  0.33228606965E+03 -0.20679858890E+03 -0.63042579410E+03  0.74203528914E+03  0.00000000000E+00 0.  1.
<mgrwt>
<rscale>  0 0.22264423E+04</rscale>
<asrwt>0</asrwt>
<pdfrwt beam="1">  1        1 0.19150182E+00 0.22264423E+04</pdfrwt>
<pdfrwt beam="2">  1       -2 0.15316632E+00 0.22264423E+04</pdfrwt>
<totfact> 0.22422785E+00</totfact>
</mgrwt>
</event>
<event>
12    5  0.5095719E-008  0.2180517E+04  0.7818608E-02  0.8526581E-01
          1   -1    0    0  501    0  0.00000000000E+00  0.00000000000E+00  0.16562185200E+04  0.16562185200E+04  0.00000000000E+00 0. -1.
         -2   -1    0    0    0  501 -0.00000000000E+00 -0.00000000000E+00 -0.71769746757E+03  0.71769746757E+03  0.00000000000E+00 0.  1.
        -24    2    1    2    0    0 -0.55320438533E+03  0.58792918572E+02  0.11636402752E+04  0.12923584793E+04  0.81486498989E+02 0.  0.
        254    2    1    2    0    0  0.55320438533E+03 -0.58792918572E+02 -0.22511922279E+03  0.10815575083E+04  0.89977568323E+03 0.  0.
         23    2    4    4    0    0  0.28192933736E+03 -0.40313865106E+02  0.33685643309E+03  0.45056481415E+03  0.91798890257E+02 0.  0.
         23    2    4    4    0    0  0.27127504797E+03 -0.18479053466E+02 -0.56197565589E+03  0.63099269418E+03  0.91670689057E+02 0.  0.
          1    1    3    3  502    0 -0.36794874518E+03  0.13645412549E+02  0.69732342410E+03  0.78856352577E+03  0.00000000000E+00 0. -1.
         -2    1    3    3    0  502 -0.18525564015E+03  0.45147506023E+02  0.46631685114E+03  0.50379495349E+03  0.00000000000E+00 0.  1.
         13    1    5    5    0    0  0.10292221395E+03  0.25940644927E+02  0.14729981713E+03  0.18155752617E+03  0.00000000000E+00 0.  1.
        -13    1    5    5    0    0  0.17900712341E+03 -0.66254510033E+02  0.18955661597E+03  0.26900728798E+03  0.00000000000E+00 0. -1.
          3    1    6    6  503    0  0.62769950181E+02  0.23631669049E+02 -0.20224737354E+03  0.21307867686E+03  0.00000000000E+00 0. -1.
         -3    1    6    6    0  503  0.20850509779E+03 -0.42110722515E+02 -0.35972828235E+03  0.41791401732E+03  0.00000000000E+00 0.  1.
<mgrwt>
<rscale>  0 0.21805172E+04</rscale>
<asrwt>0</asrwt>
<pdfrwt beam="1">  1        1 0.25480285E+00 0.21805172E+04</pdfrwt>
<pdfrwt beam="2">  1       -2 0.11041500E+00 0.21805172E+04</pdfrwt>
<totfact> 0.26658352E+00</totfact>
</mgrwt>
</event>
<event>
12    5  0.5095719E-008  0.1569695E+04  0.7818608E-02  0.8839385E-01
         -2   -1    0    0    0  501 -0.00000000000E+00  0.00000000000E+00  0.61398483707E+03  0.61398483707E+03  0.00000000000E+00 0.  1.
          1   -1    0    0  501    0  0.00000000000E+00 -0.00000000000E+00 -0.10032588819E+04  0.10032588819E+04  0.00000000000E+00 0. -1.
        -24    2    1    2    0    0  0.13949238095E+03 -0.49531363563E+03 -0.89929578458E+02  0.52836472874E+03  0.79298395366E+02 0.  0.
        254    2    1    2    0    0 -0.13949238095E+03  0.49531363563E+03 -0.29934446633E+03  0.10888789902E+04  0.91173275895E+03 0.  0.
         23    2    4    4    0    0 -0.38966094740E+03  0.87348861229E+02 -0.42027378006E+03  0.58692027048E+03  0.91541663819E+02 0.  0.
         23    2    4    4    0    0  0.25016856646E+03  0.40796477441E+03  0.12092931373E+03  0.50195871970E+03  0.91209037722E+02 0.  0.
          3    1    3    3  502    0  0.10742219760E+03 -0.25894860375E+03 -0.70310458040E+02  0.28902849069E+03  0.00000000000E+00 0. -1.
         -4    1    3    3    0  502  0.32070183346E+02 -0.23636503189E+03 -0.19619120419E+02  0.23933623805E+03  0.00000000000E+00 0.  1.
         13    1    5    5    0    0 -0.85273391509E+01  0.20817748389E+02 -0.18268094669E+02  0.28979603928E+02  0.00000000000E+00 0. -1.
        -13    1    5    5    0    0 -0.38113360825E+03  0.66531112840E+02 -0.40200568539E+03  0.55794066656E+03  0.00000000000E+00 0.  1.
          3    1    6    6  503    0  0.16863909730E+03  0.24020012209E+03  0.31720143703E+02  0.29519724136E+03  0.00000000000E+00 0. -1.
         -3    1    6    6    0  503  0.81529469158E+02  0.16776465231E+03  0.89209170024E+02  0.20676147834E+03  0.00000000000E+00 0.  1.
<mgrwt>
<rscale>  0 0.15696952E+04</rscale>
<asrwt>0</asrwt>
<pdfrwt beam="1">  1        1 0.15434752E+00 0.15696952E+04</pdfrwt>
<pdfrwt beam="2">  1       -2 0.94459206E-01 0.15696952E+04</pdfrwt>
<totfact> 0.11981515E+01</totfact>
</mgrwt>
</event>
<event>
12    5  0.5095719E-008  0.1610868E+04  0.7818608E-02  0.8813899E-01
          1   -1    0    0  501    0  0.00000000000E+00  0.00000000000E+00  0.58556631743E+03  0.58556631743E+03  0.00000000000E+00 0. -1.
         -2   -1    0    0    0  501 -0.00000000000E+00 -0.00000000000E+00 -0.11078571940E+04  0.11078571940E+04  0.00000000000E+00 0.  1.
        -24    2    1    2    0    0 -0.18839865980E+03  0.52819446504E+02  0.35179032924E+03  0.41091187147E+03  0.82511704769E+02 0.  0.
        254    2    1    2    0    0  0.18839865980E+03 -0.52819446504E+02 -0.87408120582E+03  0.12825116400E+04  0.91789661911E+03 0.  0.
         23    2    4    4    0    0 -0.10710450175E+03 -0.35023066434E+03 -0.74645475936E+03  0.83610504967E+03  0.88000305549E+02 0.  0.
         23    2    4    4    0    0  0.29550316154E+03  0.29741121784E+03 -0.12762644646E+03  0.44640659030E+03  0.84939879051E+02 0.  0.
          1    1    3    3  502    0 -0.15455907553E+03  0.30090314353E+02  0.32768460714E+03  0.36355348521E+03  0.00000000000E+00 0. -1.
         -2    1    3    3    0  502 -0.33839584264E+02  0.22729132150E+02  0.24105722099E+02  0.47358386262E+02  0.00000000000E+00 0.  1.
         13    1    5    5    0    0 -0.58854653623E+02 -0.15170660379E+03 -0.23968434368E+03  0.28970217205E+03  0.00000000000E+00 0. -1.
        -13    1    5    5    0    0 -0.48249848122E+02 -0.19852406055E+03 -0.50677041569E+03  0.54640287762E+03  0.00000000000E+00 0.  1.
          3    1    6    6  503    0  0.23347297439E+02  0.61218231961E+02 -0.35248216457E+02  0.74398958229E+02  0.00000000000E+00 0. -1.
         -3    1    6    6    0  503  0.27215586411E+03  0.23619298588E+03 -0.92378230003E+02  0.37200763208E+03  0.00000000000E+00 0.  1.
<mgrwt>
<rscale>  0 0.16108679E+04</rscale>
<asrwt>0</asrwt>
<pdfrwt beam="1">  1        1 0.90087127E-01 0.16108679E+04</pdfrwt>
<pdfrwt beam="2">  1       -2 0.17043957E+00 0.16108679E+04</pdfrwt>
<totfact> 0.62921489E+00</totfact>
</mgrwt>
</event>
<event>
12    5  0.5095719E-008  0.2255518E+04  0.7818608E-02  0.8495669E-01
          1   -1    0    0  501    0  0.00000000000E+00  0.00000000000E+00  0.15586063286E+04  0.15586063286E+04  0.00000000000E+00 0. -1.
         -2   -1    0    0    0  501 -0.00000000000E+00 -0.00000000000E+00 -0.81601101824E+03  0.81601101824E+03  0.00000000000E+00 0.  1.
        -24    2    1    2    0    0 -0.93234806650E+03 -0.60672752172E+02  0.19327497200E+03  0.95738892918E+03  0.79273242355E+02 0.  0.
        254    2    1    2    0    0  0.93234806650E+03  0.60672752172E+02  0.54932033840E+03  0.14172284177E+04  0.91314262509E+03 0.  0.
         23    2    4    4    0    0  0.13492614584E+03  0.39168404444E+03  0.83451544679E+02  0.43191493020E+03  0.89246238689E+02 0.  0.
         23    2    4    4    0    0  0.79742192066E+03 -0.33101129226E+03  0.46586879372E+03  0.98531348749E+03  0.91426147836E+02 0.  0.
          1    1    3    3  502    0 -0.45091693162E+03 -0.98251393610E+01  0.12845472650E+03  0.46895973105E+03  0.00000000000E+00 0. -1.
         -2    1    3    3    0  502 -0.48143113488E+03 -0.50847612811E+02  0.64820245494E+02  0.48842919813E+03  0.00000000000E+00 0.  1.
         13    1    5    5    0    0  0.14469770665E+03  0.36780751854E+03  0.65876736819E+02  0.40069881639E+03  0.00000000000E+00 0.  1.
        -13    1    5    5    0    0 -0.97715608156E+01  0.23876525900E+02  0.17574807860E+02  0.31216113806E+02  0.00000000000E+00 0. -1.
          2    1    6    6  503    0  0.74581887965E+02 -0.38841985558E+01  0.44769570020E+02  0.87073873295E+02  0.00000000000E+00 0. -1.
         -2    1    6    6    0  503  0.72284003270E+03 -0.32712709371E+03  0.42109922370E+03  0.89823961420E+03  0.00000000000E+00 0.  1.
<mgrwt>
<rscale>  0 0.22555176E+04</rscale>
<asrwt>0</asrwt>
<pdfrwt beam="1">  1        1 0.23978559E+00 0.22555176E+04</pdfrwt>
<pdfrwt beam="2">  1       -2 0.12554016E+00 0.22555176E+04</pdfrwt>
<totfact> 0.22516607E+00</totfact>
</mgrwt>
</event>
<event>
12    5  0.5095719E-008  0.1786280E+04  0.7818608E-02  0.8713630E-01
          1   -1    0    0  501    0  0.00000000000E+00  0.00000000000E+00  0.14442412063E+04  0.14442412063E+04  0.00000000000E+00 0. -1.
         -2   -1    0    0    0  501 -0.00000000000E+00 -0.00000000000E+00 -0.55233063234E+03  0.55233063234E+03  0.00000000000E+00 0.  1.
        -24    2    1    2    0    0 -0.48685119349E+02  0.54503369849E+02  0.10661921566E+04  0.10718423777E+04  0.82094516943E+02 0.  0.
        254    2    1    2    0    0  0.48685119349E+02 -0.54503369849E+02 -0.17428158266E+03  0.92472946089E+03  0.90521248755E+03 0.  0.
         23    2    4    4    0    0  0.22817757726E+03  0.36650752676E+03 -0.86203079839E+02  0.44951747623E+03  0.90786653902E+02 0.  0.
         23    2    4    4    0    0 -0.17949245791E+03 -0.42101089661E+03 -0.88078502822E+02  0.47521198466E+03  0.92740984464E+02 0.  0.
          3    1    3    3  502    0 -0.26925190036E+02  0.74489653838E+02  0.70219157703E+03  0.70664466689E+03  0.00000000000E+00 0. -1.
         -4    1    3    3    0  502 -0.21759929313E+02 -0.19986283989E+02  0.36400057954E+03  0.36519771081E+03  0.00000000000E+00 0.  1.
         13    1    5    5    0    0  0.13035907658E+03  0.13094442653E+03 -0.53529524472E+02  0.19236772514E+03  0.00000000000E+00 0. -1.
        -13    1    5    5    0    0  0.97818500682E+02  0.23556310023E+03 -0.32673555368E+02  0.25714975109E+03  0.00000000000E+00 0.  1.
          1    1    6    6  503    0 -0.47667576057E+01 -0.47281120796E+01 -0.16881669567E+02  0.18167767867E+02  0.00000000000E+00 0. -1.
         -1    1    6    6    0  503 -0.17472570031E+03 -0.41628278453E+03 -0.71196833255E+02  0.45704421680E+03  0.00000000000E+00 0.  1.
<mgrwt>
<rscale>  0 0.17862796E+04</rscale>
<asrwt>0</asrwt>
<pdfrwt beam="1">  1        1 0.22219095E+00 0.17862796E+04</pdfrwt>
<pdfrwt beam="2">  1       -2 0.84973944E-01 0.17862796E+04</pdfrwt>
<totfact> 0.71501725E+00</totfact>
</mgrwt>
</event>
<event>
12    5  0.5095719E-008  0.1515688E+04  0.7818608E-02  0.8874087E-01
         -2   -1    0    0    0  501 -0.00000000000E+00  0.00000000000E+00  0.22610844748E+04  0.22610844748E+04  0.00000000000E+00 0.  1.
          1   -1    0    0  501    0  0.00000000000E+00 -0.00000000000E+00 -0.25400521260E+03  0.25400521260E+03  0.00000000000E+00 0. -1.
        -24    2    1    2    0    0  0.29963422609E+03  0.35378674253E+03  0.84577113529E+03  0.96775144417E+03  0.79172695840E+02 0.  0.
        254    2    1    2    0    0 -0.29963422609E+03 -0.35378674253E+03  0.11613081269E+04  0.15473382432E+04  0.91141282889E+03 0.  0.
         23    2    4    4    0    0  0.12322571608E+03 -0.31218763570E+03  0.46379609799E+02  0.35044998664E+03  0.89545675161E+02 0.  0.
         23    2    4    4    0    0 -0.42285994217E+03 -0.41599106826E+02  0.11149285171E+04  0.11968882565E+04  0.94524515947E+02 0.  0.
          3    1    3    3  502    0  0.45881123523E+02  0.93371089667E+02  0.14769507681E+03  0.18065733751E+03  0.00000000000E+00 0. -1.
         -4    1    3    3    0  502  0.25375310257E+03  0.26041565286E+03  0.69807605848E+03  0.78709410666E+03  0.00000000000E+00 0.  1.
         13    1    5    5    0    0  0.12374290431E+03 -0.28935950635E+03  0.64560528833E+02  0.32126203038E+03  0.00000000000E+00 0.  1.
        -13    1    5    5    0    0 -0.51718822968E+00 -0.22828129350E+02 -0.18180919034E+02  0.29187956252E+02  0.00000000000E+00 0. -1.
          4    1    6    6  503    0 -0.50502244150E+02 -0.23123368450E+02  0.84798614889E+02  0.10137046868E+03  0.00000000000E+00 0. -1.
         -4    1    6    6    0  503 -0.37235769802E+03 -0.18475738376E+02  0.10301299022E+04  0.10955177879E+04  0.00000000000E+00 0.  1.
<mgrwt>
<rscale>  0 0.15156876E+04</rscale>
<asrwt>0</asrwt>
<pdfrwt beam="1">  1        1 0.39077727E-01 0.15156876E+04</pdfrwt>
<pdfrwt beam="2">  1       -2 0.34785914E+00 0.15156876E+04</pdfrwt>
<totfact> 0.14844088E+00</totfact>
</mgrwt>
</event>
<event>
12    5  0.5095719E-008  0.1630959E+04  0.7818608E-02  0.8801751E-01
          1   -1    0    0  501    0  0.00000000000E+00  0.00000000000E+00  0.74939794171E+03  0.74939794171E+03  0.00000000000E+00 0. -1.
         -2   -1    0    0    0  501 -0.00000000000E+00 -0.00000000000E+00 -0.88738773278E+03  0.88738773278E+03  0.00000000000E+00 0.  1.
        -24    2    1    2    0    0  0.40083173593E+03  0.37382561134E+03  0.84122046576E+02  0.56022477967E+03  0.79772280931E+02 0.  0.
        254    2    1    2    0    0 -0.40083173593E+03 -0.37382561134E+03 -0.22211183765E+03  0.10765608948E+04  0.89957658019E+03 0.  0.
         23    2    4    4    0    0  0.13418295950E+03 -0.98006160000E+02 -0.39992456492E+03  0.44237025242E+03  0.90230308546E+02 0.  0.
         23    2    4    4    0    0 -0.53501469543E+03 -0.27581945134E+03  0.17781272727E+03  0.63419064241E+03  0.90902755063E+02 0.  0.
          1    1    3    3  502    0  0.80190757266E+02  0.10289160548E+03 -0.71130233828E+01  0.13064392497E+03  0.00000000000E+00 0. -1.
         -4    1    3    3    0  502  0.32064097866E+03  0.27093400586E+03  0.91235069959E+02  0.42958085470E+03  0.00000000000E+00 0.  1.
         13    1    5    5    0    0  0.23344235393E+02 -0.39248159103E+02 -0.38289781574E+02  0.59594284055E+02  0.00000000000E+00 0. -1.
        -13    1    5    5    0    0  0.11083872411E+03 -0.58758000897E+02 -0.36163478335E+03  0.38277596836E+03  0.00000000000E+00 0.  1.
          1    1    6    6  503    0 -0.13610976519E+03 -0.27462756270E+02  0.40807293812E+02  0.14472493354E+03  0.00000000000E+00 0. -1.
         -1    1    6    6    0  503 -0.39890493024E+03 -0.24835669507E+03  0.13700543346E+03  0.48946570887E+03  0.00000000000E+00 0.  1.
<mgrwt>
<rscale>  0 0.16309587E+04</rscale>
<asrwt>0</asrwt>
<pdfrwt beam="1">  1        1 0.11529199E+00 0.16309587E+04</pdfrwt>
<pdfrwt beam="2">  1       -2 0.13652119E+00 0.16309587E+04</pdfrwt>
<totfact> 0.78773990E+00</totfact>
</mgrwt>
</event>
<event>
12    5  0.5095719E-008  0.1397535E+04  0.7818608E-02  0.8955605E-01
         -2   -1    0    0    0  501 -0.00000000000E+00  0.00000000000E+00  0.48906789345E+03  0.48906789345E+03  0.00000000000E+00 0.  1.
          1   -1    0    0  501    0  0.00000000000E+00 -0.00000000000E+00 -0.99838129605E+03  0.99838129605E+03  0.00000000000E+00 0. -1.
        -24    2    1    2    0    0 -0.26663810493E+03  0.19911075590E+03  0.10138447175E+03  0.35680521205E+03  0.79310630551E+02 0.  0.
        254    2    1    2    0    0  0.26663810493E+03 -0.19911075590E+03 -0.61069787435E+03  0.11306439774E+04  0.89143868992E+03 0.  0.
         23    2    4    4    0    0  0.31757104412E+03  0.56470844368E+02 -0.74946093491E+03  0.82100316680E+03  0.91182139762E+02 0.  0.
         23    2    4    4    0    0 -0.50932939198E+02 -0.25558160027E+03  0.13876306057E+03  0.30964081064E+03  0.93306623244E+02 0.  0.
          3    1    3    3  502    0 -0.22581894235E+02  0.52129539492E+01  0.28425317981E+02  0.36675816807E+02  0.00000000000E+00 0. -1.
         -4    1    3    3    0  502 -0.24405621069E+03  0.19389780195E+03  0.72959153766E+02  0.32012939524E+03  0.00000000000E+00 0.  1.
         13    1    5    5    0    0  0.25170642117E+03  0.66504447038E+02 -0.51222935610E+03  0.57459366268E+03  0.00000000000E+00 0.  1.
        -13    1    5    5    0    0  0.65864622951E+02 -0.10033602670E+02 -0.23723157881E+03  0.24640950413E+03  0.00000000000E+00 0. -1.
          3    1    6    6  503    0 -0.17356088336E+02 -0.39599339292E+01 -0.42130971917E+01  0.18293853258E+02  0.00000000000E+00 0. -1.
         -3    1    6    6    0  503 -0.33576850861E+02 -0.25162166634E+03  0.14297615776E+03  0.29134695738E+03  0.00000000000E+00 0.  1.
<mgrwt>
<rscale>  0 0.13975353E+04</rscale>
<asrwt>0</asrwt>
<pdfrwt beam="1">  1        1 0.15359712E+00 0.13975353E+04</pdfrwt>
<pdfrwt beam="2">  1       -2 0.75241215E-01 0.13975353E+04</pdfrwt>
<totfact> 0.20571679E+01</totfact>
</mgrwt>
</event>
<event>
12    5  0.5095719E-008  0.3377207E+04  0.7818608E-02  0.8143523E-01
         -2   -1    0    0    0  501 -0.00000000000E+00  0.00000000000E+00  0.14051994487E+04  0.14051994487E+04  0.00000000000E+00 0.  1.
          1   -1    0    0  501    0  0.00000000000E+00 -0.00000000000E+00 -0.20291647789E+04  0.20291647789E+04  0.00000000000E+00 0. -1.
        -24    2    1    2    0    0 -0.11758995331E+04 -0.35446875965E+03  0.68345127367E+03  0.14077978322E+04  0.80007995982E+02 0.  0.
        254    2    1    2    0    0  0.11758995331E+04  0.35446875965E+03 -0.13074166039E+04  0.20265663953E+04  0.94299807269E+03 0.  0.
         23    2    4    4    0    0  0.10710984660E+04  0.52975465769E+03 -0.71938538258E+03  0.13974174887E+04  0.85839314969E+02 0.  0.
         23    2    4    4    0    0  0.10480106715E+03 -0.17528589804E+03 -0.58803122127E+03  0.62914890661E+03  0.91319328529E+02 0.  0.
          3    1    3    3  502    0 -0.87270344730E+03 -0.25151209784E+03  0.46653122914E+03  0.10210391912E+04  0.00000000000E+00 0. -1.
         -4    1    3    3    0  502 -0.30319608580E+03 -0.10295666181E+03  0.21692004453E+03  0.38675864099E+03  0.00000000000E+00 0.  1.
         13    1    5    5    0    0  0.38764651372E+03  0.15104677914E+03 -0.22854017786E+03  0.47467416401E+03  0.00000000000E+00 0. -1.
        -13    1    5    5    0    0  0.68345195224E+03  0.37870787855E+03 -0.49084520472E+03  0.92274332470E+03  0.00000000000E+00 0.  1.
          1    1    6    6  503    0 -0.91004262198E+01 -0.11768296083E+02 -0.10513459928E+02  0.18216569099E+02  0.00000000000E+00 0. -1.
         -1    1    6    6    0  503  0.11390149337E+03 -0.16351760196E+03 -0.57751776135E+03  0.61093233751E+03  0.00000000000E+00 0.  1.
<mgrwt>
<rscale>  0 0.33772067E+04</rscale>
<asrwt>0</asrwt>
<pdfrwt beam="1">  1        1 0.31217920E+00 0.33772067E+04</pdfrwt>
<pdfrwt beam="2">  1       -2 0.21618453E+00 0.33772067E+04</pdfrwt>
<totfact> 0.21567348E-01</totfact>
</mgrwt>
</event>
<event>
12    5  0.5095719E-008  0.2200257E+04  0.7818608E-02  0.8518321E-01
         -2   -1    0    0    0  501 -0.00000000000E+00  0.00000000000E+00  0.23553252466E+04  0.23553252466E+04  0.00000000000E+00 0.  1.
          1   -1    0    0  501    0  0.00000000000E+00 -0.00000000000E+00 -0.51384946506E+03  0.51384946506E+03  0.00000000000E+00 0. -1.
        -24    2    1    2    0    0 -0.37336709553E+03  0.48278223257E+03 -0.12580245102E+03  0.62884624350E+03  0.84496563071E+02 0.  0.
        254    2    1    2    0    0  0.37336709553E+03 -0.48278223257E+03  0.19672782326E+04  0.22403284682E+04  0.88113922219E+03 0.  0.
         23    2    4    4    0    0 -0.18823064781E+03  0.66034373249E+02  0.80637556527E+03  0.83615639135E+03  0.95522998787E+02 0.  0.
         23    2    4    4    0    0  0.56159774335E+03 -0.54881660581E+03  0.11609026673E+04  0.14041720768E+04  0.86096029344E+02 0.  0.
          3    1    3    3  502    0 -0.93146227931E+02  0.14432184013E+03 -0.71647552122E+02  0.18611390341E+03  0.00000000000E+00 0. -1.
         -4    1    3    3    0  502 -0.28022086760E+03  0.33846039244E+03 -0.54154898895E+02  0.44273234009E+03  0.00000000000E+00 0.  1.
         13    1    5    5    0    0  0.84072160380E+01 -0.24245425356E+01  0.11426796263E+02  0.14392058951E+02  0.00000000000E+00 0. -1.
        -13    1    5    5    0    0 -0.19663786385E+03  0.68458915784E+02  0.79494876901E+03  0.82176433239E+03  0.00000000000E+00 0.  1.
          3    1    6    6  503    0  0.17159411317E+03 -0.11502185346E+03  0.29867911974E+03  0.36315806891E+03  0.00000000000E+00 0. -1.
         -3    1    6    6    0  503  0.39000363017E+03 -0.43379475236E+03  0.86222354758E+03  0.10410140079E+04  0.00000000000E+00 0.  1.
<mgrwt>
<rscale>  0 0.22002569E+04</rscale>
<asrwt>0</asrwt>
<pdfrwt beam="1">  1        1 0.79053765E-01 0.22002569E+04</pdfrwt>
<pdfrwt beam="2">  1       -2 0.36235773E+00 0.22002569E+04</pdfrwt>
<totfact> 0.44330207E-01</totfact>
</mgrwt>
</event>
<event>
12    5  0.5095719E-008  0.1434627E+04  0.7818608E-02  0.8929129E-01
         -2   -1    0    0    0  501 -0.00000000000E+00  0.00000000000E+00  0.15681639437E+03  0.15681639437E+03  0.00000000000E+00 0.  1.
          1   -1    0    0  501    0  0.00000000000E+00 -0.00000000000E+00 -0.32811515062E+04  0.32811515062E+04  0.00000000000E+00 0. -1.
        -24    2    1    2    0    0 -0.57495672534E+02 -0.41263111489E+03 -0.10670607985E+04  0.11491118923E+04  0.90935163305E+02 0.  0.
        254    2    1    2    0    0  0.57495672534E+02  0.41263111489E+03 -0.20572743133E+04  0.22888560083E+04  0.91264124227E+03 0.  0.
         23    2    4    4    0    0 -0.18510639781E+03  0.59180909585E+03 -0.95473566029E+03  0.11421011151E+04  0.91500774342E+02 0.  0.
         23    2    4    4    0    0  0.24260207034E+03 -0.17917798096E+03 -0.11025386530E+04  0.11467548932E+04  0.92167185926E+02 0.  0.
          1    1    3    3  502    0  0.16436018921E+01 -0.57190253571E+02 -0.80119742529E+02  0.98451001385E+02  0.00000000000E+00 0. -1.
         -2    1    3    3    0  502 -0.59139274426E+02 -0.35544086132E+03 -0.98694105599E+03  0.10506608909E+04  0.00000000000E+00 0.  1.
         13    1    5    5    0    0 -0.88083608979E+02  0.16884443715E+03 -0.33870185738E+03  0.38856931727E+03  0.00000000000E+00 0.  1.
        -13    1    5    5    0    0 -0.97022788832E+02  0.42296465870E+03 -0.61603380290E+03  0.75353179786E+03  0.00000000000E+00 0. -1.
          1    1    6    6  503    0  0.12206047687E+03 -0.14316620090E+03 -0.60639898287E+03  0.63491341734E+03  0.00000000000E+00 0. -1.
         -1    1    6    6    0  503  0.12054159348E+03 -0.36011780059E+02 -0.49613967017E+03  0.51184147583E+03  0.00000000000E+00 0.  1.
<mgrwt>
<rscale>  0 0.14346266E+04</rscale>
<asrwt>0</asrwt>
<pdfrwt beam="1">  1        1 0.50479248E+00 0.14346266E+04</pdfrwt>
<pdfrwt beam="2">  1       -2 0.24125602E-01 0.14346266E+04</pdfrwt>
<totfact> 0.48738398E+00</totfact>
</mgrwt>
</event>
<event>
12    5  0.5095719E-008  0.2931236E+04  0.7818608E-02  0.8263644E-01
         -2   -1    0    0    0  501 -0.00000000000E+00  0.00000000000E+00  0.49499983984E+03  0.49499983984E+03  0.00000000000E+00 0.  1.
          1   -1    0    0  501    0  0.00000000000E+00 -0.00000000000E+00 -0.43394684431E+04  0.43394684431E+04  0.00000000000E+00 0. -1.
        -24    2    1    2    0    0 -0.19591635298E+03  0.80331077809E+03 -0.32137798554E+02  0.83074511529E+03  0.73574349625E+02 0.  0.
        254    2    1    2    0    0  0.19591635298E+03 -0.80331077809E+03 -0.38123308047E+04  0.40037231677E+04  0.90124448134E+03 0.  0.
         23    2    4    4    0    0 -0.24642140755E+03 -0.51420125544E+03 -0.11375534415E+04  0.12756078644E+04  0.89560875437E+02 0.  0.
         23    2    4    4    0    0  0.44233776053E+03 -0.28910952265E+03 -0.26747773633E+04  0.27281153032E+04  0.94510075130E+02 0.  0.
          1    1    3    3  502    0 -0.15923552945E+02  0.18567848668E+03 -0.18494227414E+02  0.18727545595E+03  0.00000000000E+00 0. -1.
         -2    1    3    3    0  502 -0.17999280004E+03  0.61763229141E+03 -0.13643571140E+02  0.64346965934E+03  0.00000000000E+00 0.  1.
         13    1    5    5    0    0 -0.12563038928E+03 -0.35238913467E+03 -0.69969471173E+03  0.79343165211E+03  0.00000000000E+00 0. -1.
        -13    1    5    5    0    0 -0.12079101828E+03 -0.16181212077E+03 -0.43785872973E+03  0.48217621232E+03  0.00000000000E+00 0.  1.
          1    1    6    6  503    0  0.23416340755E+03 -0.13806305087E+03 -0.16047602341E+04  0.16276207532E+04  0.00000000000E+00 0. -1.
         -1    1    6    6    0  503  0.20817435299E+03 -0.15104647178E+03 -0.10700171292E+04  0.11004945500E+04  0.00000000000E+00 0.  1.
<mgrwt>
<rscale>  0 0.29312360E+04</rscale>
<asrwt>0</asrwt>
<pdfrwt beam="1">  1        1 0.66761052E+00 0.29312360E+04</pdfrwt>
<pdfrwt beam="2">  1       -2 0.76153823E-01 0.29312360E+04</pdfrwt>
<totfact> 0.54194075E-02</totfact>
</mgrwt>
</event>
<event>
12    5  0.5095719E-008  0.1626978E+04  0.7818608E-02  0.8804143E-01
         -2   -1    0    0    0  501 -0.00000000000E+00  0.00000000000E+00  0.73755918599E+03  0.73755918599E+03  0.00000000000E+00 0.  1.
          1   -1    0    0  501    0  0.00000000000E+00 -0.00000000000E+00 -0.89723604712E+03  0.89723604712E+03  0.00000000000E+00 0. -1.
        -24    2    1    2    0    0 -0.17978490713E+03  0.35197773846E+03  0.34102381127E+03  0.52790998989E+03  0.78617913837E+02 0.  0.
        254    2    1    2    0    0  0.17978490713E+03 -0.35197773846E+03 -0.50070067240E+03  0.11068852432E+04  0.90458987232E+03 0.  0.
         23    2    4    4    0    0 -0.31979495880E+03 -0.31949885994E+03 -0.34142153531E+03  0.57382483436E+03  0.91421762053E+02 0.  0.
         23    2    4    4    0    0  0.49957986593E+03 -0.32478878516E+02 -0.15927913709E+03  0.53306040886E+03  0.90269795539E+02 0.  0.
          3    1    3    3  502    0 -0.36911076874E+01  0.12204868352E+02 -0.32394216319E+01  0.13155870931E+02  0.00000000000E+00 0. -1.
         -4    1    3    3    0  502 -0.17609379944E+03  0.33977287011E+03  0.34426323290E+03  0.51475411896E+03  0.00000000000E+00 0.  1.
         13    1    5    5    0    0 -0.10258958907E+02 -0.44322664322E+02 -0.48776459502E+02  0.66699983598E+02  0.00000000000E+00 0.  1.
        -13    1    5    5    0    0 -0.30953599989E+03 -0.27517619562E+03 -0.29264507581E+03  0.50712485076E+03  0.00000000000E+00 0. -1.
          3    1    6    6  503    0  0.33758564165E+03 -0.12789567008E+02 -0.14993880334E+03  0.36960693070E+03  0.00000000000E+00 0. -1.
         -3    1    6    6    0  503  0.16199422428E+03 -0.19689311509E+02 -0.93403337485E+01  0.16345347816E+03  0.00000000000E+00 0.  1.
<mgrwt>
<rscale>  0 0.16269784E+04</rscale>
<asrwt>0</asrwt>
<pdfrwt beam="1">  1        1 0.13803631E+00 0.16269784E+04</pdfrwt>
<pdfrwt beam="2">  1       -2 0.11347064E+00 0.16269784E+04</pdfrwt>
<totfact> 0.93495279E+00</totfact>
</mgrwt>
</event>
<event>
12    5  0.5396483E-008  0.2251728E+04  0.7818608E-02  0.8497201E-01
         -2   -1    0    0    0  501 -0.00000000000E+00  0.00000000000E+00  0.76626086919E+03  0.76626086919E+03  0.00000000000E+00 0.  1.
          1   -1    0    0  501    0  0.00000000000E+00 -0.00000000000E+00 -0.16542278087E+04  0.16542278087E+04  0.00000000000E+00 0. -1.
        -24    2    1    2    0    0 -0.77216749062E+02  0.73668433609E+02 -0.13778173242E+04  0.13840487556E+04  0.76294919063E+02 0.  0.
        254    2    1    2    0    0  0.77216749062E+02 -0.73668433609E+02  0.48985038471E+03  0.10364399222E+04  0.90711898258E+03 0.  0.
         23    2    4    4    0    0  0.28904347773E+03  0.25089226058E+02  0.66464196179E+03  0.73087148240E+03  0.90821721713E+02 0.  0.
         23    2    4    4    0    0 -0.21182672867E+03 -0.98757659667E+02 -0.17479157708E+03  0.30556843983E+03  0.90533627349E+02 0.  0.
          3    1    3    3  502    0 -0.29765007725E+02  0.56828498679E+02 -0.10880327479E+04  0.10899223342E+04  0.00000000000E+00 0. -1.
         -4    1    3    3    0  502 -0.47451741336E+02  0.16839934930E+02 -0.28978457627E+03  0.29412642147E+03  0.00000000000E+00 0.  1.
         13    1    5    5    0    0  0.25426582130E+03 -0.10067803575E+02  0.54955807485E+03  0.60561253800E+03  0.00000000000E+00 0. -1.
        -13    1    5    5    0    0  0.34777656425E+02  0.35157029633E+02  0.11508388694E+03  0.12525894440E+03  0.00000000000E+00 0.  1.
          3    1    6    6  503    0 -0.20076908174E+03 -0.10913495515E+03 -0.14095764870E+03  0.26849156662E+03  0.00000000000E+00 0. -1.
         -3    1    6    6    0  503 -0.11057646925E+02  0.10377295485E+02 -0.33833928387E+02  0.37076873212E+02  0.00000000000E+00 0.  1.
<mgrwt>
<rscale>  0 0.22517283E+04</rscale>
<asrwt>0</asrwt>
<pdfrwt beam="1">  1        1 0.25449658E+00 0.22517283E+04</pdfrwt>
<pdfrwt beam="2">  1       -2 0.11788629E+00 0.22517283E+04</pdfrwt>
<totfact> 0.22654702E+00</totfact>
</mgrwt>
</event>
<event>
12    5  0.5095719E-008  0.1909737E+04  0.7818608E-02  0.8650025E-01
          1   -1    0    0  501    0  0.00000000000E+00  0.00000000000E+00  0.13202563454E+04  0.13202563454E+04  0.00000000000E+00 0. -1.
         -2   -1    0    0    0  501 -0.00000000000E+00 -0.00000000000E+00 -0.69060385437E+03  0.69060385437E+03  0.00000000000E+00 0.  1.
        -24    2    1    2    0    0  0.45717724107E+03  0.47920679591E+03 -0.96475120959E+02  0.67410502446E+03  0.80373826793E+02 0.  0.
        254    2    1    2    0    0 -0.45717724107E+03 -0.47920679591E+03  0.72612761203E+03  0.13367551753E+04  0.90609210727E+03 0.  0.
         23    2    4    4    0    0 -0.96451152301E+02 -0.40171080134E+03 -0.93417974950E+02  0.43324651889E+03  0.91111115624E+02 0.  0.
         23    2    4    4    0    0 -0.36072608877E+03 -0.77495994569E+02  0.81954558698E+03  0.90350865646E+03  0.92433667369E+02 0.  0.
          3    1    3    3  502    0  0.23614248728E+03  0.29497836312E+03 -0.31872646247E+02  0.37919833146E+03  0.00000000000E+00 0. -1.
         -4    1    3    3    0  502  0.22103475379E+03  0.18422843279E+03 -0.64602474712E+02  0.29490669299E+03  0.00000000000E+00 0.  1.
         13    1    5    5    0    0  0.18093983917E+02 -0.57609344255E+02 -0.12568179723E+02  0.61678099363E+02  0.00000000000E+00 0.  1.
        -13    1    5    5    0    0 -0.11454513622E+03 -0.34410145708E+03 -0.80849795226E+02  0.37156841952E+03  0.00000000000E+00 0. -1.
          3    1    6    6  503    0 -0.22985031990E+03 -0.70969912010E+02  0.61737221697E+03  0.66258309083E+03  0.00000000000E+00 0. -1.
         -3    1    6    6    0  503 -0.13087576888E+03 -0.65260825594E+01  0.20217337000E+03  0.24092556562E+03  0.00000000000E+00 0.  1.
<mgrwt>
<rscale>  0 0.19097373E+04</rscale>
<asrwt>0</asrwt>
<pdfrwt beam="1">  1        1 0.20311636E+00 0.19097373E+04</pdfrwt>
<pdfrwt beam="2">  1       -2 0.10624675E+00 0.19097373E+04</pdfrwt>
<totfact> 0.51276687E+00</totfact>
</mgrwt>
</event>
<event>
12    5  0.5095719E-008  0.1005532E+04  0.7818608E-02  0.9302499E-01
         -2   -1    0    0    0  501 -0.00000000000E+00  0.00000000000E+00  0.38014603503E+03  0.38014603503E+03  0.00000000000E+00 0.  1.
          1   -1    0    0  501    0  0.00000000000E+00 -0.00000000000E+00 -0.66493774754E+03  0.66493774754E+03  0.00000000000E+00 0. -1.
        -24    2    1    2    0    0 -0.10499947420E+02  0.39565922556E+02  0.24784533060E+02  0.91639299880E+02  0.78152268553E+02 0.  0.
        254    2    1    2    0    0  0.10499947420E+02 -0.39565922556E+02 -0.30957624557E+03  0.95344448269E+03  0.90085693571E+03 0.  0.
         23    2    4    4    0    0 -0.25702049859E+03 -0.13874493972E+03  0.19788809602E+03  0.36464369503E+03  0.92171746144E+02 0.  0.
         23    2    4    4    0    0  0.26752044601E+03  0.99179017168E+02 -0.50746434159E+03  0.58880078765E+03  0.88105862913E+02 0.  0.
          3    1    3    3  502    0  0.99717037448E+01  0.14368825778E+02 -0.26017490918E+02  0.31349766562E+02  0.00000000000E+00 0. -1.
         -4    1    3    3    0  502 -0.20471651165E+02  0.25197096779E+02  0.50802023978E+02  0.60289533318E+02  0.00000000000E+00 0.  1.
         13    1    5    5    0    0 -0.39906942920E+01 -0.25735549221E+02  0.38059284821E+01  0.26319749737E+02  0.00000000000E+00 0. -1.
        -13    1    5    5    0    0 -0.25302980430E+03 -0.11300939050E+03  0.19408216754E+03  0.33832394530E+03  0.00000000000E+00 0.  1.
          1    1    6    6  503    0  0.48140883884E+02  0.47438814788E+02 -0.73892144663E+02  0.10014007636E+03  0.00000000000E+00 0. -1.
         -1    1    6    6    0  503  0.21937956212E+03  0.51740202380E+02 -0.43357219693E+03  0.48866071130E+03  0.00000000000E+00 0.  1.
<mgrwt>
<rscale>  0 0.10055316E+04</rscale>
<asrwt>0</asrwt>
<pdfrwt beam="1">  1        1 0.10229811E+00 0.10055316E+04</pdfrwt>
<pdfrwt beam="2">  1       -2 0.58484006E-01 0.10055316E+04</pdfrwt>
<totfact> 0.70668327E+01</totfact>
</mgrwt>
</event>
<event>
12    5  0.5095719E-008  0.1971335E+04  0.7818608E-02  0.8620141E-01
         -2   -1    0    0    0  501 -0.00000000000E+00  0.00000000000E+00  0.67648403820E+03  0.67648403820E+03  0.00000000000E+00 0.  1.
          1   -1    0    0  501    0  0.00000000000E+00 -0.00000000000E+00 -0.14361619203E+04  0.14361619203E+04  0.00000000000E+00 0. -1.
        -24    2    1    2    0    0 -0.45000618384E+03  0.53937522524E+02 -0.97995402671E+03  0.10826283633E+04  0.79746202468E+02 0.  0.
        254    2    1    2    0    0  0.45000618384E+03 -0.53937522524E+02  0.22027614460E+03  0.10300175952E+04  0.89833170080E+03 0.  0.
         23    2    4    4    0    0  0.52865142075E+03  0.21068443876E+03 -0.11279017186E+03  0.58700877725E+03  0.89428319371E+02 0.  0.
         23    2    4    4    0    0 -0.78645236901E+02 -0.26462196129E+03  0.33306631646E+03  0.44300881793E+03  0.95466150649E+02 0.  0.
          1    1    3    3  502    0 -0.27564087132E+03  0.70412207580E+02 -0.63209010709E+03  0.69316208234E+03  0.00000000000E+00 0. -1.
         -2    1    3    3    0  502 -0.17436531252E+03 -0.16474685056E+02 -0.34786391963E+03  0.38946628100E+03  0.00000000000E+00 0.  1.
         13    1    5    5    0    0  0.49560021597E+03  0.20130968022E+03 -0.12705919436E+03  0.54980833051E+03  0.00000000000E+00 0. -1.
        -13    1    5    5    0    0  0.33051204773E+02  0.93747585440E+01  0.14269022502E+02  0.37200446743E+02  0.00000000000E+00 0.  1.
          3    1    6    6  503    0 -0.88624321649E+02 -0.16042774342E+03  0.24655263511E+03  0.30721252111E+03  0.00000000000E+00 0. -1.
         -3    1    6    6    0  503  0.99790847476E+01 -0.10419421786E+03  0.86513681347E+02  0.13579629682E+03  0.00000000000E+00 0.  1.
<mgrwt>
<rscale>  0 0.19713352E+04</rscale>
<asrwt>0</asrwt>
<pdfrwt beam="1">  1        1 0.22094798E+00 0.19713352E+04</pdfrwt>
<pdfrwt beam="2">  1       -2 0.10407447E+00 0.19713352E+04</pdfrwt>
<totfact> 0.44411164E+00</totfact>
</mgrwt>
</event>
<event>
12    5  0.5095719E-008  0.1588263E+04  0.7818608E-02  0.8827791E-01
         -2   -1    0    0    0  501 -0.00000000000E+00  0.00000000000E+00  0.70716853442E+03  0.70716853442E+03  0.00000000000E+00 0.  1.
          1   -1    0    0  501    0  0.00000000000E+00 -0.00000000000E+00 -0.89178916159E+03  0.89178916159E+03  0.00000000000E+00 0. -1.
        -24    2    1    2    0    0 -0.30632853704E+03 -0.35662523242E+03 -0.31814340964E+03  0.57329568243E+03  0.80212102580E+02 0.  0.
        254    2    1    2    0    0  0.30632853704E+03  0.35662523242E+03  0.13352278247E+03  0.10256620136E+04  0.90174026396E+03 0.  0.
         23    2    4    4    0    0  0.12114324912E+02 -0.25328615368E+03 -0.12179904538E+03  0.29624881479E+03  0.92885522524E+02 0.  0.
         23    2    4    4    0    0  0.29421421213E+03  0.60991138610E+03  0.25532182786E+03  0.72941319878E+03  0.91106955072E+02 0.  0.
          3    1    3    3  502    0 -0.28037361553E+03 -0.29098648346E+03 -0.28967820594E+03  0.49718805379E+03  0.00000000000E+00 0. -1.
         -4    1    3    3    0  502 -0.25954921510E+02 -0.65638748959E+02 -0.28465203699E+02  0.76107628639E+02  0.00000000000E+00 0.  1.
         13    1    5    5    0    0  0.18194746183E+01 -0.42888488605E+02  0.14545609109E+02  0.45324471172E+02  0.00000000000E+00 0. -1.
        -13    1    5    5    0    0  0.10294850294E+02 -0.21039766508E+03 -0.13634465449E+03  0.25092434362E+03  0.00000000000E+00 0.  1.
          1    1    6    6  503    0  0.13161100286E+03  0.32441801940E+03  0.89350628772E+02  0.36131986140E+03  0.00000000000E+00 0. -1.
         -1    1    6    6    0  503  0.16260320926E+03  0.28549336671E+03  0.16597119908E+03  0.36809333738E+03  0.00000000000E+00 0.  1.
<mgrwt>
<rscale>  0 0.15882635E+04</rscale>
<asrwt>0</asrwt>
<pdfrwt beam="1">  1        1 0.13719833E+00 0.15882635E+04</pdfrwt>
<pdfrwt beam="2">  1       -2 0.10879516E+00 0.15882635E+04</pdfrwt>
<totfact> 0.10496417E+01</totfact>
</mgrwt>
</event>
<event>
12    5  0.5095719E-008  0.1750002E+04  0.7818608E-02  0.8733349E-01
          1   -1    0    0  501    0  0.00000000000E+00  0.00000000000E+00  0.23259507758E+04  0.23259507758E+04  0.00000000000E+00 0. -1.
         -2   -1    0    0    0  501 -0.00000000000E+00 -0.00000000000E+00 -0.32916706278E+03  0.32916706278E+03  0.00000000000E+00 0.  1.
        -24    2    1    2    0    0 -0.14325257873E+03 -0.62090357635E+03  0.85988103242E+03  0.10732318708E+04  0.79929381810E+02 0.  0.
        254    2    1    2    0    0  0.14325257873E+03  0.62090357635E+03  0.11369026806E+04  0.15818859678E+04  0.89653385748E+03 0.  0.
         23    2    4    4    0    0  0.39443674672E+03  0.69455696564E+03  0.96131882631E+03  0.12532744610E+04  0.92591916619E+02 0.  0.
         23    2    4    4    0    0 -0.25118416799E+03 -0.73653389291E+02  0.17558385432E+03  0.32861150688E+03  0.92938283553E+02 0.  0.
          1    1    3    3  502    0 -0.11126504760E+03 -0.54715493934E+03  0.71100233289E+03  0.90403692172E+03  0.00000000000E+00 0. -1.
         -2    1    3    3    0  502 -0.31987531123E+02 -0.73748637015E+02  0.14887869954E+03  0.16919494905E+03  0.00000000000E+00 0.  1.
         13    1    5    5    0    0  0.11753346242E+03  0.21963551795E+03  0.36832212896E+03  0.44465162342E+03  0.00000000000E+00 0. -1.
        -13    1    5    5    0    0  0.27690328430E+03  0.47492144769E+03  0.59299669735E+03  0.80862283755E+03  0.00000000000E+00 0.  1.
          4    1    6    6  503    0 -0.52800628589E+02  0.15737888199E+02  0.62740896834E+02  0.83498548730E+02  0.00000000000E+00 0. -1.
         -4    1    6    6    0  503 -0.19838353940E+03 -0.89391277491E+02  0.11284295749E+03  0.24511295815E+03  0.00000000000E+00 0.  1.
<mgrwt>
<rscale>  0 0.17500016E+04</rscale>
<asrwt>0</asrwt>
<pdfrwt beam="1">  1        1 0.35783857E+00 0.17500016E+04</pdfrwt>
<pdfrwt beam="2">  1       -2 0.50641088E-01 0.17500016E+04</pdfrwt>
<totfact> 0.54853962E+00</totfact>
</mgrwt>
</event>
<event>
12    5  0.5095719E-008  0.1287481E+04  0.7818608E-02  0.9039552E-01
         -2   -1    0    0    0  501 -0.00000000000E+00  0.00000000000E+00  0.74563415391E+03  0.74563415391E+03  0.00000000000E+00 0.  1.
          1   -1    0    0  501    0  0.00000000000E+00 -0.00000000000E+00 -0.55577137898E+03  0.55577137898E+03  0.00000000000E+00 0. -1.
        -24    2    1    2    0    0  0.18482955317E+03 -0.11904859855E+03 -0.18822697745E+03  0.30203889382E+03  0.86391931352E+02 0.  0.
        254    2    1    2    0    0 -0.18482955317E+03  0.11904859855E+03  0.37808975237E+03  0.99936663907E+03  0.89858070639E+03 0.  0.
         23    2    4    4    0    0  0.14279842221E+03  0.24362613941E+03 -0.16887009406E+03  0.34379136850E+03  0.99650946799E+02 0.  0.
         23    2    4    4    0    0 -0.32762797538E+03 -0.12457754086E+03  0.54695984643E+03  0.65557527057E+03  0.88057979971E+02 0.  0.
          3    1    3    3  502    0  0.17251958709E+03 -0.10657276966E+03 -0.19675481131E+03  0.28254772860E+03  0.00000000000E+00 0. -1.
         -4    1    3    3    0  502  0.12309966079E+02 -0.12475828889E+02  0.85278338658E+01  0.19491165224E+02  0.00000000000E+00 0.  1.
         13    1    5    5    0    0  0.19276945079E+02  0.53679063736E+02  0.63196569468E+01  0.57384497550E+02  0.00000000000E+00 0.  1.
        -13    1    5    5    0    0  0.12352147713E+03  0.18994707567E+03 -0.17518975101E+03  0.28640687095E+03  0.00000000000E+00 0. -1.
          3    1    6    6  503    0 -0.22254336000E+03 -0.71156738378E+02  0.43078862166E+03  0.49006904111E+03  0.00000000000E+00 0. -1.
         -3    1    6    6    0  503 -0.10508461538E+03 -0.53420802481E+02  0.11617122477E+03  0.16550622946E+03  0.00000000000E+00 0.  1.
<mgrwt>
<rscale>  0 0.12874815E+04</rscale>
<asrwt>0</asrwt>
<pdfrwt beam="1">  1        1 0.85503289E-01 0.12874815E+04</pdfrwt>
<pdfrwt beam="2">  1       -2 0.11471295E+00 0.12874815E+04</pdfrwt>
<totfact> 0.19505453E+01</totfact>
</mgrwt>
</event>
<event>
12    5  0.5095719E-008  0.1183502E+04  0.7818608E-02  0.9127421E-01
          1   -1    0    0  501    0  0.00000000000E+00  0.00000000000E+00  0.10445609268E+04  0.10445609268E+04  0.00000000000E+00 0. -1.
         -2   -1    0    0    0  501 -0.00000000000E+00 -0.00000000000E+00 -0.33523080939E+03  0.33523080939E+03  0.00000000000E+00 0.  1.
        -24    2    1    2    0    0 -0.11697209791E+03  0.76700452831E+02  0.37581840772E+03  0.40899409436E+03  0.80444157575E+02 0.  0.
        254    2    1    2    0    0  0.11697209791E+03 -0.76700452831E+02  0.33351170970E+03  0.97079764184E+03  0.90091762651E+03 0.  0.
         23    2    4    4    0    0  0.32009916576E+03 -0.28612959795E+03 -0.90352807802E+02  0.44848136051E+03  0.92942337558E+02 0.  0.
         23    2    4    4    0    0 -0.20312706784E+03  0.20942914512E+03  0.42386451750E+03  0.52231628133E+03  0.89621403868E+02 0.  0.
          3    1    3    3  502    0 -0.77973546365E+02  0.54855596127E+02  0.33555034742E+03  0.34883097054E+03  0.00000000000E+00 0. -1.
         -4    1    3    3    0  502 -0.38998551546E+02  0.21844856704E+02  0.40268060306E+02  0.60163123821E+02  0.00000000000E+00 0.  1.
         13    1    5    5    0    0  0.40523549800E+02 -0.14258112686E+02  0.13301157828E+02  0.44970797918E+02  0.00000000000E+00 0. -1.
        -13    1    5    5    0    0  0.27957561595E+03 -0.27187148526E+03 -0.10365396563E+03  0.40351056260E+03  0.00000000000E+00 0.  1.
          3    1    6    6  503    0 -0.20053852324E+02  0.69428630241E+02  0.74589946734E+02  0.10385640011E+03  0.00000000000E+00 0. -1.
         -3    1    6    6    0  503 -0.18307321552E+03  0.14000051488E+03  0.34927457076E+03  0.41845988122E+03  0.00000000000E+00 0.  1.
<mgrwt>
<rscale>  0 0.11835016E+04</rscale>
<asrwt>0</asrwt>
<pdfrwt beam="1">  1        1 0.16070168E+00 0.11835016E+04</pdfrwt>
<pdfrwt beam="2">  1       -2 0.51573971E-01 0.11835016E+04</pdfrwt>
<totfact> 0.43107054E+01</totfact>
</mgrwt>
</event>
<event>
12    5  0.5095719E-008  0.2223746E+04  0.7818608E-02  0.8508609E-01
         -2   -1    0    0    0  501 -0.00000000000E+00  0.00000000000E+00  0.80317159640E+03  0.80317159640E+03  0.00000000000E+00 0.  1.
          1   -1    0    0  501    0  0.00000000000E+00 -0.00000000000E+00 -0.15392242343E+04  0.15392242343E+04  0.00000000000E+00 0. -1.
        -24    2    1    2    0    0 -0.43971946119E+03 -0.26102999515E+03  0.51356774609E+03  0.72894549613E+03  0.78229429170E+02 0.  0.
        254    2    1    2    0    0  0.43971946119E+03  0.26102999515E+03 -0.12496203840E+04  0.16134503345E+04  0.88327856030E+03 0.  0.
         23    2    4    4    0    0  0.57706061086E+03  0.43944305690E+03 -0.11209503154E+04  0.13383106857E+04  0.91851689252E+02 0.  0.
         23    2    4    4    0    0 -0.13734114968E+03 -0.17841306175E+03 -0.12867006854E+03  0.27513964888E+03  0.91934910945E+02 0.  0.
          3    1    3    3  502    0 -0.26048932134E+03 -0.17393683531E+03  0.36122336693E+03  0.47811194299E+03  0.00000000000E+00 0. -1.
         -4    1    3    3    0  502 -0.17923013985E+03 -0.87093159836E+02  0.15234437916E+03  0.25083355314E+03  0.00000000000E+00 0.  1.
         13    1    5    5    0    0  0.50042078668E+03  0.34674712821E+03 -0.89680558433E+03  0.10839348646E+04  0.00000000000E+00 0. -1.
        -13    1    5    5    0    0  0.76639824182E+02  0.92695928688E+02 -0.22414473111E+03  0.25437582105E+03  0.00000000000E+00 0.  1.
          2    1    6    6  503    0 -0.14497970386E+03 -0.16191321943E+03 -0.95667772786E+02  0.23746016067E+03  0.00000000000E+00 0. -1.
         -2    1    6    6    0  503  0.76385541812E+01 -0.16499842316E+02 -0.33002295752E+02  0.37679488204E+02  0.00000000000E+00 0.  1.
<mgrwt>
<rscale>  0 0.22237457E+04</rscale>
<asrwt>0</asrwt>
<pdfrwt beam="1">  1        1 0.23680373E+00 0.22237457E+04</pdfrwt>
<pdfrwt beam="2">  1       -2 0.12356486E+00 0.22237457E+04</pdfrwt>
<totfact> 0.24228914E+00</totfact>
</mgrwt>
</event>
<event>
12    5  0.5095719E-008  0.2854207E+04  0.7818608E-02  0.8286634E-01
         -2   -1    0    0    0  501 -0.00000000000E+00  0.00000000000E+00  0.14731995234E+04  0.14731995234E+04  0.00000000000E+00 0.  1.
          1   -1    0    0  501    0  0.00000000000E+00 -0.00000000000E+00 -0.13824498092E+04  0.13824498092E+04  0.00000000000E+00 0. -1.
        -24    2    1    2    0    0  0.96016335267E+03  0.23743071932E+03 -0.76387420498E+03  0.12522906868E+04  0.80256793326E+02 0.  0.
        254    2    1    2    0    0 -0.96016335267E+03 -0.23743071932E+03  0.85462391917E+03  0.16033586458E+04  0.92848796094E+03 0.  0.
         23    2    4    4    0    0 -0.64462496599E+03 -0.32262412507E+03  0.99852528973E+03  0.12348972016E+04  0.91053123588E+02 0.  0.
         23    2    4    4    0    0 -0.31553838668E+03  0.85193405751E+02 -0.14390137056E+03  0.36846144427E+03  0.90740518012E+02 0.  0.
          3    1    3    3  502    0  0.73920544401E+03  0.17883386412E+03 -0.54353628227E+03  0.93479298754E+03  0.00000000000E+00 0. -1.
         -4    1    3    3    0  502  0.22095790866E+03  0.58596855197E+02 -0.22033792271E+03  0.31749769924E+03  0.00000000000E+00 0.  1.
         13    1    5    5    0    0 -0.46762075062E+02 -0.52019919107E+02  0.84812791989E+02  0.10993622393E+03  0.00000000000E+00 0. -1.
        -13    1    5    5    0    0 -0.59786289093E+03 -0.27060420597E+03  0.91371249774E+03  0.11249609776E+04  0.00000000000E+00 0.  1.
          1    1    6    6  503    0 -0.80385210731E+02 -0.12032613249E+01 -0.17376983456E+01  0.80412993587E+02  0.00000000000E+00 0. -1.
         -1    1    6    6    0  503 -0.23515317595E+03  0.86396667076E+02 -0.14216367222E+03  0.28804845068E+03  0.00000000000E+00 0.  1.
<mgrwt>
<rscale>  0 0.28542070E+04</rscale>
<asrwt>0</asrwt>
<pdfrwt beam="1">  1        1 0.21268459E+00 0.28542070E+04</pdfrwt>
<pdfrwt beam="2">  1       -2 0.22664608E+00 0.28542070E+04</pdfrwt>
<totfact> 0.53671086E-01</totfact>
</mgrwt>
</event>
<event>
12    5  0.5095719E-008  0.1463820E+04  0.7818608E-02  0.8908875E-01
         -2   -1    0    0    0  501 -0.00000000000E+00  0.00000000000E+00  0.51583031381E+03  0.51583031381E+03  0.00000000000E+00 0.  1.
          1   -1    0    0  501    0  0.00000000000E+00 -0.00000000000E+00 -0.10385048187E+04  0.10385048187E+04  0.00000000000E+00 0. -1.
        -24    2    1    2    0    0  0.35631562446E+02 -0.18253215042E+02  0.31102451246E+03  0.32393187469E+03  0.81196206708E+02 0.  0.
        254    2    1    2    0    0 -0.35631562446E+02  0.18253215042E+02 -0.83369901731E+03  0.12304032578E+04  0.90401069529E+03 0.  0.
         23    2    4    4    0    0 -0.34823861582E+02 -0.29851135510E+03  0.19789261169E+02  0.31495034959E+03  0.92088964534E+02 0.  0.
         23    2    4    4    0    0 -0.80770086354E+00  0.31676457015E+03 -0.85348827848E+03  0.91545290819E+03  0.96287799518E+02 0.  0.
          3    1    3    3  502    0  0.10461407090E+02  0.27035421751E+02  0.49837962538E+02  0.57655681225E+02  0.00000000000E+00 0. -1.
         -4    1    3    3    0  502  0.25170155356E+02 -0.45288636793E+02  0.26118654993E+03  0.26627619346E+03  0.00000000000E+00 0.  1.
         13    1    5    5    0    0 -0.42354563068E+02 -0.22764245413E+03  0.51079052460E+02  0.23711614355E+03  0.00000000000E+00 0. -1.
        -13    1    5    5    0    0  0.75307014854E+01 -0.70868900979E+02 -0.31289791291E+02  0.77834206040E+02  0.00000000000E+00 0.  1.
          3    1    6    6  503    0 -0.10071858770E+02  0.30069630808E+03 -0.84072541540E+03  0.89293837196E+03  0.00000000000E+00 0. -1.
         -3    1    6    6    0  503  0.92641579062E+01  0.16068262066E+02 -0.12762863084E+02  0.22514536230E+02  0.00000000000E+00 0.  1.
<mgrwt>
<rscale>  0 0.14638200E+04</rscale>
<asrwt>0</asrwt>
<pdfrwt beam="1">  1        1 0.15976997E+00 0.14638200E+04</pdfrwt>
<pdfrwt beam="2">  1       -2 0.79358511E-01 0.14638200E+04</pdfrwt>
<totfact> 0.16910748E+01</totfact>
</mgrwt>
</event>
<event>
12    5  0.5095719E-008  0.1387240E+04  0.7818608E-02  0.8963107E-01
         -2   -1    0    0    0  501 -0.00000000000E+00  0.00000000000E+00  0.32854914012E+03  0.32854914012E+03  0.00000000000E+00 0.  1.
          1   -1    0    0  501    0  0.00000000000E+00 -0.00000000000E+00 -0.14643431768E+04  0.14643431768E+04  0.00000000000E+00 0. -1.
        -24    2    1    2    0    0 -0.21524916363E+03  0.23333808159E+03 -0.20756495940E+02  0.32779689690E+03  0.79000700837E+02 0.  0.
        254    2    1    2    0    0  0.21524916363E+03 -0.23333808159E+03 -0.11150375408E+04  0.14650954201E+04  0.89577732154E+03 0.  0.
         23    2    4    4    0    0  0.25883050017E+03  0.29978585482E+03 -0.43687013174E+03  0.59702386339E+03  0.93365919315E+02 0.  0.
         23    2    4    4    0    0 -0.43581336545E+02 -0.53312393641E+03 -0.67816740904E+03  0.86807155667E+03  0.86699067745E+02 0.  0.
          1    1    3    3  502    0 -0.78301376082E+02  0.45386705715E+02 -0.29180585230E+02  0.95092402989E+02  0.00000000000E+00 0. -1.
         -2    1    3    3    0  502 -0.13694778754E+03  0.18795137588E+03  0.84240892894E+01  0.23270449391E+03  0.00000000000E+00 0.  1.
         13    1    5    5    0    0  0.24189773837E+02  0.86265501979E+02 -0.91489615870E+02  0.12805167630E+03  0.00000000000E+00 0. -1.
        -13    1    5    5    0    0  0.23464072633E+03  0.21352035284E+03 -0.34538051587E+03  0.46897218710E+03  0.00000000000E+00 0.  1.
          1    1    6    6  503    0  0.80901851881E+01 -0.38120422900E+03 -0.48578895807E+03  0.61755406815E+03  0.00000000000E+00 0. -1.
         -1    1    6    6    0  503 -0.51671521733E+02 -0.15191970740E+03 -0.19237845097E+03  0.25051748852E+03  0.00000000000E+00 0.  1.
<mgrwt>
<rscale>  0 0.13872400E+04</rscale>
<asrwt>0</asrwt>
<pdfrwt beam="1">  1        1 0.22528357E+00 0.13872400E+04</pdfrwt>
<pdfrwt beam="2">  1       -2 0.50546021E-01 0.13872400E+04</pdfrwt>
<totfact> 0.21951519E+01</totfact>
</mgrwt>
</event>
<event>
12    5  0.5095719E-008  0.2344747E+04  0.7818608E-02  0.8460484E-01
          1   -1    0    0  501    0  0.00000000000E+00  0.00000000000E+00  0.81224370376E+03  0.81224370376E+03  0.00000000000E+00 0. -1.
         -4   -1    0    0    0  501 -0.00000000000E+00 -0.00000000000E+00 -0.16921763535E+04  0.16921763535E+04  0.00000000000E+00 0.  1.
        -24    2    1    2    0    0 -0.13422126288E+03 -0.88391909480E+03  0.10159185040E+03  0.90325473404E+03  0.78866323179E+02 0.  0.
        254    2    1    2    0    0  0.13422126288E+03  0.88391909480E+03 -0.98152450013E+03  0.16011653232E+04  0.89499258898E+03 0.  0.
         23    2    4    4    0    0  0.45677663873E+03  0.69233838136E+03 -0.85584145952E+03  0.11953248080E+04  0.91430086570E+02 0.  0.
         23    2    4    4    0    0 -0.32255537586E+03  0.19158071345E+03 -0.12568304061E+03  0.40584051523E+03  0.90361257467E+02 0.  0.
          1    1    3    3  502    0 -0.11856566379E+03 -0.78324841375E+03  0.64351499719E+02  0.79478110810E+03  0.00000000000E+00 0. -1.
         -2    1    3    3    0  502 -0.15655599083E+02 -0.10067068105E+03  0.37240350678E+02  0.10847362594E+03  0.00000000000E+00 0.  1.
         13    1    5    5    0    0  0.38613035525E+01 -0.28045523109E+01 -0.42424389605E+01  0.63854104897E+01  0.00000000000E+00 0. -1.
        -13    1    5    5    0    0  0.45291533518E+03  0.69514293367E+03 -0.85159902056E+03  0.11889393975E+04  0.00000000000E+00 0.  1.
          4    1    6    6  503    0 -0.84034089431E+02  0.92583879073E+02 -0.19200430441E+02  0.12649964182E+03  0.00000000000E+00 0. -1.
         -4    1    6    6    0  503 -0.23852128642E+03  0.98996834374E+02 -0.10648261017E+03  0.27934087342E+03  0.00000000000E+00 0.  1.
<mgrwt>
<rscale>  0 0.23447470E+04</rscale>
<asrwt>0</asrwt>
<pdfrwt beam="1">  1        1 0.12496057E+00 0.23447470E+04</pdfrwt>
<pdfrwt beam="2">  1       -4 0.26033482E+00 0.23447470E+04</pdfrwt>
<totfact> 0.50787203E-01</totfact>
</mgrwt>
</event>
<event>
12    5  0.5095719E-008  0.1940325E+04  0.7818608E-02  0.8635041E-01
          1   -1    0    0  501    0  0.00000000000E+00  0.00000000000E+00  0.73373282543E+03  0.73373282543E+03  0.00000000000E+00 0. -1.
         -4   -1    0    0    0  501 -0.00000000000E+00 -0.00000000000E+00 -0.12827759563E+04  0.12827759563E+04  0.00000000000E+00 0.  1.
        -24    2    1    2    0    0 -0.52280170147E+03  0.35997470003E+03  0.21614547266E+03  0.67486574875E+03  0.76298818875E+02 0.  0.
        254    2    1    2    0    0  0.52280170147E+03 -0.35997470003E+03 -0.76518860352E+03  0.13416430330E+04  0.90088235928E+03 0.  0.
         23    2    4    4    0    0  0.47120973463E+03 -0.22543635317E+03 -0.95141064133E+03  0.10893127710E+04  0.92519950943E+02 0.  0.
         23    2    4    4    0    0  0.51591966840E+02 -0.13453834686E+03  0.18622203781E+03  0.25233026197E+03  0.90717230555E+02 0.  0.
          3    1    3    3  502    0 -0.47622522399E+03  0.34471410253E+03  0.21457429945E+03  0.62582777697E+03  0.00000000000E+00 0. -1.
         -2    1    3    3    0  502 -0.46576477481E+02  0.15260597501E+02  0.15711732070E+01  0.49037971776E+02  0.00000000000E+00 0.  1.
         13    1    5    5    0    0  0.10252813680E+03 -0.28425360903E+02 -0.26598836744E+03  0.28647832656E+03  0.00000000000E+00 0.  1.
        -13    1    5    5    0    0  0.36868159783E+03 -0.19701099227E+03 -0.68542227389E+03  0.80283444445E+03  0.00000000000E+00 0. -1.
          4    1    6    6  503    0  0.24978205320E+01 -0.44601523517E+02  0.12552733775E+03  0.13323906158E+03  0.00000000000E+00 0. -1.
         -4    1    6    6    0  503  0.49094146308E+02 -0.89936823344E+02  0.60694700061E+02  0.11909120039E+03  0.00000000000E+00 0.  1.
<mgrwt>
<rscale>  0 0.19403245E+04</rscale>
<asrwt>0</asrwt>
<pdfrwt beam="1">  1        1 0.11288197E+00 0.19403245E+04</pdfrwt>
<pdfrwt beam="2">  1       -4 0.19735015E+00 0.19403245E+04</pdfrwt>
<totfact> 0.15571062E+00</totfact>
</mgrwt>
</event>
<event>
12    5  0.5095719E-008  0.2871871E+04  0.7818608E-02  0.8281296E-01
         -2   -1    0    0    0  501 -0.00000000000E+00  0.00000000000E+00  0.11766694933E+04  0.11766694933E+04  0.00000000000E+00 0.  1.
          1   -1    0    0  501    0  0.00000000000E+00 -0.00000000000E+00 -0.17523277880E+04  0.17523277880E+04  0.00000000000E+00 0. -1.
        -24    2    1    2    0    0  0.10011512313E+04 -0.79779787626E+03 -0.78405532501E+02  0.12850805246E+04  0.80618160601E+02 0.  0.
        254    2    1    2    0    0 -0.10011512313E+04  0.79779787626E+03 -0.49725276223E+03  0.16439167567E+04  0.90355783117E+03 0.  0.
         23    2    4    4    0    0  0.80366088675E+02  0.18842498422E+03 -0.31011887785E+03  0.38524377420E+03  0.10137240390E+03 0.  0.
         23    2    4    4    0    0 -0.10815173199E+04  0.60937289204E+03 -0.18713388437E+03  0.12586729825E+04  0.90683798817E+02 0.  0.
          3    1    3    3  502    0  0.36604990303E+02 -0.41670610998E+02 -0.16744926151E+02  0.57937532635E+02  0.00000000000E+00 0. -1.
         -4    1    3    3    0  502  0.96454624096E+03 -0.75612726526E+03 -0.61660606350E+02  0.12271429919E+04  0.00000000000E+00 0.  1.
         13    1    5    5    0    0  0.35756770065E+02  0.13824423282E+03 -0.27406564681E+03  0.30903396783E+03  0.00000000000E+00 0.  1.
        -13    1    5    5    0    0  0.44609318611E+02  0.50180751405E+02 -0.36053231045E+02  0.76209806372E+02  0.00000000000E+00 0. -1.
          4    1    6    6  503    0 -0.31609611357E+03  0.19184921588E+03 -0.96078718864E+02  0.38203925828E+03  0.00000000000E+00 0. -1.
         -4    1    6    6    0  503 -0.76542120637E+03  0.41752367617E+03 -0.91055165510E+02  0.87663372425E+03  0.00000000000E+00 0.  1.
<mgrwt>
<rscale>  0 0.28718709E+04</rscale>
<asrwt>0</asrwt>
<pdfrwt beam="1">  1        1 0.26958889E+00 0.28718709E+04</pdfrwt>
<pdfrwt beam="2">  1       -2 0.18102608E+00 0.28718709E+04</pdfrwt>
<totfact> 0.59213604E-01</totfact>
</mgrwt>
</event>
<event>
12    5  0.5095719E-008  0.2340052E+04  0.7818608E-02  0.8462294E-01
          1   -1    0    0  501    0  0.00000000000E+00  0.00000000000E+00  0.92648080442E+03  0.92648080442E+03  0.00000000000E+00 0. -1.
         -2   -1    0    0    0  501 -0.00000000000E+00 -0.00000000000E+00 -0.14775928563E+04  0.14775928563E+04  0.00000000000E+00 0.  1.
        -24    2    1    2    0    0  0.29178072611E+02  0.77875582935E+03  0.38954801262E+03  0.87494286821E+03  0.80407504825E+02 0.  0.
        254    2    1    2    0    0 -0.29178072611E+02 -0.77875582935E+03 -0.94066006449E+03  0.15291307925E+04  0.91983021367E+03 0.  0.
         23    2    4    4    0    0  0.12502035696E+03 -0.76229535718E+03 -0.10590683310E+04  0.13141734018E+04  0.93282898382E+02 0.  0.
         23    2    4    4    0    0 -0.15419842958E+03 -0.16460472165E+02  0.11840826650E+03  0.21495739067E+03  0.90211193310E+02 0.  0.
          1    1    3    3  502    0  0.36929980307E+02  0.72012934489E+03  0.33744609757E+03  0.79612810878E+03  0.00000000000E+00 0. -1.
         -2    1    3    3    0  502 -0.77519076955E+01  0.58626484454E+02  0.52101915052E+02  0.78814759433E+02  0.00000000000E+00 0.  1.
         13    1    5    5    0    0  0.12763490518E+03 -0.73237175663E+03 -0.10407469548E+04  0.12789891645E+04  0.00000000000E+00 0.  1.
        -13    1    5    5    0    0 -0.26145482177E+01 -0.29923600550E+02 -0.18321376190E+02  0.35184237348E+02  0.00000000000E+00 0. -1.
          3    1    6    6  503    0 -0.56720676814E+02 -0.49326201460E+02  0.37047215242E+02  0.83802180675E+02  0.00000000000E+00 0. -1.
         -3    1    6    6    0  503 -0.97477752762E+02  0.32865729295E+02  0.81361051261E+02  0.13115520999E+03  0.00000000000E+00 0.  1.
<mgrwt>
<rscale>  0 0.23400525E+04</rscale>
<asrwt>0</asrwt>
<pdfrwt beam="1">  1        1 0.14253551E+00 0.23400525E+04</pdfrwt>
<pdfrwt beam="2">  1       -2 0.22732197E+00 0.23400525E+04</pdfrwt>
<totfact> 0.12149592E+00</totfact>
</mgrwt>
</event>
<event>
12    5  0.5095719E-008  0.2168349E+04  0.7818608E-02  0.8531719E-01
         -2   -1    0    0    0  501 -0.00000000000E+00  0.00000000000E+00  0.73790251656E+03  0.73790251656E+03  0.00000000000E+00 0.  1.
          1   -1    0    0  501    0  0.00000000000E+00 -0.00000000000E+00 -0.15929396216E+04  0.15929396216E+04  0.00000000000E+00 0. -1.
        -24    2    1    2    0    0  0.41721026597E+03 -0.76611960902E+03 -0.16271593300E+03  0.89099343621E+03  0.79932266121E+02 0.  0.
        254    2    1    2    0    0 -0.41721026597E+03  0.76611960902E+03 -0.69232117207E+03  0.14398487020E+04  0.91260726381E+03 0.  0.
         23    2    4    4    0    0 -0.78196426505E+01  0.15421694872E+03  0.20720242923E+03  0.27382637612E+03  0.90576064683E+02 0.  0.
         23    2    4    4    0    0 -0.40939062332E+03  0.61190266029E+03 -0.89952360130E+03  0.11660223259E+04  0.91868422114E+02 0.  0.
          1    1    3    3  502    0  0.14876843748E+03 -0.35287535126E+03 -0.82271732837E+02  0.39169082136E+03  0.00000000000E+00 0. -1.
         -4    1    3    3    0  502  0.26844182849E+03 -0.41324425776E+03 -0.80444200167E+02  0.49930261485E+03  0.00000000000E+00 0.  1.
         13    1    5    5    0    0 -0.28641588013E+02  0.10785805306E+02  0.18051227438E+02  0.35531971125E+02  0.00000000000E+00 0.  1.
        -13    1    5    5    0    0  0.20821945363E+02  0.14343114342E+03  0.18915120179E+03  0.23829440499E+03  0.00000000000E+00 0. -1.
          2    1    6    6  503    0 -0.19716455014E+03  0.30189488377E+03 -0.51256809786E+03  0.62669006344E+03  0.00000000000E+00 0.  1.
         -2    1    6    6    0  503 -0.21222607318E+03  0.31000777653E+03 -0.38695550345E+03  0.53933226242E+03  0.00000000000E+00 0. -1.
<mgrwt>
<rscale>  0 0.21683488E+04</rscale>
<asrwt>0</asrwt>
<pdfrwt beam="1">  1        1 0.24506763E+00 0.21683488E+04</pdfrwt>
<pdfrwt beam="2">  1       -2 0.11352347E+00 0.21683488E+04</pdfrwt>
<totfact> 0.27564246E+00</totfact>
</mgrwt>
</event>
<event>
12    5  0.5095719E-008  0.1558093E+04  0.7818608E-02  0.8846715E-01
         -2   -1    0    0    0  501 -0.00000000000E+00  0.00000000000E+00  0.27765723655E+03  0.27765723655E+03  0.00000000000E+00 0.  1.
          1   -1    0    0  501    0  0.00000000000E+00 -0.00000000000E+00 -0.21858360168E+04  0.21858360168E+04  0.00000000000E+00 0. -1.
        -24    2    1    2    0    0 -0.12311299437E+03 -0.26121502045E+02  0.15067205622E+03  0.21175774312E+03  0.79373364504E+02 0.  0.
        254    2    1    2    0    0  0.12311299437E+03  0.26121502045E+02 -0.20588508365E+04  0.22517355102E+04  0.90310957197E+03 0.  0.
         23    2    4    4    0    0 -0.77632290293E+02 -0.40718678862E+03 -0.10148351494E+04  0.11000176397E+04  0.91217179346E+02 0.  0.
         23    2    4    4    0    0  0.20074528467E+03  0.43330829067E+03 -0.10440156870E+04  0.11517178705E+04  0.91818050843E+02 0.  0.
          1    1    3    3  502    0 -0.22235787195E+02  0.13289176812E+02 -0.36156291477E+00  0.25906817254E+02  0.00000000000E+00 0. -1.
         -4    1    3    3    0  502 -0.10087720718E+03 -0.39410678857E+02  0.15103361913E+03  0.18585092586E+03  0.00000000000E+00 0.  1.
         13    1    5    5    0    0 -0.10157860010E+02 -0.24088502491E+03 -0.65375232676E+03  0.69679328505E+03  0.00000000000E+00 0. -1.
        -13    1    5    5    0    0 -0.67474430284E+02 -0.16630176371E+03 -0.36108282267E+03  0.40322435465E+03  0.00000000000E+00 0.  1.
          4    1    6    6  503    0  0.15234532960E+03  0.39815826741E+03 -0.90521305540E+03  0.10005747254E+04  0.00000000000E+00 0. -1.
         -4    1    6    6    0  503  0.48399955065E+02  0.35150023251E+02 -0.13880263164E+03  0.15114314518E+03  0.00000000000E+00 0.  1.
<mgrwt>
<rscale>  0 0.15580927E+04</rscale>
<asrwt>0</asrwt>
<pdfrwt beam="1">  1        1 0.33628246E+00 0.15580927E+04</pdfrwt>
<pdfrwt beam="2">  1       -2 0.42716499E-01 0.15580927E+04</pdfrwt>
<totfact> 0.97932128E+00</totfact>
</mgrwt>
</event>
<event>
12    5  0.5095719E-008  0.2785482E+04  0.7818608E-02  0.8307790E-01
         -2   -1    0    0    0  501 -0.00000000000E+00  0.00000000000E+00  0.47827775131E+03  0.47827775131E+03  0.00000000000E+00 0.  1.
          1   -1    0    0  501    0  0.00000000000E+00 -0.00000000000E+00 -0.40556515219E+04  0.40556515219E+04  0.00000000000E+00 0. -1.
        -24    2    1    2    0    0  0.52743021255E+03  0.12875443918E+03  0.21159703713E+03  0.58825449790E+03  0.80682795370E+02 0.  0.
        254    2    1    2    0    0 -0.52743021255E+03 -0.12875443918E+03 -0.37889708077E+04  0.39456747753E+04  0.95775222057E+03 0.  0.
         23    2    4    4    0    0 -0.45255679575E+02 -0.19299776831E+03 -0.30411791078E+04  0.30490427698E+04  0.92710467224E+02 0.  0.
         23    2    4    4    0    0 -0.48217453297E+03  0.64243329127E+02 -0.74779169984E+03  0.89663200551E+03  0.90205550687E+02 0.  0.
          3    1    3    3  502    0  0.17418627103E+03  0.63603437770E+01  0.53247017015E+02  0.18225409683E+03  0.00000000000E+00 0. -1.
         -4    1    3    3    0  502  0.35324394151E+03  0.12239409540E+03  0.15835002011E+03  0.40600040108E+03  0.00000000000E+00 0.  1.
         13    1    5    5    0    0 -0.28599191344E+02 -0.19727074064E+02 -0.24504850085E+03  0.24749916963E+03  0.00000000000E+00 0. -1.
        -13    1    5    5    0    0 -0.16656488231E+02 -0.17327069424E+03 -0.27961306070E+04  0.28015436001E+04  0.00000000000E+00 0.  1.
          2    1    6    6  503    0 -0.66434187125E+02  0.39431611033E+02 -0.13870947521E+03  0.15877238955E+03  0.00000000000E+00 0. -1.
         -2    1    6    6    0  503 -0.41574034585E+03  0.24811718094E+02 -0.60908222463E+03  0.73785961597E+03  0.00000000000E+00 0.  1.
<mgrwt>
<rscale>  0 0.27854823E+04</rscale>
<asrwt>0</asrwt>
<pdfrwt beam="1">  1        1 0.62394639E+00 0.27854823E+04</pdfrwt>
<pdfrwt beam="2">  1       -2 0.73581192E-01 0.27854823E+04</pdfrwt>
<totfact> 0.10885517E-01</totfact>
</mgrwt>
</event>
<event>
12    5  0.5095719E-008  0.1413744E+04  0.7818608E-02  0.8943930E-01
          1   -1    0    0  501    0  0.00000000000E+00  0.00000000000E+00  0.28462679875E+04  0.28462679875E+04  0.00000000000E+00 0. -1.
         -2   -1    0    0    0  501 -0.00000000000E+00 -0.00000000000E+00 -0.17555188244E+03  0.17555188244E+03  0.00000000000E+00 0.  1.
        -24    2    1    2    0    0 -0.31890429937E+02  0.42051757212E+03  0.91711834644E+03  0.10125816863E+04  0.79772063133E+02 0.  0.
        254    2    1    2    0    0  0.31890429937E+02 -0.42051757212E+03  0.17535977586E+04  0.20092381836E+04  0.88548345640E+03 0.  0.
         23    2    4    4    0    0 -0.14771849029E+03 -0.59367276717E+03  0.75459448296E+03  0.97542179307E+03  0.88129074811E+02 0.  0.
         23    2    4    4    0    0  0.17960892023E+03  0.17315519505E+03  0.99900327565E+03  0.10338163906E+04  0.92340125774E+02 0.  0.
          1    1    3    3  502    0 -0.32298781196E+02  0.41218421296E+03  0.91484759939E+03  0.10039348419E+04  0.00000000000E+00 0. -1.
         -2    1    3    3    0  502  0.40835125892E+00  0.83333591609E+01  0.22707470437E+01  0.86468443835E+01  0.00000000000E+00 0.  1.
         13    1    5    5    0    0 -0.15764136232E+03 -0.51228949563E+03  0.66057548778E+03  0.85067696660E+03  0.00000000000E+00 0.  1.
        -13    1    5    5    0    0  0.99228720340E+01 -0.81383271545E+02  0.94018995176E+02  0.12474482647E+03  0.00000000000E+00 0. -1.
          1    1    6    6  503    0  0.25745639488E+02  0.11488764602E+02  0.26862090568E+03  0.27009631733E+03  0.00000000000E+00 0. -1.
         -1    1    6    6    0  503  0.15386328074E+03  0.16166643045E+03  0.73038236997E+03  0.76372007323E+03  0.00000000000E+00 0.  1.
<mgrwt>
<rscale>  0 0.14137435E+04</rscale>
<asrwt>0</asrwt>
<pdfrwt beam="1">  1        1 0.43788735E+00 0.14137435E+04</pdfrwt>
<pdfrwt beam="2">  1       -2 0.27007984E-01 0.14137435E+04</pdfrwt>
<totfact> 0.82791226E+00</totfact>
</mgrwt>
</event>
<event>
12    5  0.5095719E-008  0.1425870E+04  0.7818608E-02  0.8935303E-01
          1   -1    0    0  501    0  0.00000000000E+00  0.00000000000E+00  0.17355235444E+04  0.17355235444E+04  0.00000000000E+00 0. -1.
         -2   -1    0    0    0  501 -0.00000000000E+00 -0.00000000000E+00 -0.29286626218E+03  0.29286626218E+03  0.00000000000E+00 0.  1.
        -24    2    1    2    0    0 -0.13536464466E+02  0.54924666880E+02  0.10351734737E+04  0.10397720400E+04  0.79635541555E+02 0.  0.
        254    2    1    2    0    0  0.13536464466E+02 -0.54924666880E+02  0.40748380850E+03  0.98861776663E+03  0.89895610538E+03 0.  0.
         23    2    4    4    0    0 -0.19852697449E+02  0.31828301770E+03  0.49138657445E+03  0.59280816236E+03  0.90898530571E+02 0.  0.
         23    2    4    4    0    0  0.33389161914E+02 -0.37320768458E+03 -0.83902765947E+02  0.39580960427E+03  0.96056008334E+02 0.  0.
          1    1    3    3  502    0  0.57530759102E+01  0.49565808307E+02  0.97655687180E+03  0.97783086017E+03  0.00000000000E+00 0. -1.
         -2    1    3    3    0  502 -0.19289540376E+02  0.53588585731E+01  0.58616601942E+02  0.61941179811E+02  0.00000000000E+00 0.  1.
         13    1    5    5    0    0  0.20090006509E+02  0.34359636767E+02  0.31044207721E+02  0.50477082258E+02  0.00000000000E+00 0. -1.
        -13    1    5    5    0    0 -0.39942703958E+02  0.28392338093E+03  0.46034236673E+03  0.54233108010E+03  0.00000000000E+00 0.  1.
          2    1    6    6  503    0 -0.33562035998E+02 -0.11131694448E+03 -0.18926878762E+02  0.11779685534E+03  0.00000000000E+00 0. -1.
         -2    1    6    6    0  503  0.66951197912E+02 -0.26189074010E+03 -0.64975887184E+02  0.27801274893E+03  0.00000000000E+00 0.  1.
<mgrwt>
<rscale>  0 0.14258700E+04</rscale>
<asrwt>0</asrwt>
<pdfrwt beam="1">  1        1 0.26700362E+00 0.14258700E+04</pdfrwt>
<pdfrwt beam="2">  1       -2 0.45056349E-01 0.14258700E+04</pdfrwt>
<totfact> 0.17986792E+01</totfact>
</mgrwt>
</event>
<event>
12    5  0.5095719E-008  0.1585958E+04  0.7818608E-02  0.8829221E-01
          1   -1    0    0  501    0  0.00000000000E+00  0.00000000000E+00  0.71404837620E+03  0.71404837620E+03  0.00000000000E+00 0. -1.
         -2   -1    0    0    0  501 -0.00000000000E+00 -0.00000000000E+00 -0.88063430008E+03  0.88063430008E+03  0.00000000000E+00 0.  1.
        -24    2    1    2    0    0  0.29850262342E+03  0.26846213562E+03 -0.41281377000E+03  0.58282872018E+03  0.89990965784E+02 0.  0.
        254    2    1    2    0    0 -0.29850262342E+03 -0.26846213562E+03  0.24622784612E+03  0.10118539561E+04  0.89556939531E+03 0.  0.
         23    2    4    4    0    0 -0.24803910234E+03 -0.37192438728E+03 -0.23197288573E+03  0.51225400372E+03  0.93496515835E+02 0.  0.
         23    2    4    4    0    0 -0.50463521077E+02  0.10346225166E+03  0.47820073185E+03  0.49959995238E+03  0.87596620943E+02 0.  0.
          1    1    3    3  502    0  0.12476389683E+03  0.11712044488E+03 -0.11451612640E+03  0.20590573515E+03  0.00000000000E+00 0. -1.
         -2    1    3    3    0  502  0.17373872659E+03  0.15134169073E+03 -0.29829764360E+03  0.37692298503E+03  0.00000000000E+00 0.  1.
         13    1    5    5    0    0 -0.48032622924E+02 -0.25398498840E+02 -0.11909127493E+02  0.55624130788E+02  0.00000000000E+00 0.  1.
        -13    1    5    5    0    0 -0.20000647942E+03 -0.34652588844E+03 -0.22006375823E+03  0.45662987293E+03  0.00000000000E+00 0. -1.
          1    1    6    6  503    0 -0.12280615909E+02  0.10527808584E+03  0.36785815137E+03  0.38282359961E+03  0.00000000000E+00 0. -1.
         -1    1    6    6    0  503 -0.38182905167E+02 -0.18158341824E+01  0.11034258048E+03  0.11677635277E+03  0.00000000000E+00 0.  1.
<mgrwt>
<rscale>  0 0.15859577E+04</rscale>
<asrwt>0</asrwt>
<pdfrwt beam="1">  1        1 0.10985360E+00 0.15859577E+04</pdfrwt>
<pdfrwt beam="2">  1       -2 0.13548220E+00 0.15859577E+04</pdfrwt>
<totfact> 0.86876911E+00</totfact>
</mgrwt>
</event>
<event>
12    5  0.5095719E-008  0.4111358E+04  0.7818608E-02  0.7982451E-01
         -2   -1    0    0    0  501 -0.00000000000E+00  0.00000000000E+00  0.15033462997E+04  0.15033462997E+04  0.00000000000E+00 0.  1.
          1   -1    0    0  501    0  0.00000000000E+00 -0.00000000000E+00 -0.28109400128E+04  0.28109400128E+04  0.00000000000E+00 0. -1.
        -24    2    1    2    0    0 -0.11835341403E+04  0.15599571421E+04 -0.61806397485E+03  0.20548444586E+04  0.78506852713E+02 0.  0.
        254    2    1    2    0    0  0.11835341403E+04 -0.15599571421E+04 -0.68952973824E+03  0.22594418538E+04  0.89185586546E+03 0.  0.
         23    2    4    4    0    0  0.12628940205E+04 -0.15649661081E+04 -0.58018076703E+03  0.20947641620E+04  0.86063612548E+02 0.  0.
         23    2    4    4    0    0 -0.79359880205E+02  0.50089660940E+01 -0.10934897121E+03  0.16467769184E+03  0.94013107365E+02 0.  0.
          1    1    3    3  502    0 -0.47384414349E+02  0.64518301931E+02 -0.94020876347E+01  0.80599585974E+02  0.00000000000E+00 0. -1.
         -4    1    3    3    0  502 -0.11361497259E+04  0.14954388401E+04 -0.60866188721E+03  0.19742448726E+04  0.00000000000E+00 0.  1.
         13    1    5    5    0    0  0.26522052059E+03 -0.30325066014E+03 -0.84676864109E+02  0.41167105647E+03  0.00000000000E+00 0.  1.
        -13    1    5    5    0    0  0.99767349988E+03 -0.12617154480E+04 -0.49550390292E+03  0.16830931055E+04  0.00000000000E+00 0. -1.
          3    1    6    6  503    0 -0.51336425819E+02  0.40603652195E+02 -0.98216193816E+02  0.11802756422E+03  0.00000000000E+00 0. -1.
         -3    1    6    6    0  503 -0.28023454387E+02 -0.35594686101E+02 -0.11132777393E+02  0.46650127619E+02  0.00000000000E+00 0.  1.
<mgrwt>
<rscale>  0 0.41113581E+04</rscale>
<asrwt>0</asrwt>
<pdfrwt beam="1">  1        1 0.43245230E+00 0.41113581E+04</pdfrwt>
<pdfrwt beam="2">  1       -2 0.23128405E+00 0.41113581E+04</pdfrwt>
<totfact> 0.46890978E-02</totfact>
</mgrwt>
</event>
<event>
12    5  0.5095719E-008  0.1813250E+04  0.7818608E-02  0.8699285E-01
          1   -1    0    0  501    0  0.00000000000E+00  0.00000000000E+00  0.64789360098E+03  0.64789360098E+03  0.00000000000E+00 0. -1.
         -2   -1    0    0    0  501 -0.00000000000E+00 -0.00000000000E+00 -0.12686782134E+04  0.12686782134E+04  0.00000000000E+00 0.  1.
        -24    2    1    2    0    0 -0.41989556182E+02 -0.24243190041E+03 -0.90498605476E+03  0.94105860233E+03  0.77815066215E+02 0.  0.
        254    2    1    2    0    0  0.41989556182E+02  0.24243190041E+03  0.28420144233E+03  0.97551321207E+03  0.90017732583E+03 0.  0.
         23    2    4    4    0    0  0.43514112874E+03  0.26612079928E+03  0.86287274032E+02  0.52549090705E+03  0.92342395450E+02 0.  0.
         23    2    4    4    0    0 -0.39315157256E+03 -0.23688898870E+02  0.19791416829E+03  0.45002230502E+03  0.90668263828E+02 0.  0.
          1    1    3    3  502    0  0.15639130710E+02 -0.58340312145E+02 -0.30156506535E+03  0.30755432540E+03  0.00000000000E+00 0. -1.
         -2    1    3    3    0  502 -0.57628686891E+02 -0.18409158826E+03 -0.60342098941E+03  0.63350427693E+03  0.00000000000E+00 0.  1.
         13    1    5    5    0    0  0.62188344864E+02  0.32325846969E+02  0.45208172823E+02  0.83403414254E+02  0.00000000000E+00 0. -1.
        -13    1    5    5    0    0  0.37295278388E+03  0.23379495231E+03  0.41079101209E+02  0.44208749279E+03  0.00000000000E+00 0.  1.
          4    1    6    6  503    0 -0.62895052948E+02  0.28997724216E+02  0.42339833323E+02  0.81174609213E+02  0.00000000000E+00 0. -1.
         -4    1    6    6    0  503 -0.33025651961E+03 -0.52686623086E+02  0.15557433497E+03  0.36884769581E+03  0.00000000000E+00 0.  1.
<mgrwt>
<rscale>  0 0.18132496E+04</rscale>
<asrwt>0</asrwt>
<pdfrwt beam="1">  1        1 0.99675940E-01 0.18132496E+04</pdfrwt>
<pdfrwt beam="2">  1       -2 0.19518126E+00 0.18132496E+04</pdfrwt>
<totfact> 0.36120022E+00</totfact>
</mgrwt>
</event>
<event>
12    5  0.5095719E-008  0.2188788E+04  0.7818608E-02  0.8523109E-01
          1   -1    0    0  501    0  0.00000000000E+00  0.00000000000E+00  0.27105074979E+04  0.27105074979E+04  0.00000000000E+00 0. -1.
         -2   -1    0    0    0  501 -0.00000000000E+00 -0.00000000000E+00 -0.44187217817E+03  0.44187217817E+03  0.00000000000E+00 0.  1.
        -24    2    1    2    0    0  0.75873909431E+03  0.19170641061E+03  0.16114852259E+04  0.17932395118E+04  0.79918410814E+02 0.  0.
        254    2    1    2    0    0 -0.75873909431E+03 -0.19170641061E+03  0.65715009387E+03  0.13591401643E+04  0.89609116677E+03 0.  0.
         23    2    4    4    0    0 -0.13583368464E+02  0.24825796175E+03 -0.63966004378E+01  0.26494870645E+03  0.91325664978E+02 0.  0.
         23    2    4    4    0    0 -0.74515572584E+03 -0.43996437236E+03  0.66354669431E+03  0.10941914578E+04  0.90194379740E+02 0.  0.
          1    1    3    3  502    0  0.61854840744E+03  0.16031251430E+03  0.13807014443E+04  0.15213936745E+04  0.00000000000E+00 0. -1.
         -2    1    3    3    0  502  0.14019068686E+03  0.31393896318E+02  0.23078378158E+03  0.27184583729E+03  0.00000000000E+00 0.  1.
         13    1    5    5    0    0  0.31354665882E+02  0.79883683242E+02  0.21482574929E+02  0.88464789303E+02  0.00000000000E+00 0.  1.
        -13    1    5    5    0    0 -0.44938034346E+02  0.16837427851E+03 -0.27879175367E+02  0.17648391715E+03  0.00000000000E+00 0. -1.
          4    1    6    6  503    0 -0.17820791184E+03 -0.13551632012E+03  0.20949559302E+03  0.30661235519E+03  0.00000000000E+00 0. -1.
         -4    1    6    6    0  503 -0.56694781401E+03 -0.30444805224E+03  0.45405110128E+03  0.78757910263E+03  0.00000000000E+00 0.  1.
<mgrwt>
<rscale>  0 0.21887877E+04</rscale>
<asrwt>0</asrwt>
<pdfrwt beam="1">  1        1 0.41700114E+00 0.21887877E+04</pdfrwt>
<pdfrwt beam="2">  1       -2 0.67980337E-01 0.21887877E+04</pdfrwt>
<totfact> 0.15335772E+00</totfact>
</mgrwt>
</event>
<event>
12    5  0.5095719E-008  0.1543957E+04  0.7818608E-02  0.8855737E-01
          1   -1    0    0  501    0  0.00000000000E+00  0.00000000000E+00  0.19003876336E+04  0.19003876336E+04  0.00000000000E+00 0. -1.
         -2   -1    0    0    0  501 -0.00000000000E+00 -0.00000000000E+00 -0.31359432458E+03  0.31359432458E+03  0.00000000000E+00 0.  1.
        -24    2    1    2    0    0 -0.18433017628E+03  0.43494260274E+03  0.44619625687E+03  0.65560563261E+03  0.87034270781E+02 0.  0.
        254    2    1    2    0    0  0.18433017628E+03 -0.43494260274E+03  0.11405970522E+04  0.15583763256E+04  0.95101128028E+03 0.  0.
         23    2    4    4    0    0  0.26957406401E+03  0.11026089803E+03  0.20619585976E+02  0.30655024030E+03  0.93382230010E+02 0.  0.
         23    2    4    4    0    0 -0.85243887725E+02 -0.54520350077E+03  0.11199774662E+04  0.12518260853E+04  0.90585017645E+02 0.  0.
          3    1    3    3  502    0 -0.66542863553E+02  0.22326148806E+03  0.26660116512E+03  0.35404777359E+03  0.00000000000E+00 0. -1.
         -4    1    3    3    0  502 -0.11778731273E+03  0.21168111468E+03  0.17959509175E+03  0.30155785902E+03  0.00000000000E+00 0.  1.
         13    1    5    5    0    0  0.20673240710E+03  0.38956259766E+02  0.21810837749E+02  0.21149844199E+03  0.00000000000E+00 0.  1.
        -13    1    5    5    0    0  0.62841656902E+02  0.71304638266E+02 -0.11912517736E+01  0.95051798306E+02  0.00000000000E+00 0. -1.
          4    1    6    6  503    0  0.13259243703E+02 -0.17731399978E+03  0.33088507998E+03  0.37563412813E+03  0.00000000000E+00 0. -1.
         -4    1    6    6    0  503 -0.98503131428E+02 -0.36788950099E+03  0.78909238623E+03  0.87619195719E+03  0.00000000000E+00 0.  1.
<mgrwt>
<rscale>  0 0.15439570E+04</rscale>
<asrwt>0</asrwt>
<pdfrwt beam="1">  1        1 0.29236732E+00 0.15439570E+04</pdfrwt>
<pdfrwt beam="2">  1       -2 0.48245282E-01 0.15439570E+04</pdfrwt>
<totfact> 0.11995041E+01</totfact>
</mgrwt>
</event>
<event>
12    5  0.5095719E-008  0.9986895E+03  0.7818608E-02  0.9309983E-01
         -2   -1    0    0    0  501 -0.00000000000E+00  0.00000000000E+00  0.52927489520E+03  0.52927489520E+03  0.00000000000E+00 0.  1.
          1   -1    0    0  501    0  0.00000000000E+00 -0.00000000000E+00 -0.47110712763E+03  0.47110712763E+03  0.00000000000E+00 0. -1.
        -24    2    1    2    0    0  0.11905764639E+02  0.50664634416E+02  0.93190065468E+01  0.94207217687E+02  0.77971171398E+02 0.  0.
        254    2    1    2    0    0 -0.11905764639E+02 -0.50664634416E+02  0.48848761020E+02  0.90617480515E+03  0.90335924394E+03 0.  0.
         23    2    4    4    0    0 -0.15896558466E+03  0.29922677044E+03 -0.23712347576E+03  0.42319314405E+03  0.89767350209E+02 0.  0.
         23    2    4    4    0    0  0.14705982003E+03 -0.34989140486E+03  0.28597223678E+03  0.48298166109E+03  0.86258790199E+02 0.  0.
          3    1    3    3  502    0 -0.33208481577E+02  0.19401409518E+02  0.81079187157E+01  0.39305931942E+02  0.00000000000E+00 0. -1.
         -4    1    3    3    0  502  0.45114246216E+02  0.31263224898E+02  0.12110878311E+01  0.54901285744E+02  0.00000000000E+00 0.  1.
         13    1    5    5    0    0 -0.27536926310E+02  0.14130106712E+03 -0.11432333440E+03  0.18383171290E+03  0.00000000000E+00 0.  1.
        -13    1    5    5    0    0 -0.13142865836E+03  0.15792570332E+03 -0.12280014136E+03  0.23936143115E+03  0.00000000000E+00 0. -1.
          4    1    6    6  503    0  0.12908164066E+02 -0.11688045440E+03  0.61363257859E+02  0.13263902418E+03  0.00000000000E+00 0.  1.
         -4    1    6    6    0  503  0.13415165596E+03 -0.23301095046E+03  0.22460897892E+03  0.35034263692E+03  0.00000000000E+00 0. -1.
<mgrwt>
<rscale>  0 0.99868949E+03</rscale>
<asrwt>0</asrwt>
<pdfrwt beam="1">  1        1 0.72478019E-01 0.99868949E+03</pdfrwt>
<pdfrwt beam="2">  1       -2 0.81426907E-01 0.99868949E+03</pdfrwt>
<totfact> 0.56051763E+01</totfact>
</mgrwt>
</event>
<event>
12    5  0.5095719E-008  0.2191762E+04  0.7818608E-02  0.8521865E-01
          1   -1    0    0  501    0  0.00000000000E+00  0.00000000000E+00  0.86385513775E+03  0.86385513775E+03  0.00000000000E+00 0. -1.
         -2   -1    0    0    0  501 -0.00000000000E+00 -0.00000000000E+00 -0.13902271173E+04  0.13902271173E+04  0.00000000000E+00 0.  1.
        -24    2    1    2    0    0 -0.34093196941E+03 -0.83552539419E+03 -0.13347906830E+03  0.91565745529E+03  0.79212509531E+02 0.  0.
        254    2    1    2    0    0  0.34093196941E+03  0.83552539419E+03 -0.39289291121E+03  0.13384247997E+04  0.90701643465E+03 0.  0.
         23    2    4    4    0    0  0.20081467873E+03  0.45302043009E+03  0.25751452994E+03  0.56583277902E+03  0.91098602684E+02 0.  0.
         23    2    4    4    0    0  0.14011729067E+03  0.38250496410E+03 -0.65040744115E+03  0.77259202070E+03  0.89026334550E+02 0.  0.
          3    1    3    3  502    0 -0.10591052134E+03 -0.31082570889E+03 -0.81798794872E+02  0.33840907594E+03  0.00000000000E+00 0. -1.
         -4    1    3    3    0  502 -0.23502144807E+03 -0.52469968530E+03 -0.51680273423E+02  0.57724837935E+03  0.00000000000E+00 0.  1.
         13    1    5    5    0    0  0.12511016871E+03  0.37270929000E+03  0.20936170387E+03  0.44541788493E+03  0.00000000000E+00 0. -1.
        -13    1    5    5    0    0  0.75704510027E+02  0.80311140092E+02  0.48152826064E+02  0.12041489409E+03  0.00000000000E+00 0.  1.
          1    1    6    6  503    0  0.15165921856E+03  0.33270648052E+03 -0.57851939636E+03  0.68438206633E+03  0.00000000000E+00 0. -1.
         -1    1    6    6    0  503 -0.11541927886E+02  0.49798483574E+02 -0.71888044791E+02  0.88209954367E+02  0.00000000000E+00 0.  1.
<mgrwt>
<rscale>  0 0.21917617E+04</rscale>
<asrwt>0</asrwt>
<pdfrwt beam="1">  1        1 0.13290079E+00 0.21917617E+04</pdfrwt>
<pdfrwt beam="2">  1       -2 0.21388109E+00 0.21917617E+04</pdfrwt>
<totfact> 0.16852907E+00</totfact>
</mgrwt>
</event>
<event>
12    5  0.5095719E-008  0.2323547E+04  0.7818608E-02  0.8468694E-01
          3   -1    0    0  501    0  0.00000000000E+00  0.00000000000E+00  0.25016916549E+04  0.25016916549E+04  0.00000000000E+00 0. -1.
         -4   -1    0    0    0  501 -0.00000000000E+00 -0.00000000000E+00 -0.53952179521E+03  0.53952179521E+03  0.00000000000E+00 0.  1.
        -24    2    1    2    0    0  0.78645854981E+03 -0.42520654644E+03  0.13708597583E+04  0.16387927521E+04  0.84068719497E+02 0.  0.
        254    2    1    2    0    0 -0.78645854981E+03  0.42520654644E+03  0.59131010133E+03  0.14024206980E+04  0.90433319108E+03 0.  0.
         23    2    4    4    0    0 -0.70490916209E+03  0.65143644309E+03  0.61896741834E+03  0.11459495440E+04  0.93879317000E+02 0.  0.
         23    2    4    4    0    0 -0.81549387715E+02 -0.22622989665E+03 -0.27657317016E+02  0.25647115401E+03  0.84748196921E+02 0.  0.
          1    1    3    3  502    0  0.15951178072E+03 -0.79817151998E+02  0.33754873355E+03  0.38177733492E+03  0.00000000000E+00 0. -1.
         -2    1    3    3    0  502  0.62694676909E+03 -0.34538939444E+03  0.10333110248E+04  0.12570154172E+04  0.00000000000E+00 0.  1.
         13    1    5    5    0    0 -0.68702787580E+03  0.63107141533E+03  0.61765005657E+03  0.11188163503E+04  0.00000000000E+00 0.  1.
        -13    1    5    5    0    0 -0.17881286299E+02  0.20365027764E+02  0.13173617731E+01  0.27133193649E+02  0.00000000000E+00 0. -1.
          1    1    6    6  503    0 -0.73233173973E+01  0.52660611815E+01  0.63055321585E+01  0.11005549231E+02  0.00000000000E+00 0. -1.
         -1    1    6    6    0  503 -0.74226070317E+02 -0.23149595783E+03 -0.33962849174E+02  0.24546560478E+03  0.00000000000E+00 0.  1.
<mgrwt>
<rscale>  0 0.23235466E+04</rscale>
<asrwt>0</asrwt>
<pdfrwt beam="1">  1        3 0.38487563E+00 0.23235466E+04</pdfrwt>
<pdfrwt beam="2">  1       -4 0.83003355E-01 0.23235466E+04</pdfrwt>
<totfact> 0.35446173E-02</totfact>
</mgrwt>
</event>
<event>
12    5  0.5095719E-008  0.1183766E+04  0.7818608E-02  0.9127186E-01
          1   -1    0    0  501    0  0.00000000000E+00  0.00000000000E+00  0.68716203708E+03  0.68716203708E+03  0.00000000000E+00 0. -1.
         -2   -1    0    0    0  501 -0.00000000000E+00 -0.00000000000E+00 -0.50981502578E+03  0.50981502578E+03  0.00000000000E+00 0.  1.
        -24    2    1    2    0    0 -0.54381852375E+02 -0.88867016036E+02  0.25509095502E+03  0.28670478021E+03  0.79205449669E+02 0.  0.
        254    2    1    2    0    0  0.54381852375E+02  0.88867016036E+02 -0.77743943717E+02  0.91027228265E+03  0.90094215984E+03 0.  0.
         23    2    4    4    0    0 -0.19313737505E+03 -0.22186177705E+03  0.24236765985E+03  0.39152519324E+03  0.89583484223E+02 0.  0.
         23    2    4    4    0    0  0.24751922743E+03  0.31072879308E+03 -0.32011160356E+03  0.51874708941E+03  0.93856024024E+02 0.  0.
          1    1    3    3  502    0 -0.68339238106E+02 -0.88263973718E+02  0.24570687111E+03  0.26987524346E+03  0.00000000000E+00 0. -1.
         -2    1    3    3    0  502  0.13957385731E+02 -0.60304231826E+00  0.93840839051E+01  0.16829536750E+02  0.00000000000E+00 0.  1.
         13    1    5    5    0    0 -0.38398952666E+02 -0.46904805915E+02  0.10306809817E+03  0.11957246023E+03  0.00000000000E+00 0.  1.
        -13    1    5    5    0    0 -0.15473842238E+03 -0.17495697113E+03  0.13929956167E+03  0.27195273301E+03  0.00000000000E+00 0. -1.
          4    1    6    6  503    0  0.25071237537E+03  0.27471814283E+03 -0.28802429077E+03  0.47040912537E+03  0.00000000000E+00 0. -1.
         -4    1    6    6    0  503 -0.31931479418E+01  0.36010650248E+02 -0.32087312797E+02  0.48337964040E+02  0.00000000000E+00 0.  1.
<mgrwt>
<rscale>  0 0.11837661E+04</rscale>
<asrwt>0</asrwt>
<pdfrwt beam="1">  1        1 0.10571724E+00 0.11837661E+04</pdfrwt>
<pdfrwt beam="2">  1       -2 0.78433081E-01 0.11837661E+04</pdfrwt>
<totfact> 0.35144415E+01</totfact>
</mgrwt>
</event>
<event>
12    5  0.5095719E-008  0.1782341E+04  0.7818608E-02  0.8715747E-01
         -2   -1    0    0    0  501 -0.00000000000E+00  0.00000000000E+00  0.32035513714E+03  0.32035513714E+03  0.00000000000E+00 0.  1.
          1   -1    0    0  501    0  0.00000000000E+00 -0.00000000000E+00 -0.24790767849E+04  0.24790767849E+04  0.00000000000E+00 0. -1.
        -24    2    1    2    0    0  0.69418536164E+02 -0.53366020395E+03 -0.14081839315E+04  0.15096408199E+04  0.80132851898E+02 0.  0.
        254    2    1    2    0    0 -0.69418536164E+02  0.53366020395E+03 -0.75053771633E+03  0.12897911021E+04  0.90035663881E+03 0.  0.
         23    2    4    4    0    0 -0.52599983063E+02  0.77909186356E+03 -0.59733317790E+03  0.98662313731E+03  0.82869774689E+02 0.  0.
         23    2    4    4    0    0 -0.16818553101E+02 -0.24543165961E+03 -0.15320453843E+03  0.30316796482E+03  0.88992252645E+02 0.  0.
          1    1    3    3  502    0  0.34735602653E+02 -0.44610860463E+03 -0.12137277764E+04  0.12935820671E+04  0.00000000000E+00 0. -1.
         -2    1    3    3    0  502  0.34682933511E+02 -0.87551599323E+02 -0.19445615509E+03  0.21605875282E+03  0.00000000000E+00 0.  1.
         13    1    5    5    0    0  0.50100181340E+01  0.27517982603E+03 -0.17077577858E+03  0.32390338604E+03  0.00000000000E+00 0. -1.
        -13    1    5    5    0    0 -0.57610001197E+02  0.50391203753E+03 -0.42655739932E+03  0.66271975127E+03  0.00000000000E+00 0.  1.
          2    1    6    6  503    0 -0.52059617892E+02 -0.14470118060E+03 -0.10404916605E+03  0.18567408122E+03  0.00000000000E+00 0. -1.
         -2    1    6    6    0  503  0.35241064791E+02 -0.10073047901E+03 -0.49155372377E+02  0.11749388360E+03  0.00000000000E+00 0.  1.
<mgrwt>
<rscale>  0 0.17823411E+04</rscale>
<asrwt>0</asrwt>
<pdfrwt beam="1">  1        1 0.38139642E+00 0.17823411E+04</pdfrwt>
<pdfrwt beam="2">  1       -2 0.49285407E-01 0.17823411E+04</pdfrwt>
<totfact> 0.45357767E+00</totfact>
</mgrwt>
</event>
<event>
12    5  0.5095719E-008  0.1696253E+04  0.7818608E-02  0.8763504E-01
          1   -1    0    0  501    0  0.00000000000E+00  0.00000000000E+00  0.12583504906E+04  0.12583504906E+04  0.00000000000E+00 0. -1.
         -2   -1    0    0    0  501 -0.00000000000E+00 -0.00000000000E+00 -0.57163617793E+03  0.57163617793E+03  0.00000000000E+00 0.  1.
        -24    2    1    2    0    0  0.30866044531E+02  0.23312655596E+03  0.84841294232E+03  0.88410836794E+03  0.80884990972E+02 0.  0.
        254    2    1    2    0    0 -0.30866044531E+02 -0.23312655596E+03 -0.16169862966E+03  0.94587830058E+03  0.90179743229E+03 0.  0.
         23    2    4    4    0    0  0.15106072129E+03  0.12895379930E+03  0.26994791597E+03  0.34716255553E+03  0.90562347319E+02 0.  0.
         23    2    4    4    0    0 -0.18192676582E+03 -0.36208035527E+03 -0.43164654563E+03  0.59871574506E+03  0.89119421205E+02 0.  0.
          3    1    3    3  502    0  0.36191016334E+01  0.20980155792E+03  0.76617849258E+03  0.79439239303E+03  0.00000000000E+00 0. -1.
         -4    1    3    3    0  502  0.27246942898E+02  0.23324998040E+02  0.82234449735E+02  0.89715974910E+02  0.00000000000E+00 0.  1.
         13    1    5    5    0    0  0.25452643793E+02 -0.71359226560E+01  0.68999314111E+02  0.73889537934E+02  0.00000000000E+00 0.  1.
        -13    1    5    5    0    0  0.12560807749E+03  0.13608972196E+03  0.20094860186E+03  0.27327301759E+03  0.00000000000E+00 0. -1.
          3    1    6    6  503    0 -0.61558556271E+02 -0.22109384535E+03 -0.23614650722E+03  0.32929791553E+03  0.00000000000E+00 0. -1.
         -3    1    6    6    0  503 -0.12036820955E+03 -0.14098650991E+03 -0.19550003841E+03  0.26941782953E+03  0.00000000000E+00 0.  1.
<mgrwt>
<rscale>  0 0.16962531E+04</rscale>
<asrwt>0</asrwt>
<pdfrwt beam="1">  1        1 0.19359238E+00 0.16962531E+04</pdfrwt>
<pdfrwt beam="2">  1       -2 0.87944027E-01 0.16962531E+04</pdfrwt>
<totfact> 0.90196816E+00</totfact>
</mgrwt>
</event>
<event>
12    5  0.5095719E-008  0.2158291E+04  0.7818608E-02  0.8535992E-01
          1   -1    0    0  501    0  0.00000000000E+00  0.00000000000E+00  0.19514734546E+04  0.19514734546E+04  0.00000000000E+00 0. -1.
         -2   -1    0    0    0  501 -0.00000000000E+00 -0.00000000000E+00 -0.59675663574E+03  0.59675663574E+03  0.00000000000E+00 0.  1.
        -24    2    1    2    0    0 -0.12138693236E+03  0.30779203553E+03 -0.39468703951E+03  0.52092480310E+03  0.78192498618E+02 0.  0.
        254    2    1    2    0    0  0.12138693236E+03 -0.30779203553E+03  0.17494038583E+04  0.20273052872E+04  0.96957833283E+03 0.  0.
         23    2    4    4    0    0  0.80633800611E+02  0.34168284463E+03  0.70900323173E+03  0.79675303981E+03  0.94238249888E+02 0.  0.
         23    2    4    4    0    0  0.40753131749E+02 -0.64947488016E+03  0.10404006266E+04  0.12305522474E+04  0.91361545554E+02 0.  0.
          3    1    3    3  502    0 -0.27700205755E+02  0.45463331108E+02 -0.27164796889E+02  0.59767399678E+02  0.00000000000E+00 0. -1.
         -4    1    3    3    0  502 -0.93686726605E+02  0.26232870442E+03 -0.36752224262E+03  0.46115740342E+03  0.00000000000E+00 0.  1.
         13    1    5    5    0    0  0.54387327573E+02  0.11236678583E+03  0.17462901537E+03  0.21466152186E+03  0.00000000000E+00 0. -1.
        -13    1    5    5    0    0  0.26246473038E+02  0.22931605880E+03  0.53437421635E+03  0.58209151795E+03  0.00000000000E+00 0.  1.
          4    1    6    6  503    0  0.27605217342E+02 -0.38723207013E+03  0.53496486429E+03  0.66098270037E+03  0.00000000000E+00 0. -1.
         -4    1    6    6    0  503  0.13147914406E+02 -0.26224281003E+03  0.50543576232E+03  0.56956954703E+03  0.00000000000E+00 0.  1.
<mgrwt>
<rscale>  0 0.21582907E+04</rscale>
<asrwt>0</asrwt>
<pdfrwt beam="1">  1        1 0.30022668E+00 0.21582907E+04</pdfrwt>
<pdfrwt beam="2">  1       -2 0.91808714E-01 0.21582907E+04</pdfrwt>
<totfact> 0.26075331E+00</totfact>
</mgrwt>
</event>
<event>
12    5  0.5095719E-008  0.1435827E+04  0.7818608E-02  0.8928285E-01
          1   -1    0    0  501    0  0.00000000000E+00  0.00000000000E+00  0.38176188316E+03  0.38176188316E+03  0.00000000000E+00 0. -1.
         -2   -1    0    0    0  501 -0.00000000000E+00 -0.00000000000E+00 -0.13500563711E+04  0.13500563711E+04  0.00000000000E+00 0.  1.
        -24    2    1    2    0    0 -0.89963810657E+02 -0.83189256243E+02 -0.79970332163E+03  0.81302092332E+03  0.80397012026E+02 0.  0.
        254    2    1    2    0    0  0.89963810657E+02  0.83189256243E+02 -0.16859116633E+03  0.91879733096E+03  0.89484725760E+03 0.  0.
         23    2    4    4    0    0 -0.71165685845E+02  0.35561108150E+02  0.34707548026E+03  0.36862784654E+03  0.95372705676E+02 0.  0.
         23    2    4    4    0    0  0.16112949650E+03  0.47628148093E+02 -0.51566664659E+03  0.55016948442E+03  0.92429519363E+02 0.  0.
          3    1    3    3  502    0  0.15227210896E+02 -0.76360567227E+01 -0.95248368348E+02  0.96759645446E+02  0.00000000000E+00 0. -1.
         -4    1    3    3    0  502 -0.10519102155E+03 -0.75553199521E+02 -0.70445495328E+03  0.71626127787E+03  0.00000000000E+00 0.  1.
         13    1    5    5    0    0 -0.11294500603E+01 -0.10353254281E+02 -0.11463093008E+01  0.10477573987E+02  0.00000000000E+00 0.  1.
        -13    1    5    5    0    0 -0.70036235785E+02  0.45914362431E+02  0.34822178956E+03  0.35815027255E+03  0.00000000000E+00 0. -1.
          1    1    6    6  503    0  0.16792757531E+03  0.57149414495E+02 -0.50056789730E+03  0.53106868288E+03  0.00000000000E+00 0. -1.
         -1    1    6    6    0  503 -0.67980788122E+01 -0.95212664016E+01 -0.15098749289E+02  0.19100801542E+02  0.00000000000E+00 0.  1.
<mgrwt>
<rscale>  0 0.14358274E+04</rscale>
<asrwt>0</asrwt>
<pdfrwt beam="1">  1        1 0.58732599E-01 0.14358274E+04</pdfrwt>
<pdfrwt beam="2">  1       -2 0.20770097E+00 0.14358274E+04</pdfrwt>
<totfact> 0.64219714E+00</totfact>
</mgrwt>
</event>
<event>
12    5  0.5095719E-008  0.2058380E+04  0.7818608E-02  0.8579802E-01
         -2   -1    0    0    0  501 -0.00000000000E+00  0.00000000000E+00  0.64796406316E+03  0.64796406316E+03  0.00000000000E+00 0.  1.
          1   -1    0    0  501    0  0.00000000000E+00 -0.00000000000E+00 -0.16347081701E+04  0.16347081701E+04  0.00000000000E+00 0. -1.
        -24    2    1    2    0    0 -0.58136242062E+03 -0.57970896232E+03 -0.28510836406E+03  0.87267334176E+03  0.78912844728E+02 0.  0.
        254    2    1    2    0    0  0.58136242062E+03  0.57970896232E+03 -0.70163574286E+03  0.14099988915E+04  0.90650946670E+03 0.  0.
         23    2    4    4    0    0 -0.21123191694E+03  0.12870220705E+02 -0.52756911838E+02  0.23574269516E+03  0.89480507720E+02 0.  0.
         23    2    4    4    0    0  0.79259433756E+03  0.56683874162E+03 -0.64887883102E+03  0.11742561963E+04  0.91224636555E+02 0.  0.
          1    1    3    3  502    0 -0.21763079137E+03 -0.17213507014E+03 -0.75514370217E+02  0.28756923311E+03  0.00000000000E+00 0. -1.
         -2    1    3    3    0  502 -0.36373162925E+03 -0.40757389218E+03 -0.20959399384E+03  0.58510410865E+03  0.00000000000E+00 0.  1.
         13    1    5    5    0    0 -0.19698182759E+03 -0.70659513933E+01 -0.66029005404E+02  0.20787399458E+03  0.00000000000E+00 0. -1.
        -13    1    5    5    0    0 -0.14250089348E+02  0.19936172098E+02  0.13272093566E+02  0.27868700579E+02  0.00000000000E+00 0.  1.
          1    1    6    6  503    0  0.78926801961E+03  0.55401845363E+03 -0.64604119812E+03  0.11607108526E+04  0.00000000000E+00 0. -1.
         -1    1    6    6    0  503  0.33263179506E+01  0.12820287986E+02 -0.28376328977E+01  0.13545343688E+02  0.00000000000E+00 0.  1.
<mgrwt>
<rscale>  0 0.20583801E+04</rscale>
<asrwt>0</asrwt>
<pdfrwt beam="1">  1        1 0.25149356E+00 0.20583801E+04</pdfrwt>
<pdfrwt beam="2">  1       -2 0.99686779E-01 0.20583801E+04</pdfrwt>
<totfact> 0.35620321E+00</totfact>
</mgrwt>
</event>
<event>
12    5  0.5095719E-008  0.1348243E+04  0.7818608E-02  0.8992160E-01
          1   -1    0    0  501    0  0.00000000000E+00  0.00000000000E+00  0.12762366746E+04  0.12762366746E+04  0.00000000000E+00 0. -1.
         -2   -1    0    0    0  501 -0.00000000000E+00 -0.00000000000E+00 -0.35607774045E+03  0.35607774045E+03  0.00000000000E+00 0.  1.
        -24    2    1    2    0    0  0.14981843519E+03 -0.57093921211E+02 -0.14399991036E+03  0.22971701725E+03  0.79552840721E+02 0.  0.
        254    2    1    2    0    0 -0.14981843519E+03  0.57093921211E+02  0.10641588446E+04  0.14025973979E+04  0.89952217019E+03 0.  0.
         23    2    4    4    0    0  0.17412115710E+03  0.36538324915E+03  0.72291261192E+03  0.83344086173E+03  0.90542417813E+02 0.  0.
         23    2    4    4    0    0 -0.32393959228E+03 -0.30828932794E+03  0.34124623264E+03  0.56915653612E+03  0.86666038038E+02 0.  0.
          3    1    3    3  502    0  0.83177181097E+02  0.67517030785E+01 -0.46778990429E+02  0.95667669017E+02  0.00000000000E+00 0. -1.
         -4    1    3    3    0  502  0.66641254089E+02 -0.63845624290E+02 -0.97220919936E+02  0.13404934823E+03  0.00000000000E+00 0.  1.
         13    1    5    5    0    0  0.28092838178E+02  0.16168970258E+03  0.28292646937E+03  0.32707820861E+03  0.00000000000E+00 0. -1.
        -13    1    5    5    0    0  0.14602831892E+03  0.20369354657E+03  0.43998614255E+03  0.50636265312E+03  0.00000000000E+00 0.  1.
          1    1    6    6  503    0 -0.31330152832E+03 -0.30966670548E+03  0.31721926709E+03  0.54284378927E+03  0.00000000000E+00 0. -1.
         -1    1    6    6    0  503 -0.10638063961E+02  0.13773775343E+01  0.24026965551E+02  0.26312746860E+02  0.00000000000E+00 0.  1.
<mgrwt>
<rscale>  0 0.13482425E+04</rscale>
<asrwt>0</asrwt>
<pdfrwt beam="1">  1        1 0.19634410E+00 0.13482425E+04</pdfrwt>
<pdfrwt beam="2">  1       -2 0.54781191E-01 0.13482425E+04</pdfrwt>
<totfact> 0.25323627E+01</totfact>
</mgrwt>
</event>
<event>
12    5  0.5095719E-008  0.1560734E+04  0.7818608E-02  0.8845041E-01
          1   -1    0    0  501    0  0.00000000000E+00  0.00000000000E+00  0.12446408496E+04  0.12446408496E+04  0.00000000000E+00 0. -1.
         -2   -1    0    0    0  501 -0.00000000000E+00 -0.00000000000E+00 -0.48927562566E+03  0.48927562566E+03  0.00000000000E+00 0.  1.
        -24    2    1    2    0    0 -0.21241189633E+03 -0.43751083157E+03  0.10144838555E+03  0.50316531555E+03  0.79680727938E+02 0.  0.
        254    2    1    2    0    0  0.21241189633E+03  0.43751083157E+03  0.65391683844E+03  0.12307511598E+04  0.92228338606E+03 0.  0.
         23    2    4    4    0    0  0.23877611725E+03  0.70267677379E+03  0.55580684899E+03  0.93191992131E+03  0.93727283914E+02 0.  0.
         23    2    4    4    0    0 -0.26364220923E+02 -0.26516594223E+03  0.98109989451E+02  0.29883123845E+03  0.93093984663E+02 0.  0.
          3    1    3    3  502    0  0.14576673108E+01 -0.44245779451E+02  0.52955451572E+00  0.44272951349E+02  0.00000000000E+00 0. -1.
         -4    1    3    3    0  502 -0.21386956364E+03 -0.39326505212E+03  0.10091883103E+03  0.45889236420E+03  0.00000000000E+00 0.  1.
         13    1    5    5    0    0  0.99600943421E+02  0.18089618452E+03  0.12778947414E+03  0.24284548010E+03  0.00000000000E+00 0. -1.
        -13    1    5    5    0    0  0.13917517383E+03  0.52178058927E+03  0.42801737485E+03  0.68907444121E+03  0.00000000000E+00 0.  1.
          2    1    6    6  503    0 -0.29757795468E+02 -0.42889053757E+02 -0.74648096361E+01  0.52732539349E+02  0.00000000000E+00 0. -1.
         -2    1    6    6    0  503  0.33935745452E+01 -0.22227688847E+03  0.10557479909E+03  0.24609869910E+03  0.00000000000E+00 0.  1.
<mgrwt>
<rscale>  0 0.15607337E+04</rscale>
<asrwt>0</asrwt>
<pdfrwt beam="1">  1        1 0.19148321E+00 0.15607337E+04</pdfrwt>
<pdfrwt beam="2">  1       -2 0.75273174E-01 0.15607337E+04</pdfrwt>
<totfact> 0.13260476E+01</totfact>
</mgrwt>
</event>
<event>
12    5  0.5095719E-008  0.2459302E+04  0.7818608E-02  0.8417630E-01
         -2   -1    0    0    0  501 -0.00000000000E+00  0.00000000000E+00  0.17942958528E+04  0.17942958528E+04  0.00000000000E+00 0.  1.
          1   -1    0    0  501    0  0.00000000000E+00 -0.00000000000E+00 -0.84269355601E+03  0.84269355601E+03  0.00000000000E+00 0. -1.
        -24    2    1    2    0    0  0.10430138329E+04  0.31757815335E+03  0.63901997645E+03  0.12662659280E+04  0.79681434110E+02 0.  0.
        254    2    1    2    0    0 -0.10430138329E+04 -0.31757815335E+03  0.31258232037E+03  0.13707234808E+04  0.76970215972E+03 0.  0.
         23    2    4    4    0    0 -0.67081342332E+03 -0.50285451233E+03  0.78218015801E+00  0.84321342933E+03  0.90304851047E+02 0.  0.
         23    2    4    4    0    0 -0.37220040962E+03  0.18527635897E+03  0.31180014021E+03  0.52751005149E+03  0.90482334584E+02 0.  0.
          3    1    3    3  502    0  0.98961893980E+03  0.31091256855E+03  0.62345184738E+03  0.12102497582E+04  0.00000000000E+00 0. -1.
         -4    1    3    3    0  502  0.53394893138E+02  0.66655848094E+01  0.15568129074E+02  0.56016169781E+02  0.00000000000E+00 0.  1.
         13    1    5    5    0    0 -0.78422629516E+02 -0.30462555167E+02  0.14691500337E+02  0.85404427694E+02  0.00000000000E+00 0. -1.
        -13    1    5    5    0    0 -0.59239079381E+03 -0.47239195716E+03 -0.13909320179E+02  0.75780900164E+03  0.00000000000E+00 0.  1.
          3    1    6    6  503    0 -0.13411609827E+02  0.23838829509E+02  0.33093422450E+01  0.27552002044E+02  0.00000000000E+00 0. -1.
         -3    1    6    6    0  503 -0.35878879979E+03  0.16143752946E+03  0.30849079797E+03  0.49995804945E+03  0.00000000000E+00 0.  1.
<mgrwt>
<rscale>  0 0.24593020E+04</rscale>
<asrwt>0</asrwt>
<pdfrwt beam="1">  1        1 0.12964516E+00 0.24593020E+04</pdfrwt>
<pdfrwt beam="2">  1       -2 0.27604552E+00 0.24593020E+04</pdfrwt>
<totfact> 0.70697463E-01</totfact>
</mgrwt>
</event>
<event>
12    5  0.5095719E-008  0.2743026E+04  0.7818608E-02  0.8321178E-01
          3   -1    0    0  501    0  0.00000000000E+00  0.00000000000E+00  0.14408708330E+04  0.14408708330E+04  0.00000000000E+00 0. -1.
         -4   -1    0    0    0  501 -0.00000000000E+00 -0.00000000000E+00 -0.13054936394E+04  0.13054936394E+04  0.00000000000E+00 0.  1.
        -24    2    1    2    0    0  0.18381357581E+03  0.40100443194E+03 -0.10273461418E+04  0.11206461986E+04  0.76261538614E+02 0.  0.
        254    2    1    2    0    0 -0.18381357581E+03 -0.40100443194E+03  0.11627233354E+04  0.16257182738E+04  0.10471114392E+04 0.  0.
         23    2    4    4    0    0 -0.72692713603E+02  0.14963045562E+03 -0.11890231090E+03  0.22349431404E+03  0.90213330556E+02 0.  0.
         23    2    4    4    0    0 -0.11112086221E+03 -0.55063488756E+03  0.12816256463E+04  0.14022239598E+04  0.90117206043E+02 0.  0.
          1    1    3    3  502    0  0.15961991918E+03  0.35003592345E+03 -0.82000220493E+03  0.90576336998E+03  0.00000000000E+00 0. -1.
         -2    1    3    3    0  502  0.24193656633E+02  0.50968508489E+02 -0.20734393686E+03  0.21488282861E+03  0.00000000000E+00 0.  1.
         13    1    5    5    0    0 -0.73585110111E+02  0.15661947297E+03 -0.12556177483E+03  0.21379940842E+03  0.00000000000E+00 0.  1.
        -13    1    5    5    0    0  0.89239650742E+00 -0.69890173502E+01  0.66594639305E+01  0.96949056153E+01  0.00000000000E+00 0. -1.
          1    1    6    6  503    0 -0.31637800969E+02 -0.30967016596E+03  0.78672752946E+03  0.84607137273E+03  0.00000000000E+00 0. -1.
         -1    1    6    6    0  503 -0.79483061238E+02 -0.24096472160E+03  0.49489811680E+03  0.55615258706E+03  0.00000000000E+00 0.  1.
<mgrwt>
<rscale>  0 0.27430259E+04</rscale>
<asrwt>0</asrwt>
<pdfrwt beam="1">  1        3 0.22167244E+00 0.27430259E+04</pdfrwt>
<pdfrwt beam="2">  1       -4 0.20084517E+00 0.27430259E+04</pdfrwt>
<totfact> 0.28009713E-02</totfact>
</mgrwt>
</event>
<event>
12    5  0.5095719E-008  0.1516948E+04  0.7818608E-02  0.8873261E-01
          1   -1    0    0  501    0  0.00000000000E+00  0.00000000000E+00  0.25733680360E+04  0.25733680360E+04  0.00000000000E+00 0. -1.
         -2   -1    0    0    0  501 -0.00000000000E+00 -0.00000000000E+00 -0.22355237665E+03  0.22355237665E+03  0.00000000000E+00 0.  1.
        -24    2    1    2    0    0  0.73399014743E+01 -0.49243226469E+02  0.16575148472E+04  0.16603728526E+04  0.83688538915E+02 0.  0.
        254    2    1    2    0    0 -0.73399014743E+01  0.49243226469E+02  0.69230081211E+03  0.11365475600E+04  0.89998954003E+03 0.  0.
         23    2    4    4    0    0 -0.13839353367E+03 -0.27230713667E+03 -0.40885987071E+02  0.32017700974E+03  0.86819967669E+02 0.  0.
         23    2    4    4    0    0  0.13105363220E+03  0.32155036314E+03  0.73318679918E+03  0.81637055024E+03  0.91259532455E+02 0.  0.
          1    1    3    3  502    0  0.39910887064E+02 -0.44281209422E+02  0.79641701410E+03  0.79864495539E+03  0.00000000000E+00 0. -1.
         -2    1    3    3    0  502 -0.32570985590E+02 -0.49620170462E+01  0.86109783309E+03  0.86172789724E+03  0.00000000000E+00 0.  1.
         13    1    5    5    0    0 -0.14499586389E+03 -0.24921283464E+03 -0.53190167964E+02  0.29318941226E+03  0.00000000000E+00 0. -1.
        -13    1    5    5    0    0  0.66023302138E+01 -0.23094302026E+02  0.12304180893E+02  0.26987597481E+02  0.00000000000E+00 0.  1.
          2    1    6    6  503    0  0.96623289427E+02  0.13902034818E+03  0.41048608493E+03  0.44402876392E+03  0.00000000000E+00 0. -1.
         -2    1    6    6    0  503  0.34430342772E+02  0.18253001495E+03  0.32270071425E+03  0.37234178632E+03  0.00000000000E+00 0.  1.
<mgrwt>
<rscale>  0 0.15169476E+04</rscale>
<asrwt>0</asrwt>
<pdfrwt beam="1">  1        1 0.39590275E+00 0.15169476E+04</pdfrwt>
<pdfrwt beam="2">  1       -2 0.34392675E-01 0.15169476E+04</pdfrwt>
<totfact> 0.81167920E+00</totfact>
</mgrwt>
</event>
<event>
12    5  0.5095719E-008  0.1403819E+04  0.7818608E-02  0.8951059E-01
         -2   -1    0    0    0  501 -0.00000000000E+00  0.00000000000E+00  0.73297395040E+03  0.73297395040E+03  0.00000000000E+00 0.  1.
          1   -1    0    0  501    0  0.00000000000E+00 -0.00000000000E+00 -0.67216134936E+03  0.67216134936E+03  0.00000000000E+00 0. -1.
        -24    2    1    2    0    0 -0.70306206430E+02  0.36688084419E+03  0.20051370670E+03  0.43140505880E+03  0.79749994883E+02 0.  0.
        254    2    1    2    0    0  0.70306206430E+02 -0.36688084419E+03 -0.13970110566E+03  0.97373024097E+03  0.88830719167E+03 0.  0.
         23    2    4    4    0    0  0.42937015233E+03  0.46521548433E+01 -0.73677259603E+02  0.44509061291E+03  0.91087566998E+02 0.  0.
         23    2    4    4    0    0 -0.35906394590E+03 -0.37153299903E+03 -0.66023846061E+02  0.52863962806E+03  0.90205440496E+02 0.  0.
          1    1    3    3  502    0 -0.25596968322E+02  0.17861264115E+03  0.14087812117E+03  0.22891991043E+03  0.00000000000E+00 0. -1.
         -2    1    3    3    0  502 -0.44709238108E+02  0.18826820304E+03  0.59635585533E+02  0.20248514837E+03  0.00000000000E+00 0.  1.
         13    1    5    5    0    0  0.81386511370E+02  0.21485425164E+02  0.15214047641E+02  0.85538616853E+02  0.00000000000E+00 0.  1.
        -13    1    5    5    0    0  0.34798364096E+03 -0.16833270321E+02 -0.88891307244E+02  0.35955199606E+03  0.00000000000E+00 0. -1.
          1    1    6    6  503    0 -0.35604370745E+03 -0.37544547614E+03 -0.70207306281E+02  0.52216423951E+03  0.00000000000E+00 0. -1.
         -1    1    6    6    0  503 -0.30202384548E+01  0.39124771128E+01  0.41834602205E+01  0.64753885520E+01  0.00000000000E+00 0.  1.
<mgrwt>
<rscale>  0 0.14038187E+04</rscale>
<asrwt>0</asrwt>
<pdfrwt beam="1">  1        1 0.10340944E+00 0.14038187E+04</pdfrwt>
<pdfrwt beam="2">  1       -2 0.11276522E+00 0.14038187E+04</pdfrwt>
<totfact> 0.15290258E+01</totfact>
</mgrwt>
</event>
<event>
12    5  0.5095719E-008  0.2473568E+04  0.7818608E-02  0.8412463E-01
         -2   -1    0    0    0  501 -0.00000000000E+00  0.00000000000E+00  0.52994690636E+03  0.52994690636E+03  0.00000000000E+00 0.  1.
          1   -1    0    0  501    0  0.00000000000E+00 -0.00000000000E+00 -0.28863921794E+04  0.28863921794E+04  0.00000000000E+00 0. -1.
        -24    2    1    2    0    0 -0.93596189385E+03 -0.37023228805E+03 -0.15154136879E+04  0.18209335166E+04  0.78889876246E+02 0.  0.
        254    2    1    2    0    0  0.93596189385E+03  0.37023228805E+03 -0.84103158521E+03  0.15954055692E+04  0.90823355428E+03 0.  0.
         23    2    4    4    0    0 -0.13947350228E+03  0.90026302233E+02 -0.30255861784E+03  0.35724928965E+03  0.92345789260E+02 0.  0.
         23    2    4    4    0    0  0.10754353961E+04  0.28020598582E+03 -0.53847296737E+03  0.12381562796E+04  0.89449149230E+02 0.  0.
          1    1    3    3  502    0 -0.75959935509E+03 -0.30378270410E+03 -0.12841403993E+04  0.15225937333E+04  0.00000000000E+00 0. -1.
         -4    1    3    3    0  502 -0.17636253876E+03 -0.66449583947E+02 -0.23127328859E+03  0.29833978330E+03  0.00000000000E+00 0.  1.
         13    1    5    5    0    0 -0.11173810839E+02  0.31359547719E+02 -0.14126217715E+02  0.36163867448E+02  0.00000000000E+00 0.  1.
        -13    1    5    5    0    0 -0.12829969145E+03  0.58666754514E+02 -0.28843240013E+03  0.32108542221E+03  0.00000000000E+00 0. -1.
          4    1    6    6  503    0  0.47223695962E+03  0.14440347732E+03 -0.19556083147E+03  0.53113477489E+03  0.00000000000E+00 0.  1.
         -4    1    6    6    0  503  0.60319843652E+03  0.13580250850E+03 -0.34291213591E+03  0.70702150468E+03  0.00000000000E+00 0. -1.
<mgrwt>
<rscale>  0 0.24735680E+04</rscale>
<asrwt>0</asrwt>
<pdfrwt beam="1">  1        1 0.44406033E+00 0.24735680E+04</pdfrwt>
<pdfrwt beam="2">  1       -2 0.81530294E-01 0.24735680E+04</pdfrwt>
<totfact> 0.74927793E-01</totfact>
</mgrwt>
</event>
<event>
12    5  0.5095719E-008  0.2154810E+04  0.7818608E-02  0.8537476E-01
          1   -1    0    0  501    0  0.00000000000E+00  0.00000000000E+00  0.35371933521E+04  0.35371933521E+04  0.00000000000E+00 0. -1.
         -2   -1    0    0    0  501 -0.00000000000E+00 -0.00000000000E+00 -0.32817018180E+03  0.32817018180E+03  0.00000000000E+00 0.  1.
        -24    2    1    2    0    0  0.53920076283E+03  0.66999046928E+03  0.17233659421E+04  0.19280667373E+04  0.88467403951E+02 0.  0.
        254    2    1    2    0    0 -0.53920076283E+03 -0.66999046928E+03  0.14856572282E+04  0.19372967966E+04  0.89795143902E+03 0.  0.
         23    2    4    4    0    0 -0.42941010660E+03 -0.43239086802E+02  0.17074780938E+03  0.47350297159E+03  0.93742153905E+02 0.  0.
         23    2    4    4    0    0 -0.10979065622E+03 -0.62675138247E+03  0.13149094188E+04  0.14637938250E+04  0.93990950492E+02 0.  0.
          3    1    3    3  502    0  0.43370380001E+03  0.50654339339E+03  0.13997683672E+04  0.15504956231E+04  0.00000000000E+00 0. -1.
         -4    1    3    3    0  502  0.10549696281E+03  0.16344707588E+03  0.32359757489E+03  0.37757111417E+03  0.00000000000E+00 0.  1.
         13    1    5    5    0    0 -0.34905804725E+03 -0.41847356097E+02  0.17563769622E+03  0.39299023130E+03  0.00000000000E+00 0.  1.
        -13    1    5    5    0    0 -0.80352059353E+02 -0.13917307043E+01 -0.48898868373E+01  0.80512740296E+02  0.00000000000E+00 0. -1.
          3    1    6    6  503    0 -0.91490528546E+02 -0.33229834947E+03  0.78410514492E+03  0.85651245651E+03  0.00000000000E+00 0. -1.
         -3    1    6    6    0  503 -0.18300127677E+02 -0.29445303300E+03  0.53080427393E+03  0.60728136851E+03  0.00000000000E+00 0.  1.
<mgrwt>
<rscale>  0 0.21548099E+04</rscale>
<asrwt>0</asrwt>
<pdfrwt beam="1">  1        1 0.54418356E+00 0.21548099E+04</pdfrwt>
<pdfrwt beam="2">  1       -2 0.50487723E-01 0.21548099E+04</pdfrwt>
<totfact> 0.69910071E-01</totfact>
</mgrwt>
</event>
<event>
12    5  0.5095719E-008  0.3187644E+04  0.7818608E-02  0.8192088E-01
          1   -1    0    0  501    0  0.00000000000E+00  0.00000000000E+00  0.10763669248E+04  0.10763669248E+04  0.00000000000E+00 0. -1.
         -2   -1    0    0    0  501 -0.00000000000E+00 -0.00000000000E+00 -0.23600392282E+04  0.23600392282E+04  0.00000000000E+00 0.  1.
        -24    2    1    2    0    0 -0.78690570284E+03 -0.97255474351E+03 -0.14144700187E+04  0.18901247416E+04  0.82236189091E+02 0.  0.
        254    2    1    2    0    0  0.78690570284E+03  0.97255474351E+03  0.13079771531E+03  0.15462814114E+04  0.89933022113E+03 0.  0.
         23    2    4    4    0    0  0.34910766359E+03  0.39349867549E+03  0.49621198286E+03  0.72878928242E+03  0.90499269926E+02 0.  0.
         23    2    4    4    0    0  0.43779803925E+03  0.57905606802E+03 -0.36541426755E+03  0.81749212898E+03  0.88276502735E+02 0.  0.
          3    1    3    3  502    0 -0.26440156647E+03 -0.32561363084E+03 -0.41670767308E+03  0.59125097018E+03  0.00000000000E+00 0. -1.
         -4    1    3    3    0  502 -0.52250413637E+03 -0.64694111268E+03 -0.99776234560E+03  0.12988737714E+04  0.00000000000E+00 0.  1.
         13    1    5    5    0    0  0.10579053092E+03  0.73862960165E+02  0.88727670164E+02  0.15658854610E+03  0.00000000000E+00 0.  1.
        -13    1    5    5    0    0  0.24331713267E+03  0.31963571532E+03  0.40748431269E+03  0.57220073633E+03  0.00000000000E+00 0. -1.
          3    1    6    6  503    0  0.41903320046E+03  0.56925005603E+03 -0.36665098100E+03  0.79628348673E+03  0.00000000000E+00 0. -1.
         -3    1    6    6    0  503  0.18764838783E+02  0.98060119971E+01  0.12367134504E+01  0.21208642248E+02  0.00000000000E+00 0.  1.
<mgrwt>
<rscale>  0 0.31876437E+04</rscale>
<asrwt>0</asrwt>
<pdfrwt beam="1">  1        1 0.16559491E+00 0.31876437E+04</pdfrwt>
<pdfrwt beam="2">  1       -2 0.36308296E+00 0.31876437E+04</pdfrwt>
<totfact> 0.12476547E-01</totfact>
</mgrwt>
</event>
<event>
12    5  0.5095719E-008  0.1525811E+04  0.7818608E-02  0.8867468E-01
         -2   -1    0    0    0  501 -0.00000000000E+00  0.00000000000E+00  0.14099847790E+04  0.14099847790E+04  0.00000000000E+00 0.  1.
          1   -1    0    0  501    0  0.00000000000E+00 -0.00000000000E+00 -0.41278805158E+03  0.41278805158E+03  0.00000000000E+00 0. -1.
        -24    2    1    2    0    0  0.19775409017E+03 -0.40654221209E+03  0.98612097699E+02  0.46979237212E+03  0.81223621549E+02 0.  0.
        254    2    1    2    0    0 -0.19775409017E+03  0.40654221209E+03  0.89858462968E+03  0.13529804584E+04  0.90483066581E+03 0.  0.
         23    2    4    4    0    0 -0.16306170667E+03  0.42969872504E+03  0.10626561204E+04  0.11618382991E+04  0.96954053886E+02 0.  0.
         23    2    4    4    0    0 -0.34692383497E+02 -0.23156512946E+02 -0.16407149070E+03  0.19114215933E+03  0.88747312350E+02 0.  0.
          3    1    3    3  502    0  0.16508844641E+03 -0.38134441186E+03  0.10352293264E+03  0.42824613621E+03  0.00000000000E+00 0. -1.
         -4    1    3    3    0  502  0.32665643759E+02 -0.25197800239E+02 -0.49108349406E+01  0.41546235917E+02  0.00000000000E+00 0.  1.
         13    1    5    5    0    0 -0.58335029776E+02  0.24039768965E+03  0.65833578001E+03  0.70327805605E+03  0.00000000000E+00 0.  1.
        -13    1    5    5    0    0 -0.10472667690E+03  0.18930103540E+03  0.40432034037E+03  0.45856024304E+03  0.00000000000E+00 0. -1.
          4    1    6    6  503    0 -0.94639109074E+01 -0.55786394197E+02 -0.10132170528E+03  0.11605074471E+03  0.00000000000E+00 0. -1.
         -4    1    6    6    0  503 -0.25228472589E+02  0.32629881251E+02 -0.62749785423E+02  0.75091414624E+02  0.00000000000E+00 0.  1.
<mgrwt>
<rscale>  0 0.15258111E+04</rscale>
<asrwt>0</asrwt>
<pdfrwt beam="1">  1        1 0.63505855E-01 0.15258111E+04</pdfrwt>
<pdfrwt beam="2">  1       -2 0.21692073E+00 0.15258111E+04</pdfrwt>
<totfact> 0.50155142E+00</totfact>
</mgrwt>
</event>
<event>
12    5  0.5095719E-008  0.2310102E+04  0.7818608E-02  0.8473949E-01
         -2   -1    0    0    0  501 -0.00000000000E+00  0.00000000000E+00  0.59284157689E+03  0.59284157689E+03  0.00000000000E+00 0.  1.
          1   -1    0    0  501    0  0.00000000000E+00 -0.00000000000E+00 -0.22504202496E+04  0.22504202496E+04  0.00000000000E+00 0. -1.
        -24    2    1    2    0    0 -0.86088963928E+03 -0.43478637086E+03 -0.84492175343E+03  0.12836352635E+04  0.60469504983E+02 0.  0.
        254    2    1    2    0    0  0.86088963928E+03  0.43478637086E+03 -0.81265691932E+03  0.15596265630E+04  0.91752579702E+03 0.  0.
         23    2    4    4    0    0  0.61057104849E+03  0.88314388460E+02 -0.91709360748E+03  0.11100809791E+04  0.10306628327E+03 0.  0.
         23    2    4    4    0    0  0.25031859079E+03  0.34647198240E+03  0.10443668816E+03  0.44954558394E+03  0.92097658606E+02 0.  0.
          3    1    3    3  502    0 -0.32622530897E+03 -0.18284890134E+03 -0.29496008860E+03  0.47629625949E+03  0.00000000000E+00 0. -1.
         -4    1    3    3    0  502 -0.53466433031E+03 -0.25193746951E+03 -0.54996166483E+03  0.80733900403E+03  0.00000000000E+00 0.  1.
         13    1    5    5    0    0  0.52559127893E+02  0.24844373153E+02 -0.48346601929E+02  0.75611498599E+02  0.00000000000E+00 0.  1.
        -13    1    5    5    0    0  0.55801192059E+03  0.63470015307E+02 -0.86874700555E+03  0.10344694805E+04  0.00000000000E+00 0. -1.
          4    1    6    6  503    0  0.91973993146E+02  0.13509272702E+03 -0.53705755892E+01  0.16351789930E+03  0.00000000000E+00 0.  1.
         -4    1    6    6    0  503  0.15834459765E+03  0.21137925538E+03  0.10980726375E+03  0.28602768464E+03  0.00000000000E+00 0. -1.
<mgrwt>
<rscale>  0 0.23101019E+04</rscale>
<asrwt>0</asrwt>
<pdfrwt beam="1">  1        1 0.34621849E+00 0.23101019E+04</pdfrwt>
<pdfrwt beam="2">  1       -2 0.91206398E-01 0.23101019E+04</pdfrwt>
<totfact> 0.16364234E+00</totfact>
</mgrwt>
</event>
<event>
12    5  0.5095719E-008  0.2652009E+04  0.7818608E-02  0.8350746E-01
         -2   -1    0    0    0  501 -0.00000000000E+00  0.00000000000E+00  0.14697626389E+04  0.14697626389E+04  0.00000000000E+00 0.  1.
          1   -1    0    0  501    0  0.00000000000E+00 -0.00000000000E+00 -0.11963076381E+04  0.11963076381E+04  0.00000000000E+00 0. -1.
        -24    2    1    2    0    0  0.87114643535E+03  0.47383056833E+03  0.74845804015E+03  0.12453124125E+04  0.84864877723E+02 0.  0.
        254    2    1    2    0    0 -0.87114643535E+03 -0.47383056833E+03 -0.47500303931E+03  0.14207578645E+04  0.89972968320E+03 0.  0.
         23    2    4    4    0    0 -0.40113382607E+03 -0.43110460822E+03 -0.67498949221E+03  0.90035767780E+03  0.90959352040E+02 0.  0.
         23    2    4    4    0    0 -0.47001260928E+03 -0.42725960103E+02  0.19998645291E+03  0.52040018669E+03  0.89913360541E+02 0.  0.
          1    1    3    3  502    0  0.55431735752E+02  0.48945527418E+02  0.38069412405E+02  0.83172243829E+02  0.00000000000E+00 0. -1.
         -2    1    3    3    0  502  0.81571469960E+03  0.42488504091E+03  0.71038862774E+03  0.11621401686E+04  0.00000000000E+00 0.  1.
         13    1    5    5    0    0 -0.77255356614E+02 -0.85515585110E+02 -0.19171352932E+03  0.22368590198E+03  0.00000000000E+00 0. -1.
        -13    1    5    5    0    0 -0.32387846945E+03 -0.34558902311E+03 -0.48327596289E+03  0.67667177581E+03  0.00000000000E+00 0.  1.
          2    1    6    6  503    0 -0.32592838855E+03 -0.57047238334E+02  0.10464917134E+03  0.34703767941E+03  0.00000000000E+00 0. -1.
         -2    1    6    6    0  503 -0.14408422073E+03  0.14321278231E+02  0.95337281562E+02  0.17336250728E+03  0.00000000000E+00 0.  1.
<mgrwt>
<rscale>  0 0.26520093E+04</rscale>
<asrwt>0</asrwt>
<pdfrwt beam="1">  1        1 0.18404733E+00 0.26520093E+04</pdfrwt>
<pdfrwt beam="2">  1       -2 0.22611733E+00 0.26520093E+04</pdfrwt>
<totfact> 0.74810704E-01</totfact>
</mgrwt>
</event>
<event>
12    5  0.5095719E-008  0.1486922E+04  0.7818608E-02  0.8893197E-01
          1   -1    0    0  501    0  0.00000000000E+00  0.00000000000E+00  0.11196262051E+04  0.11196262051E+04  0.00000000000E+00 0. -1.
         -2   -1    0    0    0  501 -0.00000000000E+00 -0.00000000000E+00 -0.49367744581E+03  0.49367744581E+03  0.00000000000E+00 0.  1.
        -24    2    1    2    0    0 -0.39452836936E+03 -0.26520972285E+02  0.45744524481E+03  0.60982532741E+03  0.79213519986E+02 0.  0.
        254    2    1    2    0    0  0.39452836936E+03  0.26520972285E+02  0.16850351448E+03  0.10034783235E+04  0.90676309758E+03 0.  0.
         23    2    4    4    0    0 -0.17688790993E+02 -0.33283511695E+03  0.27220171817E+03  0.44004563721E+03  0.91947153557E+02 0.  0.
         23    2    4    4    0    0  0.41221716035E+03  0.35935608924E+03 -0.10369820370E+03  0.56343268629E+03  0.87425902150E+02 0.  0.
          1    1    3    3  502    0 -0.32965618003E+03 -0.33833082800E+02  0.33588220827E+03  0.47184185101E+03  0.00000000000E+00 0. -1.
         -2    1    3    3    0  502 -0.64872189326E+02  0.73121105155E+01  0.12156303653E+03  0.13798347640E+03  0.00000000000E+00 0.  1.
         13    1    5    5    0    0 -0.43070037418E+02 -0.97670850639E+02  0.61001659222E+02  0.12294643393E+03  0.00000000000E+00 0.  1.
        -13    1    5    5    0    0  0.25381246425E+02 -0.23516426631E+03  0.21120005895E+03  0.31709920328E+03  0.00000000000E+00 0. -1.
          3    1    6    6  503    0  0.34761408938E+03  0.31757989615E+03 -0.59180079969E+02  0.47454697074E+03  0.00000000000E+00 0. -1.
         -3    1    6    6    0  503  0.64603070974E+02  0.41776193084E+02 -0.44518123728E+02  0.88885715546E+02  0.00000000000E+00 0.  1.
<mgrwt>
<rscale>  0 0.14869219E+04</rscale>
<asrwt>0</asrwt>
<pdfrwt beam="1">  1        1 0.17225018E+00 0.14869219E+04</pdfrwt>
<pdfrwt beam="2">  1       -2 0.75950377E-01 0.14869219E+04</pdfrwt>
<totfact> 0.16159690E+01</totfact>
</mgrwt>
</event>
<event>
12    5  0.5095719E-008  0.2003511E+04  0.7818608E-02  0.8604981E-01
         -2   -1    0    0    0  501 -0.00000000000E+00  0.00000000000E+00  0.71071410010E+03  0.71071410010E+03  0.00000000000E+00 0.  1.
          1   -1    0    0  501    0  0.00000000000E+00 -0.00000000000E+00 -0.14119803294E+04  0.14119803294E+04  0.00000000000E+00 0. -1.
        -24    2    1    2    0    0 -0.12143917543E+03  0.72442903942E+03  0.34648185231E+02  0.73932893857E+03  0.76562890419E+02 0.  0.
        254    2    1    2    0    0  0.12143917543E+03 -0.72442903942E+03 -0.73591441450E+03  0.13833654909E+04  0.91246103997E+03 0.  0.
         23    2    4    4    0    0 -0.31611296064E+03 -0.13822125823E+02 -0.16755115826E+03  0.36961739330E+03  0.91788734343E+02 0.  0.
         23    2    4    4    0    0  0.43755213606E+03 -0.71060691360E+03 -0.56836325624E+03  0.10137480976E+04  0.90743357398E+02 0.  0.
          3    1    3    3  502    0 -0.86197269379E+01  0.16471875116E+03 -0.18079428881E+02  0.16593201145E+03  0.00000000000E+00 0. -1.
         -4    1    3    3    0  502 -0.11281944849E+03  0.55971028826E+03  0.52727614112E+02  0.57339692712E+03  0.00000000000E+00 0.  1.
         13    1    5    5    0    0 -0.11819305014E+03  0.10508795625E+02 -0.17246704283E+02  0.11990613286E+03  0.00000000000E+00 0. -1.
        -13    1    5    5    0    0 -0.19791991049E+03 -0.24330921448E+02 -0.15030445398E+03  0.24971126045E+03  0.00000000000E+00 0.  1.
          2    1    6    6  503    0  0.14676041650E+03 -0.17438157568E+03 -0.18217368519E+03  0.29177869245E+03  0.00000000000E+00 0. -1.
         -2    1    6    6    0  503  0.29079171956E+03 -0.53622533791E+03 -0.38618957105E+03  0.72196940515E+03  0.00000000000E+00 0.  1.
<mgrwt>
<rscale>  0 0.20035112E+04</rscale>
<asrwt>0</asrwt>
<pdfrwt beam="1">  1        1 0.21722774E+00 0.20035112E+04</pdfrwt>
<pdfrwt beam="2">  1       -2 0.10934063E+00 0.20035112E+04</pdfrwt>
<totfact> 0.40885420E+00</totfact>
</mgrwt>
</event>
<event>
12    5  0.5095719E-008  0.1779191E+04  0.7818608E-02  0.8717444E-01
         -2   -1    0    0    0  501 -0.00000000000E+00  0.00000000000E+00  0.13432758858E+04  0.13432758858E+04  0.00000000000E+00 0.  1.
          1   -1    0    0  501    0  0.00000000000E+00 -0.00000000000E+00 -0.58914206432E+03  0.58914206432E+03  0.00000000000E+00 0. -1.
        -24    2    1    2    0    0  0.25887202624E+03 -0.59180751717E+03  0.14925971159E+03  0.66780310055E+03  0.80197607458E+02 0.  0.
        254    2    1    2    0    0 -0.25887202624E+03  0.59180751717E+03  0.60487410990E+03  0.12646148496E+04  0.90339756787E+03 0.  0.
         23    2    4    4    0    0 -0.41447427955E+03  0.75452344710E+03  0.50576509561E+03  0.10025826335E+04  0.90989254229E+02 0.  0.
         23    2    4    4    0    0  0.15560225330E+03 -0.16271592993E+03  0.99109014293E+02  0.26203221612E+03  0.90275968472E+02 0.  0.
          1    1    3    3  502    0  0.13539543097E+03 -0.38223116455E+03  0.66850806077E+02  0.41097641800E+03  0.00000000000E+00 0. -1.
         -2    1    3    3    0  502  0.12347659527E+03 -0.20957635263E+03  0.82408905518E+02  0.25682668255E+03  0.00000000000E+00 0.  1.
         13    1    5    5    0    0 -0.37892504976E+03  0.70573157370E+03  0.49392129663E+03  0.94106296001E+03  0.00000000000E+00 0. -1.
        -13    1    5    5    0    0 -0.35549229787E+02  0.48791873405E+02  0.11843798979E+02  0.61519673464E+02  0.00000000000E+00 0.  1.
          2    1    6    6  503    0  0.15071694909E+03 -0.17294888738E+03  0.86751430796E+02  0.24526052910E+03  0.00000000000E+00 0. -1.
         -2    1    6    6    0  503  0.48853042123E+01  0.10232957453E+02  0.12357583498E+02  0.16771687016E+02  0.00000000000E+00 0.  1.
<mgrwt>
<rscale>  0 0.17791912E+04</rscale>
<asrwt>0</asrwt>
<pdfrwt beam="1">  1        1 0.90637241E-01 0.17791912E+04</pdfrwt>
<pdfrwt beam="2">  1       -2 0.20665783E+00 0.17791912E+04</pdfrwt>
<totfact> 0.34988321E+00</totfact>
</mgrwt>
</event>
<event>
12    5  0.5095719E-008  0.1897957E+04  0.7818608E-02  0.8655874E-01
         -2   -1    0    0    0  501 -0.00000000000E+00  0.00000000000E+00  0.92189317581E+03  0.92189317581E+03  0.00000000000E+00 0.  1.
          1   -1    0    0  501    0  0.00000000000E+00 -0.00000000000E+00 -0.97685954216E+03  0.97685954216E+03  0.00000000000E+00 0. -1.
        -24    2    1    2    0    0 -0.87806914671E+02  0.16555036535E+02  0.69627025315E+03  0.70625056461E+03  0.77546573646E+02 0.  0.
        254    2    1    2    0    0  0.87806914671E+02 -0.16555036535E+02 -0.75123661950E+03  0.11925021534E+04  0.92180301789E+03 0.  0.
         23    2    4    4    0    0  0.36644028451E+02 -0.45000483956E+03 -0.50435343697E+03  0.68272379209E+03  0.88838316333E+02 0.  0.
         23    2    4    4    0    0  0.51162886220E+02  0.43344980302E+03 -0.24688318253E+03  0.50977836128E+03  0.91794875355E+02 0.  0.
          1    1    3    3  502    0  0.65515528152E+01  0.22769042535E+02  0.13102050061E+03  0.13314549832E+03  0.00000000000E+00 0. -1.
         -2    1    3    3    0  502 -0.94358467486E+02 -0.62140060001E+01  0.56524975254E+03  0.57310506629E+03  0.00000000000E+00 0.  1.
         13    1    5    5    0    0  0.28558102337E+02 -0.48943895362E+02 -0.87163567057E+02  0.10396421271E+03  0.00000000000E+00 0.  1.
        -13    1    5    5    0    0  0.80859261142E+01 -0.40106094420E+03 -0.41718986991E+03  0.57875957938E+03  0.00000000000E+00 0. -1.
          3    1    6    6  503    0  0.64970933297E+02  0.42416708378E+03 -0.24081637804E+03  0.49206855729E+03  0.00000000000E+00 0. -1.
         -3    1    6    6    0  503 -0.13808047077E+02  0.92827192407E+01 -0.60668044860E+01  0.17709803987E+02  0.00000000000E+00 0.  1.
<mgrwt>
<rscale>  0 0.18979569E+04</rscale>
<asrwt>0</asrwt>
<pdfrwt beam="1">  1        1 0.15028608E+00 0.18979569E+04</pdfrwt>
<pdfrwt beam="2">  1       -2 0.14182972E+00 0.18979569E+04</pdfrwt>
<totfact> 0.44934790E+00</totfact>
</mgrwt>
</event>
<event>
12    5  0.5095719E-008  0.3489150E+04  0.7818608E-02  0.8116366E-01
          1   -1    0    0  501    0  0.00000000000E+00  0.00000000000E+00  0.28118045612E+04  0.28118045612E+04  0.00000000000E+00 0. -1.
         -2   -1    0    0    0  501 -0.00000000000E+00 -0.00000000000E+00 -0.10824161530E+04  0.10824161530E+04  0.00000000000E+00 0.  1.
        -24    2    1    2    0    0  0.15618677943E+04  0.20756750206E+03  0.35910660394E+03  0.16179549541E+04  0.79406583136E+02 0.  0.
        254    2    1    2    0    0 -0.15618677943E+04 -0.20756750206E+03  0.13702818043E+04  0.22762657601E+04  0.90619992975E+03 0.  0.
         23    2    4    4    0    0 -0.14491368090E+04 -0.26767030998E+02  0.14235680614E+04  0.20336159735E+04  0.91290400017E+02 0.  0.
         23    2    4    4    0    0 -0.11273098531E+03 -0.18080047107E+03 -0.53286257062E+02  0.24264978664E+03  0.10316204911E+03 0.  0.
          1    1    3    3  502    0  0.48451158745E+03  0.89202221624E+02  0.84232712054E+02  0.49980362594E+03  0.00000000000E+00 0. -1.
         -2    1    3    3    0  502  0.10773562069E+04  0.11836528044E+03  0.27487389189E+03  0.11181513281E+04  0.00000000000E+00 0.  1.
         13    1    5    5    0    0 -0.13346773215E+04 -0.60493729591E+01  0.12855088070E+04  0.18530874346E+04  0.00000000000E+00 0. -1.
        -13    1    5    5    0    0 -0.11445948751E+03 -0.20717658039E+02  0.13805925435E+03  0.18052853887E+03  0.00000000000E+00 0.  1.
          3    1    6    6  503    0 -0.25381130422E+01 -0.86281873064E+02  0.44021911168E+01  0.86431376964E+02  0.00000000000E+00 0. -1.
         -3    1    6    6    0  503 -0.11019287227E+03 -0.94518598001E+02 -0.57688448179E+02  0.15621840967E+03  0.00000000000E+00 0.  1.
<mgrwt>
<rscale>  0 0.34891504E+04</rscale>
<asrwt>0</asrwt>
<pdfrwt beam="1">  1        1 0.43258532E+00 0.34891504E+04</pdfrwt>
<pdfrwt beam="2">  1       -2 0.16652556E+00 0.34891504E+04</pdfrwt>
<totfact> 0.13256008E-01</totfact>
</mgrwt>
</event>
<event>
12    5  0.5095719E-008  0.1714475E+04  0.7818608E-02  0.8753152E-01
         -4   -1    0    0    0  501 -0.00000000000E+00  0.00000000000E+00  0.17466219878E+04  0.17466219878E+04  0.00000000000E+00 0.  1.
          3   -1    0    0  501    0  0.00000000000E+00 -0.00000000000E+00 -0.42072979971E+03  0.42072979971E+03  0.00000000000E+00 0. -1.
        -24    2    1    2    0    0  0.48605331349E+03  0.36367649308E+03  0.44081814648E+03  0.75661578070E+03  0.98175282815E+02 0.  0.
        254    2    1    2    0    0 -0.48605331349E+03 -0.36367649308E+03  0.88507404166E+03  0.14107360069E+04  0.91559358160E+03 0.  0.
         23    2    4    4    0    0  0.11883942520E+03 -0.37750087100E+03  0.62662783027E+03  0.74672069768E+03  0.91102393364E+02 0.  0.
         23    2    4    4    0    0 -0.60489273870E+03  0.13824377923E+02  0.25844621138E+03  0.66401530918E+03  0.89641217631E+02 0.  0.
          1    1    3    3  502    0  0.17647341987E+03  0.12655866927E+03  0.10155258522E+03  0.23973504594E+03  0.00000000000E+00 0. -1.
         -2    1    3    3    0  502  0.30957989363E+03  0.23711782381E+03  0.33926556126E+03  0.51688073475E+03  0.00000000000E+00 0.  1.
         13    1    5    5    0    0  0.66003125693E+02 -0.83963587009E+02  0.18976961386E+03  0.21775858855E+03  0.00000000000E+00 0.  1.
        -13    1    5    5    0    0  0.52836299511E+02 -0.29353728400E+03  0.43685821642E+03  0.52896210913E+03  0.00000000000E+00 0. -1.
          4    1    6    6  503    0 -0.35392913127E+03  0.52029022671E+02  0.14631782265E+03  0.38649935885E+03  0.00000000000E+00 0. -1.
         -4    1    6    6    0  503 -0.25096360742E+03 -0.38204644748E+02  0.11212838873E+03  0.27751595034E+03  0.00000000000E+00 0.  1.
<mgrwt>
<rscale>  0 0.17144748E+04</rscale>
<asrwt>0</asrwt>
<pdfrwt beam="1">  1        3 0.64727662E-01 0.17144748E+04</pdfrwt>
<pdfrwt beam="2">  1       -4 0.26871107E+00 0.17144748E+04</pdfrwt>
<totfact> 0.24311141E-01</totfact>
</mgrwt>
</event>
<event>
12    5  0.5095719E-008  0.1954101E+04  0.7818608E-02  0.8628386E-01
          3   -1    0    0  501    0  0.00000000000E+00  0.00000000000E+00  0.17373821092E+04  0.17373821092E+04  0.00000000000E+00 0. -1.
         -4   -1    0    0    0  501 -0.00000000000E+00 -0.00000000000E+00 -0.54946330679E+03  0.54946330679E+03  0.00000000000E+00 0.  1.
        -24    2    1    2    0    0 -0.64868626046E+03  0.39370618515E+03  0.56969798499E+03  0.95224206044E+03  0.80066989695E+02 0.  0.
        254    2    1    2    0    0  0.64868626046E+03 -0.39370618515E+03  0.61822081738E+03  0.13346033555E+04  0.90728755792E+03 0.  0.
         23    2    4    4    0    0  0.58267540822E+03 -0.64418345236E+03  0.32047287986E+03  0.93003263969E+03  0.88175350968E+02 0.  0.
         23    2    4    4    0    0  0.66010852240E+02  0.25047726721E+03  0.29774793752E+03  0.40457071583E+03  0.89035587288E+02 0.  0.
          1    1    3    3  502    0 -0.46339187559E+03  0.31086421364E+03  0.38614300262E+03  0.67858308862E+03  0.00000000000E+00 0. -1.
         -2    1    3    3    0  502 -0.18529438488E+03  0.82841971511E+02  0.18355498236E+03  0.27365897183E+03  0.00000000000E+00 0.  1.
         13    1    5    5    0    0  0.46231654776E+03 -0.55395321079E+03  0.28274192772E+03  0.77494757744E+03  0.00000000000E+00 0. -1.
        -13    1    5    5    0    0  0.12035886046E+03 -0.90230241562E+02  0.37730952145E+02  0.15508506225E+03  0.00000000000E+00 0.  1.
          1    1    6    6  503    0  0.49454946937E+02  0.24966228422E+03  0.29119925373E+03  0.38674804888E+03  0.00000000000E+00 0. -1.
         -1    1    6    6    0  503  0.16555905303E+02  0.81498298677E+00  0.65486837927E+01  0.17822666947E+02  0.00000000000E+00 0.  1.
<mgrwt>
<rscale>  0 0.19541010E+04</rscale>
<asrwt>0</asrwt>
<pdfrwt beam="1">  1        3 0.26728955E+00 0.19541010E+04</pdfrwt>
<pdfrwt beam="2">  1       -4 0.84532817E-01 0.19541010E+04</pdfrwt>
<totfact> 0.15404902E-01</totfact>
</mgrwt>
</event>
<event>
12    5  0.5095719E-008  0.1824083E+04  0.7818608E-02  0.8693596E-01
         -2   -1    0    0    0  501 -0.00000000000E+00  0.00000000000E+00  0.31343601793E+03  0.31343601793E+03  0.00000000000E+00 0.  1.
          1   -1    0    0  501    0  0.00000000000E+00 -0.00000000000E+00 -0.26538737052E+04  0.26538737052E+04  0.00000000000E+00 0. -1.
        -24    2    1    2    0    0 -0.65001444311E+03 -0.26757125485E+02 -0.54799129807E+03  0.85455953829E+03  0.82114686280E+02 0.  0.
        254    2    1    2    0    0  0.65001444311E+03  0.26757125485E+02 -0.17924463892E+04  0.21127501849E+04  0.90973323860E+03 0.  0.
         23    2    4    4    0    0  0.21354468221E+03  0.43584014954E+03 -0.61947293528E+03  0.79223786350E+03  0.91302505800E+02 0.  0.
         23    2    4    4    0    0  0.43646976090E+03 -0.40908302405E+03 -0.11729734539E+04  0.13205123214E+04  0.10015635023E+03 0.  0.
          3    1    3    3  502    0 -0.19763219026E+03  0.33467039100E+01 -0.12096482480E+03  0.23173729068E+03  0.00000000000E+00 0. -1.
         -4    1    3    3    0  502 -0.45238225285E+03 -0.30103829394E+02 -0.42702647328E+03  0.62282224761E+03  0.00000000000E+00 0.  1.
         13    1    5    5    0    0  0.44455418707E+01  0.87182116473E+02 -0.10772914061E+03  0.13865803984E+03  0.00000000000E+00 0.  1.
        -13    1    5    5    0    0  0.20909914034E+03  0.34865803307E+03 -0.51174379467E+03  0.65357982366E+03  0.00000000000E+00 0. -1.
          2    1    6    6  503    0  0.95570073368E+02 -0.40875421285E+02 -0.22798265983E+03  0.25056043617E+03  0.00000000000E+00 0.  1.
         -2    1    6    6    0  503  0.34089968753E+03 -0.36820760277E+03 -0.94499079411E+03  0.10699518852E+04  0.00000000000E+00 0. -1.
<mgrwt>
<rscale>  0 0.18240829E+04</rscale>
<asrwt>0</asrwt>
<pdfrwt beam="1">  1        1 0.40828826E+00 0.18240829E+04</pdfrwt>
<pdfrwt beam="2">  1       -2 0.48220926E-01 0.18240829E+04</pdfrwt>
<totfact> 0.35691635E+00</totfact>
</mgrwt>
</event>
<event>
12    5  0.5095719E-008  0.1885516E+04  0.7818608E-02  0.8662100E-01
          1   -1    0    0  501    0  0.00000000000E+00  0.00000000000E+00  0.30498938860E+03  0.30498938860E+03  0.00000000000E+00 0. -1.
         -2   -1    0    0    0  501 -0.00000000000E+00 -0.00000000000E+00 -0.29141752226E+04  0.29141752226E+04  0.00000000000E+00 0.  1.
        -24    2    1    2    0    0 -0.55616655627E+03  0.28011453153E+03 -0.15182807827E+04  0.16430026334E+04  0.80596086435E+02 0.  0.
        254    2    1    2    0    0  0.55616655627E+03 -0.28011453153E+03 -0.10909050513E+04  0.15761619778E+04  0.95206478784E+03 0.  0.
         23    2    4    4    0    0 -0.24077123699E+02 -0.42388093451E+02  0.15115507716E+03  0.18219424063E+03  0.89277240186E+02 0.  0.
         23    2    4    4    0    0  0.58024367997E+03 -0.23772643808E+03 -0.12420601284E+04  0.13939677372E+04  0.85065281325E+02 0.  0.
          3    1    3    3  502    0 -0.14673021574E+01  0.11516262675E+02 -0.28207461233E+02  0.30503084284E+02  0.00000000000E+00 0. -1.
         -4    1    3    3    0  502 -0.55469925412E+03  0.26859826886E+03 -0.14900733215E+04  0.16124995492E+04  0.00000000000E+00 0.  1.
         13    1    5    5    0    0 -0.20845250784E+02  0.12180187536E+02  0.11295293708E+03  0.11550431786E+03  0.00000000000E+00 0. -1.
        -13    1    5    5    0    0 -0.32318729148E+01 -0.54568280986E+02  0.38202140073E+02  0.66689922765E+02  0.00000000000E+00 0.  1.
          4    1    6    6  503    0  0.47964010957E+03 -0.19226619308E+03 -0.94495510879E+03  0.10770148937E+04  0.00000000000E+00 0. -1.
         -4    1    6    6    0  503  0.10060357040E+03 -0.45460244999E+02 -0.29710501966E+03  0.31695284343E+03  0.00000000000E+00 0.  1.
<mgrwt>
<rscale>  0 0.18855159E+04</rscale>
<asrwt>0</asrwt>
<pdfrwt beam="1">  1        1 0.46921443E-01 0.18855159E+04</pdfrwt>
<pdfrwt beam="2">  1       -2 0.44833466E+00 0.18855159E+04</pdfrwt>
<totfact> 0.25081924E-01</totfact>
</mgrwt>
</event>
<event>
12    5  0.5095719E-008  0.1779586E+04  0.7818608E-02  0.8717231E-01
         -2   -1    0    0    0  501 -0.00000000000E+00  0.00000000000E+00  0.12313687737E+04  0.12313687737E+04  0.00000000000E+00 0.  1.
          1   -1    0    0  501    0  0.00000000000E+00 -0.00000000000E+00 -0.64296905327E+03  0.64296905327E+03  0.00000000000E+00 0. -1.
        -24    2    1    2    0    0  0.39320314882E+03  0.37774259302E+03 -0.18713994045E+03  0.58230743214E+03  0.82233845804E+02 0.  0.
        254    2    1    2    0    0 -0.39320314882E+03 -0.37774259302E+03  0.77553966092E+03  0.12920303949E+04  0.87782833899E+03 0.  0.
         23    2    4    4    0    0 -0.17643766975E+03  0.23558234715E+03  0.49184537535E+02  0.31185151804E+03  0.90570177079E+02 0.  0.
         23    2    4    4    0    0 -0.21676547907E+03 -0.61332494016E+03  0.72635512338E+03  0.98017887681E+03  0.10002054862E+03 0.  0.
          1    1    3    3  502    0  0.23488236532E+03  0.18915656635E+03 -0.13597500138E+03  0.33081585985E+03  0.00000000000E+00 0. -1.
         -2    1    3    3    0  502  0.15832078350E+03  0.18858602667E+03 -0.51164939078E+02  0.25149157229E+03  0.00000000000E+00 0.  1.
         13    1    5    5    0    0 -0.29121492630E+02  0.30017034569E+01 -0.86604386923E+01  0.30529899361E+02  0.00000000000E+00 0.  1.
        -13    1    5    5    0    0 -0.14731617712E+03  0.23258064369E+03  0.57844976227E+02  0.28132161868E+03  0.00000000000E+00 0. -1.
          1    1    6    6  503    0 -0.20075236083E+03 -0.57413664452E+03  0.70974184984E+03  0.93470203294E+03  0.00000000000E+00 0. -1.
         -1    1    6    6    0  503 -0.16013118244E+02 -0.39188295641E+02  0.16613273537E+02  0.45476843874E+02  0.00000000000E+00 0.  1.
<mgrwt>
<rscale>  0 0.17795865E+04</rscale>
<asrwt>0</asrwt>
<pdfrwt beam="1">  1        1 0.98918316E-01 0.17795865E+04</pdfrwt>
<pdfrwt beam="2">  1       -2 0.18944135E+00 0.17795865E+04</pdfrwt>
<totfact> 0.40017276E+00</totfact>
</mgrwt>
</event>
<event>
12    5  0.5095719E-008  0.1278363E+04  0.7818608E-02  0.9046902E-01
         -2   -1    0    0    0  501 -0.00000000000E+00  0.00000000000E+00  0.51747166207E+03  0.51747166207E+03  0.00000000000E+00 0.  1.
          1   -1    0    0  501    0  0.00000000000E+00 -0.00000000000E+00 -0.78951731098E+03  0.78951731098E+03  0.00000000000E+00 0. -1.
        -24    2    1    2    0    0  0.17076869469E+03 -0.13104213105E+03 -0.41871638103E+03  0.47774367592E+03  0.81127214536E+02 0.  0.
        254    2    1    2    0    0 -0.17076869469E+03  0.13104213105E+03  0.14667073212E+03  0.82924529713E+03  0.78727471187E+03 0.  0.
         23    2    4    4    0    0 -0.31977425339E+03 -0.23654045979E+03  0.51246823064E+02  0.41153819805E+03  0.92360648164E+02 0.  0.
         23    2    4    4    0    0  0.14900555870E+03  0.36758259084E+03  0.95423909055E+02  0.41770709908E+03  0.89743415319E+02 0.  0.
          3    1    3    3  502    0  0.15094330242E+03 -0.13413026058E+03 -0.40742654641E+03  0.45472101124E+03  0.00000000000E+00 0. -1.
         -4    1    3    3    0  502  0.19825392277E+02  0.30881295323E+01 -0.11289834626E+02  0.23022664677E+02  0.00000000000E+00 0.  1.
         13    1    5    5    0    0 -0.24618296053E+03 -0.22461535714E+03  0.33728011873E+02  0.33495624715E+03  0.00000000000E+00 0. -1.
        -13    1    5    5    0    0 -0.73591292857E+02 -0.11925102649E+02  0.17518811192E+02  0.76581950896E+02  0.00000000000E+00 0.  1.
          4    1    6    6  503    0  0.60109155157E+02  0.14428458182E+03  0.83164058577E+02  0.17705200288E+03  0.00000000000E+00 0. -1.
         -4    1    6    6    0  503  0.88896403539E+02  0.22329800902E+03  0.12259850478E+02  0.24065509620E+03  0.00000000000E+00 0.  1.
<mgrwt>
<rscale>  0 0.12783628E+04</rscale>
<asrwt>0</asrwt>
<pdfrwt beam="1">  1        1 0.12146420E+00 0.12783628E+04</pdfrwt>
<pdfrwt beam="2">  1       -2 0.79611025E-01 0.12783628E+04</pdfrwt>
<totfact> 0.27214109E+01</totfact>
</mgrwt>
</event>
<event>
12    5  0.5095719E-008  0.2081936E+04  0.7818608E-02  0.8569243E-01
         -2   -1    0    0    0  501 -0.00000000000E+00  0.00000000000E+00  0.39681587578E+03  0.39681587578E+03  0.00000000000E+00 0.  1.
          1   -1    0    0  501    0  0.00000000000E+00 -0.00000000000E+00 -0.27307736043E+04  0.27307736043E+04  0.00000000000E+00 0. -1.
        -24    2    1    2    0    0 -0.35266555647E+03 -0.53734613157E+03 -0.17834197406E+04  0.18973174862E+04  0.78190872870E+02 0.  0.
        254    2    1    2    0    0  0.35266555647E+03  0.53734613157E+03 -0.55053798794E+03  0.12302719939E+04  0.89295198240E+03 0.  0.
         23    2    4    4    0    0 -0.21146369669E+03  0.45901408537E+03 -0.17867252313E+03  0.54383366299E+03  0.91762502606E+02 0.  0.
         23    2    4    4    0    0  0.56412925316E+03  0.78332046194E+02 -0.37186546481E+03  0.68643833087E+03  0.92390120912E+02 0.  0.
          3    1    3    3  502    0 -0.33181379501E+03 -0.46023296467E+03 -0.15465870420E+04  0.16473755658E+04  0.00000000000E+00 0. -1.
         -4    1    3    3    0  502 -0.20851761463E+02 -0.77113166895E+02 -0.23683269862E+03  0.24994192046E+03  0.00000000000E+00 0.  1.
         13    1    5    5    0    0 -0.11168393688E+03  0.20941987464E+03 -0.13017329892E+03  0.27069368925E+03  0.00000000000E+00 0. -1.
        -13    1    5    5    0    0 -0.99779759812E+02  0.24959421074E+03 -0.48499224213E+02  0.27313997373E+03  0.00000000000E+00 0.  1.
          3    1    6    6  503    0  0.55663420955E+03  0.83491837898E+02 -0.37552295423E+03  0.67663137630E+03  0.00000000000E+00 0. -1.
         -3    1    6    6    0  503  0.74950436084E+01 -0.51597917040E+01  0.36574894226E+01  0.98069545730E+01  0.00000000000E+00 0.  1.
<mgrwt>
<rscale>  0 0.20819359E+04</rscale>
<asrwt>0</asrwt>
<pdfrwt beam="1">  1        1 0.42011903E+00 0.20819359E+04</pdfrwt>
<pdfrwt beam="2">  1       -2 0.61048595E-01 0.20819359E+04</pdfrwt>
<totfact> 0.18872851E+00</totfact>
</mgrwt>
</event>
<event>
12    5  0.5095719E-008  0.1677249E+04  0.7818608E-02  0.8774447E-01
          1   -1    0    0  501    0  0.00000000000E+00  0.00000000000E+00  0.24869607466E+04  0.24869607466E+04  0.00000000000E+00 0. -1.
         -2   -1    0    0    0  501 -0.00000000000E+00 -0.00000000000E+00 -0.28279138445E+03  0.28279138445E+03  0.00000000000E+00 0.  1.
        -24    2    1    2    0    0 -0.72875121487E+02  0.48677971830E+03  0.12658585689E+04  0.13605649547E+04  0.80459941853E+02 0.  0.
        254    2    1    2    0    0  0.72875121487E+02 -0.48677971830E+03  0.93831079327E+03  0.14091871763E+04  0.92904040578E+03 0.  0.
         23    2    4    4    0    0  0.26468876423E+03 -0.62033394328E+03  0.93876210092E+03  0.11592510438E+04  0.87831414903E+02 0.  0.
         23    2    4    4    0    0 -0.19181364274E+03  0.13355422498E+03 -0.45130764722E+00  0.24993613245E+03  0.88536218992E+02 0.  0.
          3    1    3    3  502    0 -0.85193027639E+02  0.42317389516E+03  0.11404533301E+04  0.12194128897E+04  0.00000000000E+00 0. -1.
         -4    1    3    3    0  502  0.12317906152E+02  0.63605823146E+02  0.12540523876E+03  0.14115206502E+03  0.00000000000E+00 0.  1.
         13    1    5    5    0    0  0.16213772389E+03 -0.41564933698E+03  0.55138207669E+03  0.70927794787E+03  0.00000000000E+00 0. -1.
        -13    1    5    5    0    0  0.10255104033E+03 -0.20468460630E+03  0.38738002423E+03  0.44997309598E+03  0.00000000000E+00 0.  1.
          1    1    6    6  503    0 -0.68077788164E+02  0.83686526870E+02  0.32217467865E+02  0.11258767808E+03  0.00000000000E+00 0. -1.
         -1    1    6    6    0  503 -0.12373585458E+03  0.49867698106E+02 -0.32668775512E+02  0.13734845436E+03  0.00000000000E+00 0.  1.
<mgrwt>
<rscale>  0 0.16772490E+04</rscale>
<asrwt>0</asrwt>
<pdfrwt beam="1">  1        1 0.38260933E+00 0.16772490E+04</pdfrwt>
<pdfrwt beam="2">  1       -2 0.43506369E-01 0.16772490E+04</pdfrwt>
<totfact> 0.58112618E+00</totfact>
</mgrwt>
</event>
<event>
12    5  0.5095719E-008  0.1452313E+04  0.7818608E-02  0.8916798E-01
          1   -1    0    0  501    0  0.00000000000E+00  0.00000000000E+00  0.26542447788E+04  0.26542447788E+04  0.00000000000E+00 0. -1.
         -2   -1    0    0    0  501 -0.00000000000E+00 -0.00000000000E+00 -0.19866415851E+03  0.19866415851E+03  0.00000000000E+00 0.  1.
        -24    2    1    2    0    0  0.80937863816E+02  0.38971612408E+03  0.44954443516E+03  0.60823201189E+03  0.97089576852E+02 0.  0.
        254    2    1    2    0    0 -0.80937863816E+02 -0.38971612408E+03  0.20060361851E+04  0.22446769254E+04  0.92518307825E+03 0.  0.
         23    2    4    4    0    0 -0.47353926958E+03 -0.10201955807E+03  0.78324178716E+03  0.92540095308E+03  0.90839400855E+02 0.  0.
         23    2    4    4    0    0  0.39260140577E+03 -0.28769656602E+03  0.12227943979E+04  0.13192759723E+04  0.91420859570E+02 0.  0.
          1    1    3    3  502    0  0.49978576419E+02  0.36640062972E+03  0.41930327617E+03  0.55907290845E+03  0.00000000000E+00 0. -1.
         -2    1    3    3    0  502  0.30959287398E+02  0.23315494365E+02  0.30241158994E+02  0.49159103439E+02  0.00000000000E+00 0.  1.
         13    1    5    5    0    0 -0.12791777065E+03 -0.66297618031E+02  0.26112324255E+03  0.29823426698E+03  0.00000000000E+00 0. -1.
        -13    1    5    5    0    0 -0.34562149893E+03 -0.35721940037E+02  0.52211854461E+03  0.62716668610E+03  0.00000000000E+00 0.  1.
          3    1    6    6  503    0  0.35060922204E+03 -0.21636034430E+03  0.99600750553E+03  0.10778541535E+04  0.00000000000E+00 0. -1.
         -3    1    6    6    0  503  0.41992183730E+02 -0.71336221711E+02  0.22678689241E+03  0.24142181880E+03  0.00000000000E+00 0.  1.
<mgrwt>
<rscale>  0 0.14523131E+04</rscale>
<asrwt>0</asrwt>
<pdfrwt beam="1">  1        1 0.40834532E+00 0.14523131E+04</pdfrwt>
<pdfrwt beam="2">  1       -2 0.30563719E-01 0.14523131E+04</pdfrwt>
<totfact> 0.89622939E+00</totfact>
</mgrwt>
</event>
<event>
12    5  0.5095719E-008  0.1643212E+04  0.7818608E-02  0.8794433E-01
          1   -1    0    0  501    0  0.00000000000E+00  0.00000000000E+00  0.11846662964E+04  0.11846662964E+04  0.00000000000E+00 0. -1.
         -4   -1    0    0    0  501 -0.00000000000E+00 -0.00000000000E+00 -0.56981118028E+03  0.56981118028E+03  0.00000000000E+00 0.  1.
        -24    2    1    2    0    0  0.49035234169E+03 -0.24628209831E+03  0.38231385213E+03  0.67268547011E+03  0.72398682477E+02 0.  0.
        254    2    1    2    0    0 -0.49035234169E+03  0.24628209831E+03  0.23254126403E+03  0.10817920066E+04  0.90282789895E+03 0.  0.
         23    2    4    4    0    0  0.17841389555E+02 -0.27812327748E+03 -0.41740576946E+02  0.29620885196E+03  0.91249852379E+02 0.  0.
         23    2    4    4    0    0 -0.50819373125E+03  0.52440537579E+03  0.27428184098E+03  0.78558315464E+03  0.92997300595E+02 0.  0.
          1    1    3    3  502    0  0.30629115337E+03 -0.16328453834E+03  0.19970067787E+03  0.40044534188E+03  0.00000000000E+00 0. -1.
         -2    1    3    3    0  502  0.18406118832E+03 -0.82997559966E+02  0.18261317426E+03  0.27224012823E+03  0.00000000000E+00 0.  1.
         13    1    5    5    0    0  0.34922642724E+02 -0.98457592948E+02 -0.49424895632E+02  0.11556949810E+03  0.00000000000E+00 0. -1.
        -13    1    5    5    0    0 -0.17081253169E+02 -0.17966568454E+03  0.76843186865E+01  0.18063935386E+03  0.00000000000E+00 0.  1.
          4    1    6    6  503    0 -0.44696804284E+03  0.41266398640E+03  0.23642245664E+03  0.65266191477E+03  0.00000000000E+00 0. -1.
         -4    1    6    6    0  503 -0.61225688412E+02  0.11174138939E+03  0.37859384339E+02  0.13292123987E+03  0.00000000000E+00 0.  1.
<mgrwt>
<rscale>  0 0.16432116E+04</rscale>
<asrwt>0</asrwt>
<pdfrwt beam="1">  1        1 0.18225635E+00 0.16432116E+04</pdfrwt>
<pdfrwt beam="2">  1       -4 0.87663259E-01 0.16432116E+04</pdfrwt>
<totfact> 0.57549520E+00</totfact>
</mgrwt>
</event>
<event>
12    5  0.5095719E-008  0.1869182E+04  0.7818608E-02  0.8670350E-01
         -2   -1    0    0    0  501 -0.00000000000E+00  0.00000000000E+00  0.40088149815E+03  0.40088149815E+03  0.00000000000E+00 0.  1.
          1   -1    0    0  501    0  0.00000000000E+00 -0.00000000000E+00 -0.21788492019E+04  0.21788492019E+04  0.00000000000E+00 0. -1.
        -24    2    1    2    0    0 -0.10543068208E+03 -0.68483151509E+03 -0.45036873905E+03  0.83033874529E+03  0.80750219998E+02 0.  0.
        254    2    1    2    0    0  0.10543068208E+03  0.68483151509E+03 -0.13275989647E+04  0.17493919548E+04  0.90429163855E+03 0.  0.
         23    2    4    4    0    0 -0.36105624796E+03  0.38753386219E+03 -0.88381277841E+03  0.10341784597E+04  0.88633801613E+02 0.  0.
         23    2    4    4    0    0  0.46648693004E+03  0.29729765290E+03 -0.44378618630E+03  0.71521349503E+03  0.92672617364E+02 0.  0.
          3    1    3    3  502    0  0.41516080848E+01 -0.77126947878E+02 -0.75190389199E+02  0.10779330483E+03  0.00000000000E+00 0. -1.
         -2    1    3    3    0  502 -0.10958229016E+03 -0.60770456721E+03 -0.37517834985E+03  0.72254544046E+03  0.00000000000E+00 0.  1.
         13    1    5    5    0    0 -0.35027740742E+03  0.35114099070E+03 -0.78768410984E+03  0.93082786507E+03  0.00000000000E+00 0. -1.
        -13    1    5    5    0    0 -0.10778840538E+02  0.36392871489E+02 -0.96128668567E+02  0.10335059467E+03  0.00000000000E+00 0.  1.
          1    1    6    6  503    0  0.43615609531E+03  0.29344710736E+03 -0.39463143324E+03  0.65732587991E+03  0.00000000000E+00 0. -1.
         -1    1    6    6    0  503  0.30330834723E+02  0.38505455390E+01 -0.49154753064E+02  0.57887615124E+02  0.00000000000E+00 0.  1.
<mgrwt>
<rscale>  0 0.18691820E+04</rscale>
<asrwt>0</asrwt>
<pdfrwt beam="1">  1        1 0.33520756E+00 0.18691820E+04</pdfrwt>
<pdfrwt beam="2">  1       -2 0.61674077E-01 0.18691820E+04</pdfrwt>
<totfact> 0.45336349E+00</totfact>
</mgrwt>
</event>
<event>
12    5  0.5095719E-008  0.1617601E+04  0.7818608E-02  0.8809807E-01
         -2   -1    0    0    0  501 -0.00000000000E+00  0.00000000000E+00  0.51889097718E+03  0.51889097718E+03  0.00000000000E+00 0.  1.
          1   -1    0    0  501    0  0.00000000000E+00 -0.00000000000E+00 -0.12606857625E+04  0.12606857625E+04  0.00000000000E+00 0. -1.
        -24    2    1    2    0    0 -0.32126773809E+03 -0.26806861392E+03 -0.48300124126E+03  0.64391291838E+03  0.79119568326E+02 0.  0.
        254    2    1    2    0    0  0.32126773809E+03  0.26806861392E+03 -0.25879354409E+03  0.11356638213E+04  0.10235645927E+04 0.  0.
         23    2    4    4    0    0 -0.28059291890E+03 -0.28643577454E+02  0.16234964333E+03  0.33809962030E+03  0.91657546814E+02 0.  0.
         23    2    4    4    0    0  0.60186065699E+03  0.29671219137E+03 -0.42114318742E+03  0.79756420104E+03  0.92047246202E+02 0.  0.
          3    1    3    3  502    0 -0.28219090143E+03 -0.24663303650E+03 -0.46125856681E+03  0.59432232416E+03  0.00000000000E+00 0. -1.
         -4    1    3    3    0  502 -0.39076836660E+02 -0.21435577417E+02 -0.21742674453E+02  0.49590594218E+02  0.00000000000E+00 0.  1.
         13    1    5    5    0    0 -0.11554320295E+03 -0.35796645457E+02  0.11337752592E+03  0.16578930894E+03  0.00000000000E+00 0. -1.
        -13    1    5    5    0    0 -0.16504971595E+03  0.71530680032E+01  0.48972117412E+02  0.17231031136E+03  0.00000000000E+00 0.  1.
          1    1    6    6  503    0  0.45518226032E+03  0.17854904349E+03 -0.30559838232E+03  0.57659433081E+03  0.00000000000E+00 0.  1.
         -1    1    6    6    0  503  0.14667839667E+03  0.11816314788E+03 -0.11554480510E+03  0.22096987023E+03  0.00000000000E+00 0. -1.
<mgrwt>
<rscale>  0 0.16176013E+04</rscale>
<asrwt>0</asrwt>
<pdfrwt beam="1">  1        1 0.19395165E+00 0.16176013E+04</pdfrwt>
<pdfrwt beam="2">  1       -2 0.79829382E-01 0.16176013E+04</pdfrwt>
<totfact> 0.11269390E+01</totfact>
</mgrwt>
</event>
<event>
12    5  0.5095719E-008  0.2272001E+04  0.7818608E-02  0.8489043E-01
          1   -1    0    0  501    0  0.00000000000E+00  0.00000000000E+00  0.29179096926E+04  0.29179096926E+04  0.00000000000E+00 0. -1.
         -2   -1    0    0    0  501 -0.00000000000E+00 -0.00000000000E+00 -0.44226773723E+03  0.44226773723E+03  0.00000000000E+00 0.  1.
        -24    2    1    2    0    0 -0.35219828100E+03 -0.87593871008E+03  0.87220226447E+03  0.12878662824E+04  0.80935272292E+02 0.  0.
        254    2    1    2    0    0  0.35219828100E+03  0.87593871008E+03  0.16034396909E+04  0.20723111475E+04  0.91221839294E+03 0.  0.
         23    2    4    4    0    0  0.36068875616E+03  0.99682284697E+03  0.15978784488E+04  0.19195905227E+04  0.88657038887E+02 0.  0.
         23    2    4    4    0    0 -0.84904751637E+01 -0.12088413689E+03  0.55612421411E+01  0.15272062478E+03  0.92777147503E+02 0.  0.
          1    1    3    3  502    0 -0.28226443256E+03 -0.77265783015E+03  0.74773675198E+03  0.11116580331E+04  0.00000000000E+00 0. -1.
         -2    1    3    3    0  502 -0.69933848436E+02 -0.10328087993E+03  0.12446551248E+03  0.17620824928E+03  0.00000000000E+00 0.  1.
         13    1    5    5    0    0  0.33493171358E+02  0.18705707066E+03  0.26651860142E+03  0.32732904716E+03  0.00000000000E+00 0. -1.
        -13    1    5    5    0    0  0.32719558480E+03  0.80976577631E+03  0.13313598474E+04  0.15922614755E+04  0.00000000000E+00 0.  1.
          3    1    6    6  503    0  0.39841291193E+02 -0.48311007690E+02 -0.12041546862E+02  0.63767396048E+02  0.00000000000E+00 0. -1.
         -3    1    6    6    0  503 -0.48331766357E+02 -0.72573129198E+02  0.17602789003E+02  0.88953228730E+02  0.00000000000E+00 0.  1.
<mgrwt>
<rscale>  0 0.22720012E+04</rscale>
<asrwt>0</asrwt>
<pdfrwt beam="1">  1        1 0.44890917E+00 0.22720012E+04</pdfrwt>
<pdfrwt beam="2">  1       -2 0.68041192E-01 0.22720012E+04</pdfrwt>
<totfact> 0.10805020E+00</totfact>
</mgrwt>
</event>
<event>
12    5  0.5095719E-008  0.1413855E+04  0.7818608E-02  0.8943850E-01
          1   -1    0    0  501    0  0.00000000000E+00  0.00000000000E+00  0.97072869196E+03  0.97072869196E+03  0.00000000000E+00 0. -1.
         -2   -1    0    0    0  501 -0.00000000000E+00 -0.00000000000E+00 -0.51481597354E+03  0.51481597354E+03  0.00000000000E+00 0.  1.
        -24    2    1    2    0    0 -0.13864311440E+03 -0.27558876018E+03 -0.14684392319E+03  0.35227147587E+03  0.85796136430E+02 0.  0.
        254    2    1    2    0    0  0.13864311440E+03  0.27558876018E+03  0.60275664162E+03  0.11332731896E+04  0.90874720105E+03 0.  0.
         23    2    4    4    0    0 -0.28740350465E+03  0.34838546222E+03  0.11403508692E+03  0.47452635878E+03  0.90543135362E+02 0.  0.
         23    2    4    4    0    0  0.42604661905E+03 -0.72796702043E+02  0.48872155469E+03  0.65874683085E+03  0.91013997297E+02 0.  0.
          1    1    3    3  502    0  0.56827848779E+01 -0.34285886834E+02  0.65720601055E+00  0.34759861905E+02  0.00000000000E+00 0. -1.
         -2    1    3    3    0  502 -0.14432589928E+03 -0.24130287334E+03 -0.14750112920E+03  0.31751161396E+03  0.00000000000E+00 0.  1.
         13    1    5    5    0    0 -0.13599724575E+03  0.10872139660E+03  0.17203627494E+02  0.17496158929E+03  0.00000000000E+00 0.  1.
        -13    1    5    5    0    0 -0.15140625890E+03  0.23966406562E+03  0.96831459428E+02  0.29956476949E+03  0.00000000000E+00 0. -1.
          1    1    6    6  503    0  0.30162282543E+03 -0.91235639539E+02  0.33104296747E+03  0.45704454603E+03  0.00000000000E+00 0. -1.
         -1    1    6    6    0  503  0.12442379362E+03  0.18438937496E+02  0.15767858722E+03  0.20170228482E+03  0.00000000000E+00 0.  1.
<mgrwt>
<rscale>  0 0.14138552E+04</rscale>
<asrwt>0</asrwt>
<pdfrwt beam="1">  1        1 0.14934288E+00 0.14138552E+04</pdfrwt>
<pdfrwt beam="2">  1       -2 0.79202458E-01 0.14138552E+04</pdfrwt>
<totfact> 0.19262279E+01</totfact>
</mgrwt>
</event>
<event>
12    5  0.5095719E-008  0.1498906E+04  0.7818608E-02  0.8885181E-01
         -2   -1    0    0    0  501 -0.00000000000E+00  0.00000000000E+00  0.42536298924E+03  0.42536298924E+03  0.00000000000E+00 0.  1.
          1   -1    0    0  501    0  0.00000000000E+00 -0.00000000000E+00 -0.13204708419E+04  0.13204708419E+04  0.00000000000E+00 0. -1.
        -24    2    1    2    0    0  0.72194095095E+02 -0.14261872473E+03 -0.80161579170E+03  0.82111794770E+03  0.78068678246E+02 0.  0.
        254    2    1    2    0    0 -0.72194095095E+02  0.14261872473E+03 -0.93492060964E+02  0.92471588345E+03  0.90598378111E+03 0.  0.
         23    2    4    4    0    0 -0.43844171291E+03  0.25856461937E+03  0.83097872540E+01  0.51691731709E+03  0.89708762847E+02 0.  0.
         23    2    4    4    0    0  0.36624761782E+03 -0.11594589464E+03 -0.10180184822E+03  0.40779856636E+03  0.91407255664E+02 0.  0.
          1    1    3    3  502    0  0.62706384169E+02 -0.51351240633E+02 -0.47466664184E+03  0.48153656289E+03  0.00000000000E+00 0. -1.
         -2    1    3    3    0  502  0.94877109256E+01 -0.91267484092E+02 -0.32694914987E+03  0.33958138481E+03  0.00000000000E+00 0.  1.
         13    1    5    5    0    0 -0.17831716083E+03  0.80730619433E+02 -0.35022014780E+02  0.19884914956E+03  0.00000000000E+00 0.  1.
        -13    1    5    5    0    0 -0.26012455208E+03  0.17783399993E+03  0.43331802034E+02  0.31806816752E+03  0.00000000000E+00 0. -1.
          2    1    6    6  503    0  0.29997200648E+03 -0.65552617449E+02 -0.53906840432E+02  0.31174716963E+03  0.00000000000E+00 0.  1.
         -2    1    6    6    0  503  0.66275611337E+02 -0.50393277191E+02 -0.47895007786E+02  0.96051396736E+02  0.00000000000E+00 0. -1.
<mgrwt>
<rscale>  0 0.14989055E+04</rscale>
<asrwt>0</asrwt>
<pdfrwt beam="1">  1        1 0.20314936E+00 0.14989055E+04</pdfrwt>
<pdfrwt beam="2">  1       -2 0.65440460E-01 0.14989055E+04</pdfrwt>
<totfact> 0.15970360E+01</totfact>
</mgrwt>
</event>
<event>
12    5  0.5095719E-008  0.1978849E+04  0.7818608E-02  0.8616574E-01
          3   -1    0    0  501    0  0.00000000000E+00  0.00000000000E+00  0.22833158279E+04  0.22833158279E+04  0.00000000000E+00 0. -1.
         -2   -1    0    0    0  501 -0.00000000000E+00 -0.00000000000E+00 -0.42874523745E+03  0.42874523745E+03  0.00000000000E+00 0.  1.
        -24    2    1    2    0    0  0.14890539953E+03 -0.16185461101E+03 -0.29391801356E+03  0.37603206387E+03  0.81502032192E+02 0.  0.
        254    2    1    2    0    0 -0.14890539953E+03  0.16185461101E+03  0.21484886041E+04  0.23360290015E+04  0.89031369816E+03 0.  0.
         23    2    4    4    0    0 -0.26767963179E+03  0.40869359420E+03  0.69746697717E+03  0.85652553043E+03  0.92157261294E+02 0.  0.
         23    2    4    4    0    0  0.11877423226E+03 -0.24683898319E+03  0.14510216269E+04  0.14795034711E+04  0.91814799777E+02 0.  0.
          1    1    3    3  502    0  0.15529671782E+02  0.81433719289E+01 -0.31995717410E+02  0.36485766329E+02  0.00000000000E+00 0. -1.
         -2    1    3    3    0  502  0.13337572775E+03 -0.16999798294E+03 -0.26192229615E+03  0.33954629754E+03  0.00000000000E+00 0.  1.
         13    1    5    5    0    0 -0.15269648697E+03  0.22265269639E+03  0.30574879285E+03  0.40788817667E+03  0.00000000000E+00 0. -1.
        -13    1    5    5    0    0 -0.11498314483E+03  0.18604089781E+03  0.39171818433E+03  0.44863735376E+03  0.00000000000E+00 0.  1.
          1    1    6    6  503    0  0.12961568593E+03 -0.24337593997E+03  0.14183999109E+04  0.14449534184E+04  0.00000000000E+00 0. -1.
         -1    1    6    6    0  503 -0.10841453670E+02 -0.34630432186E+01  0.32621715966E+02  0.34550052657E+02  0.00000000000E+00 0.  1.
<mgrwt>
<rscale>  0 0.19788489E+04</rscale>
<asrwt>0</asrwt>
<pdfrwt beam="1">  1        3 0.35127935E+00 0.19788489E+04</pdfrwt>
<pdfrwt beam="2">  1       -2 0.65960807E-01 0.19788489E+04</pdfrwt>
<totfact> 0.16320893E-01</totfact>
</mgrwt>
</event>
<event>
12    5  0.5095719E-008  0.2007785E+04  0.7818608E-02  0.8602990E-01
         -2   -1    0    0    0  501 -0.00000000000E+00  0.00000000000E+00  0.14739458008E+04  0.14739458008E+04  0.00000000000E+00 0.  1.
          1   -1    0    0  501    0  0.00000000000E+00 -0.00000000000E+00 -0.68374286567E+03  0.68374286567E+03  0.00000000000E+00 0. -1.
        -24    2    1    2    0    0  0.48138562838E+03 -0.19634431562E+03  0.96786820436E+03  0.11019523072E+04  0.85128214061E+02 0.  0.
        254    2    1    2    0    0 -0.48138562838E+03  0.19634431562E+03 -0.17766526927E+03  0.10557363592E+04  0.90151600032E+03 0.  0.
         23    2    4    4    0    0 -0.84299010579E+02 -0.31921053902E+03  0.74975821302E+02  0.35048826513E+03  0.90658473468E+02 0.  0.
         23    2    4    4    0    0 -0.39708661780E+03  0.51555485463E+03 -0.25264109057E+03  0.70524809411E+03  0.10036315771E+03 0.  0.
          3    1    3    3  502    0  0.92927675436E+01 -0.20882214941E+02  0.50252397570E+02  0.55206212432E+02  0.00000000000E+00 0. -1.
         -4    1    3    3    0  502  0.47209286084E+03 -0.17546210067E+03  0.91761580678E+03  0.10467460948E+04  0.00000000000E+00 0.  1.
         13    1    5    5    0    0 -0.91550331654E+02 -0.17408223070E+03  0.34969364545E+02  0.19977222712E+03  0.00000000000E+00 0. -1.
        -13    1    5    5    0    0  0.72513210757E+01 -0.14512830831E+03  0.40006456757E+02  0.15071603801E+03  0.00000000000E+00 0.  1.
          3    1    6    6  503    0 -0.37908226663E+03  0.47030969141E+03 -0.20711456398E+03  0.63858516528E+03  0.00000000000E+00 0. -1.
         -3    1    6    6    0  503 -0.18004351173E+02  0.45245163221E+02 -0.45526526589E+02  0.66662928824E+02  0.00000000000E+00 0.  1.
<mgrwt>
<rscale>  0 0.20077848E+04</rscale>
<asrwt>0</asrwt>
<pdfrwt beam="1">  1        1 0.10519121E+00 0.20077848E+04</pdfrwt>
<pdfrwt beam="2">  1       -2 0.22676089E+00 0.20077848E+04</pdfrwt>
<totfact> 0.20529506E+00</totfact>
</mgrwt>
</event>
<event>
12    5  0.5095719E-008  0.1289773E+04  0.7818608E-02  0.9037715E-01
         -2   -1    0    0    0  501 -0.00000000000E+00  0.00000000000E+00  0.37947715757E+03  0.37947715757E+03  0.00000000000E+00 0.  1.
          1   -1    0    0  501    0  0.00000000000E+00 -0.00000000000E+00 -0.10959258542E+04  0.10959258542E+04  0.00000000000E+00 0. -1.
        -24    2    1    2    0    0 -0.13704140722E+02  0.14087889168E+01  0.11767137808E+03  0.14316188103E+03  0.80367797033E+02 0.  0.
        254    2    1    2    0    0  0.13704140722E+02 -0.14087889168E+01 -0.83412007469E+03  0.13322411307E+04  0.10387109045E+04 0.  0.
         23    2    4    4    0    0  0.12015506412E+03 -0.24879799335E+03  0.13637266809E+03  0.32095935737E+03  0.89887282499E+02 0.  0.
         23    2    4    4    0    0 -0.10645092340E+03  0.24738920443E+03 -0.97049274278E+03  0.10112817733E+04  0.91112259019E+02 0.  0.
          3    1    3    3  502    0  0.22576631178E+02  0.26084435803E+02  0.32711634694E+02  0.47541067624E+02  0.00000000000E+00 0. -1.
         -4    1    3    3    0  502 -0.36280771901E+02 -0.24675646886E+02  0.84959743387E+02  0.95620813401E+02  0.00000000000E+00 0.  1.
         13    1    5    5    0    0  0.42384560247E+02 -0.17795681334E+03  0.66388437022E+02  0.19460858905E+03  0.00000000000E+00 0.  1.
        -13    1    5    5    0    0  0.77770503872E+02 -0.70841180008E+02  0.69984231070E+02  0.12635076832E+03  0.00000000000E+00 0. -1.
          4    1    6    6  503    0  0.14304016864E+02  0.47243416144E+02 -0.13653508225E+03  0.14518393145E+03  0.00000000000E+00 0. -1.
         -4    1    6    6    0  503 -0.12075494026E+03  0.20014578829E+03 -0.83395766053E+03  0.86609784189E+03  0.00000000000E+00 0.  1.
<mgrwt>
<rscale>  0 0.12897734E+04</rscale>
<asrwt>0</asrwt>
<pdfrwt beam="1">  1        1 0.16860398E+00 0.12897734E+04</pdfrwt>
<pdfrwt beam="2">  1       -2 0.58381101E-01 0.12897734E+04</pdfrwt>
<totfact> 0.30208211E+01</totfact>
</mgrwt>
</event>
<event>
12    5  0.5095719E-008  0.1538130E+04  0.7818608E-02  0.8859485E-01
          1   -1    0    0  501    0  0.00000000000E+00  0.00000000000E+00  0.13389085045E+04  0.13389085045E+04  0.00000000000E+00 0. -1.
         -2   -1    0    0    0  501 -0.00000000000E+00 -0.00000000000E+00 -0.44174872810E+03  0.44174872810E+03  0.00000000000E+00 0.  1.
        -24    2    1    2    0    0 -0.33425781857E+03 -0.18966373513E+03  0.66228621489E+03  0.76998758606E+03  0.80976728502E+02 0.  0.
        254    2    1    2    0    0  0.33425781857E+03  0.18966373513E+03  0.23487356148E+03  0.10106696465E+04  0.90475793601E+03 0.  0.
         23    2    4    4    0    0  0.10069445176E+03 -0.35663753099E+03  0.75212408424E+02  0.38840276604E+03  0.88713590600E+02 0.  0.
         23    2    4    4    0    0  0.23356336681E+03  0.54630126613E+03  0.15966115306E+03  0.62226688046E+03  0.93420913288E+02 0.  0.
          1    1    3    3  502    0 -0.15204858599E+03 -0.12887880409E+03  0.36918258056E+03  0.41955249544E+03  0.00000000000E+00 0. -1.
         -2    1    3    3    0  502 -0.18220923258E+03 -0.60784931040E+02  0.29310363433E+03  0.35043509062E+03  0.00000000000E+00 0.  1.
         13    1    5    5    0    0  0.35979653261E+02 -0.18216203822E+03  0.80162626304E+02  0.20224636035E+03  0.00000000000E+00 0. -1.
        -13    1    5    5    0    0  0.64714798501E+02 -0.17447549277E+03 -0.49502178800E+01  0.18615640569E+03  0.00000000000E+00 0.  1.
          4    1    6    6  503    0  0.96580093988E+02  0.25839154313E+03  0.27831487378E+02  0.27725168315E+03  0.00000000000E+00 0. -1.
         -4    1    6    6    0  503  0.13698327282E+03  0.28790972299E+03  0.13182966568E+03  0.34501519732E+03  0.00000000000E+00 0.  1.
<mgrwt>
<rscale>  0 0.15381302E+04</rscale>
<asrwt>0</asrwt>
<pdfrwt beam="1">  1        1 0.20598592E+00 0.15381302E+04</pdfrwt>
<pdfrwt beam="2">  1       -2 0.67961344E-01 0.15381302E+04</pdfrwt>
<totfact> 0.14233326E+01</totfact>
</mgrwt>
</event>
<event>
12    5  0.5095719E-008  0.1618928E+04  0.7818608E-02  0.8809004E-01
         -2   -1    0    0    0  501 -0.00000000000E+00  0.00000000000E+00  0.33201873145E+03  0.33201873145E+03  0.00000000000E+00 0.  1.
          1   -1    0    0  501    0  0.00000000000E+00 -0.00000000000E+00 -0.19734784822E+04  0.19734784822E+04  0.00000000000E+00 0. -1.
        -24    2    1    2    0    0  0.35060566234E+03  0.40380026024E+03 -0.79029955991E+03  0.95748215137E+03  0.78865044056E+02 0.  0.
        254    2    1    2    0    0 -0.35060566234E+03 -0.40380026024E+03 -0.85116019081E+03  0.13480150622E+04  0.89816031808E+03 0.  0.
         23    2    4    4    0    0 -0.41524429076E+03  0.55033564833E+01 -0.81830775768E+03  0.92240856203E+03  0.93551382112E+02 0.  0.
         23    2    4    4    0    0  0.64638628418E+02 -0.40930361673E+03 -0.32852433132E+02  0.42560650021E+03  0.91400260975E+02 0.  0.
          3    1    3    3  502    0  0.22358171671E+02  0.85918201013E+01 -0.18208172169E+02  0.30087285468E+02  0.00000000000E+00 0. -1.
         -4    1    3    3    0  502  0.32824749067E+03  0.39520844014E+03 -0.77209138774E+03  0.92739486590E+03  0.00000000000E+00 0.  1.
         13    1    5    5    0    0 -0.29320451887E+03  0.26665666646E+02 -0.64874105077E+03  0.71242185439E+03  0.00000000000E+00 0.  1.
        -13    1    5    5    0    0 -0.12203977188E+03 -0.21162310163E+02 -0.16956670691E+03  0.20998670764E+03  0.00000000000E+00 0. -1.
          2    1    6    6  503    0 -0.75527105891E+01 -0.10785080363E+03  0.23269001661E+02  0.11059062220E+03  0.00000000000E+00 0. -1.
         -2    1    6    6    0  503  0.72191339007E+02 -0.30145281310E+03 -0.56121434793E+02  0.31501587801E+03  0.00000000000E+00 0.  1.
<mgrwt>
<rscale>  0 0.16189278E+04</rscale>
<asrwt>0</asrwt>
<pdfrwt beam="1">  1        1 0.30361207E+00 0.16189278E+04</pdfrwt>
<pdfrwt beam="2">  1       -2 0.51079805E-01 0.16189278E+04</pdfrwt>
<totfact> 0.94666459E+00</totfact>
</mgrwt>
</event>
<event>
12    5  0.5095719E-008  0.2367498E+04  0.7818608E-02  0.8451773E-01
         -2   -1    0    0    0  501 -0.00000000000E+00  0.00000000000E+00  0.11356582764E+04  0.11356582764E+04  0.00000000000E+00 0.  1.
          1   -1    0    0  501    0  0.00000000000E+00 -0.00000000000E+00 -0.12338758804E+04  0.12338758804E+04  0.00000000000E+00 0. -1.
        -24    2    1    2    0    0  0.58010368014E+03 -0.78661973070E+01  0.78068320983E+03  0.97583934888E+03  0.78828953735E+02 0.  0.
        254    2    1    2    0    0 -0.58010368014E+03  0.78661973070E+01 -0.87890081383E+03  0.13936948080E+04  0.91287262010E+03 0.  0.
         23    2    4    4    0    0 -0.35932967462E+03 -0.43904824716E+03 -0.45285320436E+03  0.73149122450E+03  0.90123295600E+02 0.  0.
         23    2    4    4    0    0 -0.22077400552E+03  0.44691444447E+03 -0.42604760947E+03  0.66220358351E+03  0.92321927469E+02 0.  0.
          1    1    3    3  502    0  0.93024016179E+02 -0.69940518878E+01  0.17774828078E+03  0.20074071751E+03  0.00000000000E+00 0. -1.
         -2    1    3    3    0  502  0.48707966397E+03 -0.87214541922E+00  0.60293492905E+03  0.77509863137E+03  0.00000000000E+00 0.  1.
         13    1    5    5    0    0 -0.29197780473E+03 -0.36497954185E+03 -0.32583443541E+03  0.56976239234E+03  0.00000000000E+00 0.  1.
        -13    1    5    5    0    0 -0.67351869897E+02 -0.74068705313E+02 -0.12701876895E+03  0.16172883216E+03  0.00000000000E+00 0. -1.
          4    1    6    6  503    0  0.35091920247E+01  0.39928737610E+02 -0.18636032599E+02  0.44203169872E+02  0.00000000000E+00 0. -1.
         -4    1    6    6    0  503 -0.22428319755E+03  0.40698570686E+03 -0.40741157687E+03  0.61800041364E+03  0.00000000000E+00 0.  1.
<mgrwt>
<rscale>  0 0.23674977E+04</rscale>
<asrwt>0</asrwt>
<pdfrwt beam="1">  1        1 0.18982706E+00 0.23674977E+04</pdfrwt>
<pdfrwt beam="2">  1       -2 0.17471666E+00 0.23674977E+04</pdfrwt>
<totfact> 0.15711279E+00</totfact>
</mgrwt>
</event>
<event>
12    5  0.5095719E-008  0.2561665E+04  0.7818608E-02  0.8381341E-01
         -2   -1    0    0    0  501 -0.00000000000E+00  0.00000000000E+00  0.10439855517E+04  0.10439855517E+04  0.00000000000E+00 0.  1.
          1   -1    0    0  501    0  0.00000000000E+00 -0.00000000000E+00 -0.15714121653E+04  0.15714121653E+04  0.00000000000E+00 0. -1.
        -24    2    1    2    0    0 -0.36279087437E+03  0.10370103293E+04 -0.50712573908E+03  0.12129308424E+04  0.83767961816E+02 0.  0.
        254    2    1    2    0    0  0.36279087437E+03 -0.10370103293E+04 -0.20300874476E+02  0.14024668746E+04  0.87148928113E+03 0.  0.
         23    2    4    4    0    0  0.23715063034E+03 -0.11693852740E+04  0.69490559760E+01  0.11967513254E+04  0.91995135474E+02 0.  0.
         23    2    4    4    0    0  0.12564024403E+03  0.13237494466E+03 -0.27249930452E+02  0.20571554919E+03  0.90927067347E+02 0.  0.
          3    1    3    3  502    0 -0.23425187399E+03  0.76074240515E+03 -0.39107701798E+03  0.88687326121E+03  0.00000000000E+00 0. -1.
         -4    1    3    3    0  502 -0.12853900039E+03  0.27626792418E+03 -0.11604872111E+03  0.32605758114E+03  0.00000000000E+00 0.  1.
         13    1    5    5    0    0  0.21392619513E+03 -0.10028741819E+04  0.36330274909E+02  0.10260803724E+04  0.00000000000E+00 0.  1.
        -13    1    5    5    0    0  0.23224435216E+02 -0.16651109207E+03 -0.29381218933E+02  0.17067095300E+03  0.00000000000E+00 0. -1.
          3    1    6    6  503    0  0.59958230213E+02  0.33367214256E+02 -0.49795571673E+02  0.84781833642E+02  0.00000000000E+00 0. -1.
         -3    1    6    6    0  503  0.65682013817E+02  0.99007730402E+02  0.22545641221E+02  0.12093371555E+03  0.00000000000E+00 0.  1.
<mgrwt>
<rscale>  0 0.25616648E+04</rscale>
<asrwt>0</asrwt>
<pdfrwt beam="1">  1        1 0.24175572E+00 0.25616648E+04</pdfrwt>
<pdfrwt beam="2">  1       -2 0.16061316E+00 0.25616648E+04</pdfrwt>
<totfact> 0.11295954E+00</totfact>
</mgrwt>
</event>
<event>
12    5  0.5095719E-008  0.1607686E+04  0.7818608E-02  0.8815840E-01
         -2   -1    0    0    0  501 -0.00000000000E+00  0.00000000000E+00  0.55946125188E+03  0.55946125188E+03  0.00000000000E+00 0.  1.
          1   -1    0    0  501    0  0.00000000000E+00 -0.00000000000E+00 -0.11549746845E+04  0.11549746845E+04  0.00000000000E+00 0. -1.
        -24    2    1    2    0    0  0.14439637716E+03 -0.20750393578E+03 -0.72352610832E+03  0.77060663799E+03  0.80226953049E+02 0.  0.
        254    2    1    2    0    0 -0.14439637716E+03  0.20750393578E+03  0.12801267573E+03  0.94382929835E+03  0.90028789961E+03 0.  0.
         23    2    4    4    0    0 -0.54456307712E+02 -0.31449906705E+03  0.22090278229E+03  0.39841825454E+03  0.89799296765E+02 0.  0.
         23    2    4    4    0    0 -0.89940069447E+02  0.52200300284E+03 -0.92890106559E+02  0.54541104382E+03  0.90930103692E+02 0.  0.
          1    1    3    3  502    0  0.14699294155E+03 -0.20471352951E+03 -0.65250950143E+03  0.69948781511E+03  0.00000000000E+00 0. -1.
         -2    1    3    3    0  502 -0.25965643941E+01 -0.27904062680E+01 -0.71016606895E+02  0.71118822886E+02  0.00000000000E+00 0.  1.
         13    1    5    5    0    0 -0.32897727977E+01 -0.24624695903E+03  0.16417941875E+03  0.29597849412E+03  0.00000000000E+00 0. -1.
        -13    1    5    5    0    0 -0.51166534914E+02 -0.68252108022E+02  0.56723363536E+02  0.10243976042E+03  0.00000000000E+00 0.  1.
          3    1    6    6  503    0 -0.31013674688E+02  0.39351602976E+03 -0.85331454397E+02  0.40385414546E+03  0.00000000000E+00 0. -1.
         -3    1    6    6    0  503 -0.58926394759E+02  0.12848697307E+03 -0.75586521624E+01  0.14155689835E+03  0.00000000000E+00 0.  1.
<mgrwt>
<rscale>  0 0.16076860E+04</rscale>
<asrwt>0</asrwt>
<pdfrwt beam="1">  1        1 0.17768841E+00 0.16076860E+04</pdfrwt>
<pdfrwt beam="2">  1       -2 0.86070963E-01 0.16076860E+04</pdfrwt>
<totfact> 0.11358145E+01</totfact>
</mgrwt>
</event>
<event>
12    5  0.5095719E-008  0.2011864E+04  0.7818608E-02  0.8601094E-01
          1   -1    0    0  501    0  0.00000000000E+00  0.00000000000E+00  0.21687526538E+04  0.21687526538E+04  0.00000000000E+00 0. -1.
         -2   -1    0    0    0  501 -0.00000000000E+00 -0.00000000000E+00 -0.46658115666E+03  0.46658115666E+03  0.00000000000E+00 0.  1.
        -24    2    1    2    0    0 -0.61528234297E+03  0.52696122324E+03  0.77898521513E+03  0.11267479251E+04  0.80513532298E+02 0.  0.
        254    2    1    2    0    0  0.61528234297E+03 -0.52696122324E+03  0.92318628197E+03  0.15085858854E+04  0.87595546116E+03 0.  0.
         23    2    4    4    0    0  0.48476583054E+02 -0.38856650319E+03  0.81428727926E+03  0.90808240584E+03  0.90642021798E+02 0.  0.
         23    2    4    4    0    0  0.56680575991E+03 -0.13839472005E+03  0.10889900270E+03  0.60050347952E+03  0.91233590964E+02 0.  0.
          1    1    3    3  502    0 -0.52072798445E+03  0.41189667367E+03  0.65939531410E+03  0.93574498868E+03  0.00000000000E+00 0. -1.
         -2    1    3    3    0  502 -0.94554358514E+02  0.11506454957E+03  0.11958990103E+03  0.19100293639E+03  0.00000000000E+00 0.  1.
         13    1    5    5    0    0  0.21143211084E+02 -0.16296762224E+02  0.80505368826E+02  0.84815884384E+02  0.00000000000E+00 0. -1.
        -13    1    5    5    0    0  0.27333371970E+02 -0.37226974097E+03  0.73378191044E+03  0.82326652145E+03  0.00000000000E+00 0.  1.
          2    1    6    6  503    0  0.35898358830E+02  0.78944253453E+01  0.22439166263E+02  0.43064257810E+02  0.00000000000E+00 0. -1.
         -2    1    6    6    0  503  0.53090740108E+03 -0.14628914539E+03  0.86459836441E+02  0.55743922171E+03  0.00000000000E+00 0.  1.
<mgrwt>
<rscale>  0 0.20118639E+04</rscale>
<asrwt>0</asrwt>
<pdfrwt beam="1">  1        1 0.33365425E+00 0.20118639E+04</pdfrwt>
<pdfrwt beam="2">  1       -2 0.71781718E-01 0.20118639E+04</pdfrwt>
<totfact> 0.32766694E+00</totfact>
</mgrwt>
</event>
<event>
12    5  0.5095719E-008  0.3221394E+04  0.7818608E-02  0.8183190E-01
          1   -1    0    0  501    0  0.00000000000E+00  0.00000000000E+00  0.36499024958E+04  0.36499024958E+04  0.00000000000E+00 0. -1.
         -2   -1    0    0    0  501 -0.00000000000E+00 -0.00000000000E+00 -0.71079861150E+03  0.71079861150E+03  0.00000000000E+00 0.  1.
        -24    2    1    2    0    0 -0.11380657758E+04  0.73186665876E+03  0.21791682589E+04  0.25663095699E+04  0.79674282137E+02 0.  0.
        254    2    1    2    0    0  0.11380657758E+04 -0.73186665876E+03  0.75993562540E+03  0.17943915375E+04  0.90084200539E+03 0.  0.
         23    2    4    4    0    0  0.74416742835E+03 -0.39299929218E+03  0.91295856401E+03  0.12451392428E+04  0.92977359035E+02 0.  0.
         23    2    4    4    0    0  0.39389834749E+03 -0.33886736658E+03 -0.15302293861E+03  0.54925229468E+03  0.90967374237E+02 0.  0.
          3    1    3    3  502    0 -0.63903620719E+03  0.44324749478E+03  0.13052210661E+04  0.15193543521E+04  0.00000000000E+00 0. -1.
         -4    1    3    3    0  502 -0.49902956866E+03  0.28861916398E+03  0.87394719280E+03  0.10469552178E+04  0.00000000000E+00 0.  1.
         13    1    5    5    0    0  0.14721821535E+03 -0.38575433825E+02  0.17622256735E+03  0.23284256541E+03  0.00000000000E+00 0. -1.
        -13    1    5    5    0    0  0.59694921300E+03 -0.35442385835E+03  0.73673599666E+03  0.10122966774E+04  0.00000000000E+00 0.  1.
          1    1    6    6  503    0  0.10796606893E+01  0.24419478258E+01 -0.88829423152E+01  0.92755291258E+01  0.00000000000E+00 0. -1.
         -1    1    6    6    0  503  0.39281868680E+03 -0.34130931441E+03 -0.14413999630E+03  0.53997676555E+03  0.00000000000E+00 0.  1.
<mgrwt>
<rscale>  0 0.32213945E+04</rscale>
<asrwt>0</asrwt>
<pdfrwt beam="1">  1        1 0.56152345E+00 0.32213945E+04</pdfrwt>
<pdfrwt beam="2">  1       -2 0.10935363E+00 0.32213945E+04</pdfrwt>
<totfact> 0.92784405E-02</totfact>
</mgrwt>
</event>
<event>
12    5  0.5095719E-008  0.1557982E+04  0.7818608E-02  0.8846786E-01
          1   -1    0    0  501    0  0.00000000000E+00  0.00000000000E+00  0.92012028448E+03  0.92012028448E+03  0.00000000000E+00 0. -1.
         -2   -1    0    0    0  501 -0.00000000000E+00 -0.00000000000E+00 -0.65950798209E+03  0.65950798209E+03  0.00000000000E+00 0.  1.
        -24    2    1    2    0    0  0.22059448024E+01 -0.89193290434E+02  0.59970320290E+03  0.61158545252E+03  0.80203023105E+02 0.  0.
        254    2    1    2    0    0 -0.22059448024E+01  0.89193290434E+02 -0.33909090050E+03  0.96804281405E+03  0.90231033563E+03 0.  0.
         23    2    4    4    0    0 -0.80189438539E+02 -0.35805427351E+03  0.25847833652E+02  0.37877566947E+03  0.90386328901E+02 0.  0.
         23    2    4    4    0    0  0.77983493737E+02  0.44724756394E+03 -0.36493873415E+03  0.58926714458E+03  0.89127320438E+02 0.  0.
          3    1    3    3  502    0 -0.13024397950E+02 -0.96064245321E+02  0.41702051021E+03  0.42814025752E+03  0.00000000000E+00 0. -1.
         -4    1    3    3    0  502  0.15230342752E+02  0.68709548863E+01  0.18268269269E+03  0.18344519500E+03  0.00000000000E+00 0.  1.
         13    1    5    5    0    0 -0.33984334830E+01 -0.12531460758E+03  0.44406014209E+02  0.13299321156E+03  0.00000000000E+00 0. -1.
        -13    1    5    5    0    0 -0.76791005056E+02 -0.23273966592E+03 -0.18558180557E+02  0.24578245791E+03  0.00000000000E+00 0.  1.
          3    1    6    6  503    0 -0.88639359250E+01  0.19825109178E+03 -0.14314177000E+03  0.24468680200E+03  0.00000000000E+00 0. -1.
         -3    1    6    6    0  503  0.86847429662E+02  0.24899647216E+03 -0.22179696415E+03  0.34458034258E+03  0.00000000000E+00 0.  1.
<mgrwt>
<rscale>  0 0.15579816E+04</rscale>
<asrwt>0</asrwt>
<pdfrwt beam="1">  1        1 0.14155697E+00 0.15579816E+04</pdfrwt>
<pdfrwt beam="2">  1       -2 0.10146277E+00 0.15579816E+04</pdfrwt>
<totfact> 0.11797442E+01</totfact>
</mgrwt>
</event>
<event>
12    5  0.5095719E-008  0.2264340E+04  0.7818608E-02  0.8492116E-01
         -2   -1    0    0    0  501 -0.00000000000E+00  0.00000000000E+00  0.67825648178E+03  0.67825648178E+03  0.00000000000E+00 0.  1.
          1   -1    0    0  501    0  0.00000000000E+00 -0.00000000000E+00 -0.18898583033E+04  0.18898583033E+04  0.00000000000E+00 0. -1.
        -24    2    1    2    0    0  0.51113112096E+03 -0.79172222788E+03 -0.69025218655E+03  0.11709696717E+04  0.81503264383E+02 0.  0.
        254    2    1    2    0    0 -0.51113112096E+03  0.79172222788E+03 -0.52134963501E+03  0.13971451134E+04  0.89001680715E+03 0.  0.
         23    2    4    4    0    0 -0.54740244300E+03  0.30605349391E+03  0.56668016023E+02  0.63622088642E+03  0.90816168910E+02 0.  0.
         23    2    4    4    0    0  0.36271322037E+02  0.48566873397E+03 -0.57801765103E+03  0.76092422698E+03  0.87815410577E+02 0.  0.
          1    1    3    3  502    0  0.38354961423E+03 -0.52957834065E+03 -0.46017501259E+03  0.79957774336E+03  0.00000000000E+00 0. -1.
         -2    1    3    3    0  502  0.12758150674E+03 -0.26214388723E+03 -0.23007717396E+03  0.37139192836E+03  0.00000000000E+00 0.  1.
         13    1    5    5    0    0 -0.26031412186E+03  0.19038929628E+03  0.51999217000E+02  0.32667329971E+03  0.00000000000E+00 0. -1.
        -13    1    5    5    0    0 -0.28708832115E+03  0.11566419763E+03  0.46687990229E+01  0.30954758671E+03  0.00000000000E+00 0.  1.
          2    1    6    6  503    0  0.42354957197E+02  0.30005195958E+03 -0.41467518051E+03  0.51359578092E+03  0.00000000000E+00 0. -1.
         -2    1    6    6    0  503 -0.60836351604E+01  0.18561677440E+03 -0.16334247052E+03  0.24732844606E+03  0.00000000000E+00 0.  1.
<mgrwt>
<rscale>  0 0.22643398E+04</rscale>
<asrwt>0</asrwt>
<pdfrwt beam="1">  1        1 0.29074743E+00 0.22643398E+04</pdfrwt>
<pdfrwt beam="2">  1       -2 0.10434715E+00 0.22643398E+04</pdfrwt>
<totfact> 0.21035100E+00</totfact>
</mgrwt>
</event>
<event>
12    5  0.5095719E-008  0.1245941E+04  0.7818608E-02  0.9073568E-01
         -2   -1    0    0    0  501 -0.00000000000E+00  0.00000000000E+00  0.20229248717E+03  0.20229248717E+03  0.00000000000E+00 0.  1.
          1   -1    0    0  501    0  0.00000000000E+00 -0.00000000000E+00 -0.19184714215E+04  0.19184714215E+04  0.00000000000E+00 0. -1.
        -24    2    1    2    0    0  0.14904743770E+02  0.23314046865E+03 -0.73333066290E+03  0.77374165255E+03  0.79533981575E+02 0.  0.
        254    2    1    2    0    0 -0.14904743770E+02 -0.23314046865E+03 -0.98284827138E+03  0.13470222561E+04  0.89101156240E+03 0.  0.
         23    2    4    4    0    0 -0.27812245285E+03 -0.24699013438E+03 -0.99677289162E+03  0.10673396918E+04  0.85449371365E+02 0.  0.
         23    2    4    4    0    0  0.26321770908E+03  0.13849665728E+02  0.13924620233E+02  0.27968256424E+03  0.92482788024E+02 0.  0.
          1    1    3    3  502    0 -0.89296772685E+00  0.11759002637E+03 -0.24615875033E+03  0.27280458584E+03  0.00000000000E+00 0. -1.
         -4    1    3    3    0  502  0.15797711497E+02  0.11555044228E+03 -0.48717191257E+03  0.50093706671E+03  0.00000000000E+00 0.  1.
         13    1    5    5    0    0  0.58171904345E+01 -0.14033675946E+01 -0.21178757574E+02  0.22007928516E+02  0.00000000000E+00 0.  1.
        -13    1    5    5    0    0 -0.28393964328E+03 -0.24558676678E+03 -0.97559413404E+03  0.10453317633E+04  0.00000000000E+00 0. -1.
          2    1    6    6  503    0  0.26302140063E+03  0.54394246699E+01  0.26654098060E+02  0.26442444190E+03  0.00000000000E+00 0. -1.
         -2    1    6    6    0  503  0.19630844433E+00  0.84102410585E+01 -0.12729477827E+02  0.15258122342E+02  0.00000000000E+00 0.  1.
<mgrwt>
<rscale>  0 0.12459412E+04</rscale>
<asrwt>0</asrwt>
<pdfrwt beam="1">  1        1 0.29514945E+00 0.12459412E+04</pdfrwt>
<pdfrwt beam="2">  1       -2 0.31121921E-01 0.12459412E+04</pdfrwt>
<totfact> 0.28090964E+01</totfact>
</mgrwt>
</event>
<event>
12    5  0.5095719E-008  0.2216642E+04  0.7818608E-02  0.8511533E-01
         -2   -1    0    0    0  501 -0.00000000000E+00  0.00000000000E+00  0.87622672344E+03  0.87622672344E+03  0.00000000000E+00 0.  1.
          1   -1    0    0  501    0  0.00000000000E+00 -0.00000000000E+00 -0.14018925270E+04  0.14018925270E+04  0.00000000000E+00 0. -1.
        -24    2    1    2    0    0 -0.35628756798E+03 -0.30042974410E+03 -0.10361654691E+04  0.11397510635E+04  0.90524832131E+02 0.  0.
        254    2    1    2    0    0  0.35628756798E+03  0.30042974410E+03  0.51049966551E+03  0.11383681869E+04  0.90447407830E+03 0.  0.
         23    2    4    4    0    0  0.59441458766E+03  0.20604825561E+03  0.57690872839E+03  0.85859867996E+03  0.92646784504E+02 0.  0.
         23    2    4    4    0    0 -0.23812701968E+03  0.94381488491E+02 -0.66409062877E+02  0.27976950698E+03  0.90821090780E+02 0.  0.
          1    1    3    3  502    0 -0.28021565988E+03 -0.21936266075E+03 -0.86847689099E+03  0.93855895028E+03  0.00000000000E+00 0. -1.
         -2    1    3    3    0  502 -0.76071908101E+02 -0.81067083344E+02 -0.16768857808E+03  0.20119211322E+03  0.00000000000E+00 0.  1.
         13    1    5    5    0    0  0.29111453417E+03  0.14918388520E+03  0.30764092026E+03  0.44905059785E+03  0.00000000000E+00 0. -1.
        -13    1    5    5    0    0  0.30330005350E+03  0.56864370406E+02  0.26926780813E+03  0.40954808212E+03  0.00000000000E+00 0.  1.
          4    1    6    6  503    0 -0.16902304566E+03  0.66634585817E+02 -0.88504666156E+02  0.20209412145E+03  0.00000000000E+00 0. -1.
         -4    1    6    6    0  503 -0.69103974021E+02  0.27746902674E+02  0.22095603278E+02  0.77675385533E+02  0.00000000000E+00 0.  1.
<mgrwt>
<rscale>  0 0.22166422E+04</rscale>
<asrwt>0</asrwt>
<pdfrwt beam="1">  1        1 0.21567577E+00 0.22166422E+04</pdfrwt>
<pdfrwt beam="2">  1       -2 0.13480411E+00 0.22166422E+04</pdfrwt>
<totfact> 0.24236963E+00</totfact>
</mgrwt>
</event>
<event>
12    5  0.5095719E-008  0.1677727E+04  0.7818608E-02  0.8774170E-01
         -2   -1    0    0    0  501 -0.00000000000E+00  0.00000000000E+00  0.18667017338E+03  0.18667017338E+03  0.00000000000E+00 0.  1.
          1   -1    0    0  501    0  0.00000000000E+00 -0.00000000000E+00 -0.37697096345E+04  0.37697096345E+04  0.00000000000E+00 0. -1.
        -24    2    1    2    0    0  0.56239194171E+03  0.14376814982E+03 -0.91459567233E+03  0.10861755087E+04  0.79611649868E+02 0.  0.
        254    2    1    2    0    0 -0.56239194171E+03 -0.14376814982E+03 -0.26684437888E+04  0.28702042992E+04  0.88347410162E+03 0.  0.
         23    2    4    4    0    0 -0.27419256114E+03  0.27063730316E+03 -0.19318087290E+04  0.19719462587E+04  0.90889884804E+02 0.  0.
         23    2    4    4    0    0 -0.28819938057E+03 -0.41440545298E+03 -0.73663505980E+03  0.89825804055E+03  0.97188135417E+02 0.  0.
          3    1    3    3  502    0  0.22463998655E+03  0.34499145488E+02 -0.41731062631E+03  0.47518572519E+03  0.00000000000E+00 0. -1.
         -4    1    3    3    0  502  0.33775195516E+03  0.10926900433E+03 -0.49728504602E+03  0.61098978348E+03  0.00000000000E+00 0.  1.
         13    1    5    5    0    0 -0.13989579993E+03  0.14494355932E+03 -0.12323435599E+04  0.12486993713E+04  0.00000000000E+00 0. -1.
        -13    1    5    5    0    0 -0.13429676121E+03  0.12569374384E+03 -0.69946516912E+03  0.72324688739E+03  0.00000000000E+00 0.  1.
          2    1    6    6  503    0 -0.13795705101E+03 -0.14417581016E+03 -0.22768922112E+03  0.30275599676E+03  0.00000000000E+00 0. -1.
         -2    1    6    6    0  503 -0.15024232956E+03 -0.27022964282E+03 -0.50894583868E+03  0.59550204379E+03  0.00000000000E+00 0.  1.
<mgrwt>
<rscale>  0 0.16777275E+04</rscale>
<asrwt>0</asrwt>
<pdfrwt beam="1">  1        1 0.57995529E+00 0.16777275E+04</pdfrwt>
<pdfrwt beam="2">  1       -2 0.28718490E-01 0.16777275E+04</pdfrwt>
<totfact> 0.14232316E+00</totfact>
</mgrwt>
</event>
<event>
12    5  0.5095719E-008  0.1761664E+04  0.7818608E-02  0.8726956E-01
          1   -1    0    0  501    0  0.00000000000E+00  0.00000000000E+00  0.50091220562E+03  0.50091220562E+03  0.00000000000E+00 0. -1.
         -2   -1    0    0    0  501 -0.00000000000E+00 -0.00000000000E+00 -0.15489049748E+04  0.15489049748E+04  0.00000000000E+00 0.  1.
        -24    2    1    2    0    0  0.58367702175E+03  0.96083636631E+01 -0.71568740465E+03  0.92701704832E+03  0.79880913458E+02 0.  0.
        254    2    1    2    0    0 -0.58367702175E+03 -0.96083636631E+01 -0.33230536450E+03  0.11228001321E+04  0.89971222895E+03 0.  0.
         23    2    4    4    0    0 -0.59540070741E+03 -0.53965553712E+02  0.15554525010E+03  0.62418394088E+03  0.89425856716E+02 0.  0.
         23    2    4    4    0    0  0.11723685662E+02  0.44357190049E+02 -0.48785061460E+03  0.49861619119E+03  0.92276101071E+02 0.  0.
          3    1    3    3  502    0  0.29117331119E+03  0.23107222698E+02 -0.30155875539E+03  0.41982558740E+03  0.00000000000E+00 0. -1.
         -4    1    3    3    0  502  0.29250371056E+03 -0.13498859035E+02 -0.41412864927E+03  0.50719146092E+03  0.00000000000E+00 0.  1.
         13    1    5    5    0    0 -0.22274773191E+03 -0.61364299118E+02  0.44757990768E+02  0.23534104405E+03  0.00000000000E+00 0. -1.
        -13    1    5    5    0    0 -0.37265297550E+03  0.73987454063E+01  0.11078725933E+03  0.38884289683E+03  0.00000000000E+00 0.  1.
          2    1    6    6  503    0 -0.95794198955E+01 -0.13794486065E+02 -0.17683031799E+02  0.24387348050E+02  0.00000000000E+00 0. -1.
         -2    1    6    6    0  503  0.21303105557E+02  0.58151676113E+02 -0.47016758281E+03  0.47422884314E+03  0.00000000000E+00 0.  1.
<mgrwt>
<rscale>  0 0.17616644E+04</rscale>
<asrwt>0</asrwt>
<pdfrwt beam="1">  1        1 0.77063417E-01 0.17616644E+04</pdfrwt>
<pdfrwt beam="2">  1       -2 0.23829307E+00 0.17616644E+04</pdfrwt>
<totfact> 0.27788199E+00</totfact>
</mgrwt>
</event>
<event>
12    5  0.5095719E-008  0.1327752E+04  0.7818608E-02  0.9007843E-01
          1   -1    0    0  501    0  0.00000000000E+00  0.00000000000E+00  0.47917825760E+03  0.47917825760E+03  0.00000000000E+00 0. -1.
         -2   -1    0    0    0  501 -0.00000000000E+00 -0.00000000000E+00 -0.91976466746E+03  0.91976466746E+03  0.00000000000E+00 0.  1.
        -24    2    1    2    0    0  0.36877539115E+03  0.37825044716E+02 -0.19401573721E+03  0.42600380016E+03  0.80069397056E+02 0.  0.
        254    2    1    2    0    0 -0.36877539115E+03 -0.37825044716E+02 -0.24657067265E+03  0.97293912489E+03  0.86509387988E+03 0.  0.
         23    2    4    4    0    0  0.11596380905E+03 -0.13497671788E+02 -0.42328313062E+03  0.44850281966E+03  0.91413228914E+02 0.  0.
         23    2    4    4    0    0 -0.48473920019E+03 -0.24327372929E+02  0.17671245797E+03  0.52443630523E+03  0.90786740033E+02 0.  0.
          3    1    3    3  502    0  0.15302153649E+02 -0.65601165416E+01  0.56935959735E+01  0.17595683290E+02  0.00000000000E+00 0. -1.
         -4    1    3    3    0  502  0.35347323750E+03  0.44385161258E+02 -0.19970933318E+03  0.40840811687E+03  0.00000000000E+00 0.  1.
         13    1    5    5    0    0  0.29408682549E+02  0.91630704431E+01 -0.23267914114E+02  0.38603475186E+02  0.00000000000E+00 0.  1.
        -13    1    5    5    0    0  0.86555126498E+02 -0.22660742231E+02 -0.40001521651E+03  0.40989934447E+03  0.00000000000E+00 0. -1.
          2    1    6    6  503    0 -0.37871013358E+03 -0.23263776464E+02  0.17634355064E+03  0.41840126246E+03  0.00000000000E+00 0. -1.
         -2    1    6    6    0  503 -0.10602906661E+03 -0.10635964643E+01  0.36890733227E+00  0.10603504278E+03  0.00000000000E+00 0.  1.
<mgrwt>
<rscale>  0 0.13277518E+04</rscale>
<asrwt>0</asrwt>
<pdfrwt beam="1">  1        1 0.73719732E-01 0.13277518E+04</pdfrwt>
<pdfrwt beam="2">  1       -2 0.14150226E+00 0.13277518E+04</pdfrwt>
<totfact> 0.14063106E+01</totfact>
</mgrwt>
</event>
<event>
12    5  0.5095719E-008  0.1253564E+04  0.7818608E-02  0.9067223E-01
         -2   -1    0    0    0  501 -0.00000000000E+00  0.00000000000E+00  0.15782346742E+04  0.15782346742E+04  0.00000000000E+00 0.  1.
          1   -1    0    0  501    0  0.00000000000E+00 -0.00000000000E+00 -0.24892078142E+03  0.24892078142E+03  0.00000000000E+00 0. -1.
        -24    2    1    2    0    0 -0.33153119187E+02 -0.61348413417E+02 -0.97157301477E+02  0.14335599823E+03  0.79048364043E+02 0.  0.
        254    2    1    2    0    0  0.33153119187E+02  0.61348413417E+02  0.14264711942E+04  0.16837994574E+04  0.89190682671E+03 0.  0.
         23    2    4    4    0    0 -0.36658047431E+03 -0.93566060604E+02  0.99663166620E+03  0.10698726814E+04  0.90647804181E+02 0.  0.
         23    2    4    4    0    0  0.39973359349E+03  0.15491447402E+03  0.42983952804E+03  0.61392677602E+03  0.91425523917E+02 0.  0.
          3    1    3    3  502    0 -0.11460760627E+02 -0.25191800024E+02 -0.97332605107E+02  0.10119096718E+03  0.00000000000E+00 0. -1.
         -4    1    3    3    0  502 -0.21692358560E+02 -0.36156613393E+02  0.17530362952E+00  0.42165031048E+02  0.00000000000E+00 0.  1.
         13    1    5    5    0    0 -0.43930215700E+01 -0.12047365442E+02  0.78221842752E+02  0.79265972120E+02  0.00000000000E+00 0.  1.
        -13    1    5    5    0    0 -0.36218745274E+03 -0.81518695162E+02  0.91840982345E+03  0.99060670924E+03  0.00000000000E+00 0. -1.
          2    1    6    6  503    0  0.38786033314E+03  0.12719311979E+03  0.39980734300E+03  0.57136646669E+03  0.00000000000E+00 0. -1.
         -2    1    6    6    0  503  0.11873260354E+02  0.27721354234E+02  0.30032185043E+02  0.42560309332E+02  0.00000000000E+00 0.  1.
<mgrwt>
<rscale>  0 0.12535636E+04</rscale>
<asrwt>0</asrwt>
<pdfrwt beam="1">  1        1 0.38295506E-01 0.12535636E+04</pdfrwt>
<pdfrwt beam="2">  1       -2 0.24280533E+00 0.12535636E+04</pdfrwt>
<totfact> 0.68566431E+00</totfact>
</mgrwt>
</event>
<event>
12    5  0.5095719E-008  0.1377053E+04  0.7818608E-02  0.8970598E-01
         -2   -1    0    0    0  501 -0.00000000000E+00  0.00000000000E+00  0.23970082038E+03  0.23970082038E+03  0.00000000000E+00 0.  1.
          1   -1    0    0  501    0  0.00000000000E+00 -0.00000000000E+00 -0.19777518458E+04  0.19777518458E+04  0.00000000000E+00 0. -1.
        -24    2    1    2    0    0 -0.60111507200E+02 -0.94245163552E+02 -0.11060453338E+04  0.11146216393E+04  0.80929439896E+02 0.  0.
        254    2    1    2    0    0  0.60111507200E+02  0.94245163552E+02 -0.63200569170E+03  0.11028310270E+04  0.89683305890E+03 0.  0.
         23    2    4    4    0    0 -0.82357544886E+02  0.41934292789E+03 -0.59017348673E+03  0.73417977256E+03  0.89910720356E+02 0.  0.
         23    2    4    4    0    0  0.14246905209E+03 -0.32509776433E+03 -0.41832204970E+02  0.36865125439E+03  0.90376030097E+02 0.  0.
          3    1    3    3  502    0 -0.71225469047E+02 -0.98062712172E+02 -0.10665739411E+04  0.10734380908E+04  0.00000000000E+00 0. -1.
         -4    1    3    3    0  502  0.11113961847E+02  0.38175486201E+01 -0.39471392655E+02  0.41183548457E+02  0.00000000000E+00 0.  1.
         13    1    5    5    0    0 -0.76316904792E+02  0.36226750740E+03 -0.45005357568E+03  0.58276087536E+03  0.00000000000E+00 0. -1.
        -13    1    5    5    0    0 -0.60406400941E+01  0.57075420491E+02 -0.14011991105E+03  0.15141889720E+03  0.00000000000E+00 0.  1.
          2    1    6    6  503    0  0.14110475080E+03 -0.22221126452E+03 -0.25362191784E+02  0.26444590666E+03  0.00000000000E+00 0. -1.
         -2    1    6    6    0  503  0.13643012894E+01 -0.10288649981E+03 -0.16470013186E+02  0.10420534773E+03  0.00000000000E+00 0.  1.
<mgrwt>
<rscale>  0 0.13770530E+04</rscale>
<asrwt>0</asrwt>
<pdfrwt beam="1">  1        1 0.30426954E+00 0.13770530E+04</pdfrwt>
<pdfrwt beam="2">  1       -2 0.36877046E-01 0.13770530E+04</pdfrwt>
<totfact> 0.18346853E+01</totfact>
</mgrwt>
</event>
<event>
12    5  0.5095719E-008  0.1212847E+04  0.7818608E-02  0.9101686E-01
          1   -1    0    0  501    0  0.00000000000E+00  0.00000000000E+00  0.48230209453E+03  0.48230209453E+03  0.00000000000E+00 0. -1.
         -2   -1    0    0    0  501 -0.00000000000E+00 -0.00000000000E+00 -0.76248735294E+03  0.76248735294E+03  0.00000000000E+00 0.  1.
        -24    2    1    2    0    0 -0.13957149675E+03  0.24122228737E+03 -0.75549921358E+02  0.29987995394E+03  0.80943199376E+02 0.  0.
        254    2    1    2    0    0  0.13957149675E+03 -0.24122228737E+03 -0.20463533705E+03  0.94490949352E+03  0.87938042686E+03 0.  0.
         23    2    4    4    0    0  0.32064727746E+03 -0.48108437543E+03 -0.33613267678E+02  0.58694700369E+03  0.95499112843E+02 0.  0.
         23    2    4    4    0    0 -0.18107578070E+03  0.23986208806E+03 -0.17102206937E+03  0.35796248984E+03  0.92554504339E+02 0.  0.
          3    1    3    3  502    0 -0.28189931273E+02  0.33488736667E+02  0.16574507493E+02  0.46806858550E+02  0.00000000000E+00 0. -1.
         -4    1    3    3    0  502 -0.11138156548E+03  0.20773355070E+03 -0.92124428852E+02  0.25307309539E+03  0.00000000000E+00 0.  1.
         13    1    5    5    0    0  0.70581616937E+02 -0.15071036033E+03  0.25661010723E+02  0.16838605890E+03  0.00000000000E+00 0.  1.
        -13    1    5    5    0    0  0.25006566052E+03 -0.33037401510E+03 -0.59274278401E+02  0.41856094479E+03  0.00000000000E+00 0. -1.
          1    1    6    6  503    0 -0.10589508115E+03  0.11554177536E+03 -0.38664082562E+02  0.16142670580E+03  0.00000000000E+00 0. -1.
         -1    1    6    6    0  503 -0.75180699552E+02  0.12432031270E+03 -0.13235798681E+03  0.19653578404E+03  0.00000000000E+00 0.  1.
<mgrwt>
<rscale>  0 0.12128466E+04</rscale>
<asrwt>0</asrwt>
<pdfrwt beam="1">  1        1 0.74200322E-01 0.12128466E+04</pdfrwt>
<pdfrwt beam="2">  1       -2 0.11730575E+00 0.12128466E+04</pdfrwt>
<totfact> 0.22613136E+01</totfact>
</mgrwt>
</event>
<event>
12    5  0.5095719E-008  0.1362512E+04  0.7818608E-02  0.8981410E-01
          1   -1    0    0  501    0  0.00000000000E+00  0.00000000000E+00  0.12797439648E+04  0.12797439648E+04  0.00000000000E+00 0. -1.
         -2   -1    0    0    0  501 -0.00000000000E+00 -0.00000000000E+00 -0.36265819873E+03  0.36265819873E+03  0.00000000000E+00 0.  1.
        -24    2    1    2    0    0 -0.32765286147E+03 -0.11471265045E+03  0.43626910413E+03  0.56322209409E+03  0.79831110758E+02 0.  0.
        254    2    1    2    0    0  0.32765286147E+03  0.11471265045E+03  0.48081666190E+03  0.10791800694E+04  0.90162606995E+03 0.  0.
         23    2    4    4    0    0 -0.26903038943E+03  0.20607147304E+03  0.22483808133E+03  0.41753842416E+03  0.94569394599E+02 0.  0.
         23    2    4    4    0    0  0.59668325090E+03 -0.91358822594E+02  0.25597858056E+03  0.66164164523E+03  0.88697782545E+02 0.  0.
          1    1    3    3  502    0 -0.12262061030E+03 -0.48748057165E+02  0.22905660801E+03  0.26434658466E+03  0.00000000000E+00 0. -1.
         -2    1    3    3    0  502 -0.20503225117E+03 -0.65964593285E+02  0.20721249613E+03  0.29887550943E+03  0.00000000000E+00 0.  1.
         13    1    5    5    0    0 -0.81678103403E+02  0.17601122266E+02  0.33235847140E+02  0.89920707380E+02  0.00000000000E+00 0.  1.
        -13    1    5    5    0    0 -0.18735228603E+03  0.18847035078E+03  0.19160223419E+03  0.32761771678E+03  0.00000000000E+00 0. -1.
          1    1    6    6  503    0  0.43809423491E+03 -0.70922459585E+02  0.14454900217E+03  0.46674507813E+03  0.00000000000E+00 0. -1.
         -1    1    6    6    0  503  0.15858901599E+03 -0.20436363009E+02  0.11142957839E+03  0.19489656710E+03  0.00000000000E+00 0.  1.
<mgrwt>
<rscale>  0 0.13625119E+04</rscale>
<asrwt>0</asrwt>
<pdfrwt beam="1">  1        1 0.19688369E+00 0.13625119E+04</pdfrwt>
<pdfrwt beam="2">  1       -2 0.55793569E-01 0.13625119E+04</pdfrwt>
<totfact> 0.24208328E+01</totfact>
</mgrwt>
</event>
<event>
12    5  0.5095719E-008  0.1529192E+04  0.7818608E-02  0.8865269E-01
          1   -1    0    0  501    0  0.00000000000E+00  0.00000000000E+00  0.57500061886E+03  0.57500061886E+03  0.00000000000E+00 0. -1.
         -2   -1    0    0    0  501 -0.00000000000E+00 -0.00000000000E+00 -0.10167066048E+04  0.10167066048E+04  0.00000000000E+00 0.  1.
        -24    2    1    2    0    0  0.30943887579E+03  0.38122727750E+03 -0.22810685135E+03  0.54819329178E+03  0.86002875315E+02 0.  0.
        254    2    1    2    0    0 -0.30943887579E+03 -0.38122727750E+03 -0.21359913455E+03  0.10435139318E+04  0.89566181158E+03 0.  0.
         23    2    4    4    0    0 -0.36109444873E+03  0.98995403795E+01 -0.44254445688E+03  0.57842200500E+03  0.90770136877E+02 0.  0.
         23    2    4    4    0    0  0.51655572945E+02 -0.39112681788E+03  0.22894532233E+03  0.46509192685E+03  0.90807785583E+02 0.  0.
          3    1    3    3  502    0  0.30702344097E+03  0.36932506379E+03 -0.23450201927E+03  0.53446757908E+03  0.00000000000E+00 0. -1.
         -4    1    3    3    0  502  0.24154348224E+01  0.11902213710E+02  0.63951679144E+01  0.13725712704E+02  0.00000000000E+00 0.  1.
         13    1    5    5    0    0 -0.35784218063E+03  0.18417252005E+02 -0.44239808948E+03  0.56930333829E+03  0.00000000000E+00 0.  1.
        -13    1    5    5    0    0 -0.32522681016E+01 -0.85177116259E+01 -0.14636739575E+00  0.91186667096E+01  0.00000000000E+00 0. -1.
          1    1    6    6  503    0  0.25936306539E+02 -0.45329742987E+02  0.53463914771E+01  0.52498204711E+02  0.00000000000E+00 0. -1.
         -1    1    6    6    0  503  0.25719266406E+02 -0.34579707490E+03  0.22359893085E+03  0.41259372214E+03  0.00000000000E+00 0.  1.
<mgrwt>
<rscale>  0 0.15291918E+04</rscale>
<asrwt>0</asrwt>
<pdfrwt beam="1">  1        1 0.88461633E-01 0.15291918E+04</pdfrwt>
<pdfrwt beam="2">  1       -2 0.15641640E+00 0.15291918E+04</pdfrwt>
<totfact> 0.82300777E+00</totfact>
</mgrwt>
</event>
<event>
12    5  0.5095719E-008  0.1003871E+04  0.7818608E-02  0.9304309E-01
         -2   -1    0    0    0  501 -0.00000000000E+00  0.00000000000E+00  0.61091533219E+03  0.61091533219E+03  0.00000000000E+00 0.  1.
          1   -1    0    0  501    0  0.00000000000E+00 -0.00000000000E+00 -0.41239642494E+03  0.41239642494E+03  0.00000000000E+00 0. -1.
        -24    2    1    2    0    0  0.10513726760E+03  0.21623315055E+02  0.75084707412E+02  0.15250069836E+03  0.78085446283E+02 0.  0.
        254    2    1    2    0    0 -0.10513726760E+03 -0.21623315055E+02  0.12343419983E+03  0.87081105877E+03  0.85530958465E+03 0.  0.
         23    2    4    4    0    0 -0.35670108933E+03  0.16304434089E+03  0.29902329665E+03  0.50146120801E+03  0.90715417514E+02 0.  0.
         23    2    4    4    0    0  0.25156382173E+03 -0.18466765594E+03 -0.17558909682E+03  0.36934985076E+03  0.90560928556E+02 0.  0.
          3    1    3    3  502    0  0.12086351457E+01 -0.40596564103E+01 -0.13121584766E+02  0.13788313742E+02  0.00000000000E+00 0. -1.
         -4    1    3    3    0  502  0.10392863246E+03  0.25682971465E+02  0.88206292178E+02  0.13871238462E+03  0.00000000000E+00 0.  1.
         13    1    5    5    0    0 -0.81441047541E+02  0.61343294721E+01  0.91796661773E+02  0.12286944834E+03  0.00000000000E+00 0.  1.
        -13    1    5    5    0    0 -0.27526004179E+03  0.15691001141E+03  0.20722663488E+03  0.37859175967E+03  0.00000000000E+00 0. -1.
          3    1    6    6  503    0  0.14307231162E+03 -0.15787336887E+03 -0.11012464015E+03  0.23983561729E+03  0.00000000000E+00 0. -1.
         -3    1    6    6    0  503  0.10849151011E+03 -0.26794287070E+02 -0.65464456675E+02  0.12951423347E+03  0.00000000000E+00 0.  1.
<mgrwt>
<rscale>  0 0.10038711E+04</rscale>
<asrwt>0</asrwt>
<pdfrwt beam="1">  1        1 0.63445604E-01 0.10038711E+04</pdfrwt>
<pdfrwt beam="2">  1       -2 0.93986974E-01 0.10038711E+04</pdfrwt>
<totfact> 0.48229651E+01</totfact>
</mgrwt>
</event>
<event>
12    5  0.5095719E-008  0.1966882E+04  0.7818608E-02  0.8622263E-01
          1   -1    0    0  501    0  0.00000000000E+00  0.00000000000E+00  0.29957824411E+04  0.29957824411E+04  0.00000000000E+00 0. -1.
         -2   -1    0    0    0  501 -0.00000000000E+00 -0.00000000000E+00 -0.32283914611E+03  0.32283914611E+03  0.00000000000E+00 0.  1.
        -24    2    1    2    0    0 -0.24381249429E+03 -0.27038652789E+03  0.22018525025E+04  0.22330140689E+04  0.75126441531E+02 0.  0.
        254    2    1    2    0    0  0.24381249429E+03  0.27038652789E+03  0.47109079256E+03  0.10856075184E+04  0.90777956705E+03 0.  0.
         23    2    4    4    0    0 -0.23787512848E+03 -0.17097121160E+03  0.22848134216E+03  0.38254175884E+03  0.91207135663E+02 0.  0.
         23    2    4    4    0    0  0.48168762276E+03  0.44135773948E+03  0.24260945040E+03  0.70306575957E+03  0.92857399971E+02 0.  0.
          3    1    3    3  502    0 -0.15053028848E+03 -0.13161874198E+03  0.13708600480E+04  0.13853664252E+04  0.00000000000E+00 0. -1.
         -4    1    3    3    0  502 -0.93282205811E+02 -0.13876778591E+03  0.83099245448E+03  0.84764764362E+03  0.00000000000E+00 0.  1.
         13    1    5    5    0    0 -0.22548825688E+02 -0.57709992673E+02  0.31536775534E+02  0.69523096919E+02  0.00000000000E+00 0. -1.
        -13    1    5    5    0    0 -0.21532630279E+03 -0.11326121892E+03  0.19694456663E+03  0.31301866192E+03  0.00000000000E+00 0.  1.
          2    1    6    6  503    0  0.47817778437E+02  0.20790243608E+02  0.58127586925E+00  0.52145105672E+02  0.00000000000E+00 0. -1.
         -2    1    6    6    0  503  0.43386984433E+03  0.42056749588E+03  0.24202817453E+03  0.65092065390E+03  0.00000000000E+00 0.  1.
<mgrwt>
<rscale>  0 0.19668816E+04</rscale>
<asrwt>0</asrwt>
<pdfrwt beam="1">  1        1 0.46088959E+00 0.19668816E+04</pdfrwt>
<pdfrwt beam="2">  1       -2 0.49667563E-01 0.19668816E+04</pdfrwt>
<totfact> 0.18912931E+00</totfact>
</mgrwt>
</event>
<event>
12    5  0.5095719E-008  0.1727115E+04  0.7818608E-02  0.8746049E-01
          1   -1    0    0  501    0  0.00000000000E+00  0.00000000000E+00  0.73515985108E+03  0.73515985108E+03  0.00000000000E+00 0. -1.
         -2   -1    0    0    0  501 -0.00000000000E+00 -0.00000000000E+00 -0.10143796316E+04  0.10143796316E+04  0.00000000000E+00 0.  1.
        -24    2    1    2    0    0 -0.20438833226E+03  0.58721327037E+03 -0.17110481847E+03  0.64995655740E+03  0.81071896097E+02 0.  0.
        254    2    1    2    0    0  0.20438833226E+03 -0.58721327037E+03 -0.10811496209E+03  0.10995829253E+04  0.90044419558E+03 0.  0.
         23    2    4    4    0    0  0.19007760077E+03  0.26804055049E+02  0.29182159970E+03  0.36112882865E+03  0.91685512205E+02 0.  0.
         23    2    4    4    0    0  0.14310731485E+02 -0.61401732542E+03 -0.39993656179E+03  0.73845409666E+03  0.90239273432E+02 0.  0.
          3    1    3    3  502    0 -0.88216276393E+02  0.27749936747E+03 -0.39067294378E+02  0.29379289279E+03  0.00000000000E+00 0. -1.
         -4    1    3    3    0  502 -0.11617205586E+03  0.30971390290E+03 -0.13203752410E+03  0.35616366461E+03  0.00000000000E+00 0.  1.
         13    1    5    5    0    0  0.83398781928E+02  0.24835856394E+02  0.59320070461E+02  0.10531404156E+03  0.00000000000E+00 0.  1.
        -13    1    5    5    0    0  0.10667881884E+03  0.19681986549E+01  0.23250152924E+03  0.25581478709E+03  0.00000000000E+00 0. -1.
          3    1    6    6  503    0  0.32369053870E+02 -0.10393287600E+03 -0.90609878012E+02  0.14163314709E+03  0.00000000000E+00 0. -1.
         -3    1    6    6    0  503 -0.18058322385E+02 -0.51008444943E+03 -0.30932668378E+03  0.59682094957E+03  0.00000000000E+00 0.  1.
<mgrwt>
<rscale>  0 0.17271146E+04</rscale>
<asrwt>0</asrwt>
<pdfrwt beam="1">  1        1 0.11310152E+00 0.17271146E+04</pdfrwt>
<pdfrwt beam="2">  1       -2 0.15605841E+00 0.17271146E+04</pdfrwt>
<totfact> 0.56598690E+00</totfact>
</mgrwt>
</event>
<event>
12    5  0.5095719E-008  0.1297004E+04  0.7818608E-02  0.9031944E-01
         -2   -1    0    0    0  501 -0.00000000000E+00  0.00000000000E+00  0.34887979551E+03  0.34887979551E+03  0.00000000000E+00 0.  1.
          1   -1    0    0  501    0  0.00000000000E+00 -0.00000000000E+00 -0.12054440882E+04  0.12054440882E+04  0.00000000000E+00 0. -1.
        -24    2    1    2    0    0 -0.12242077643E+03 -0.14263318373E+02  0.14147055282E+03  0.20596913064E+03  0.84965149969E+02 0.  0.
        254    2    1    2    0    0  0.12242077643E+03  0.14263318373E+02 -0.99803484547E+03  0.13483547530E+04  0.89821862511E+03 0.  0.
         23    2    4    4    0    0  0.29232112424E+03 -0.20547148637E+03 -0.71259604902E+02  0.37652740424E+03  0.94998860324E+02 0.  0.
         23    2    4    4    0    0 -0.16990034781E+03  0.21973480474E+03 -0.92677524057E+03  0.97182734879E+03  0.91578036280E+02 0.  0.
          1    1    3    3  502    0 -0.14170519382E+01 -0.23722397385E+02  0.68930267068E+01  0.24744170850E+02  0.00000000000E+00 0. -1.
         -2    1    3    3    0  502 -0.12100372449E+03  0.94590790112E+01  0.13457752612E+03  0.18122495979E+03  0.00000000000E+00 0.  1.
         13    1    5    5    0    0  0.30872591694E+01 -0.29445971336E+02 -0.15367984286E+02  0.33358227443E+02  0.00000000000E+00 0. -1.
        -13    1    5    5    0    0  0.28923386507E+03 -0.17602551503E+03 -0.55891620616E+02  0.34316917679E+03  0.00000000000E+00 0.  1.
          1    1    6    6  503    0 -0.11251800397E+02  0.56266604305E+02 -0.28771769356E+03  0.29338371625E+03  0.00000000000E+00 0. -1.
         -1    1    6    6    0  503 -0.15864854742E+03  0.16346820044E+03 -0.63905754700E+03  0.67844363254E+03  0.00000000000E+00 0.  1.
<mgrwt>
<rscale>  0 0.12970044E+04</rscale>
<asrwt>0</asrwt>
<pdfrwt beam="1">  1        1 0.18545294E+00 0.12970044E+04</pdfrwt>
<pdfrwt beam="2">  1       -2 0.53673815E-01 0.12970044E+04</pdfrwt>
<totfact> 0.29845764E+01</totfact>
</mgrwt>
</event>
<event>
12    5  0.5095719E-008  0.2168230E+04  0.7818608E-02  0.8531769E-01
         -2   -1    0    0    0  501 -0.00000000000E+00  0.00000000000E+00  0.45873410940E+03  0.45873410940E+03  0.00000000000E+00 0.  1.
          1   -1    0    0  501    0  0.00000000000E+00 -0.00000000000E+00 -0.25620624296E+04  0.25620624296E+04  0.00000000000E+00 0. -1.
        -24    2    1    2    0    0 -0.63001128892E+03  0.60052608591E+03 -0.11735976464E+04  0.14633360553E+04  0.80468446664E+02 0.  0.
        254    2    1    2    0    0  0.63001128892E+03 -0.60052608591E+03 -0.92973067377E+03  0.15574604837E+04  0.89651448878E+03 0.  0.
         23    2    4    4    0    0  0.22512829576E+03 -0.34475763080E+03  0.86141712038E+02  0.43084599504E+03  0.93098353057E+02 0.  0.
         23    2    4    4    0    0  0.40488299316E+03 -0.25576845512E+03 -0.10158723858E+04  0.11266144887E+04  0.88970563099E+02 0.  0.
          3    1    3    3  502    0 -0.60353948170E+03  0.56051969710E+03 -0.10809462327E+04  0.13590022056E+04  0.00000000000E+00 0. -1.
         -4    1    3    3    0  502 -0.26471807225E+02  0.40006388816E+02 -0.92651413689E+02  0.10433384965E+03  0.00000000000E+00 0.  1.
         13    1    5    5    0    0  0.23081002700E+03 -0.31385885121E+03  0.87887902017E+02  0.39938068352E+03  0.00000000000E+00 0.  1.
        -13    1    5    5    0    0 -0.56817312329E+01 -0.30898779586E+02 -0.17461899791E+01  0.31465311522E+02  0.00000000000E+00 0. -1.
          1    1    6    6  503    0  0.25784809493E+03 -0.11095477240E+03 -0.58099109916E+03  0.64524976473E+03  0.00000000000E+00 0. -1.
         -1    1    6    6    0  503  0.14703489823E+03 -0.14481368272E+03 -0.43488128665E+03  0.48136472397E+03  0.00000000000E+00 0.  1.
<mgrwt>
<rscale>  0 0.21682301E+04</rscale>
<asrwt>0</asrwt>
<pdfrwt beam="1">  1        1 0.39416346E+00 0.21682301E+04</pdfrwt>
<pdfrwt beam="2">  1       -2 0.70574477E-01 0.21682301E+04</pdfrwt>
<totfact> 0.17994660E+00</totfact>
</mgrwt>
</event>
<event>
12    5  0.5095719E-008  0.1599324E+04  0.7818608E-02  0.8820963E-01
          1   -1    0    0  501    0  0.00000000000E+00  0.00000000000E+00  0.72201576899E+03  0.72201576899E+03  0.00000000000E+00 0. -1.
         -2   -1    0    0    0  501 -0.00000000000E+00 -0.00000000000E+00 -0.88565871874E+03  0.88565871874E+03  0.00000000000E+00 0.  1.
        -24    2    1    2    0    0 -0.24353688337E+03  0.43627208106E+03 -0.27330328262E+03  0.57575314920E+03  0.84578142850E+02 0.  0.
        254    2    1    2    0    0  0.24353688337E+03 -0.43627208106E+03  0.10966033286E+03  0.10319213385E+04  0.89621019746E+03 0.  0.
         23    2    4    4    0    0  0.51964707870E+03 -0.46687013573E+03  0.18811262618E+03  0.72888441148E+03  0.88799296931E+02 0.  0.
         23    2    4    4    0    0 -0.27611019532E+03  0.30598054669E+02 -0.78452293319E+02  0.30303692705E+03  0.92214618767E+02 0.  0.
          3    1    3    3  502    0 -0.77817456102E+02  0.90737300662E+02 -0.96918764313E+02  0.15388976926E+03  0.00000000000E+00 0. -1.
         -4    1    3    3    0  502 -0.16571942727E+03  0.34553478040E+03 -0.17638451831E+03  0.42186337995E+03  0.00000000000E+00 0.  1.
         13    1    5    5    0    0  0.30954042200E+03 -0.30777167288E+03  0.78783440083E+02  0.44356003642E+03  0.00000000000E+00 0.  1.
        -13    1    5    5    0    0  0.21010665670E+03 -0.15909846285E+03  0.10932918610E+03  0.28532437506E+03  0.00000000000E+00 0. -1.
          2    1    6    6  503    0 -0.66791921846E+01 -0.20410238533E+01 -0.25602924578E+02  0.26538408648E+02  0.00000000000E+00 0. -1.
         -2    1    6    6    0  503 -0.26943100314E+03  0.32639078522E+02 -0.52849368741E+02  0.27649851840E+03  0.00000000000E+00 0.  1.
<mgrwt>
<rscale>  0 0.15993243E+04</rscale>
<asrwt>0</asrwt>
<pdfrwt beam="1">  1        1 0.11107935E+00 0.15993243E+04</pdfrwt>
<pdfrwt beam="2">  1       -2 0.13625519E+00 0.15993243E+04</pdfrwt>
<totfact> 0.84082498E+00</totfact>
</mgrwt>
</event>
<event>
12    5  0.5095719E-008  0.2803708E+04  0.7818608E-02  0.8302118E-01
          1   -1    0    0  501    0  0.00000000000E+00  0.00000000000E+00  0.62383245151E+03  0.62383245151E+03  0.00000000000E+00 0. -1.
         -2   -1    0    0    0  501 -0.00000000000E+00 -0.00000000000E+00 -0.31501969906E+04  0.31501969906E+04  0.00000000000E+00 0.  1.
        -24    2    1    2    0    0 -0.34004947799E+03 -0.37240665665E+03 -0.26916785782E+04  0.27397324739E+04  0.81731846415E+02 0.  0.
        254    2    1    2    0    0  0.34004947799E+03  0.37240665665E+03  0.16531403909E+03  0.10342969683E+04  0.88776186088E+03 0.  0.
         23    2    4    4    0    0  0.19176129711E+03  0.62982431112E+03 -0.28683549240E+02  0.66574153527E+03  0.94540932069E+02 0.  0.
         23    2    4    4    0    0  0.14828818088E+03 -0.25741765447E+03  0.19399758833E+03  0.36855543299E+03  0.99723665618E+02 0.  0.
          1    1    3    3  502    0 -0.29131112604E+02 -0.74988898334E+01 -0.11721961473E+03  0.12101773898E+03  0.00000000000E+00 0. -1.
         -2    1    3    3    0  502 -0.31091836538E+03 -0.36490776681E+03 -0.25744589635E+04  0.26187147349E+04  0.00000000000E+00 0.  1.
         13    1    5    5    0    0  0.52526828674E+02  0.33475121156E+03 -0.13674109544E+02  0.33912301993E+03  0.00000000000E+00 0.  1.
        -13    1    5    5    0    0  0.13923446844E+03  0.29507309956E+03 -0.15009439695E+02  0.32661851534E+03  0.00000000000E+00 0. -1.
          4    1    6    6  503    0  0.26274058100E+00 -0.63839014361E+02  0.13373966103E+02  0.65225391961E+02  0.00000000000E+00 0.  1.
         -4    1    6    6    0  503  0.14802544029E+03 -0.19357864011E+03  0.18062362223E+03  0.30333004103E+03  0.00000000000E+00 0. -1.
<mgrwt>
<rscale>  0 0.28037083E+04</rscale>
<asrwt>0</asrwt>
<pdfrwt beam="1">  1        1 0.95974224E-01 0.28037083E+04</pdfrwt>
<pdfrwt beam="2">  1       -2 0.48464569E+00 0.28037083E+04</pdfrwt>
<totfact> 0.50483772E-02</totfact>
</mgrwt>
</event>
<event>
12    5  0.5095719E-008  0.1507244E+04  0.7818608E-02  0.8879650E-01
         -2   -1    0    0    0  501 -0.00000000000E+00  0.00000000000E+00  0.65846672386E+03  0.65846672386E+03  0.00000000000E+00 0.  1.
          1   -1    0    0  501    0  0.00000000000E+00 -0.00000000000E+00 -0.86252840404E+03  0.86252840404E+03  0.00000000000E+00 0. -1.
        -24    2    1    2    0    0  0.22156619834E+02  0.93370525999E+02  0.41416051158E+03  0.43226793725E+03  0.78215531050E+02 0.  0.
        254    2    1    2    0    0 -0.22156619834E+02 -0.93370525999E+02 -0.61822219176E+03  0.10887271906E+04  0.89102146233E+03 0.  0.
         23    2    4    4    0    0  0.30758444334E+03  0.17056698640E+03 -0.40637794375E+02  0.36746247543E+03  0.98366426584E+02 0.  0.
         23    2    4    4    0    0 -0.32974106318E+03 -0.26393751240E+03 -0.57758439738E+03  0.72126471521E+03  0.90702117449E+02 0.  0.
          3    1    3    3  502    0  0.20530382823E+02  0.26861777734E+02  0.40619882795E+02  0.52849092709E+02  0.00000000000E+00 0. -1.
         -4    1    3    3    0  502  0.16262370114E+01  0.66508748265E+02  0.37354062878E+03  0.37941884454E+03  0.00000000000E+00 0.  1.
         13    1    5    5    0    0  0.47436150163E+02  0.48669878037E+02 -0.42515390882E+02  0.80165477809E+02  0.00000000000E+00 0. -1.
        -13    1    5    5    0    0  0.26014829318E+03  0.12189710837E+03  0.18775965071E+01  0.28729699762E+03  0.00000000000E+00 0.  1.
          2    1    6    6  503    0 -0.32067129829E+03 -0.22758654822E+03 -0.54178706196E+03  0.66944674096E+03  0.00000000000E+00 0.  1.
         -2    1    6    6    0  503 -0.90697648908E+01 -0.36350964180E+02 -0.35797335426E+02  0.51817974252E+02  0.00000000000E+00 0. -1.
<mgrwt>
<rscale>  0 0.15072442E+04</rscale>
<asrwt>0</asrwt>
<pdfrwt beam="1">  1        1 0.13269668E+00 0.15072442E+04</pdfrwt>
<pdfrwt beam="2">  1       -2 0.10130257E+00 0.15072442E+04</pdfrwt>
<totfact> 0.13263473E+01</totfact>
</mgrwt>
</event>
<event>
12    5  0.5095719E-008  0.2405723E+04  0.7818608E-02  0.8437364E-01
         -4   -1    0    0    0  501 -0.00000000000E+00  0.00000000000E+00  0.75552921208E+03  0.75552921208E+03  0.00000000000E+00 0.  1.
          3   -1    0    0  501    0  0.00000000000E+00 -0.00000000000E+00 -0.19150487016E+04  0.19150487016E+04  0.00000000000E+00 0. -1.
        -24    2    1    2    0    0  0.25160721419E+03  0.51462297333E+03  0.45134352082E+03  0.73389746599E+03  0.82167645045E+02 0.  0.
        254    2    1    2    0    0 -0.25160721419E+03 -0.51462297333E+03 -0.16108630103E+04  0.19366804477E+04  0.90978487760E+03 0.  0.
         23    2    4    4    0    0 -0.13093547969E+03 -0.60720555239E+03 -0.16366855226E+04  0.17530364544E+04  0.92491231311E+02 0.  0.
         23    2    4    4    0    0 -0.12067173450E+03  0.92582579066E+02  0.25822512264E+02  0.18364399329E+03  0.99624859753E+02 0.  0.
          1    1    3    3  502    0  0.55047481280E+02  0.11410310446E+03  0.58918893485E+02  0.13971821517E+03  0.00000000000E+00 0. -1.
         -2    1    3    3    0  502  0.19655973291E+03  0.40051986887E+03  0.39242462733E+03  0.59417925081E+03  0.00000000000E+00 0.  1.
         13    1    5    5    0    0 -0.22319792220E+02 -0.25438652609E+03 -0.76160008177E+03  0.80327166160E+03  0.00000000000E+00 0.  1.
        -13    1    5    5    0    0 -0.10861568747E+03 -0.35281902631E+03 -0.87508544083E+03  0.94976479280E+03  0.00000000000E+00 0. -1.
          1    1    6    6  503    0 -0.70715431438E+02  0.62277237956E+02  0.63944940258E+02  0.11387748678E+03  0.00000000000E+00 0. -1.
         -1    1    6    6    0  503 -0.49956303057E+02  0.30305341109E+02 -0.38122427994E+02  0.69766506513E+02  0.00000000000E+00 0.  1.
<mgrwt>
<rscale>  0 0.24057225E+04</rscale>
<asrwt>0</asrwt>
<pdfrwt beam="1">  1        3 0.29462287E+00 0.24057225E+04</pdfrwt>
<pdfrwt beam="2">  1       -4 0.11623526E+00 0.24057225E+04</pdfrwt>
<totfact> 0.48797050E-02</totfact>
</mgrwt>
</event>
<event>
12    5  0.5212054E-008  0.1660722E+04  0.7818608E-02  0.8784089E-01
          1   -1    0    0  501    0  0.00000000000E+00  0.00000000000E+00  0.14068787362E+04  0.14068787362E+04  0.00000000000E+00 0. -1.
         -2   -1    0    0    0  501 -0.00000000000E+00 -0.00000000000E+00 -0.49009165869E+03  0.49009165869E+03  0.00000000000E+00 0.  1.
        -24    2    1    2    0    0 -0.23806160499E+03 -0.21035012844E+03  0.88283058309E+03  0.94160517359E+03  0.79435257785E+02 0.  0.
        254    2    1    2    0    0  0.23806160499E+03  0.21035012844E+03  0.33956494413E+02  0.95536522130E+03  0.90036057124E+03 0.  0.
         23    2    4    4    0    0 -0.55584873527E+02  0.45009937793E+03  0.23250092593E+03  0.51734513463E+03  0.88939190382E+02 0.  0.
         23    2    4    4    0    0  0.29364647852E+03 -0.23974924950E+03 -0.19854443151E+03  0.43802008667E+03  0.93454524010E+02 0.  0.
          3    1    3    3  502    0 -0.18855289605E+03 -0.20359098336E+03  0.74718022317E+03  0.79704439588E+03  0.00000000000E+00 0. -1.
         -4    1    3    3    0  502 -0.49508708942E+02 -0.67591450790E+01  0.13565035993E+03  0.14456077771E+03  0.00000000000E+00 0.  1.
         13    1    5    5    0    0 -0.49100711760E+02  0.29583430371E+03  0.19735109474E+03  0.35899341183E+03  0.00000000000E+00 0. -1.
        -13    1    5    5    0    0 -0.64841617678E+01  0.15426507423E+03  0.35149831191E+02  0.15835172280E+03  0.00000000000E+00 0.  1.
          3    1    6    6  503    0  0.24770048330E+03 -0.16100899653E+03 -0.17681677478E+03  0.34430160940E+03  0.00000000000E+00 0. -1.
         -3    1    6    6    0  503  0.45945995219E+02 -0.78740252971E+02 -0.21727656730E+02  0.93718477269E+02  0.00000000000E+00 0.  1.
<mgrwt>
<rscale>  0 0.16607222E+04</rscale>
<asrwt>0</asrwt>
<pdfrwt beam="1">  1        1 0.21644288E+00 0.16607222E+04</pdfrwt>
<pdfrwt beam="2">  1       -2 0.75398717E-01 0.16607222E+04</pdfrwt>
<totfact> 0.10043836E+01</totfact>
</mgrwt>
</event>
<event>
12    5  0.5095719E-008  0.1709511E+04  0.7818608E-02  0.8755959E-01
          1   -1    0    0  501    0  0.00000000000E+00  0.00000000000E+00  0.48379135278E+03  0.48379135278E+03  0.00000000000E+00 0. -1.
         -2   -1    0    0    0  501 -0.00000000000E+00 -0.00000000000E+00 -0.15101690266E+04  0.15101690266E+04  0.00000000000E+00 0.  1.
        -24    2    1    2    0    0  0.28328407869E+03  0.36086993870E+03 -0.85513156442E+03  0.97371783005E+03  0.79996488578E+02 0.  0.
        254    2    1    2    0    0 -0.28328407869E+03 -0.36086993870E+03 -0.17124610944E+03  0.10202425494E+04  0.89503779119E+03 0.  0.
         23    2    4    4    0    0  0.30735634740E+03 -0.16028673454E+03 -0.15269899288E+03  0.38953408352E+03  0.90884862521E+02 0.  0.
         23    2    4    4    0    0 -0.59064042609E+03 -0.20058320415E+03 -0.18547116555E+02  0.63070846586E+03  0.91429965826E+02 0.  0.
          3    1    3    3  502    0  0.19154153733E+02  0.23538541240E+02 -0.11088675909E+03  0.11496442002E+03  0.00000000000E+00 0. -1.
         -4    1    3    3    0  502  0.26412992496E+03  0.33733139746E+03 -0.74424480533E+03  0.85875341002E+03  0.00000000000E+00 0.  1.
         13    1    5    5    0    0  0.10945440001E+03 -0.46830802900E+02 -0.78417891069E+01  0.11931003076E+03  0.00000000000E+00 0. -1.
        -13    1    5    5    0    0  0.19790194739E+03 -0.11345593164E+03 -0.14485720377E+03  0.27022405276E+03  0.00000000000E+00 0.  1.
          3    1    6    6  503    0 -0.44701450127E+03 -0.12140216147E+03 -0.41683060115E+02  0.46507840915E+03  0.00000000000E+00 0. -1.
         -3    1    6    6    0  503 -0.14362592482E+03 -0.79181042684E+02  0.23135943559E+02  0.16563005671E+03  0.00000000000E+00 0.  1.
<mgrwt>
<rscale>  0 0.17095107E+04</rscale>
<asrwt>0</asrwt>
<pdfrwt beam="1">  1        1 0.74429440E-01 0.17095107E+04</pdfrwt>
<pdfrwt beam="2">  1       -2 0.23233369E+00 0.17095107E+04</pdfrwt>
<totfact> 0.31884611E+00</totfact>
</mgrwt>
</event>
<event>
12    5  0.5095719E-008  0.1105488E+04  0.7818608E-02  0.9199860E-01
         -2   -1    0    0    0  501 -0.00000000000E+00  0.00000000000E+00  0.20514648786E+03  0.20514648786E+03  0.00000000000E+00 0.  1.
          1   -1    0    0  501    0  0.00000000000E+00 -0.00000000000E+00 -0.14893055454E+04  0.14893055454E+04  0.00000000000E+00 0. -1.
        -24    2    1    2    0    0 -0.99163688657E+02 -0.85966345738E+02 -0.37999539403E+03  0.40917718200E+03  0.76195912193E+02 0.  0.
        254    2    1    2    0    0  0.99163688657E+02  0.85966345738E+02 -0.90416366350E+03  0.12852748513E+04  0.90398886228E+03 0.  0.
         23    2    4    4    0    0 -0.14957705455E+03  0.43895318786E+03 -0.44940463562E+03  0.65125934433E+03  0.84386081045E+02 0.  0.
         23    2    4    4    0    0  0.24874074320E+03 -0.35298684212E+03 -0.45475902788E+03  0.63401550693E+03  0.93264256545E+02 0.  0.
          1    1    3    3  502    0 -0.13352072558E+01 -0.42121919757E+02 -0.14262437035E+03  0.14872037493E+03  0.00000000000E+00 0. -1.
         -2    1    3    3    0  502 -0.97828481401E+02 -0.43844425981E+02 -0.23737102368E+03  0.26045680706E+03  0.00000000000E+00 0.  1.
         13    1    5    5    0    0 -0.15406213748E+03  0.35281636938E+03 -0.37261059103E+03  0.53577344583E+03  0.00000000000E+00 0. -1.
        -13    1    5    5    0    0  0.44850829353E+01  0.86136818482E+02 -0.76794044593E+02  0.11548589850E+03  0.00000000000E+00 0.  1.
          4    1    6    6  503    0  0.23351845442E+03 -0.33863912671E+03 -0.39338289088E+03  0.56917257974E+03  0.00000000000E+00 0. -1.
         -4    1    6    6    0  503  0.15222288785E+02 -0.14347715415E+02 -0.61376137002E+02  0.64842927192E+02  0.00000000000E+00 0.  1.
<mgrwt>
<rscale>  0 0.11054878E+04</rscale>
<asrwt>0</asrwt>
<pdfrwt beam="1">  1        1 0.22912393E+00 0.11054878E+04</pdfrwt>
<pdfrwt beam="2">  1       -2 0.31560999E-01 0.11054878E+04</pdfrwt>
<totfact> 0.54224531E+01</totfact>
</mgrwt>
</event>
<event>
12    5  0.5095719E-008  0.1430880E+04  0.7818608E-02  0.8931765E-01
          1   -1    0    0  501    0  0.00000000000E+00  0.00000000000E+00  0.14879255852E+04  0.14879255852E+04  0.00000000000E+00 0. -1.
         -2   -1    0    0    0  501 -0.00000000000E+00 -0.00000000000E+00 -0.34400523979E+03  0.34400523979E+03  0.00000000000E+00 0.  1.
        -24    2    1    2    0    0 -0.21309674638E+03  0.27319122267E+03  0.14606796392E+03  0.38482910975E+03  0.81938551170E+02 0.  0.
        254    2    1    2    0    0  0.21309674638E+03 -0.27319122267E+03  0.99785238150E+03  0.14471017152E+04  0.98911593433E+03 0.  0.
         23    2    4    4    0    0  0.41614850424E+03 -0.35233617881E+03  0.15812453466E+03  0.57478518398E+03  0.89745633807E+02 0.  0.
         23    2    4    4    0    0 -0.20305175785E+03  0.79144956137E+02  0.83972784684E+03  0.87231653127E+03  0.91100677877E+02 0.  0.
          3    1    3    3  502    0 -0.69398407602E+02  0.10698744480E+03  0.13536069935E+02  0.12824070146E+03  0.00000000000E+00 0. -1.
         -4    1    3    3    0  502 -0.14369833878E+03  0.16620377787E+03  0.13253189398E+03  0.25658840829E+03  0.00000000000E+00 0.  1.
         13    1    5    5    0    0  0.30203524505E+03 -0.29759058733E+03  0.14220426845E+03  0.44722198167E+03  0.00000000000E+00 0.  1.
        -13    1    5    5    0    0  0.11411325919E+03 -0.54745591473E+02  0.15920266209E+02  0.12756320231E+03  0.00000000000E+00 0. -1.
          1    1    6    6  503    0 -0.67295420998E+02  0.18127339262E+02  0.13374094231E+03  0.15081085427E+03  0.00000000000E+00 0. -1.
         -1    1    6    6    0  503 -0.13575633685E+03  0.61017616875E+02  0.70598690454E+03  0.72150567700E+03  0.00000000000E+00 0.  1.
<mgrwt>
<rscale>  0 0.14308797E+04</rscale>
<asrwt>0</asrwt>
<pdfrwt beam="1">  1        1 0.22891163E+00 0.14308797E+04</pdfrwt>
<pdfrwt beam="2">  1       -2 0.52923884E-01 0.14308797E+04</pdfrwt>
<totfact> 0.19166076E+01</totfact>
</mgrwt>
</event>
<event>
12    5  0.5095719E-008  0.2196413E+04  0.7818608E-02  0.8519923E-01
          1   -1    0    0  501    0  0.00000000000E+00  0.00000000000E+00  0.15353526416E+04  0.15353526416E+04  0.00000000000E+00 0. -1.
         -2   -1    0    0    0  501 -0.00000000000E+00 -0.00000000000E+00 -0.78552469341E+03  0.78552469341E+03  0.00000000000E+00 0.  1.
        -24    2    1    2    0    0 -0.34891566980E+03 -0.83936476038E+03  0.25839591365E+03  0.94836695226E+03  0.79725042170E+02 0.  0.
        254    2    1    2    0    0  0.34891566980E+03  0.83936476038E+03  0.49143203450E+03  0.13725103827E+04  0.90332937543E+03 0.  0.
         23    2    4    4    0    0 -0.28030445333E+03  0.12954777149E+03  0.19115502565E+03  0.37319959333E+03  0.85933002854E+02 0.  0.
         23    2    4    4    0    0  0.62922012313E+03  0.70981698889E+03  0.30027700885E+03  0.99931078938E+03  0.93261195811E+02 0.  0.
          3    1    3    3  502    0 -0.12539590360E+03 -0.40093758520E+03  0.10729974895E+03  0.43357619399E+03  0.00000000000E+00 0. -1.
         -4    1    3    3    0  502 -0.22351976620E+03 -0.43842717518E+03  0.15109616470E+03  0.51479075828E+03  0.00000000000E+00 0.  1.
         13    1    5    5    0    0 -0.28264499433E+03  0.13600016198E+03  0.18693938044E+03  0.36514458621E+03  0.00000000000E+00 0.  1.
        -13    1    5    5    0    0  0.23405410009E+01 -0.64523904922E+01  0.42156452081E+01  0.80550071236E+01  0.00000000000E+00 0. -1.
          3    1    6    6  503    0  0.80928382058E+02  0.69347489795E+02  0.75844306311E+01  0.10684568757E+03  0.00000000000E+00 0. -1.
         -3    1    6    6    0  503  0.54829174107E+03  0.64046949910E+03  0.29269257822E+03  0.89246510181E+03  0.00000000000E+00 0.  1.
<mgrwt>
<rscale>  0 0.21964129E+04</rscale>
<asrwt>0</asrwt>
<pdfrwt beam="1">  1        1 0.23620810E+00 0.21964129E+04</pdfrwt>
<pdfrwt beam="2">  1       -2 0.12084995E+00 0.21964129E+04</pdfrwt>
<totfact> 0.25830903E+00</totfact>
</mgrwt>
</event>
<event>
12    5  0.5095719E-008  0.1473903E+04  0.7818608E-02  0.8901995E-01
          1   -1    0    0  501    0  0.00000000000E+00  0.00000000000E+00  0.66666624273E+03  0.66666624273E+03  0.00000000000E+00 0. -1.
         -2   -1    0    0    0  501 -0.00000000000E+00 -0.00000000000E+00 -0.81464709963E+03  0.81464709963E+03  0.00000000000E+00 0.  1.
        -24    2    1    2    0    0 -0.39767982988E+03 -0.13617541083E+03 -0.38845072637E+03  0.57787071584E+03  0.79671875834E+02 0.  0.
        254    2    1    2    0    0  0.39767982988E+03  0.13617541083E+03  0.24046986946E+03  0.90344262652E+03  0.76268593254E+03 0.  0.
         23    2    4    4    0    0  0.48926093127E+03 -0.17617325786E+03  0.10432222316E+03  0.53851513472E+03  0.93285306585E+02 0.  0.
         23    2    4    4    0    0 -0.91581101391E+02  0.31234866869E+03  0.13614764630E+03  0.36492749180E+03  0.93204633543E+02 0.  0.
          3    1    3    3  502    0 -0.11123165077E+02 -0.22171370331E+02 -0.23452467267E+02  0.34136676531E+02  0.00000000000E+00 0. -1.
         -4    1    3    3    0  502 -0.38655666481E+03 -0.11400404050E+03 -0.36499825910E+03  0.54373403931E+03  0.00000000000E+00 0.  1.
         13    1    5    5    0    0  0.33230130742E+02 -0.32359593461E+02  0.28313387315E+02  0.54341814281E+02  0.00000000000E+00 0.  1.
        -13    1    5    5    0    0  0.45603080053E+03 -0.14381366440E+03  0.76008835844E+02  0.48417332044E+03  0.00000000000E+00 0. -1.
          4    1    6    6  503    0 -0.87225596315E+02  0.16146638341E+03  0.10276912793E+03  0.21033590107E+03  0.00000000000E+00 0. -1.
         -4    1    6    6    0  503 -0.43555050757E+01  0.15088228528E+03  0.33378518374E+02  0.15459159073E+03  0.00000000000E+00 0.  1.
<mgrwt>
<rscale>  0 0.14739033E+04</rscale>
<asrwt>0</asrwt>
<pdfrwt beam="1">  1        1 0.10256404E+00 0.14739033E+04</pdfrwt>
<pdfrwt beam="2">  1       -2 0.12533032E+00 0.14739033E+04</pdfrwt>
<totfact> 0.11851237E+01</totfact>
</mgrwt>
</event>
<event>
12    5  0.5095719E-008  0.1733342E+04  0.7818608E-02  0.8742573E-01
         -2   -1    0    0    0  501 -0.00000000000E+00  0.00000000000E+00  0.44334982688E+03  0.44334982688E+03  0.00000000000E+00 0.  1.
          1   -1    0    0  501    0  0.00000000000E+00 -0.00000000000E+00 -0.16941892874E+04  0.16941892874E+04  0.00000000000E+00 0. -1.
        -24    2    1    2    0    0 -0.51151780619E+03  0.87686238589E+01 -0.91118985716E+03  0.10478478835E+04  0.77400751235E+02 0.  0.
        254    2    1    2    0    0  0.51151780619E+03 -0.87686238589E+01 -0.33964960336E+03  0.10896912308E+04  0.90018763078E+03 0.  0.
         23    2    4    4    0    0  0.14795049846E+03 -0.69092454889E+01 -0.60565097532E+03  0.63029957117E+03  0.92343694078E+02 0.  0.
         23    2    4    4    0    0  0.36356730773E+03 -0.18593783700E+01  0.26600137197E+03  0.45939165963E+03  0.89996236121E+02 0.  0.
          3    1    3    3  502    0 -0.35633258066E+03 -0.19353034911E+02 -0.68061826696E+03  0.76849767294E+03  0.00000000000E+00 0. -1.
         -4    1    3    3    0  502 -0.15518522553E+03  0.28121658770E+02 -0.23057159020E+03  0.27935021053E+03  0.00000000000E+00 0.  1.
         13    1    5    5    0    0  0.13038746107E+03 -0.18559795429E+02 -0.58870194746E+03  0.60325395892E+03  0.00000000000E+00 0. -1.
        -13    1    5    5    0    0  0.17563037389E+02  0.11650549940E+02 -0.16949027861E+02  0.27045612244E+02  0.00000000000E+00 0.  1.
          2    1    6    6  503    0 -0.51183071707E+01 -0.19957726268E+01  0.66370280629E+01  0.86157018391E+01  0.00000000000E+00 0.  1.
         -2    1    6    6    0  503  0.36868561490E+03  0.13639425684E+00  0.25936434390E+03  0.45077595779E+03  0.00000000000E+00 0. -1.
<mgrwt>
<rscale>  0 0.17333419E+04</rscale>
<asrwt>0</asrwt>
<pdfrwt beam="1">  1        1 0.26064451E+00 0.17333419E+04</pdfrwt>
<pdfrwt beam="2">  1       -2 0.68207666E-01 0.17333419E+04</pdfrwt>
<totfact> 0.78806446E+00</totfact>
</mgrwt>
</event>
<event>
12    5  0.5095719E-008  0.1161712E+04  0.7818608E-02  0.9147047E-01
         -2   -1    0    0    0  501 -0.00000000000E+00  0.00000000000E+00  0.68529393700E+03  0.68529393700E+03  0.00000000000E+00 0.  1.
          1   -1    0    0  501    0  0.00000000000E+00 -0.00000000000E+00 -0.49233394377E+03  0.49233394377E+03  0.00000000000E+00 0. -1.
        -24    2    1    2    0    0  0.47093478100E+02  0.16951999708E+03 -0.95257075882E+02  0.21489333035E+03  0.78424535917E+02 0.  0.
        254    2    1    2    0    0 -0.47093478100E+02 -0.16951999708E+03  0.28821706911E+03  0.96273455042E+03  0.90157302009E+03 0.  0.
         23    2    4    4    0    0  0.12508322706E+03  0.27965194158E+03 -0.10351297811E+03  0.33597454692E+03  0.91175311476E+02 0.  0.
         23    2    4    4    0    0 -0.17217670516E+03 -0.44917193865E+03  0.39173004722E+03  0.62676000350E+03  0.89305228379E+02 0.  0.
          1    1    3    3  502    0  0.62877738348E+02  0.80555354055E+02 -0.53706604925E+02  0.11544338205E+03  0.00000000000E+00 0. -1.
         -2    1    3    3    0  502 -0.15784260248E+02  0.88964643022E+02 -0.41550470958E+02  0.99449948297E+02  0.00000000000E+00 0.  1.
         13    1    5    5    0    0  0.10003510394E+03  0.23555380570E+03 -0.47272929945E+02  0.26024478344E+03  0.00000000000E+00 0.  1.
        -13    1    5    5    0    0  0.25048123119E+02  0.44098135873E+02 -0.56240048168E+02  0.75729763483E+02  0.00000000000E+00 0. -1.
          4    1    6    6  503    0 -0.90511007745E+02 -0.19778251982E+03  0.23156553344E+03  0.31769917209E+03  0.00000000000E+00 0. -1.
         -4    1    6    6    0  503 -0.81665697418E+02 -0.25138941883E+03  0.16016451378E+03  0.30906083141E+03  0.00000000000E+00 0.  1.
<mgrwt>
<rscale>  0 0.11617116E+04</rscale>
<asrwt>0</asrwt>
<pdfrwt beam="1">  1        1 0.75743684E-01 0.11617116E+04</pdfrwt>
<pdfrwt beam="2">  1       -2 0.10542984E+00 0.11617116E+04</pdfrwt>
<totfact> 0.28600676E+01</totfact>
</mgrwt>
</event>
<event>
12    5  0.5095719E-008  0.1569699E+04  0.7818608E-02  0.8839383E-01
         -2   -1    0    0    0  501 -0.00000000000E+00  0.00000000000E+00  0.25073471497E+03  0.25073471497E+03  0.00000000000E+00 0.  1.
          1   -1    0    0  501    0  0.00000000000E+00 -0.00000000000E+00 -0.24567338059E+04  0.24567338059E+04  0.00000000000E+00 0. -1.
        -24    2    1    2    0    0 -0.37284525045E+03  0.29866109921E+03 -0.10760046821E+04  0.11800293733E+04  0.80443850476E+02 0.  0.
        254    2    1    2    0    0  0.37284525045E+03 -0.29866109921E+03 -0.11299944088E+04  0.15274391475E+04  0.90992909197E+03 0.  0.
         23    2    4    4    0    0  0.41454926030E+03 -0.51826129430E+03 -0.45214081024E+03  0.80799137718E+03  0.89291068628E+02 0.  0.
         23    2    4    4    0    0 -0.41704009852E+02  0.21960019509E+03 -0.67785359853E+03  0.71944777029E+03  0.90311256288E+02 0.  0.
          3    1    3    3  502    0 -0.36190136809E+03  0.26706147605E+03 -0.97771971317E+03  0.10762110712E+04  0.00000000000E+00 0. -1.
         -4    1    3    3    0  502 -0.10943882356E+02  0.31599623161E+02 -0.98284968933E+02  0.10381830216E+03  0.00000000000E+00 0.  1.
         13    1    5    5    0    0  0.24000836386E+03 -0.35338801201E+03 -0.32152094233E+03  0.53466140510E+03  0.00000000000E+00 0.  1.
        -13    1    5    5    0    0  0.17454089644E+03 -0.16487328229E+03 -0.13061986791E+03  0.27332997208E+03  0.00000000000E+00 0. -1.
          1    1    6    6  503    0 -0.36402760718E+02  0.96629054603E+02 -0.43617556914E+03  0.44823148294E+03  0.00000000000E+00 0. -1.
         -1    1    6    6    0  503 -0.53012491337E+01  0.12297114049E+03 -0.24167802939E+03  0.27121628735E+03  0.00000000000E+00 0.  1.
<mgrwt>
<rscale>  0 0.15696986E+04</rscale>
<asrwt>0</asrwt>
<pdfrwt beam="1">  1        1 0.37795905E+00 0.15696986E+04</pdfrwt>
<pdfrwt beam="2">  1       -2 0.38574571E-01 0.15696986E+04</pdfrwt>
<totfact> 0.77998358E+00</totfact>
</mgrwt>
</event>
<event>
12    5  0.5095719E-008  0.2108508E+04  0.7818608E-02  0.8557505E-01
          1   -1    0    0  501    0  0.00000000000E+00  0.00000000000E+00  0.22324259077E+04  0.22324259077E+04  0.00000000000E+00 0. -1.
         -2   -1    0    0    0  501 -0.00000000000E+00 -0.00000000000E+00 -0.49786710883E+03  0.49786710883E+03  0.00000000000E+00 0.  1.
        -24    2    1    2    0    0 -0.39679183240E+03  0.30833377480E+03  0.15545635716E+04  0.16355561156E+04  0.76566534557E+02 0.  0.
        254    2    1    2    0    0  0.39679183240E+03 -0.30833377480E+03  0.17999522734E+03  0.10947369010E+04  0.95579136090E+03 0.  0.
         23    2    4    4    0    0  0.12575849798E+03  0.68907913997E+02  0.49783634413E+03  0.52448609950E+03  0.81738256635E+02 0.  0.
         23    2    4    4    0    0  0.27103333441E+03 -0.37724168880E+03 -0.31784111680E+03  0.57025080149E+03  0.91611358155E+02 0.  0.
          1    1    3    3  502    0 -0.21626147526E+03  0.21531192961E+03  0.92203794834E+03  0.97122717779E+03  0.00000000000E+00 0. -1.
         -4    1    3    3    0  502 -0.18053035713E+03  0.93021845192E+02  0.63252562324E+03  0.66432893779E+03  0.00000000000E+00 0.  1.
         13    1    5    5    0    0  0.24019451387E+02 -0.10836880372E+02  0.34246107437E+02  0.43210738199E+02  0.00000000000E+00 0. -1.
        -13    1    5    5    0    0  0.10173904660E+03  0.79744794369E+02  0.46359023670E+03  0.48127536130E+03  0.00000000000E+00 0.  1.
          3    1    6    6  503    0  0.12268411137E+03 -0.23380620463E+03 -0.14599793669E+03  0.30171531288E+03  0.00000000000E+00 0. -1.
         -3    1    6    6    0  503  0.14834922304E+03 -0.14343548417E+03 -0.17184318010E+03  0.26853548861E+03  0.00000000000E+00 0.  1.
<mgrwt>
<rscale>  0 0.21085079E+04</rscale>
<asrwt>0</asrwt>
<pdfrwt beam="1">  1        1 0.34345013E+00 0.21085079E+04</pdfrwt>
<pdfrwt beam="2">  1       -2 0.76594941E-01 0.21085079E+04</pdfrwt>
<totfact> 0.25468466E+00</totfact>
</mgrwt>
</event>
<event>
12    5  0.5095719E-008  0.1879053E+04  0.7818608E-02  0.8665354E-01
          1   -1    0    0  501    0  0.00000000000E+00  0.00000000000E+00  0.10093169866E+04  0.10093169866E+04  0.00000000000E+00 0. -1.
         -2   -1    0    0    0  501 -0.00000000000E+00 -0.00000000000E+00 -0.87456186761E+03  0.87456186761E+03  0.00000000000E+00 0.  1.
        -24    2    1    2    0    0  0.14962597864E+03  0.42880320608E+03  0.62395881382E+03  0.77628402307E+03  0.83857975801E+02 0.  0.
        254    2    1    2    0    0 -0.14962597864E+03 -0.42880320608E+03 -0.48920369482E+03  0.11075948311E+04  0.88384723335E+03 0.  0.
         23    2    4    4    0    0  0.30691381705E+03 -0.16524627113E+03  0.26879828221E+02  0.36406782520E+03  0.10158954159E+03 0.  0.
         23    2    4    4    0    0 -0.45653979569E+03 -0.26355693495E+03 -0.51608352305E+03  0.74352700594E+03  0.92732749279E+02 0.  0.
          1    1    3    3  502    0  0.10860788636E+03  0.38118083453E+03  0.50735433617E+03  0.64381901496E+03  0.00000000000E+00 0. -1.
         -2    1    3    3    0  502  0.41018092287E+02  0.47622371554E+02  0.11660447765E+03  0.13246500812E+03  0.00000000000E+00 0.  1.
         13    1    5    5    0    0  0.85890947088E+02 -0.15719490516E+02  0.41786050033E+02  0.96800987346E+02  0.00000000000E+00 0. -1.
        -13    1    5    5    0    0  0.22102286996E+03 -0.14952678062E+03 -0.14906221812E+02  0.26726683785E+03  0.00000000000E+00 0.  1.
          4    1    6    6  503    0 -0.30170706416E+03 -0.18289711669E+03 -0.40252265258E+03  0.53525974414E+03  0.00000000000E+00 0. -1.
         -4    1    6    6    0  503 -0.15483273153E+03 -0.80659818258E+02 -0.11356087046E+03  0.20826726179E+03  0.00000000000E+00 0.  1.
<mgrwt>
<rscale>  0 0.18790531E+04</rscale>
<asrwt>0</asrwt>
<pdfrwt beam="1">  1        1 0.15527954E+00 0.18790531E+04</pdfrwt>
<pdfrwt beam="2">  1       -2 0.13454798E+00 0.18790531E+04</pdfrwt>
<totfact> 0.48646489E+00</totfact>
</mgrwt>
</event>
<event>
12    5  0.5095719E-008  0.2506164E+04  0.7818608E-02  0.8400793E-01
          1   -1    0    0  501    0  0.00000000000E+00  0.00000000000E+00  0.24822694952E+04  0.24822694952E+04  0.00000000000E+00 0. -1.
         -2   -1    0    0    0  501 -0.00000000000E+00 -0.00000000000E+00 -0.63257201045E+03  0.63257201045E+03  0.00000000000E+00 0.  1.
        -24    2    1    2    0    0 -0.79190773611E+03  0.42693585664E+03  0.40295525629E+02  0.90399295569E+03  0.78660322542E+02 0.  0.
        254    2    1    2    0    0  0.79190773611E+03 -0.42693585664E+03  0.18094019591E+04  0.22108485500E+04  0.89695249205E+03 0.  0.
         23    2    4    4    0    0  0.58881973917E+03 -0.34305444294E+03  0.18449504507E+04  0.19689045080E+04  0.91366077265E+02 0.  0.
         23    2    4    4    0    0  0.20308799694E+03 -0.83881413704E+02 -0.35548491541E+02  0.24194404198E+03  0.94828255990E+02 0.  0.
          3    1    3    3  502    0 -0.12794698918E+03  0.98585043414E+02 -0.78710376255E+01  0.16171393279E+03  0.00000000000E+00 0. -1.
         -4    1    3    3    0  502 -0.66396074693E+03  0.32835081323E+03  0.48166563255E+02  0.74227902290E+03  0.00000000000E+00 0.  1.
         13    1    5    5    0    0  0.41695877075E+02 -0.22943415960E+00  0.12401154854E+03  0.13083372263E+03  0.00000000000E+00 0. -1.
        -13    1    5    5    0    0  0.54712386210E+03 -0.34282500878E+03  0.17209389021E+04  0.18380707854E+04  0.00000000000E+00 0.  1.
          1    1    6    6  503    0  0.72123889072E+01 -0.27560287297E+02  0.14659559550E+02  0.32038893175E+02  0.00000000000E+00 0. -1.
         -1    1    6    6    0  503  0.19587560803E+03 -0.56321126406E+02 -0.50208051091E+02  0.20990514881E+03  0.00000000000E+00 0.  1.
<mgrwt>
<rscale>  0 0.25061638E+04</rscale>
<asrwt>0</asrwt>
<pdfrwt beam="1">  1        1 0.38188761E+00 0.25061638E+04</pdfrwt>
<pdfrwt beam="2">  1       -2 0.97318772E-01 0.25061638E+04</pdfrwt>
<totfact> 0.95796434E-01</totfact>
</mgrwt>
</event>
<event>
12    5  0.5095719E-008  0.2347318E+04  0.7818608E-02  0.8459495E-01
          1   -1    0    0  501    0  0.00000000000E+00  0.00000000000E+00  0.13938188178E+04  0.13938188178E+04  0.00000000000E+00 0. -1.
         -2   -1    0    0    0  501 -0.00000000000E+00 -0.00000000000E+00 -0.98827437686E+03  0.98827437686E+03  0.00000000000E+00 0.  1.
        -24    2    1    2    0    0  0.56662991611E+02  0.99008677600E+03 -0.50433957572E+01  0.99501236819E+03  0.80880519211E+02 0.  0.
        254    2    1    2    0    0 -0.56662991611E+02 -0.99008677600E+03  0.41058783671E+03  0.13870808265E+04  0.87859451906E+03 0.  0.
         23    2    4    4    0    0 -0.39650635422E+03 -0.69719106076E+03  0.45599248416E+03  0.92715551598E+03  0.91627185159E+02 0.  0.
         23    2    4    4    0    0  0.33984336261E+03 -0.29289571524E+03 -0.45404647452E+02  0.45992531050E+03  0.90489215466E+02 0.  0.
          1    1    3    3  502    0 -0.15374654131E+02  0.79988759112E+02  0.90884191553E+01  0.81958409798E+02  0.00000000000E+00 0. -1.
         -2    1    3    3    0  502  0.72037645742E+02  0.91009801689E+03 -0.14131814913E+02  0.91305395840E+03  0.00000000000E+00 0.  1.
         13    1    5    5    0    0 -0.33542304842E+03 -0.63698397321E+03  0.38866361586E+03  0.81811772370E+03  0.00000000000E+00 0.  1.
        -13    1    5    5    0    0 -0.61083305801E+02 -0.60207087555E+02  0.67328868306E+02  0.10903779229E+03  0.00000000000E+00 0. -1.
          2    1    6    6  503    0  0.27231448455E+03 -0.27134576089E+03 -0.21155158247E+02  0.38500810533E+03  0.00000000000E+00 0. -1.
         -2    1    6    6    0  503  0.67528878054E+02 -0.21549954347E+02 -0.24249489204E+02  0.74917205168E+02  0.00000000000E+00 0.  1.
<mgrwt>
<rscale>  0 0.23473180E+04</rscale>
<asrwt>0</asrwt>
<pdfrwt beam="1">  1        1 0.21443366E+00 0.23473180E+04</pdfrwt>
<pdfrwt beam="2">  1       -2 0.15204221E+00 0.23473180E+04</pdfrwt>
<totfact> 0.17724221E+00</totfact>
</mgrwt>
</event>
<event>
12    5  0.5095719E-008  0.1628905E+04  0.7818608E-02  0.8802985E-01
         -2   -1    0    0    0  501 -0.00000000000E+00  0.00000000000E+00  0.29857232028E+03  0.29857232028E+03  0.00000000000E+00 0.  1.
          1   -1    0    0  501    0  0.00000000000E+00 -0.00000000000E+00 -0.22216823261E+04  0.22216823261E+04  0.00000000000E+00 0. -1.
        -24    2    1    2    0    0  0.55127118359E+03 -0.10754053835E+03 -0.81866378746E+03  0.99600158530E+03  0.79648451256E+02 0.  0.
        254    2    1    2    0    0 -0.55127118359E+03  0.10754053835E+03 -0.11044462184E+04  0.15242530611E+04  0.88773929714E+03 0.  0.
         23    2    4    4    0    0 -0.95485489972E+02  0.24422666423E+03 -0.98772219123E+03  0.10262626065E+04  0.94104559267E+02 0.  0.
         23    2    4    4    0    0 -0.45578569362E+03 -0.13668612588E+03 -0.11672402714E+03  0.49799045461E+03  0.89142015087E+02 0.  0.
          1    1    3    3  502    0  0.39482534959E+03 -0.51280137074E+02 -0.62158882994E+03  0.73816622968E+03  0.00000000000E+00 0. -1.
         -2    1    3    3    0  502  0.15644583400E+03 -0.56260401273E+02 -0.19707495751E+03  0.25783535562E+03  0.00000000000E+00 0.  1.
         13    1    5    5    0    0 -0.94486891725E+02  0.16547168740E+03 -0.80579388968E+03  0.82801717657E+03  0.00000000000E+00 0. -1.
        -13    1    5    5    0    0 -0.99859824729E+00  0.78754976829E+02 -0.18192830154E+03  0.19824542990E+03  0.00000000000E+00 0.  1.
          2    1    6    6  503    0 -0.29631304325E+03 -0.69149194129E+02 -0.34329400832E+02  0.30620505941E+03  0.00000000000E+00 0. -1.
         -2    1    6    6    0  503 -0.15947265037E+03 -0.67536931752E+02 -0.82394626306E+02  0.19178539519E+03  0.00000000000E+00 0.  1.
<mgrwt>
<rscale>  0 0.16289050E+04</rscale>
<asrwt>0</asrwt>
<pdfrwt beam="1">  1        1 0.34179727E+00 0.16289050E+04</pdfrwt>
<pdfrwt beam="2">  1       -2 0.45934204E-01 0.16289050E+04</pdfrwt>
<totfact> 0.79604209E+00</totfact>
</mgrwt>
</event>
<event>
12    5  0.5095719E-008  0.3901413E+04  0.7818608E-02  0.8024735E-01
          1   -1    0    0  501    0  0.00000000000E+00  0.00000000000E+00  0.20670776803E+04  0.20670776803E+04  0.00000000000E+00 0. -1.
         -2   -1    0    0    0  501 -0.00000000000E+00 -0.00000000000E+00 -0.18408865399E+04  0.18408865399E+04  0.00000000000E+00 0.  1.
        -24    2    1    2    0    0  0.16266650537E+04 -0.15797169870E+03  0.98524044605E+03  0.19100218848E+04  0.80564316296E+02 0.  0.
        254    2    1    2    0    0 -0.16266650537E+04  0.15797169870E+03 -0.75904930567E+03  0.19979423355E+04  0.86291568122E+03 0.  0.
         23    2    4    4    0    0 -0.31052602624E+03  0.25743984803E+03 -0.50142269259E+03  0.65011174083E+03  0.92297728007E+02 0.  0.
         23    2    4    4    0    0 -0.13161390275E+04 -0.99468149322E+02 -0.25762661309E+03  0.13478305947E+04  0.90332650445E+02 0.  0.
          3    1    3    3  502    0  0.14425280158E+04 -0.12940837591E+03  0.89939421904E+03  0.17048588110E+04  0.00000000000E+00 0. -1.
         -4    1    3    3    0  502  0.18413703794E+03 -0.28563322796E+02  0.85846227012E+02  0.20516307378E+03  0.00000000000E+00 0.  1.
         13    1    5    5    0    0 -0.20311336726E+03  0.21196454818E+03 -0.39552428892E+03  0.49256824174E+03  0.00000000000E+00 0.  1.
        -13    1    5    5    0    0 -0.10741265898E+03  0.45475299842E+02 -0.10589840367E+03  0.15754349909E+03  0.00000000000E+00 0. -1.
          4    1    6    6  503    0 -0.38304947059E+03  0.34001614607E+01 -0.49013443041E+02  0.38618748765E+03  0.00000000000E+00 0. -1.
         -4    1    6    6    0  503 -0.93308955691E+03 -0.10286831078E+03 -0.20861317005E+03  0.96164310703E+03  0.00000000000E+00 0.  1.
<mgrwt>
<rscale>  0 0.39014128E+04</rscale>
<asrwt>0</asrwt>
<pdfrwt beam="1">  1        1 0.31801195E+00 0.39014128E+04</pdfrwt>
<pdfrwt beam="2">  1       -2 0.28321331E+00 0.39014128E+04</pdfrwt>
<totfact> 0.74923098E-02</totfact>
</mgrwt>
</event>
<event>
12    5  0.5095719E-008  0.2560395E+04  0.7818608E-02  0.8381780E-01
          1   -1    0    0  501    0  0.00000000000E+00  0.00000000000E+00  0.22678127219E+04  0.22678127219E+04  0.00000000000E+00 0. -1.
         -2   -1    0    0    0  501 -0.00000000000E+00 -0.00000000000E+00 -0.72268118109E+03  0.72268118109E+03  0.00000000000E+00 0.  1.
        -24    2    1    2    0    0 -0.90995149981E+03  0.56816571829E+03  0.29267211168E+03  0.11150474895E+04  0.82764264370E+02 0.  0.
        254    2    1    2    0    0  0.90995149981E+03 -0.56816571829E+03  0.12524594291E+04  0.18754464135E+04  0.89320804561E+03 0.  0.
         23    2    4    4    0    0 -0.10591656964E+03 -0.27420692880E+03  0.14227813706E+03  0.33949483325E+03  0.92768065601E+02 0.  0.
         23    2    4    4    0    0  0.10158680695E+04 -0.29395878949E+03  0.11101812920E+04  0.15359515802E+04  0.90802263573E+02 0.  0.
          3    1    3    3  502    0 -0.89248695477E+02  0.29252997564E+02  0.19419532887E+02  0.95907172664E+02  0.00000000000E+00 0. -1.
         -4    1    3    3    0  502 -0.82070280433E+03  0.53891272072E+03  0.27325257879E+03  0.10191403168E+04  0.00000000000E+00 0.  1.
         13    1    5    5    0    0  0.87812092291E+01 -0.25377480614E+02  0.37562073416E+02  0.46173970126E+02  0.00000000000E+00 0.  1.
        -13    1    5    5    0    0 -0.11469777887E+03 -0.24882944818E+03  0.10471606365E+03  0.29332086313E+03  0.00000000000E+00 0. -1.
          1    1    6    6  503    0  0.10163538644E+04 -0.29371028360E+03  0.11115181924E+04  0.15345076085E+04  0.00000000000E+00 0. -1.
         -1    1    6    6    0  503 -0.48579498585E+00 -0.24850588957E+00 -0.13369003189E+01  0.14439717477E+01  0.00000000000E+00 0.  1.
<mgrwt>
<rscale>  0 0.25603950E+04</rscale>
<asrwt>0</asrwt>
<pdfrwt beam="1">  1        1 0.34889426E+00 0.25603950E+04</pdfrwt>
<pdfrwt beam="2">  1       -2 0.11118172E+00 0.25603950E+04</pdfrwt>
<totfact> 0.97371445E-01</totfact>
</mgrwt>
</event>
<event>
12    5  0.5095719E-008  0.1394425E+04  0.7818608E-02  0.8957864E-01
         -2   -1    0    0    0  501 -0.00000000000E+00  0.00000000000E+00  0.21135564782E+03  0.21135564782E+03  0.00000000000E+00 0.  1.
          1   -1    0    0  501    0  0.00000000000E+00 -0.00000000000E+00 -0.22999400022E+04  0.22999400022E+04  0.00000000000E+00 0. -1.
        -24    2    1    2    0    0 -0.36686853426E+03 -0.44552166276E+01 -0.29220143727E+03  0.47591031547E+03  0.80601352581E+02 0.  0.
        254    2    1    2    0    0  0.36686853426E+03  0.44552166276E+01 -0.17963829172E+04  0.20353853346E+04  0.88384925461E+03 0.  0.
         23    2    4    4    0    0  0.46633440971E+03  0.39590243006E+02 -0.18340625038E+04  0.18950457965E+04  0.91532146848E+02 0.  0.
         23    2    4    4    0    0 -0.99465875454E+02 -0.35135026378E+02  0.37679586679E+02  0.14033953808E+03  0.84542913595E+02 0.  0.
          1    1    3    3  502    0 -0.27604629296E+03  0.10782083570E+02 -0.17565939365E+03  0.32737445190E+03  0.00000000000E+00 0. -1.
         -2    1    3    3    0  502 -0.90822241303E+02 -0.15237300198E+02 -0.11654204362E+03  0.14853586356E+03  0.00000000000E+00 0.  1.
         13    1    5    5    0    0  0.40792229083E+03  0.19988556391E+02 -0.14644671150E+04  0.15203499823E+04  0.00000000000E+00 0. -1.
        -13    1    5    5    0    0  0.58412118881E+02  0.19601686615E+02 -0.36959538880E+03  0.37469581419E+03  0.00000000000E+00 0.  1.
          2    1    6    6  503    0 -0.61382713652E+02 -0.46888951467E+02 -0.10343498643E+02  0.77932016970E+02  0.00000000000E+00 0. -1.
         -2    1    6    6    0  503 -0.38083161802E+02  0.11753925089E+02  0.48023085321E+02  0.62407521114E+02  0.00000000000E+00 0.  1.
<mgrwt>
<rscale>  0 0.13944251E+04</rscale>
<asrwt>0</asrwt>
<pdfrwt beam="1">  1        1 0.35383693E+00 0.13944251E+04</pdfrwt>
<pdfrwt beam="2">  1       -2 0.32516253E-01 0.13944251E+04</pdfrwt>
<totfact> 0.14082421E+01</totfact>
</mgrwt>
</event>
<event>
12    5  0.5095719E-008  0.2899695E+04  0.7818608E-02  0.8272968E-01
         -2   -1    0    0    0  501 -0.00000000000E+00  0.00000000000E+00  0.16359620255E+04  0.16359620255E+04  0.00000000000E+00 0.  1.
          1   -1    0    0  501    0  0.00000000000E+00 -0.00000000000E+00 -0.12849064435E+04  0.12849064435E+04  0.00000000000E+00 0. -1.
        -24    2    1    2    0    0 -0.12697873980E+04  0.31368215137E+03  0.12872491194E+03  0.13166288737E+04  0.78644515711E+02 0.  0.
        254    2    1    2    0    0  0.12697873980E+04 -0.31368215137E+03  0.22233067011E+03  0.16042395953E+04  0.90188537187E+03 0.  0.
         23    2    4    4    0    0 -0.85963580092E+02  0.10696955813E+03 -0.14924686054E+01  0.16429526367E+03  0.90324319724E+02 0.  0.
         23    2    4    4    0    0  0.13557509781E+04 -0.42065170950E+03  0.22382313872E+03  0.14399443316E+04  0.91292416939E+02 0.  0.
          1    1    3    3  502    0 -0.27314963740E+03  0.43707374782E+02  0.49690009159E+02  0.28105187427E+03  0.00000000000E+00 0. -1.
         -2    1    3    3    0  502 -0.99663776064E+03  0.26997477659E+03  0.79034902779E+02  0.10355769994E+04  0.00000000000E+00 0.  1.
         13    1    5    5    0    0 -0.63427313893E+02  0.92518264855E+02  0.36372452072E+02  0.11792204522E+03  0.00000000000E+00 0. -1.
        -13    1    5    5    0    0 -0.22536266199E+02  0.14451293275E+02 -0.37864920678E+02  0.46373218450E+02  0.00000000000E+00 0.  1.
          3    1    6    6  503    0  0.94131339752E+03 -0.31543468934E+03  0.19218755269E+03  0.10111903930E+04  0.00000000000E+00 0.  1.
         -3    1    6    6    0  503  0.41443758061E+03 -0.10521702017E+03  0.31635586033E+02  0.42875393859E+03  0.00000000000E+00 0. -1.
<mgrwt>
<rscale>  0 0.28996953E+04</rscale>
<asrwt>0</asrwt>
<pdfrwt beam="1">  1        1 0.19767791E+00 0.28996953E+04</pdfrwt>
<pdfrwt beam="2">  1       -2 0.25168647E+00 0.28996953E+04</pdfrwt>
<totfact> 0.43845954E-01</totfact>
</mgrwt>
</event>
<event>
12    5  0.5095719E-008  0.2593384E+04  0.7818608E-02  0.8370452E-01
         -2   -1    0    0    0  501 -0.00000000000E+00  0.00000000000E+00  0.65424993693E+03  0.65424993693E+03  0.00000000000E+00 0.  1.
          1   -1    0    0  501    0  0.00000000000E+00 -0.00000000000E+00 -0.25699807946E+04  0.25699807946E+04  0.00000000000E+00 0. -1.
        -24    2    1    2    0    0  0.48678248545E+02  0.96440307872E+03 -0.87707924926E+02  0.97292856671E+03  0.80339564885E+02 0.  0.
        254    2    1    2    0    0 -0.48678248545E+02 -0.96440307872E+03 -0.18280229327E+04  0.22513021648E+04  0.89120745313E+03 0.  0.
         23    2    4    4    0    0  0.31979581413E+03 -0.63827218275E+03 -0.64074970040E+03  0.96348573001E+03  0.89910129377E+02 0.  0.
         23    2    4    4    0    0 -0.36847406268E+03 -0.32613089598E+03 -0.11872732323E+04  0.12878164348E+04  0.81969173062E+02 0.  0.
          1    1    3    3  502    0 -0.14804478971E+02  0.60762041368E+02  0.24306738125E+01  0.62586791290E+02  0.00000000000E+00 0. -1.
         -2    1    3    3    0  502  0.63482727515E+02  0.90364103736E+03 -0.90138598739E+02  0.91034177542E+03  0.00000000000E+00 0.  1.
         13    1    5    5    0    0  0.36417145097E+02 -0.11517702057E+03 -0.14771267703E+03  0.19081663837E+03  0.00000000000E+00 0.  1.
        -13    1    5    5    0    0  0.28337866904E+03 -0.52309516218E+03 -0.49303702337E+03  0.77266909164E+03  0.00000000000E+00 0. -1.
          1    1    6    6  503    0 -0.21347173446E+03 -0.21849099550E+03 -0.64575549250E+03  0.71435891023E+03  0.00000000000E+00 0. -1.
         -1    1    6    6    0  503 -0.15500232822E+03 -0.10763990048E+03 -0.54151773983E+03  0.57345752456E+03  0.00000000000E+00 0.  1.
<mgrwt>
<rscale>  0 0.25933837E+04</rscale>
<asrwt>0</asrwt>
<pdfrwt beam="1">  1        1 0.39538166E+00 0.25933837E+04</pdfrwt>
<pdfrwt beam="2">  1       -2 0.10065384E+00 0.25933837E+04</pdfrwt>
<totfact> 0.76295671E-01</totfact>
</mgrwt>
</event>
<event>
12    5  0.5095719E-008  0.1157352E+04  0.7818608E-02  0.9151028E-01
         -2   -1    0    0    0  501 -0.00000000000E+00  0.00000000000E+00  0.31512114076E+03  0.31512114076E+03  0.00000000000E+00 0.  1.
          1   -1    0    0  501    0  0.00000000000E+00 -0.00000000000E+00 -0.10626568150E+04  0.10626568150E+04  0.00000000000E+00 0. -1.
        -24    2    1    2    0    0 -0.15212723098E+03 -0.39422687296E+00 -0.35641667810E+03  0.39457317774E+03  0.74244827077E+02 0.  0.
        254    2    1    2    0    0  0.15212723098E+03  0.39422687296E+00 -0.39111899616E+03  0.98320477802E+03  0.88914268627E+03 0.  0.
         23    2    4    4    0    0  0.59288816597E+02  0.39008613601E+03  0.17291170647E+02  0.40442910409E+03  0.87072144623E+02 0.  0.
         23    2    4    4    0    0  0.92838414385E+02 -0.38969190914E+03 -0.40841016680E+03  0.57877567393E+03  0.87770502764E+02 0.  0.
          3    1    3    3  502    0 -0.83333208699E+02  0.19117209570E+01 -0.27802049393E+03  0.29024726251E+03  0.00000000000E+00 0. -1.
         -4    1    3    3    0  502 -0.68794022283E+02 -0.23059478300E+01 -0.78396184163E+02  0.10432591523E+03  0.00000000000E+00 0.  1.
         13    1    5    5    0    0 -0.12182350522E+02  0.16912722409E+02  0.12773872117E+02  0.24446301405E+02  0.00000000000E+00 0.  1.
        -13    1    5    5    0    0  0.71471167119E+02  0.37317341360E+03  0.45172985300E+01  0.37998280268E+03  0.00000000000E+00 0. -1.
          3    1    6    6  503    0 -0.80140597757E+01 -0.14577531675E+03 -0.15325961039E+03  0.21166760807E+03  0.00000000000E+00 0. -1.
         -3    1    6    6    0  503  0.10085247416E+03 -0.24391659239E+03 -0.25515055641E+03  0.36710806587E+03  0.00000000000E+00 0.  1.
<mgrwt>
<rscale>  0 0.11573515E+04</rscale>
<asrwt>0</asrwt>
<pdfrwt beam="1">  1        1 0.16348566E+00 0.11573515E+04</pdfrwt>
<pdfrwt beam="2">  1       -2 0.48480176E-01 0.11573515E+04</pdfrwt>
<totfact> 0.47461720E+01</totfact>
</mgrwt>
</event>
<event>
12    5  0.5095719E-008  0.1542878E+04  0.7818608E-02  0.8856430E-01
         -2   -1    0    0    0  501 -0.00000000000E+00  0.00000000000E+00  0.41673931159E+03  0.41673931159E+03  0.00000000000E+00 0.  1.
          1   -1    0    0  501    0  0.00000000000E+00 -0.00000000000E+00 -0.14280346737E+04  0.14280346737E+04  0.00000000000E+00 0. -1.
        -24    2    1    2    0    0  0.11469594535E+03 -0.47240382776E+03 -0.20503022424E+03  0.53330385211E+03  0.77814326842E+02 0.  0.
        254    2    1    2    0    0 -0.11469594535E+03  0.47240382776E+03 -0.80626513783E+03  0.13114701331E+04  0.91300049358E+03 0.  0.
         23    2    4    4    0    0 -0.12410176988E+03 -0.16560084436E+03 -0.58735862151E+03  0.62923256271E+03  0.90103156270E+02 0.  0.
         23    2    4    4    0    0  0.94058245325E+01  0.63800467213E+03 -0.21890651632E+03  0.68223757043E+03  0.10192942867E+03 0.  0.
          3    1    3    3  502    0  0.23007232285E+02 -0.61512342617E+02 -0.15044478401E+01  0.65691433193E+02  0.00000000000E+00 0. -1.
         -4    1    3    3    0  502  0.91688713065E+02 -0.41089148515E+03 -0.20352577640E+03  0.46761241892E+03  0.00000000000E+00 0.  1.
         13    1    5    5    0    0 -0.49881612869E+02 -0.12333707364E+03 -0.43100654912E+03  0.45107300343E+03  0.00000000000E+00 0. -1.
        -13    1    5    5    0    0 -0.74220157014E+02 -0.42263770724E+02 -0.15635207239E+03  0.17815955928E+03  0.00000000000E+00 0.  1.
          2    1    6    6  503    0  0.18825065514E+02  0.43907962865E+03 -0.19789878518E+03  0.48198468083E+03  0.00000000000E+00 0. -1.
         -2    1    6    6    0  503 -0.94192409814E+01  0.19892504348E+03 -0.21007731145E+02  0.20025288960E+03  0.00000000000E+00 0.  1.
<mgrwt>
<rscale>  0 0.15428781E+04</rscale>
<asrwt>0</asrwt>
<pdfrwt beam="1">  1        1 0.21969764E+00 0.15428781E+04</pdfrwt>
<pdfrwt beam="2">  1       -2 0.64113741E-01 0.15428781E+04</pdfrwt>
<totfact> 0.13963896E+01</totfact>
</mgrwt>
</event>
<event>
12    5  0.5095719E-008  0.2348405E+04  0.7818608E-02  0.8459076E-01
          1   -1    0    0  501    0  0.00000000000E+00  0.00000000000E+00  0.15347134659E+04  0.15347134659E+04  0.00000000000E+00 0. -1.
         -2   -1    0    0    0  501 -0.00000000000E+00 -0.00000000000E+00 -0.89837739689E+03  0.89837739689E+03  0.00000000000E+00 0.  1.
        -24    2    1    2    0    0  0.17031343639E+03 -0.66607759177E+03 -0.48468265935E+03  0.84500641808E+03  0.80327712789E+02 0.  0.
        254    2    1    2    0    0 -0.17031343639E+03  0.66607759177E+03  0.11210187284E+04  0.15880844447E+04  0.89031634228E+03 0.  0.
         23    2    4    4    0    0 -0.21460907309E+03  0.41357943673E+03  0.12104346333E+04  0.13002601555E+04  0.91757647729E+02 0.  0.
         23    2    4    4    0    0  0.44295636698E+02  0.25249815504E+03 -0.89415904904E+02  0.28782428919E+03  0.95552057361E+02 0.  0.
          3    1    3    3  502    0  0.84344544343E+02 -0.32955411265E+03 -0.28888202381E+03  0.44628773119E+03  0.00000000000E+00 0. -1.
         -4    1    3    3    0  502  0.85968892047E+02 -0.33652347912E+03 -0.19580063554E+03  0.39871868689E+03  0.00000000000E+00 0.  1.
         13    1    5    5    0    0 -0.21164043100E+03  0.33701155843E+03  0.99706948846E+03  0.10735529923E+04  0.00000000000E+00 0. -1.
        -13    1    5    5    0    0 -0.29686420849E+01  0.76567878302E+02  0.21336514480E+03  0.22670716318E+03  0.00000000000E+00 0.  1.
          2    1    6    6  503    0  0.30293058220E+02  0.18456818480E+03 -0.17408276520E+02  0.18784603352E+03  0.00000000000E+00 0. -1.
         -2    1    6    6    0  503  0.14002578478E+02  0.67929970240E+02 -0.72007628384E+02  0.99978255668E+02  0.00000000000E+00 0.  1.
<mgrwt>
<rscale>  0 0.23484053E+04</rscale>
<asrwt>0</asrwt>
<pdfrwt beam="1">  1        1 0.23610976E+00 0.23484053E+04</pdfrwt>
<pdfrwt beam="2">  1       -2 0.13821191E+00 0.23484053E+04</pdfrwt>
<totfact> 0.18166068E+00</totfact>
</mgrwt>
</event>
<event>
12    5  0.5095719E-008  0.1719387E+04  0.7818608E-02  0.8750384E-01
         -2   -1    0    0    0  501 -0.00000000000E+00  0.00000000000E+00  0.32483768962E+04  0.32483768962E+04  0.00000000000E+00 0.  1.
          1   -1    0    0  501    0  0.00000000000E+00 -0.00000000000E+00 -0.22752068172E+03  0.22752068172E+03  0.00000000000E+00 0. -1.
        -24    2    1    2    0    0 -0.50867099341E+03  0.21418766510E+02  0.38192422461E+03  0.64165578551E+03  0.81554219054E+02 0.  0.
        254    2    1    2    0    0  0.50867099341E+03 -0.21418766510E+02  0.26389319899E+04  0.28342417924E+04  0.89986640538E+03 0.  0.
         23    2    4    4    0    0  0.11307902549E+03 -0.23834268106E+03  0.17997045070E+03  0.33250466656E+03  0.92606104215E+02 0.  0.
         23    2    4    4    0    0  0.39559196792E+03  0.21692391455E+03  0.24589615392E+04  0.25017371259E+04  0.92993579914E+02 0.  0.
          3    1    3    3  502    0 -0.45883971717E+03  0.43779902619E+02  0.34468066669E+03  0.57554785024E+03  0.00000000000E+00 0. -1.
         -4    1    3    3    0  502 -0.49831276239E+02 -0.22361136109E+02  0.37243557921E+02  0.66107935275E+02  0.00000000000E+00 0.  1.
         13    1    5    5    0    0  0.10966419628E+03 -0.24599860582E+03  0.18030267912E+03  0.32411511244E+03  0.00000000000E+00 0.  1.
        -13    1    5    5    0    0  0.34148292170E+01  0.76559247644E+01 -0.33222842805E+00  0.83895541186E+01  0.00000000000E+00 0. -1.
          4    1    6    6  503    0  0.13034850928E+03  0.53779123476E+02  0.56399250953E+03  0.58135228459E+03  0.00000000000E+00 0. -1.
         -4    1    6    6    0  503  0.26524345864E+03  0.16314479107E+03  0.18949690297E+04  0.19203848413E+04  0.00000000000E+00 0.  1.
<mgrwt>
<rscale>  0 0.17193870E+04</rscale>
<asrwt>0</asrwt>
<pdfrwt beam="1">  1        1 0.35003184E-01 0.17193870E+04</pdfrwt>
<pdfrwt beam="2">  1       -2 0.49975026E+00 0.17193870E+04</pdfrwt>
<totfact> 0.17252371E-01</totfact>
</mgrwt>
</event>
<event>
12    5  0.5095719E-008  0.1274471E+04  0.7818608E-02  0.9050059E-01
         -2   -1    0    0    0  501 -0.00000000000E+00  0.00000000000E+00  0.27342090769E+04  0.27342090769E+04  0.00000000000E+00 0.  1.
          1   -1    0    0  501    0  0.00000000000E+00 -0.00000000000E+00 -0.14851425904E+03  0.14851425904E+03  0.00000000000E+00 0. -1.
        -24    2    1    2    0    0 -0.35604146682E+02 -0.31454239209E+03  0.93659998251E+03  0.99188908489E+03  0.80124015189E+02 0.  0.
        254    2    1    2    0    0  0.35604146682E+02  0.31454239209E+03  0.16490948353E+04  0.18908342510E+04  0.86921563335E+03 0.  0.
         23    2    4    4    0    0 -0.10835332942E+03  0.58666365001E+03  0.10524817586E+04  0.12132786981E+04  0.91720580387E+02 0.  0.
         23    2    4    4    0    0  0.14395747610E+03 -0.27212125792E+03  0.59661307670E+03  0.67755555289E+03  0.91436480794E+02 0.  0.
          1    1    3    3  502    0  0.15968878980E+02 -0.17257555499E+02  0.93998059171E+02  0.96894083646E+02  0.00000000000E+00 0. -1.
         -2    1    3    3    0  502 -0.51573025663E+02 -0.29728483659E+03  0.84260192334E+03  0.89499500125E+03  0.00000000000E+00 0.  1.
         13    1    5    5    0    0  0.15088399448E+02  0.10515572518E+03  0.19980921105E+03  0.22629429325E+03  0.00000000000E+00 0. -1.
        -13    1    5    5    0    0 -0.12344172887E+03  0.48150792483E+03  0.85267254759E+03  0.98698440490E+03  0.00000000000E+00 0.  1.
          1    1    6    6  503    0  0.47771852482E+02 -0.15428245231E+03  0.23395323807E+03  0.28428742952E+03  0.00000000000E+00 0. -1.
         -1    1    6    6    0  503  0.96185623622E+02 -0.11783880561E+03  0.36265983864E+03  0.39326812337E+03  0.00000000000E+00 0.  1.
<mgrwt>
<rscale>  0 0.12744709E+04</rscale>
<asrwt>0</asrwt>
<pdfrwt beam="1">  1        1 0.22848350E-01 0.12744709E+04</pdfrwt>
<pdfrwt beam="2">  1       -2 0.42064751E+00 0.12744709E+04</pdfrwt>
<totfact> 0.10411124E+00</totfact>
</mgrwt>
</event>
<event>
12    5  0.5095719E-008  0.2043847E+04  0.7818608E-02  0.8586391E-01
          1   -1    0    0  501    0  0.00000000000E+00  0.00000000000E+00  0.37054733353E+04  0.37054733353E+04  0.00000000000E+00 0. -1.
         -2   -1    0    0    0  501 -0.00000000000E+00 -0.00000000000E+00 -0.28183390348E+03  0.28183390348E+03  0.00000000000E+00 0.  1.
        -24    2    1    2    0    0  0.32663700954E+03  0.38896795729E+03  0.11926492345E+03  0.52689717821E+03  0.73543909606E+02 0.  0.
        254    2    1    2    0    0 -0.32663700954E+03 -0.38896795729E+03  0.33043745084E+04  0.34604100606E+04  0.89306163727E+03 0.  0.
         23    2    4    4    0    0  0.60915383660E+02 -0.54636836916E+03  0.13591965104E+04  0.14688992764E+04  0.89559207113E+02 0.  0.
         23    2    4    4    0    0 -0.38755239320E+03  0.15740041187E+03  0.19451779980E+04  0.19915107842E+04  0.86174314711E+02 0.  0.
          1    1    3    3  502    0  0.95634556223E+01  0.15534906710E+02 -0.92233930670E+01  0.20441721787E+02  0.00000000000E+00 0. -1.
         -2    1    3    3    0  502  0.31707355391E+03  0.37343305058E+03  0.12848831652E+03  0.50645545642E+03  0.00000000000E+00 0.  1.
         13    1    5    5    0    0 -0.78167058958E+01 -0.14717302332E+03  0.45082712206E+03  0.47430590726E+03  0.00000000000E+00 0.  1.
        -13    1    5    5    0    0  0.68732089556E+02 -0.39919534584E+03  0.90836938837E+03  0.99459336917E+03  0.00000000000E+00 0. -1.
          3    1    6    6  503    0 -0.18781621441E+03  0.34559850128E+02  0.78756744275E+03  0.81038990031E+03  0.00000000000E+00 0. -1.
         -3    1    6    6    0  503 -0.19973617878E+03  0.12284056174E+03  0.11576105552E+04  0.11811208839E+04  0.00000000000E+00 0.  1.
<mgrwt>
<rscale>  0 0.20438474E+04</rscale>
<asrwt>0</asrwt>
<pdfrwt beam="1">  1        1 0.57007279E+00 0.20438474E+04</pdfrwt>
<pdfrwt beam="2">  1       -2 0.43359065E-01 0.20438474E+04</pdfrwt>
<totfact> 0.70306042E-01</totfact>
</mgrwt>
</event>
<event>
12    5  0.5095719E-008  0.2085734E+04  0.7818608E-02  0.8567554E-01
          1   -1    0    0  501    0  0.00000000000E+00  0.00000000000E+00  0.26570046978E+04  0.26570046978E+04  0.00000000000E+00 0. -1.
         -2   -1    0    0    0  501 -0.00000000000E+00 -0.00000000000E+00 -0.40932242564E+03  0.40932242564E+03  0.00000000000E+00 0.  1.
        -24    2    1    2    0    0  0.80300706888E+03 -0.25513034027E+03  0.10331688386E+04  0.13354196042E+04  0.77432726359E+02 0.  0.
        254    2    1    2    0    0 -0.80300706888E+03  0.25513034027E+03  0.12145134336E+04  0.17309075193E+04  0.90060319599E+03 0.  0.
         23    2    4    4    0    0 -0.41405684606E+02  0.43131684588E+03  0.37518712310E+03  0.58036620221E+03  0.91164132559E+02 0.  0.
         23    2    4    4    0    0 -0.76160138427E+03 -0.17618650561E+03  0.83932631052E+03  0.11505413171E+04  0.90544538461E+02 0.  0.
          3    1    3    3  502    0  0.79240217248E+03 -0.26045400577E+03  0.10156652291E+04  0.13142729358E+04  0.00000000000E+00 0. -1.
         -4    1    3    3    0  502  0.10604896400E+02  0.53236654939E+01  0.17503609460E+02  0.21146668440E+02  0.00000000000E+00 0.  1.
         13    1    5    5    0    0  0.49805116382E+01  0.15926737196E+02 -0.26892874074E+01  0.16902624668E+02  0.00000000000E+00 0. -1.
        -13    1    5    5    0    0 -0.46386196244E+02  0.41539010869E+03  0.37787641051E+03  0.56346357754E+03  0.00000000000E+00 0.  1.
          3    1    6    6  503    0 -0.10766672121E+03  0.67822055301E+01  0.11724020476E+03  0.15932164567E+03  0.00000000000E+00 0. -1.
         -3    1    6    6    0  503 -0.65393466306E+03 -0.18296871114E+03  0.72208610576E+03  0.99121967139E+03  0.00000000000E+00 0.  1.
<mgrwt>
<rscale>  0 0.20857340E+04</rscale>
<asrwt>0</asrwt>
<pdfrwt beam="1">  1        1 0.40876994E+00 0.20857340E+04</pdfrwt>
<pdfrwt beam="2">  1       -2 0.62972682E-01 0.20857340E+04</pdfrwt>
<totfact> 0.19905354E+00</totfact>
</mgrwt>
</event>
<event>
12    5  0.5095719E-008  0.2394345E+04  0.7818608E-02  0.8441624E-01
         -2   -1    0    0    0  501 -0.00000000000E+00  0.00000000000E+00  0.96129789326E+03  0.96129789326E+03  0.00000000000E+00 0.  1.
          1   -1    0    0  501    0  0.00000000000E+00 -0.00000000000E+00 -0.14909238712E+04  0.14909238712E+04  0.00000000000E+00 0. -1.
        -24    2    1    2    0    0 -0.71366541660E+03  0.26306495129E+03 -0.96498367151E+03  0.12313132941E+04  0.80108967120E+02 0.  0.
        254    2    1    2    0    0  0.71366541660E+03 -0.26306495129E+03  0.43535769360E+03  0.12209084703E+04  0.85003510278E+03 0.  0.
         23    2    4    4    0    0  0.63639534231E+03  0.14322508150E+02  0.59803427316E+03  0.87807769633E+03  0.90395149064E+02 0.  0.
         23    2    4    4    0    0  0.77270074294E+02 -0.27738745944E+03 -0.16267657955E+03  0.34283077394E+03  0.90303947810E+02 0.  0.
          3    1    3    3  502    0 -0.46909495550E+03  0.17542410176E+03 -0.69479375119E+03  0.85648236961E+03  0.00000000000E+00 0. -1.
         -4    1    3    3    0  502 -0.24457046110E+03  0.87640849525E+02 -0.27018992032E+03  0.37483092454E+03  0.00000000000E+00 0.  1.
         13    1    5    5    0    0  0.15459999175E+03  0.40952373803E+02  0.16376902018E+03  0.22890728765E+03  0.00000000000E+00 0. -1.
        -13    1    5    5    0    0  0.48179535055E+03 -0.26629865653E+02  0.43426525298E+03  0.64917040868E+03  0.00000000000E+00 0.  1.
          4    1    6    6  503    0  0.61749646871E+02 -0.27369927693E+03 -0.13612701069E+03  0.31185714056E+03  0.00000000000E+00 0.  1.
         -4    1    6    6    0  503  0.15520427423E+02 -0.36881825070E+01 -0.26549568867E+02  0.30973633378E+02  0.00000000000E+00 0. -1.
<mgrwt>
<rscale>  0 0.23943450E+04</rscale>
<asrwt>0</asrwt>
<pdfrwt beam="1">  1        1 0.22937290E+00 0.23943450E+04</pdfrwt>
<pdfrwt beam="2">  1       -2 0.14789198E+00 0.23943450E+04</pdfrwt>
<totfact> 0.16252683E+00</totfact>
</mgrwt>
</event>
<event>
12    5  0.5095719E-008  0.1760196E+04  0.7818608E-02  0.8727758E-01
         -2   -1    0    0    0  501 -0.00000000000E+00  0.00000000000E+00  0.46037620213E+03  0.46037620213E+03  0.00000000000E+00 0.  1.
          1   -1    0    0  501    0  0.00000000000E+00 -0.00000000000E+00 -0.16824773338E+04  0.16824773338E+04  0.00000000000E+00 0. -1.
        -24    2    1    2    0    0 -0.60159716021E+03  0.21718357673E+03 -0.34449974167E+03  0.73092388890E+03  0.80509689960E+02 0.  0.
        254    2    1    2    0    0  0.60159716021E+03 -0.21718357673E+03 -0.87760139001E+03  0.14119296470E+04  0.90237092109E+03 0.  0.
         23    2    4    4    0    0  0.21461171847E+03 -0.54140820481E+03 -0.52350728893E+03  0.78852094097E+03  0.92327454426E+02 0.  0.
         23    2    4    4    0    0  0.38698544175E+03  0.32422462808E+03 -0.35409410108E+03  0.62340870606E+03  0.91522897627E+02 0.  0.
          1    1    3    3  502    0 -0.50681522512E+03  0.18915616843E+03 -0.25695378781E+03  0.59888811772E+03  0.00000000000E+00 0. -1.
         -2    1    3    3    0  502 -0.94781935090E+02  0.28027408299E+02 -0.87545953854E+02  0.13203577118E+03  0.00000000000E+00 0.  1.
         13    1    5    5    0    0  0.13321637282E+03 -0.22337213000E+03 -0.25751920982E+03  0.36600253261E+03  0.00000000000E+00 0. -1.
        -13    1    5    5    0    0  0.81395345643E+02 -0.31803607481E+03 -0.26598807911E+03  0.42251840836E+03  0.00000000000E+00 0.  1.
          4    1    6    6  503    0  0.13012300920E+02 -0.16693791634E+00  0.25495611763E+01  0.13260773194E+02  0.00000000000E+00 0.  1.
         -4    1    6    6    0  503  0.37397314083E+03  0.32439156600E+03 -0.35664366225E+03  0.61014793286E+03  0.00000000000E+00 0. -1.
<mgrwt>
<rscale>  0 0.17601960E+04</rscale>
<asrwt>0</asrwt>
<pdfrwt beam="1">  1        1 0.25884267E+00 0.17601960E+04</pdfrwt>
<pdfrwt beam="2">  1       -2 0.70827108E-01 0.17601960E+04</pdfrwt>
<totfact> 0.73763928E+00</totfact>
</mgrwt>
</event>
<event>
12    5  0.5095719E-008  0.1776519E+04  0.7818608E-02  0.8718887E-01
         -2   -1    0    0    0  501 -0.00000000000E+00  0.00000000000E+00  0.10912575241E+04  0.10912575241E+04  0.00000000000E+00 0.  1.
          1   -1    0    0  501    0  0.00000000000E+00 -0.00000000000E+00 -0.72302395437E+03  0.72302395437E+03  0.00000000000E+00 0. -1.
        -24    2    1    2    0    0 -0.52891420248E+03  0.30265245826E+03 -0.11847538038E+03  0.62583203600E+03  0.79250094314E+02 0.  0.
        254    2    1    2    0    0  0.52891420248E+03 -0.30265245826E+03  0.48670895014E+03  0.11884494425E+04  0.89675957266E+03 0.  0.
         23    2    4    4    0    0  0.77257238886E+03 -0.22079679332E+03  0.32420884951E+03  0.87122890500E+03  0.91154302309E+02 0.  0.
         23    2    4    4    0    0 -0.24365818638E+03 -0.81855664932E+02  0.16250010062E+03  0.31722053750E+03  0.90293549266E+02 0.  0.
          3    1    3    3  502    0 -0.12548458590E+03  0.57867087074E+02  0.42480253365E+01  0.13824987082E+03  0.00000000000E+00 0. -1.
         -4    1    3    3    0  502 -0.40342961659E+03  0.24478537118E+03 -0.12272340572E+03  0.48758216517E+03  0.00000000000E+00 0.  1.
         13    1    5    5    0    0  0.62949250926E+03 -0.20125423878E+03  0.23464159206E+03  0.70129934020E+03  0.00000000000E+00 0. -1.
        -13    1    5    5    0    0  0.14307987960E+03 -0.19542554547E+02  0.89567257455E+02  0.16992956480E+03  0.00000000000E+00 0.  1.
          4    1    6    6  503    0 -0.12837043213E+03 -0.52856176393E+02  0.13819127836E+03  0.19588152706E+03  0.00000000000E+00 0. -1.
         -4    1    6    6    0  503 -0.11528775425E+03 -0.28999488539E+02  0.24308822263E+02  0.12133901044E+03  0.00000000000E+00 0.  1.
<mgrwt>
<rscale>  0 0.17765194E+04</rscale>
<asrwt>0</asrwt>
<pdfrwt beam="1">  1        1 0.11123446E+00 0.17765194E+04</pdfrwt>
<pdfrwt beam="2">  1       -2 0.16788577E+00 0.17765194E+04</pdfrwt>
<totfact> 0.47346994E+00</totfact>
</mgrwt>
</event>
<event>
12    5  0.5095719E-008  0.1637875E+04  0.7818608E-02  0.8797612E-01
         -2   -1    0    0    0  501 -0.00000000000E+00  0.00000000000E+00  0.39336739048E+03  0.39336739048E+03  0.00000000000E+00 0.  1.
          1   -1    0    0  501    0  0.00000000000E+00 -0.00000000000E+00 -0.17049162698E+04  0.17049162698E+04  0.00000000000E+00 0. -1.
        -24    2    1    2    0    0 -0.25630130949E+03 -0.49211476922E+03 -0.49639850695E+03  0.74877051335E+03  0.79865490935E+02 0.  0.
        254    2    1    2    0    0  0.25630130949E+03  0.49211476922E+03 -0.81515037238E+03  0.13495131469E+04  0.92132963527E+03 0.  0.
         23    2    4    4    0    0 -0.27976346749E+03 -0.41129811269E+02 -0.33837253074E+03  0.45060124153E+03  0.92662021314E+02 0.  0.
         23    2    4    4    0    0  0.53606477697E+03  0.53324458049E+03 -0.47677784164E+03  0.89891190540E+03  0.94922471858E+02 0.  0.
          3    1    3    3  502    0 -0.16735181222E+03 -0.34749882404E+03 -0.38941707428E+03  0.54809462642E+03  0.00000000000E+00 0. -1.
         -4    1    3    3    0  502 -0.88949497266E+02 -0.14461594518E+03 -0.10698143266E+03  0.20067588694E+03  0.00000000000E+00 0.  1.
         13    1    5    5    0    0 -0.20658172477E+03 -0.21979013917E+02 -0.17915642092E+03  0.27432846957E+03  0.00000000000E+00 0. -1.
        -13    1    5    5    0    0 -0.73181742713E+02 -0.19150797352E+02 -0.15921610983E+03  0.17627277196E+03  0.00000000000E+00 0.  1.
          4    1    6    6  503    0  0.50237567354E+03  0.46059637621E+03 -0.43549205746E+03  0.80881621599E+03  0.00000000000E+00 0. -1.
         -4    1    6    6    0  503  0.33689103439E+02  0.72648204278E+02 -0.41285784175E+02  0.90095689410E+02  0.00000000000E+00 0.  1.
<mgrwt>
<rscale>  0 0.16378748E+04</rscale>
<asrwt>0</asrwt>
<pdfrwt beam="1">  1        1 0.26229481E+00 0.16378748E+04</pdfrwt>
<pdfrwt beam="2">  1       -2 0.60518059E-01 0.16378748E+04</pdfrwt>
<totfact> 0.10098391E+01</totfact>
</mgrwt>
</event>
<event>
12    5  0.5095719E-008  0.1302929E+04  0.7818608E-02  0.9027246E-01
          1   -1    0    0  501    0  0.00000000000E+00  0.00000000000E+00  0.35397352594E+03  0.35397352594E+03  0.00000000000E+00 0. -1.
         -2   -1    0    0    0  501 -0.00000000000E+00 -0.00000000000E+00 -0.11989762188E+04  0.11989762188E+04  0.00000000000E+00 0.  1.
        -24    2    1    2    0    0 -0.32208323363E+03  0.10277165517E+03 -0.24071583501E+03  0.42255884852E+03  0.79449636548E+02 0.  0.
        254    2    1    2    0    0  0.32208323363E+03 -0.10277165517E+03 -0.60428685781E+03  0.11303908962E+04  0.89348830388E+03 0.  0.
         23    2    4    4    0    0  0.32461696406E+03 -0.20182449657E+03 -0.80117767922E+03  0.89240121195E+03  0.91569365186E+02 0.  0.
         23    2    4    4    0    0 -0.25337304295E+01  0.99052841400E+02  0.19689082141E+03  0.23798968424E+03  0.89750816536E+02 0.  0.
          3    1    3    3  502    0 -0.19716738863E+03  0.47940282559E+02 -0.18701735683E+03  0.27595061440E+03  0.00000000000E+00 0. -1.
         -4    1    3    3    0  502 -0.12491584500E+03  0.54831372615E+02 -0.53698478186E+02  0.14660823413E+03  0.00000000000E+00 0.  1.
         13    1    5    5    0    0  0.34380605251E+02  0.18438395653E+01 -0.40573399020E+02  0.53213029136E+02  0.00000000000E+00 0. -1.
        -13    1    5    5    0    0  0.29023635881E+03 -0.20366833614E+03 -0.76060428020E+03  0.83918818281E+03  0.00000000000E+00 0.  1.
          3    1    6    6  503    0  0.21137290149E+02  0.84933773318E-01  0.65057014615E+01  0.22115976128E+02  0.00000000000E+00 0. -1.
         -3    1    6    6    0  503 -0.23671020579E+02  0.98967907627E+02  0.19038511995E+03  0.21587370811E+03  0.00000000000E+00 0.  1.
<mgrwt>
<rscale>  0 0.13029288E+04</rscale>
<asrwt>0</asrwt>
<pdfrwt beam="1">  1        1 0.54457466E-01 0.13029288E+04</pdfrwt>
<pdfrwt beam="2">  1       -2 0.18445788E+00 0.13029288E+04</pdfrwt>
<totfact> 0.10218671E+01</totfact>
</mgrwt>
</event>
<event>
12    5  0.5095719E-008  0.1773747E+04  0.7818608E-02  0.8720386E-01
         -2   -1    0    0    0  501 -0.00000000000E+00  0.00000000000E+00  0.82877100591E+03  0.82877100591E+03  0.00000000000E+00 0.  1.
          1   -1    0    0  501    0  0.00000000000E+00 -0.00000000000E+00 -0.94904963508E+03  0.94904963508E+03  0.00000000000E+00 0. -1.
        -24    2    1    2    0    0 -0.54540251338E+02 -0.50658393515E+02  0.60717340402E+03  0.61729557771E+03  0.82785118627E+02 0.  0.
        254    2    1    2    0    0  0.54540251338E+02  0.50658393515E+02 -0.72745203319E+03  0.11605250633E+04  0.90116094570E+03 0.  0.
         23    2    4    4    0    0  0.35328714909E+03 -0.10071616313E+01  0.27187503524E+01  0.36468870900E+03  0.90430297934E+02 0.  0.
         23    2    4    4    0    0 -0.29874689775E+03  0.51665555147E+02 -0.73017078354E+03  0.79583635427E+03  0.91033461643E+02 0.  0.
          1    1    3    3  502    0  0.12707462849E+02 -0.31290621440E+02  0.10574080060E+03  0.11100315092E+03  0.00000000000E+00 0. -1.
         -2    1    3    3    0  502 -0.67247714187E+02 -0.19367772076E+02  0.50143260342E+03  0.50629242679E+03  0.00000000000E+00 0.  1.
         13    1    5    5    0    0  0.19792314748E+03 -0.51883128479E+01 -0.43155172912E+02  0.20263972919E+03  0.00000000000E+00 0.  1.
        -13    1    5    5    0    0  0.15536400161E+03  0.41811512166E+01  0.45873923264E+02  0.16204897981E+03  0.00000000000E+00 0. -1.
          3    1    6    6  503    0 -0.32147484911E+02 -0.20717964929E+02 -0.12223631332E+03  0.12807970624E+03  0.00000000000E+00 0. -1.
         -3    1    6    6    0  503 -0.26659941284E+03  0.72383520075E+02 -0.60793447022E+03  0.66775664803E+03  0.00000000000E+00 0.  1.
<mgrwt>
<rscale>  0 0.17737472E+04</rscale>
<asrwt>0</asrwt>
<pdfrwt beam="1">  1        1 0.14600763E+00 0.17737472E+04</pdfrwt>
<pdfrwt beam="2">  1       -2 0.12750323E+00 0.17737472E+04</pdfrwt>
<totfact> 0.62771931E+00</totfact>
</mgrwt>
</event>
<event>
12    5  0.5095719E-008  0.2024617E+04  0.7818608E-02  0.8595197E-01
         -4   -1    0    0    0  501 -0.00000000000E+00  0.00000000000E+00  0.21053080973E+04  0.21053080973E+04  0.00000000000E+00 0.  1.
          1   -1    0    0  501    0  0.00000000000E+00 -0.00000000000E+00 -0.48675486149E+03  0.48675486149E+03  0.00000000000E+00 0. -1.
        -24    2    1    2    0    0  0.42379041238E+03 -0.14516439302E+03 -0.20972812034E+03  0.50140015342E+03  0.82129256424E+02 0.  0.
        254    2    1    2    0    0 -0.42379041238E+03  0.14516439302E+03  0.18282813562E+04  0.20906628054E+04  0.90971821675E+03 0.  0.
         23    2    4    4    0    0 -0.38950700223E+03 -0.33605948907E+03  0.91478077783E+03  0.10534511664E+04  0.91015403204E+02 0.  0.
         23    2    4    4    0    0 -0.34283410153E+02  0.48122388209E+03  0.91350057836E+03  0.10372116390E+04  0.92589958513E+02 0.  0.
          3    1    3    3  502    0  0.32567458534E+03 -0.13876756790E+03 -0.13917220632E+03  0.38038043646E+03  0.00000000000E+00 0. -1.
         -2    1    3    3    0  502  0.98115827050E+02 -0.63968251265E+01 -0.70555914025E+02  0.12101971696E+03  0.00000000000E+00 0.  1.
         13    1    5    5    0    0 -0.38054733462E+03 -0.33763167971E+03  0.91135026205E+03  0.10437292394E+04  0.00000000000E+00 0. -1.
        -13    1    5    5    0    0 -0.89596676148E+01  0.15721906382E+01  0.34305157850E+01  0.97219270580E+01  0.00000000000E+00 0.  1.
          3    1    6    6  503    0 -0.46713384965E+02  0.21489742736E+03  0.34238540680E+03  0.40692850896E+03  0.00000000000E+00 0. -1.
         -3    1    6    6    0  503  0.12429974812E+02  0.26632645473E+03  0.57111517157E+03  0.63028313000E+03  0.00000000000E+00 0.  1.
<mgrwt>
<rscale>  0 0.20246174E+04</rscale>
<asrwt>0</asrwt>
<pdfrwt beam="1">  1        1 0.74885365E-01 0.20246174E+04</pdfrwt>
<pdfrwt beam="2">  1       -4 0.32389355E+00 0.20246174E+04</pdfrwt>
<totfact> 0.44339537E-01</totfact>
</mgrwt>
</event>
<event>
12    5  0.5095719E-008  0.1922235E+04  0.7818608E-02  0.8643867E-01
          1   -1    0    0  501    0  0.00000000000E+00  0.00000000000E+00  0.50482063411E+03  0.50482063411E+03  0.00000000000E+00 0. -1.
         -2   -1    0    0    0  501 -0.00000000000E+00 -0.00000000000E+00 -0.18298516340E+04  0.18298516340E+04  0.00000000000E+00 0.  1.
        -24    2    1    2    0    0 -0.69737515463E+03  0.12102624650E+03 -0.23586734255E+03  0.75110428406E+03  0.86860713795E+02 0.  0.
        254    2    1    2    0    0  0.69737515463E+03 -0.12102624650E+03 -0.10891636574E+04  0.15835679841E+04  0.90577625773E+03 0.  0.
         23    2    4    4    0    0  0.17939883739E+03  0.24453288726E+03  0.38197817599E+01  0.31670146988E+03  0.91131523023E+02 0.  0.
         23    2    4    4    0    0  0.51797631725E+03 -0.36555913375E+03 -0.10929834391E+04  0.12668665142E+04  0.91678902211E+02 0.  0.
          1    1    3    3  502    0 -0.45018072898E+03  0.11419286381E+03 -0.13151677373E+03  0.48270007319E+03  0.00000000000E+00 0. -1.
         -4    1    3    3    0  502 -0.24719442566E+03  0.68333826841E+01 -0.10435056882E+03  0.26840421086E+03  0.00000000000E+00 0.  1.
         13    1    5    5    0    0  0.75326743887E+02  0.12476362643E+03  0.45450507415E+02  0.15266246903E+03  0.00000000000E+00 0. -1.
        -13    1    5    5    0    0  0.10407209350E+03  0.11976926083E+03 -0.41630725655E+02  0.16403900086E+03  0.00000000000E+00 0.  1.
          2    1    6    6  503    0  0.40848878235E+03 -0.24580872598E+03 -0.77546654051E+03  0.91029301355E+03  0.00000000000E+00 0. -1.
         -2    1    6    6    0  503  0.10948753490E+03 -0.11975040777E+03 -0.31751689863E+03  0.35657350066E+03  0.00000000000E+00 0.  1.
<mgrwt>
<rscale>  0 0.19222350E+04</rscale>
<asrwt>0</asrwt>
<pdfrwt beam="1">  1        1 0.77664711E-01 0.19222350E+04</pdfrwt>
<pdfrwt beam="2">  1       -2 0.28151564E+00 0.19222350E+04</pdfrwt>
<totfact> 0.14747602E+00</totfact>
</mgrwt>
</event>
<event>
12    5  0.5095719E-008  0.2422229E+04  0.7818608E-02  0.8431228E-01
         -2   -1    0    0    0  501 -0.00000000000E+00  0.00000000000E+00  0.10211165164E+04  0.10211165164E+04  0.00000000000E+00 0.  1.
          1   -1    0    0  501    0  0.00000000000E+00 -0.00000000000E+00 -0.14364652823E+04  0.14364652823E+04  0.00000000000E+00 0. -1.
        -24    2    1    2    0    0  0.34958959003E+03  0.27899822883E+03 -0.11258347815E+04  0.12142369532E+04  0.82550166590E+02 0.  0.
        254    2    1    2    0    0 -0.34958959003E+03 -0.27899822883E+03  0.71048601569E+03  0.12433448455E+04  0.91709494236E+03 0.  0.
         23    2    4    4    0    0  0.27001691583E+03 -0.85044099749E+02  0.31266730730E+02  0.29928711752E+03  0.91943115721E+02 0.  0.
         23    2    4    4    0    0 -0.61960650586E+03 -0.19395412908E+03  0.67921928497E+03  0.94405772803E+03  0.91519017087E+02 0.  0.
          3    1    3    3  502    0  0.20400899616E+03  0.19035056710E+03 -0.60547966586E+03  0.66667730926E+03  0.00000000000E+00 0. -1.
         -4    1    3    3    0  502  0.14558059386E+03  0.88647661732E+02 -0.52035511568E+03  0.54755964393E+03  0.00000000000E+00 0.  1.
         13    1    5    5    0    0  0.12745291928E+03 -0.16233658759E+01 -0.13431289217E+02  0.12816895677E+03  0.00000000000E+00 0.  1.
        -13    1    5    5    0    0  0.14256399655E+03 -0.83420733873E+02  0.44698019947E+02  0.17111816076E+03  0.00000000000E+00 0. -1.
          3    1    6    6  503    0 -0.48231812003E+03 -0.11179965838E+03  0.53000877336E+03  0.72528562123E+03  0.00000000000E+00 0. -1.
         -3    1    6    6    0  503 -0.13728838583E+03 -0.82154470696E+02  0.14921051160E+03  0.21877210680E+03  0.00000000000E+00 0.  1.
<mgrwt>
<rscale>  0 0.24222291E+04</rscale>
<asrwt>0</asrwt>
<pdfrwt beam="1">  1        1 0.22099466E+00 0.24222291E+04</pdfrwt>
<pdfrwt beam="2">  1       -2 0.15709485E+00 0.24222291E+04</pdfrwt>
<totfact> 0.15058541E+00</totfact>
</mgrwt>
</event>
<event>
12    5  0.5095719E-008  0.1413917E+04  0.7818608E-02  0.8943806E-01
          1   -1    0    0  501    0  0.00000000000E+00  0.00000000000E+00  0.98643459751E+03  0.98643459751E+03  0.00000000000E+00 0. -1.
         -2   -1    0    0    0  501 -0.00000000000E+00 -0.00000000000E+00 -0.50666353185E+03  0.50666353185E+03  0.00000000000E+00 0.  1.
        -24    2    1    2    0    0  0.26994297586E+03  0.17862098304E+03  0.41953857379E+03  0.53592474821E+03  0.80175152318E+02 0.  0.
        254    2    1    2    0    0 -0.26994297586E+03 -0.17862098304E+03  0.60232491859E+02  0.95717338115E+03  0.89876485396E+03 0.  0.
         23    2    4    4    0    0  0.15610817209E+03 -0.36898806631E+03  0.20607786114E+03  0.45972131129E+03  0.91398275288E+02 0.  0.
         23    2    4    4    0    0 -0.42605114795E+03  0.19036708327E+03 -0.14584536928E+03  0.49745206986E+03  0.91806769949E+02 0.  0.
          3    1    3    3  502    0  0.19572394209E+03  0.12885106406E+03  0.35629917421E+03  0.42644994989E+03  0.00000000000E+00 0. -1.
         -4    1    3    3    0  502  0.74219033767E+02  0.49769918975E+02  0.63239399582E+02  0.10947479832E+03  0.00000000000E+00 0.  1.
         13    1    5    5    0    0  0.13372112182E+03 -0.31069221088E+03  0.20829068887E+03  0.39723544579E+03  0.00000000000E+00 0. -1.
        -13    1    5    5    0    0  0.22387050279E+02 -0.58295855427E+02 -0.22128277302E+01  0.62485865496E+02  0.00000000000E+00 0.  1.
          2    1    6    6  503    0 -0.28487396635E+03  0.88743783555E+02 -0.11995647561E+03  0.32158698958E+03  0.00000000000E+00 0. -1.
         -2    1    6    6    0  503 -0.14117718160E+03  0.10162329971E+03 -0.25888893675E+02  0.17586508029E+03  0.00000000000E+00 0.  1.
<mgrwt>
<rscale>  0 0.14139172E+04</rscale>
<asrwt>0</asrwt>
<pdfrwt beam="1">  1        1 0.15175917E+00 0.14139172E+04</pdfrwt>
<pdfrwt beam="2">  1       -2 0.77948236E-01 0.14139172E+04</pdfrwt>
<totfact> 0.19402429E+01</totfact>
</mgrwt>
</event>
<event>
12    5  0.5095719E-008  0.1617190E+04  0.7818608E-02  0.8810057E-01
         -2   -1    0    0    0  501 -0.00000000000E+00  0.00000000000E+00  0.12183336632E+04  0.12183336632E+04  0.00000000000E+00 0.  1.
          1   -1    0    0  501    0  0.00000000000E+00 -0.00000000000E+00 -0.53665560303E+03  0.53665560303E+03  0.00000000000E+00 0. -1.
        -24    2    1    2    0    0 -0.76218788121E+02 -0.33961990385E+03 -0.23057893237E+03  0.42453241717E+03  0.76877476653E+02 0.  0.
        254    2    1    2    0    0  0.76218788121E+02  0.33961990385E+03  0.91225699255E+03  0.13304568491E+04  0.90374311838E+03 0.  0.
         23    2    4    4    0    0  0.44468652453E+03  0.11093598053E+02  0.32830927681E+03  0.56036911300E+03  0.91418753792E+02 0.  0.
         23    2    4    4    0    0 -0.36846773641E+03  0.32852630580E+03  0.58394771574E+03  0.77008773607E+03  0.91335536087E+02 0.  0.
          1    1    3    3  502    0 -0.60780956516E+02 -0.33222306725E+03 -0.20974156174E+03  0.39756510638E+03  0.00000000000E+00 0. -1.
         -2    1    3    3    0  502 -0.15437831605E+02 -0.73968366017E+01 -0.20837370628E+02  0.26967310786E+02  0.00000000000E+00 0.  1.
         13    1    5    5    0    0  0.31522101455E+03  0.49300632664E+02  0.23558059083E+03  0.39660188498E+03  0.00000000000E+00 0. -1.
        -13    1    5    5    0    0  0.12946550999E+03 -0.38207034611E+02  0.92728685974E+02  0.16376722802E+03  0.00000000000E+00 0.  1.
          3    1    6    6  503    0 -0.35388441517E+03  0.32945718934E+03  0.57970032427E+03  0.75486997879E+03  0.00000000000E+00 0. -1.
         -3    1    6    6    0  503 -0.14583321238E+02 -0.93088354454E+00  0.42473914683E+01  0.15217757285E+02  0.00000000000E+00 0.  1.
<mgrwt>
<rscale>  0 0.16171896E+04</rscale>
<asrwt>0</asrwt>
<pdfrwt beam="1">  1        1 0.82562400E-01 0.16171896E+04</pdfrwt>
<pdfrwt beam="2">  1       -2 0.18743595E+00 0.16171896E+04</pdfrwt>
<totfact> 0.54249756E+00</totfact>
</mgrwt>
</event>
<event>
12    5  0.5095719E-008  0.1141746E+04  0.7818608E-02  0.9165432E-01
         -2   -1    0    0    0  501 -0.00000000000E+00  0.00000000000E+00  0.40407422488E+03  0.40407422488E+03  0.00000000000E+00 0.  1.
          1   -1    0    0  501    0  0.00000000000E+00 -0.00000000000E+00 -0.80652565421E+03  0.80652565421E+03  0.00000000000E+00 0. -1.
        -24    2    1    2    0    0 -0.12162676624E+03 -0.15863429655E+03 -0.11110181074E+03  0.24688500148E+03  0.93009038794E+02 0.  0.
        254    2    1    2    0    0  0.12162676624E+03  0.15863429655E+03 -0.29134961859E+03  0.96371487761E+03  0.89660685630E+03 0.  0.
         23    2    4    4    0    0 -0.22452355452E+03  0.37678251496E+03 -0.30854551819E+03  0.54401231506E+03  0.91505038260E+02 0.  0.
         23    2    4    4    0    0  0.34615032076E+03 -0.21814821841E+03  0.17195899596E+02  0.41970256255E+03  0.91901318227E+02 0.  0.
          1    1    3    3  502    0 -0.73606507210E+02 -0.36114763275E+02 -0.73278141124E+02  0.10996308470E+03  0.00000000000E+00 0. -1.
         -2    1    3    3    0  502 -0.48020259032E+02 -0.12251953328E+03 -0.37823669615E+02  0.13692191678E+03  0.00000000000E+00 0.  1.
         13    1    5    5    0    0 -0.19370498576E+03  0.35475197318E+03 -0.30421451301E+03  0.50588245068E+03  0.00000000000E+00 0.  1.
        -13    1    5    5    0    0 -0.30818568758E+02  0.22030541778E+02 -0.43310051812E+01  0.38129864375E+02  0.00000000000E+00 0. -1.
          2    1    6    6  503    0  0.73813246744E+02 -0.61362634657E+01 -0.12345048318E+01  0.74078155528E+02  0.00000000000E+00 0. -1.
         -2    1    6    6    0  503  0.27233707401E+03 -0.21201195495E+03  0.18430404427E+02  0.34562440702E+03  0.00000000000E+00 0.  1.
<mgrwt>
<rscale>  0 0.11417464E+04</rscale>
<asrwt>0</asrwt>
<pdfrwt beam="1">  1        1 0.12408087E+00 0.11417464E+04</pdfrwt>
<pdfrwt beam="2">  1       -2 0.62165266E-01 0.11417464E+04</pdfrwt>
<totfact> 0.45646433E+01</totfact>
</mgrwt>
</event>
<event>
12    5  0.5095719E-008  0.2206171E+04  0.7818608E-02  0.8515864E-01
         -2   -1    0    0    0  501 -0.00000000000E+00  0.00000000000E+00  0.24654039934E+04  0.24654039934E+04  0.00000000000E+00 0.  1.
          3   -1    0    0  501    0  0.00000000000E+00 -0.00000000000E+00 -0.49354917359E+03  0.49354917359E+03  0.00000000000E+00 0. -1.
        -24    2    1    2    0    0 -0.24908082490E+03 -0.36140942398E+03 -0.25496933765E+03  0.51531273074E+03  0.88768340348E+02 0.  0.
        254    2    1    2    0    0  0.24908082490E+03  0.36140942398E+03  0.22268241575E+04  0.24436404363E+04  0.90552455759E+03 0.  0.
         23    2    4    4    0    0 -0.23476674648E+03  0.42718562167E+03  0.13151174638E+04  0.14054739325E+04  0.90664495998E+02 0.  0.
         23    2    4    4    0    0  0.48384757139E+03 -0.65776197686E+02  0.91170669369E+03  0.10381665037E+04  0.90253053532E+02 0.  0.
          1    1    3    3  502    0 -0.20602329430E+03 -0.27750063820E+03 -0.15792543595E+03  0.37999032266E+03  0.00000000000E+00 0. -1.
         -2    1    3    3    0  502 -0.43057530606E+02 -0.83908785785E+02 -0.97043901696E+02  0.13532240809E+03  0.00000000000E+00 0.  1.
         13    1    5    5    0    0 -0.17059613757E+02  0.90937704017E+02  0.30871371427E+03  0.32228070654E+03  0.00000000000E+00 0. -1.
        -13    1    5    5    0    0 -0.21770713273E+03  0.33624791765E+03  0.10064037495E+04  0.10831932260E+04  0.00000000000E+00 0.  1.
          4    1    6    6  503    0  0.58463906866E+02 -0.24565559786E+02  0.17933760584E+03  0.19021953633E+03  0.00000000000E+00 0. -1.
         -4    1    6    6    0  503  0.42538366452E+03 -0.41210637900E+02  0.73236908784E+03  0.84794696741E+03  0.00000000000E+00 0.  1.
<mgrwt>
<rscale>  0 0.22061714E+04</rscale>
<asrwt>0</asrwt>
<pdfrwt beam="1">  1        3 0.75930643E-01 0.22061714E+04</pdfrwt>
<pdfrwt beam="2">  1       -2 0.37929292E+00 0.22061714E+04</pdfrwt>
<totfact> 0.63552486E-02</totfact>
</mgrwt>
</event>
<event>
12    5  0.5095719E-008  0.2269207E+04  0.7818608E-02  0.8490162E-01
          1   -1    0    0  501    0  0.00000000000E+00  0.00000000000E+00  0.68542083718E+03  0.68542083718E+03  0.00000000000E+00 0. -1.
         -2   -1    0    0    0  501 -0.00000000000E+00 -0.00000000000E+00 -0.18781532828E+04  0.18781532828E+04  0.00000000000E+00 0.  1.
        -24    2    1    2    0    0 -0.43785757547E+03  0.39282638652E+03  0.34897057939E+03  0.68845230118E+03  0.78449215263E+02 0.  0.
        254    2    1    2    0    0  0.43785757547E+03 -0.39282638652E+03 -0.15417030250E+04  0.18751218188E+04  0.89061876896E+03 0.  0.
         23    2    4    4    0    0  0.19866715448E+03 -0.65918918607E+03 -0.10805693251E+04  0.12846085066E+04  0.92681863045E+02 0.  0.
         23    2    4    4    0    0  0.23919042099E+03  0.26636279955E+03 -0.46113369992E+03  0.59051331214E+03  0.88884667592E+02 0.  0.
          1    1    3    3  502    0 -0.40799437442E+03  0.38636776614E+03  0.33931154506E+03  0.65640824559E+03  0.00000000000E+00 0. -1.
         -2    1    3    3    0  502 -0.29863201057E+02  0.64586203852E+01  0.96590343261E+01  0.32044055592E+02  0.00000000000E+00 0.  1.
         13    1    5    5    0    0  0.13882727072E+03 -0.33113209074E+03 -0.61069743898E+03  0.70842983745E+03  0.00000000000E+00 0. -1.
        -13    1    5    5    0    0  0.59839883757E+02 -0.32805709533E+03 -0.46987188607E+03  0.57617866917E+03  0.00000000000E+00 0.  1.
          4    1    6    6  503    0  0.10514515631E+03  0.95186499655E+02 -0.11898616436E+03  0.18513152331E+03  0.00000000000E+00 0. -1.
         -4    1    6    6    0  503  0.13404526468E+03  0.17117629989E+03 -0.34214753556E+03  0.40538178883E+03  0.00000000000E+00 0.  1.
<mgrwt>
<rscale>  0 0.22692073E+04</rscale>
<asrwt>0</asrwt>
<pdfrwt beam="1">  1        1 0.10544936E+00 0.22692073E+04</pdfrwt>
<pdfrwt beam="2">  1       -2 0.28894666E+00 0.22692073E+04</pdfrwt>
<totfact> 0.82979247E-01</totfact>
</mgrwt>
</event>
<event>
12    5  0.5095719E-008  0.1987882E+04  0.7818608E-02  0.8612307E-01
          1   -1    0    0  501    0  0.00000000000E+00  0.00000000000E+00  0.14896439687E+04  0.14896439687E+04  0.00000000000E+00 0. -1.
         -2   -1    0    0    0  501 -0.00000000000E+00 -0.00000000000E+00 -0.66319112422E+03  0.66319112422E+03  0.00000000000E+00 0.  1.
        -24    2    1    2    0    0 -0.16668047425E+03 -0.36401189858E+03  0.10759967091E+04  0.11507241566E+04  0.78167281815E+02 0.  0.
        254    2    1    2    0    0  0.16668047425E+03  0.36401189858E+03 -0.24954386459E+03  0.10021109363E+04  0.88411941810E+03 0.  0.
         23    2    4    4    0    0  0.38004482669E+03  0.53674054781E+03 -0.85186643294E+02  0.66950118916E+03  0.91927102314E+02 0.  0.
         23    2    4    4    0    0 -0.21336435244E+03 -0.17272864923E+03 -0.16435722129E+03  0.33260974712E+03  0.90864814608E+02 0.  0.
          3    1    3    3  502    0 -0.11573377733E+03 -0.29934602589E+03  0.91940754969E+03  0.97381342816E+03  0.00000000000E+00 0. -1.
         -4    1    3    3    0  502 -0.50946696922E+02 -0.64665872691E+02  0.15658915938E+03  0.17691072849E+03  0.00000000000E+00 0.  1.
         13    1    5    5    0    0  0.20380235009E+02  0.48959513360E+01  0.38646979397E+01  0.21313380977E+02  0.00000000000E+00 0. -1.
        -13    1    5    5    0    0  0.35966459168E+03  0.53184459647E+03 -0.89051341233E+02  0.64818780818E+03  0.00000000000E+00 0.  1.
          3    1    6    6  503    0 -0.35578345725E+02  0.61741066681E+01 -0.12544091160E+02  0.38226855752E+02  0.00000000000E+00 0. -1.
         -3    1    6    6    0  503 -0.17778600671E+03 -0.17890275590E+03 -0.15181313013E+03  0.29438289137E+03  0.00000000000E+00 0.  1.
<mgrwt>
<rscale>  0 0.19878819E+04</rscale>
<asrwt>0</asrwt>
<pdfrwt beam="1">  1        1 0.22917599E+00 0.19878819E+04</pdfrwt>
<pdfrwt beam="2">  1       -2 0.10202940E+00 0.19878819E+04</pdfrwt>
<totfact> 0.42683802E+00</totfact>
</mgrwt>
</event>
<event>
12    5  0.5095719E-008  0.3147553E+04  0.7818608E-02  0.8202807E-01
          1   -1    0    0  501    0  0.00000000000E+00  0.00000000000E+00  0.22211919542E+04  0.22211919542E+04  0.00000000000E+00 0. -1.
         -2   -1    0    0    0  501 -0.00000000000E+00 -0.00000000000E+00 -0.11150643894E+04  0.11150643894E+04  0.00000000000E+00 0.  1.
        -24    2    1    2    0    0 -0.69335041245E+03  0.10221696998E+04 -0.28175957228E+03  0.12694448221E+04  0.80845594598E+02 0.  0.
        254    2    1    2    0    0  0.69335041245E+03 -0.10221696998E+04  0.13878871371E+04  0.20668115214E+04  0.90549073449E+03 0.  0.
         23    2    4    4    0    0 -0.14861681368E+03 -0.26298790109E+02  0.23436993540E+02  0.17717798804E+03  0.89800685481E+02 0.  0.
         23    2    4    4    0    0  0.84196722613E+03 -0.99587090972E+03  0.13644501435E+04  0.18896335334E+04  0.91230574316E+02 0.  0.
          1    1    3    3  502    0 -0.32067214475E+01  0.88517533215E+01  0.45300541731E+01  0.10447870124E+02  0.00000000000E+00 0. -1.
         -2    1    3    3    0  502 -0.69014369100E+03  0.10133179465E+04 -0.28628962645E+03  0.12589969520E+04  0.00000000000E+00 0.  1.
         13    1    5    5    0    0  0.77034813548E+01  0.12382733785E+02  0.16828973078E+01  0.14680186114E+02  0.00000000000E+00 0. -1.
        -13    1    5    5    0    0 -0.15632029503E+03 -0.38681523894E+02  0.21754096232E+02  0.16249780193E+03  0.00000000000E+00 0.  1.
          3    1    6    6  503    0  0.11084308623E+03 -0.10563884008E+03  0.19705061323E+03  0.24954899013E+03  0.00000000000E+00 0. -1.
         -3    1    6    6    0  503  0.73112413990E+03 -0.89023206964E+03  0.11673995303E+04  0.16400845433E+04  0.00000000000E+00 0.  1.
<mgrwt>
<rscale>  0 0.31475527E+04</rscale>
<asrwt>0</asrwt>
<pdfrwt beam="1">  1        1 0.34172184E+00 0.31475527E+04</pdfrwt>
<pdfrwt beam="2">  1       -2 0.17154837E+00 0.31475527E+04</pdfrwt>
<totfact> 0.32363668E-01</totfact>
</mgrwt>
</event>
<event>
12    5  0.5095719E-008  0.2525351E+04  0.7818608E-02  0.8394009E-01
         -2   -1    0    0    0  501 -0.00000000000E+00  0.00000000000E+00  0.17936602446E+04  0.17936602446E+04  0.00000000000E+00 0.  1.
          1   -1    0    0  501    0  0.00000000000E+00 -0.00000000000E+00 -0.88888026245E+03  0.88888026245E+03  0.00000000000E+00 0. -1.
        -24    2    1    2    0    0 -0.86936409911E+03  0.49271252980E+03 -0.90405574085E+02  0.10065624894E+04  0.80220342409E+02 0.  0.
        254    2    1    2    0    0  0.86936409911E+03 -0.49271252980E+03  0.99518555621E+03  0.16759780177E+04  0.90551004995E+03 0.  0.
         23    2    4    4    0    0  0.48775237584E+03  0.32918779394E+02  0.87889252140E+03  0.10099717885E+04  0.92762725446E+02 0.  0.
         23    2    4    4    0    0  0.38161172326E+03 -0.52563130919E+03  0.11629303481E+03  0.66600622915E+03  0.90135713138E+02 0.  0.
          3    1    3    3  502    0 -0.81506349842E+03  0.44015487079E+03 -0.74283087547E+02  0.92929155481E+03  0.00000000000E+00 0. -1.
         -4    1    3    3    0  502 -0.54300600681E+02  0.52557659013E+02 -0.16122486538E+02  0.77270934557E+02  0.00000000000E+00 0.  1.
         13    1    5    5    0    0  0.46852446672E+03  0.30012196323E+02  0.86999090422E+03  0.98858488824E+03  0.00000000000E+00 0. -1.
        -13    1    5    5    0    0  0.19227909124E+02  0.29065830706E+01  0.89016171811E+01  0.21386900263E+02  0.00000000000E+00 0.  1.
          1    1    6    6  503    0  0.34228626748E+03 -0.49378844594E+03  0.12744759218E+03  0.61419036707E+03  0.00000000000E+00 0. -1.
         -1    1    6    6    0  503  0.39325455780E+02 -0.31842863258E+02 -0.11154557375E+02  0.51815862079E+02  0.00000000000E+00 0.  1.
<mgrwt>
<rscale>  0 0.25253508E+04</rscale>
<asrwt>0</asrwt>
<pdfrwt beam="1">  1        1 0.13675081E+00 0.25253508E+04</pdfrwt>
<pdfrwt beam="2">  1       -2 0.27594773E+00 0.25253508E+04</pdfrwt>
<totfact> 0.64403881E-01</totfact>
</mgrwt>
</event>
<event>
12    5  0.5095719E-008  0.1335095E+04  0.7818608E-02  0.9002189E-01
          1   -1    0    0  501    0  0.00000000000E+00  0.00000000000E+00  0.35554537055E+04  0.35554537055E+04  0.00000000000E+00 0. -1.
         -2   -1    0    0    0  501 -0.00000000000E+00 -0.00000000000E+00 -0.12533406482E+03  0.12533406482E+03  0.00000000000E+00 0.  1.
        -24    2    1    2    0    0  0.14417000871E+03 -0.10436333302E+03  0.85276602907E+02  0.21239672792E+03  0.78508434819E+02 0.  0.
        254    2    1    2    0    0 -0.14417000871E+03  0.10436333302E+03  0.33448430378E+04  0.34683910424E+04  0.90004709816E+03 0.  0.
         23    2    4    4    0    0 -0.14817777093E+03 -0.54646080437E+01  0.65492833071E+02  0.18594069833E+03  0.91094008442E+02 0.  0.
         23    2    4    4    0    0  0.40077622211E+01  0.10982794107E+03  0.32793502047E+04  0.32824503441E+04  0.90907960759E+02 0.  0.
          3    1    3    3  502    0  0.12253437836E+03 -0.83046670944E+02  0.10000585593E+03  0.17864096578E+03  0.00000000000E+00 0. -1.
         -4    1    3    3    0  502  0.21635630348E+02 -0.21316662079E+02 -0.14729253027E+02  0.33755762138E+02  0.00000000000E+00 0.  1.
         13    1    5    5    0    0 -0.12892963067E+03 -0.38806562466E+02  0.58540697870E+02  0.14681897787E+03  0.00000000000E+00 0. -1.
        -13    1    5    5    0    0 -0.19248140256E+02  0.33341954422E+02  0.69521352012E+01  0.39121720461E+02  0.00000000000E+00 0.  1.
          4    1    6    6  503    0 -0.25309958115E+02 -0.21981782266E+01  0.78973980780E+03  0.79014833417E+03  0.00000000000E+00 0. -1.
         -4    1    6    6    0  503  0.29317720336E+02  0.11202611929E+03  0.24896103969E+04  0.24923020099E+04  0.00000000000E+00 0.  1.
<mgrwt>
<rscale>  0 0.13350947E+04</rscale>
<asrwt>0</asrwt>
<pdfrwt beam="1">  1        1 0.54699280E+00 0.13350947E+04</pdfrwt>
<pdfrwt beam="2">  1       -2 0.19282167E-01 0.13350947E+04</pdfrwt>
<totfact> 0.45071021E+00</totfact>
</mgrwt>
</event>
<event>
12    5  0.5095719E-008  0.1635396E+04  0.7818608E-02  0.8799093E-01
         -2   -1    0    0    0  501 -0.00000000000E+00  0.00000000000E+00  0.16990983867E+04  0.16990983867E+04  0.00000000000E+00 0.  1.
          1   -1    0    0  501    0  0.00000000000E+00 -0.00000000000E+00 -0.39352060358E+03  0.39352060358E+03  0.00000000000E+00 0. -1.
        -24    2    1    2    0    0 -0.53842589326E+03  0.13570065226E+03  0.29433492103E+03  0.63335977337E+03  0.78704810704E+02 0.  0.
        254    2    1    2    0    0  0.53842589326E+03 -0.13570065226E+03  0.10112428621E+04  0.14592592169E+04  0.89359287514E+03 0.  0.
         23    2    4    4    0    0  0.44258106461E+02 -0.29173137796E+03  0.85749724412E+03  0.91144229079E+03  0.91430568697E+02 0.  0.
         23    2    4    4    0    0  0.49416778680E+03  0.15603072570E+03  0.15374561801E+03  0.54781692616E+03  0.88984721495E+02 0.  0.
          1    1    3    3  502    0 -0.47438039114E+03  0.11692435136E+03  0.22764096781E+03  0.53900692914E+03  0.00000000000E+00 0. -1.
         -2    1    3    3    0  502 -0.64045502123E+02  0.18776300902E+02  0.66693953224E+02  0.94352844231E+02  0.00000000000E+00 0.  1.
         13    1    5    5    0    0 -0.13470671217E+01 -0.45741705482E+02  0.58982648757E+02  0.74653004392E+02  0.00000000000E+00 0. -1.
        -13    1    5    5    0    0  0.45605173583E+02 -0.24598967248E+03  0.79851459536E+03  0.83678928640E+03  0.00000000000E+00 0.  1.
          2    1    6    6  503    0  0.40056405618E+02  0.81550860642E+01  0.39318377051E+02  0.56718214302E+02  0.00000000000E+00 0. -1.
         -2    1    6    6    0  503  0.45411138118E+03  0.14787563964E+03  0.11442724096E+03  0.49109871186E+03  0.00000000000E+00 0.  1.
<mgrwt>
<rscale>  0 0.16353962E+04</rscale>
<asrwt>0</asrwt>
<pdfrwt beam="1">  1        1 0.60541632E-01 0.16353962E+04</pdfrwt>
<pdfrwt beam="2">  1       -2 0.26139975E+00 0.16353962E+04</pdfrwt>
<totfact> 0.28075797E+00</totfact>
</mgrwt>
</event>
<event>
12    5  0.5095719E-008  0.1887456E+04  0.7818608E-02  0.8661126E-01
          3   -1    0    0  501    0  0.00000000000E+00  0.00000000000E+00  0.46701547350E+03  0.46701547350E+03  0.00000000000E+00 0. -1.
         -4   -1    0    0    0  501 -0.00000000000E+00 -0.00000000000E+00 -0.19070505700E+04  0.19070505700E+04  0.00000000000E+00 0.  1.
        -24    2    1    2    0    0  0.32264257537E+02 -0.32091632207E+03  0.26085047756E+03  0.42255237317E+03  0.80493902503E+02 0.  0.
        254    2    1    2    0    0 -0.32264257537E+02  0.32091632207E+03 -0.17008855741E+04  0.19515136704E+04  0.90075834794E+03 0.  0.
         23    2    4    4    0    0 -0.19502814784E+03 -0.17485519036E+03 -0.11660735087E+04  0.11987703067E+04  0.93340798404E+02 0.  0.
         23    2    4    4    0    0  0.16276389031E+03  0.49577151243E+03 -0.53481206546E+03  0.75274336366E+03  0.91198408163E+02 0.  0.
          1    1    3    3  502    0  0.49959000869E+02 -0.19786568618E+03  0.19319821892E+03  0.28102007638E+03  0.00000000000E+00 0. -1.
         -2    1    3    3    0  502 -0.17694743332E+02 -0.12305063589E+03  0.67652258645E+02  0.14153229679E+03  0.00000000000E+00 0.  1.
         13    1    5    5    0    0 -0.66704047535E+02 -0.18493289301E+02 -0.42439794699E+03  0.43000587102E+03  0.00000000000E+00 0. -1.
        -13    1    5    5    0    0 -0.12832410031E+03 -0.15636190106E+03 -0.74167556167E+03  0.76876443570E+03  0.00000000000E+00 0.  1.
          4    1    6    6  503    0  0.85530459564E+01  0.19363715445E+02 -0.56208608048E+02  0.60062598093E+02  0.00000000000E+00 0. -1.
         -4    1    6    6    0  503  0.15421084435E+03  0.47640779699E+03 -0.47860345741E+03  0.69268076557E+03  0.00000000000E+00 0.  1.
<mgrwt>
<rscale>  0 0.18874556E+04</rscale>
<asrwt>0</asrwt>
<pdfrwt beam="1">  1        3 0.71848533E-01 0.18874556E+04</pdfrwt>
<pdfrwt beam="2">  1       -4 0.29339240E+00 0.18874556E+04</pdfrwt>
<totfact> 0.13438198E-01</totfact>
</mgrwt>
</event>
<event>
12    5  0.5095719E-008  0.1901446E+04  0.7818608E-02  0.8654137E-01
         -2   -1    0    0    0  501 -0.00000000000E+00  0.00000000000E+00  0.73880433617E+03  0.73880433617E+03  0.00000000000E+00 0.  1.
          1   -1    0    0  501    0  0.00000000000E+00 -0.00000000000E+00 -0.12234290373E+04  0.12234290373E+04  0.00000000000E+00 0. -1.
        -24    2    1    2    0    0 -0.37370746378E+03  0.42194856033E+03 -0.67938907479E+03  0.88639023039E+03  0.80126584466E+02 0.  0.
        254    2    1    2    0    0  0.37370746378E+03 -0.42194856033E+03  0.19476437363E+03  0.10758431431E+04  0.89543701693E+03 0.  0.
         23    2    4    4    0    0  0.64720063287E+03 -0.19087882036E+03  0.66334177705E+02  0.68488880851E+03  0.96793975275E+02 0.  0.
         23    2    4    4    0    0 -0.27349316909E+03 -0.23106973997E+03  0.12843019593E+03  0.39095433460E+03  0.90328501849E+02 0.  0.
          1    1    3    3  502    0 -0.37003451578E+03  0.41277269367E+03 -0.67892394485E+03  0.87649561459E+03  0.00000000000E+00 0. -1.
         -2    1    3    3    0  502 -0.36729479998E+01  0.91758666528E+01 -0.46512993775E+00  0.98946157934E+01  0.00000000000E+00 0.  1.
         13    1    5    5    0    0  0.29418183909E+03 -0.38927344157E+02  0.43037366415E+02  0.29985080870E+03  0.00000000000E+00 0.  1.
        -13    1    5    5    0    0  0.35301879378E+03 -0.15195147620E+03  0.23296811290E+02  0.38503799981E+03  0.00000000000E+00 0. -1.
          2    1    6    6  503    0 -0.63579604750E+02 -0.13186962541E+02  0.37742100965E+02  0.75104782181E+02  0.00000000000E+00 0. -1.
         -2    1    6    6    0  503 -0.20991356434E+03 -0.21788277743E+03  0.90688094964E+02  0.31584955242E+03  0.00000000000E+00 0.  1.
<mgrwt>
<rscale>  0 0.19014465E+04</rscale>
<asrwt>0</asrwt>
<pdfrwt beam="1">  1        1 0.18821985E+00 0.19014465E+04</pdfrwt>
<pdfrwt beam="2">  1       -2 0.11366221E+00 0.19014465E+04</pdfrwt>
<totfact> 0.51150797E+00</totfact>
</mgrwt>
</event>
<event>
12    5  0.5095719E-008  0.1664261E+04  0.7818608E-02  0.8782014E-01
         -2   -1    0    0    0  501 -0.00000000000E+00  0.00000000000E+00  0.36522266096E+03  0.36522266096E+03  0.00000000000E+00 0.  1.
          1   -1    0    0  501    0  0.00000000000E+00 -0.00000000000E+00 -0.18959421632E+04  0.18959421632E+04  0.00000000000E+00 0. -1.
        -24    2    1    2    0    0 -0.29599285204E+03 -0.27334010953E+03 -0.10127611147E+04  0.10929205286E+04  0.80396656981E+02 0.  0.
        254    2    1    2    0    0  0.29599285204E+03  0.27334010953E+03 -0.51795838754E+03  0.11682442956E+04  0.96653363054E+03 0.  0.
         23    2    4    4    0    0  0.19145759900E+03 -0.84291655337E+02 -0.70516034882E+03  0.74117276712E+03  0.91240658696E+02 0.  0.
         23    2    4    4    0    0  0.10453525304E+03  0.35763176486E+03  0.18720196127E+03  0.42707152845E+03  0.92289857202E+02 0.  0.
          3    1    3    3  502    0 -0.19727660474E+03 -0.18075417701E+03 -0.76741080472E+03  0.81271733984E+03  0.00000000000E+00 0. -1.
         -4    1    3    3    0  502 -0.98716247301E+02 -0.92585932520E+02 -0.24535030998E+03  0.28020318875E+03  0.00000000000E+00 0.  1.
         13    1    5    5    0    0  0.10648779827E+03 -0.49781137415E+01 -0.25809895498E+03  0.27924810359E+03  0.00000000000E+00 0.  1.
        -13    1    5    5    0    0  0.84969800733E+02 -0.79313541596E+02 -0.44706139383E+03  0.46192466352E+03  0.00000000000E+00 0. -1.
          4    1    6    6  503    0  0.10884728147E+03  0.30494416457E+03  0.12925414262E+03  0.34863348602E+03  0.00000000000E+00 0. -1.
         -4    1    6    6    0  503 -0.43120284352E+01  0.52687600289E+02  0.57947818652E+02  0.78438042428E+02  0.00000000000E+00 0.  1.
<mgrwt>
<rscale>  0 0.16642608E+04</rscale>
<asrwt>0</asrwt>
<pdfrwt beam="1">  1        1 0.29168341E+00 0.16642608E+04</pdfrwt>
<pdfrwt beam="2">  1       -2 0.56188101E-01 0.16642608E+04</pdfrwt>
<totfact> 0.87373191E+00</totfact>
</mgrwt>
</event>
<event>
12    5  0.5095719E-008  0.1568376E+04  0.7818608E-02  0.8840215E-01
         -2   -1    0    0    0  501 -0.00000000000E+00  0.00000000000E+00  0.86925587155E+03  0.86925587155E+03  0.00000000000E+00 0.  1.
          1   -1    0    0  501    0  0.00000000000E+00 -0.00000000000E+00 -0.70744525090E+03  0.70744525090E+03  0.00000000000E+00 0. -1.
        -24    2    1    2    0    0 -0.47385449253E+03 -0.14682034737E+03  0.29467055749E+02  0.50391977191E+03  0.83501704524E+02 0.  0.
        254    2    1    2    0    0  0.47385449253E+03  0.14682034737E+03  0.13234356490E+03  0.10727813505E+04  0.94193986667E+03 0.  0.
         23    2    4    4    0    0  0.10490893611E+03 -0.11445155389E+02 -0.38623735075E+03  0.41135258256E+03  0.94312139223E+02 0.  0.
         23    2    4    4    0    0  0.36894555641E+03  0.15826550276E+03  0.51858091566E+03  0.66142876798E+03  0.85982882432E+02 0.  0.
          3    1    3    3  502    0 -0.79031444325E+02 -0.51282736279E+02 -0.14532889484E+02  0.95326245647E+02  0.00000000000E+00 0. -1.
         -4    1    3    3    0  502 -0.39482304820E+03 -0.95537611090E+02  0.43999945234E+02  0.40859352626E+03  0.00000000000E+00 0.  1.
         13    1    5    5    0    0  0.55768850120E+02  0.88166944197E+01 -0.66540020376E+02  0.87266677809E+02  0.00000000000E+00 0. -1.
        -13    1    5    5    0    0  0.49140085995E+02 -0.20261849809E+02 -0.31969733038E+03  0.32408590475E+03  0.00000000000E+00 0.  1.
          4    1    6    6  503    0  0.64574991570E+02  0.19442584177E+02  0.14524424533E+03  0.16013692397E+03  0.00000000000E+00 0. -1.
         -4    1    6    6    0  503  0.30437056484E+03  0.13882291858E+03  0.37333667032E+03  0.50129184401E+03  0.00000000000E+00 0.  1.
<mgrwt>
<rscale>  0 0.15683762E+04</rscale>
<asrwt>0</asrwt>
<pdfrwt beam="1">  1        1 0.10883773E+00 0.15683762E+04</pdfrwt>
<pdfrwt beam="2">  1       -2 0.13373167E+00 0.15683762E+04</pdfrwt>
<totfact> 0.91229428E+00</totfact>
</mgrwt>
</event>
<event>
12    5  0.5095719E-008  0.1490818E+04  0.7818608E-02  0.8890582E-01
          1   -1    0    0  501    0  0.00000000000E+00  0.00000000000E+00  0.64842442884E+03  0.64842442884E+03  0.00000000000E+00 0. -1.
         -2   -1    0    0    0  501 -0.00000000000E+00 -0.00000000000E+00 -0.85689969131E+03  0.85689969131E+03  0.00000000000E+00 0.  1.
        -24    2    1    2    0    0  0.24909066799E+03  0.38004805334E+03  0.52083565848E+02  0.46473230894E+03  0.82345233095E+02 0.  0.
        254    2    1    2    0    0 -0.24909066799E+03 -0.38004805334E+03 -0.26055882832E+03  0.10405918112E+04  0.89914277554E+03 0.  0.
         23    2    4    4    0    0 -0.67508910793E+02 -0.63323015531E+03 -0.32860873794E+02  0.64405348591E+03  0.90482998698E+02 0.  0.
         23    2    4    4    0    0 -0.18158175720E+03  0.25318210197E+03 -0.22769795452E+03  0.39653832530E+03  0.91231428964E+02 0.  0.
          3    1    3    3  502    0  0.20066782959E+03  0.32966846907E+03  0.70827979212E+02  0.39238435235E+03  0.00000000000E+00 0. -1.
         -4    1    3    3    0  502  0.48422838401E+02  0.50379584267E+02 -0.18744413364E+02  0.72347956585E+02  0.00000000000E+00 0.  1.
         13    1    5    5    0    0 -0.32337185667E+01 -0.15198129095E+03 -0.44489166209E+02  0.15839209464E+03  0.00000000000E+00 0.  1.
        -13    1    5    5    0    0 -0.64275192226E+02 -0.48124886436E+03  0.11628292415E+02  0.48566139127E+03  0.00000000000E+00 0. -1.
          3    1    6    6  503    0 -0.10696734176E+03  0.19476059356E+03 -0.19691434023E+03  0.29689890265E+03  0.00000000000E+00 0. -1.
         -3    1    6    6    0  503 -0.74614415441E+02  0.58421508411E+02 -0.30783614290E+02  0.99639422646E+02  0.00000000000E+00 0.  1.
<mgrwt>
<rscale>  0 0.14908182E+04</rscale>
<asrwt>0</asrwt>
<pdfrwt beam="1">  1        1 0.99757605E-01 0.14908182E+04</pdfrwt>
<pdfrwt beam="2">  1       -2 0.13183072E+00 0.14908182E+04</pdfrwt>
<totfact> 0.10852547E+01</totfact>
</mgrwt>
</event>
<event>
12    5  0.5095719E-008  0.1256758E+04  0.7818608E-02  0.9064577E-01
          1   -1    0    0  501    0  0.00000000000E+00  0.00000000000E+00  0.26592304311E+03  0.26592304311E+03  0.00000000000E+00 0. -1.
         -2   -1    0    0    0  501 -0.00000000000E+00 -0.00000000000E+00 -0.14848667064E+04  0.14848667064E+04  0.00000000000E+00 0.  1.
        -24    2    1    2    0    0 -0.13753842046E+03 -0.90378685702E+02  0.44811975786E+02  0.18919608743E+03  0.81865269752E+02 0.  0.
        254    2    1    2    0    0  0.13753842046E+03  0.90378685702E+02 -0.12637556390E+04  0.15615936620E+04  0.90244740912E+03 0.  0.
         23    2    4    4    0    0 -0.18643783292E+03  0.29106912437E+03 -0.10618563561E+04  0.11205046347E+04  0.92257329691E+02 0.  0.
         23    2    4    4    0    0  0.32397625338E+03 -0.20069043867E+03 -0.20189928298E+03  0.44108902730E+03  0.92514564334E+02 0.  0.
          3    1    3    3  502    0 -0.10472469174E+03 -0.26056648670E+02  0.45162923807E+02  0.11698675004E+03  0.00000000000E+00 0. -1.
         -4    1    3    3    0  502 -0.32813728728E+02 -0.64322037032E+02 -0.35094802149E+00  0.72209337384E+02  0.00000000000E+00 0.  1.
         13    1    5    5    0    0 -0.18541998519E+03  0.29367100686E+03 -0.10001788979E+04  0.10587639298E+04  0.00000000000E+00 0. -1.
        -13    1    5    5    0    0 -0.10178477204E+01 -0.26018824850E+01 -0.61677458103E+02  0.61740704924E+02  0.00000000000E+00 0.  1.
          3    1    6    6  503    0  0.29073764620E+03 -0.19121400966E+03 -0.20883562805E+03  0.40583678486E+03  0.00000000000E+00 0. -1.
         -3    1    6    6    0  503  0.33238607181E+02 -0.94764290105E+01  0.69363450694E+01  0.35252242440E+02  0.00000000000E+00 0.  1.
<mgrwt>
<rscale>  0 0.12567582E+04</rscale>
<asrwt>0</asrwt>
<pdfrwt beam="1">  1        1 0.40911237E-01 0.12567582E+04</pdfrwt>
<pdfrwt beam="2">  1       -2 0.22844103E+00 0.12567582E+04</pdfrwt>
<totfact> 0.77211986E+00</totfact>
</mgrwt>
</event>
<event>
12    5  0.5095719E-008  0.1529954E+04  0.7818608E-02  0.8864775E-01
         -2   -1    0    0    0  501 -0.00000000000E+00  0.00000000000E+00  0.12326278349E+04  0.12326278349E+04  0.00000000000E+00 0.  1.
          1   -1    0    0  501    0  0.00000000000E+00 -0.00000000000E+00 -0.47474960512E+03  0.47474960512E+03  0.00000000000E+00 0. -1.
        -24    2    1    2    0    0  0.16015630996E+03  0.47003328882E+03  0.23004808340E+03  0.55365590121E+03  0.83853443854E+02 0.  0.
        254    2    1    2    0    0 -0.16015630996E+03 -0.47003328882E+03  0.52783014642E+03  0.11537215388E+04  0.89771230887E+03 0.  0.
         23    2    4    4    0    0 -0.22052250964E+03 -0.24855534611E+03 -0.19110504116E+03  0.39345436139E+03  0.88742663919E+02 0.  0.
         23    2    4    4    0    0  0.60366199683E+02 -0.22147794272E+03  0.71893518758E+03  0.76026717746E+03  0.91879377477E+02 0.  0.
          3    1    3    3  502    0  0.11745648009E+03  0.24517247539E+03  0.95405859033E+02  0.28811082129E+03  0.00000000000E+00 0. -1.
         -4    1    3    3    0  502  0.42699829867E+02  0.22486081343E+03  0.13464222437E+03  0.26554507992E+03  0.00000000000E+00 0.  1.
         13    1    5    5    0    0 -0.13489592175E+03 -0.20282301519E+03 -0.11139990623E+03  0.26785075006E+03  0.00000000000E+00 0.  1.
        -13    1    5    5    0    0 -0.85626587892E+02 -0.45732330911E+02 -0.79705134933E+02  0.12560361133E+03  0.00000000000E+00 0. -1.
          4    1    6    6  503    0  0.30514626472E+01  0.49849341749E+01  0.19112138316E+01  0.61492870583E+01  0.00000000000E+00 0.  1.
         -4    1    6    6    0  503  0.57314737036E+02 -0.22646287689E+03  0.71702397374E+03  0.75411789040E+03  0.00000000000E+00 0. -1.
<mgrwt>
<rscale>  0 0.15299537E+04</rscale>
<asrwt>0</asrwt>
<pdfrwt beam="1">  1        1 0.73038401E-01 0.15299537E+04</pdfrwt>
<pdfrwt beam="2">  1       -2 0.18963505E+00 0.15299537E+04</pdfrwt>
<totfact> 0.62552686E+00</totfact>
</mgrwt>
</event>
<event>
12    5  0.5095719E-008  0.2367389E+04  0.7818608E-02  0.8451814E-01
          1   -1    0    0  501    0  0.00000000000E+00  0.00000000000E+00  0.21505667330E+04  0.21505667330E+04  0.00000000000E+00 0. -1.
         -2   -1    0    0    0  501 -0.00000000000E+00 -0.00000000000E+00 -0.65151801253E+03  0.65151801253E+03  0.00000000000E+00 0.  1.
        -24    2    1    2    0    0 -0.13152515217E+03  0.93191636092E+03  0.10172425223E+04  0.13880335193E+04  0.78023920136E+02 0.  0.
        254    2    1    2    0    0  0.13152515217E+03 -0.93191636092E+03  0.48180619816E+03  0.14140512262E+04  0.93895510456E+03 0.  0.
         23    2    4    4    0    0 -0.28242114856E+03 -0.83208569281E+03  0.23721980850E+03  0.91457138792E+03  0.89662036134E+02 0.  0.
         23    2    4    4    0    0  0.41394630073E+03 -0.99830668113E+02  0.24458638966E+03  0.49947983830E+03  0.91323078543E+02 0.  0.
          3    1    3    3  502    0 -0.11648804457E+03  0.79592495768E+03  0.82686473469E+03  0.11535906086E+04  0.00000000000E+00 0. -1.
         -4    1    3    3    0  502 -0.15037107596E+02  0.13599140324E+03  0.19037778758E+03  0.23444291067E+03  0.00000000000E+00 0.  1.
         13    1    5    5    0    0 -0.38406666512E+02 -0.23709693817E+03  0.63811149915E+02  0.24851940161E+03  0.00000000000E+00 0. -1.
        -13    1    5    5    0    0 -0.24401448205E+03 -0.59498875464E+03  0.17340865858E+03  0.66605198631E+03  0.00000000000E+00 0.  1.
          3    1    6    6  503    0  0.16575476752E+03 -0.14340673661E+02  0.13802023463E+03  0.21617095791E+03  0.00000000000E+00 0. -1.
         -3    1    6    6    0  503  0.24819153320E+03 -0.85489994452E+02  0.10656615503E+03  0.28330888038E+03  0.00000000000E+00 0.  1.
<mgrwt>
<rscale>  0 0.23673892E+04</rscale>
<asrwt>0</asrwt>
<pdfrwt beam="1">  1        1 0.33085642E+00 0.23673892E+04</pdfrwt>
<pdfrwt beam="2">  1       -2 0.10023354E+00 0.23673892E+04</pdfrwt>
<totfact> 0.15270397E+00</totfact>
</mgrwt>
</event>
<event>
12    5  0.5095719E-008  0.1919173E+04  0.7818608E-02  0.8645371E-01
          3   -1    0    0  501    0  0.00000000000E+00  0.00000000000E+00  0.66939494537E+03  0.66939494537E+03  0.00000000000E+00 0. -1.
         -4   -1    0    0    0  501 -0.00000000000E+00 -0.00000000000E+00 -0.13755804768E+04  0.13755804768E+04  0.00000000000E+00 0.  1.
        -24    2    1    2    0    0 -0.26085755913E+03 -0.58096503913E+02 -0.99540525577E+03  0.10334904446E+04  0.76478793446E+02 0.  0.
        254    2    1    2    0    0  0.26085755913E+03  0.58096503913E+02  0.28921972437E+03  0.10114849776E+04  0.93168231763E+03 0.  0.
         23    2    4    4    0    0  0.35196876005E+03  0.43743883112E+03  0.16977292198E+03  0.59374066666E+03  0.92034749910E+02 0.  0.
         23    2    4    4    0    0 -0.91111200917E+02 -0.37934232721E+03  0.11944680240E+03  0.41774431092E+03  0.89671169059E+02 0.  0.
          3    1    3    3  502    0 -0.40207165381E+02  0.95553870631E+01 -0.88396150604E+02  0.97579716189E+02  0.00000000000E+00 0. -1.
         -4    1    3    3    0  502 -0.22065039375E+03 -0.67651890976E+02 -0.90700910516E+03  0.93591072836E+03  0.00000000000E+00 0.  1.
         13    1    5    5    0    0  0.12928829389E+03  0.12656378245E+03  0.16177915462E+02  0.18164685220E+03  0.00000000000E+00 0.  1.
        -13    1    5    5    0    0  0.22268046616E+03  0.31087504867E+03  0.15359500651E+03  0.41209381447E+03  0.00000000000E+00 0. -1.
          4    1    6    6  503    0 -0.70695870094E+02 -0.36123594861E+03  0.12708149007E+03  0.38940855376E+03  0.00000000000E+00 0. -1.
         -4    1    6    6    0  503 -0.20415330823E+02 -0.18106378592E+02 -0.76346876700E+01  0.28335757165E+02  0.00000000000E+00 0.  1.
<mgrwt>
<rscale>  0 0.19191734E+04</rscale>
<asrwt>0</asrwt>
<pdfrwt beam="1">  1        3 0.10298384E+00 0.19191734E+04</pdfrwt>
<pdfrwt beam="2">  1       -4 0.21162777E+00 0.19191734E+04</pdfrwt>
<totfact> 0.19269572E-01</totfact>
</mgrwt>
</event>
<event>
12    5  0.5095719E-008  0.1075222E+04  0.7818608E-02  0.9229684E-01
          1   -1    0    0  501    0  0.00000000000E+00  0.00000000000E+00  0.15150915636E+04  0.15150915636E+04  0.00000000000E+00 0. -1.
         -2   -1    0    0    0  501 -0.00000000000E+00 -0.00000000000E+00 -0.19076458930E+03  0.19076458930E+03  0.00000000000E+00 0.  1.
        -24    2    1    2    0    0 -0.92585925344E+02  0.80309796464E+02  0.33486112247E+03  0.36560941109E+03  0.80724551134E+02 0.  0.
        254    2    1    2    0    0  0.92585925344E+02 -0.80309796464E+02  0.98946585188E+03  0.13402467419E+04  0.89565441998E+03 0.  0.
         23    2    4    4    0    0 -0.97898539232E+01 -0.47288861543E+03  0.45237735266E+03  0.66103837343E+03  0.92773800759E+02 0.  0.
         23    2    4    4    0    0  0.10237577927E+03  0.39257881897E+03  0.53708849922E+03  0.67920836842E+03  0.90890167017E+02 0.  0.
          3    1    3    3  502    0 -0.81483011011E+02  0.71423871260E+02  0.33425115873E+03  0.35137542257E+03  0.00000000000E+00 0. -1.
         -4    1    3    3    0  502 -0.11102914333E+02  0.88859252035E+01  0.60996373175E+00  0.14233988519E+02  0.00000000000E+00 0.  1.
         13    1    5    5    0    0 -0.19064423714E+01  0.36312506926E+01  0.98993095779E+01  0.10715261743E+02  0.00000000000E+00 0.  1.
        -13    1    5    5    0    0 -0.78834115518E+01 -0.47651986612E+03  0.44247804309E+03  0.65032311169E+03  0.00000000000E+00 0. -1.
          1    1    6    6  503    0  0.11522735548E+03  0.28841853488E+03  0.41110512885E+03  0.51523783021E+03  0.00000000000E+00 0. -1.
         -1    1    6    6    0  503 -0.12851576213E+02  0.10416028408E+03  0.12598337037E+03  0.16397053821E+03  0.00000000000E+00 0.  1.
<mgrwt>
<rscale>  0 0.10752224E+04</rscale>
<asrwt>0</asrwt>
<pdfrwt beam="1">  1        1 0.23309100E+00 0.10752224E+04</pdfrwt>
<pdfrwt beam="2">  1       -2 0.29348399E-01 0.10752224E+04</pdfrwt>
<totfact> 0.59748143E+01</totfact>
</mgrwt>
</event>
<event>
12    5  0.5095719E-008  0.1624643E+04  0.7818608E-02  0.8805550E-01
         -2   -1    0    0    0  501 -0.00000000000E+00  0.00000000000E+00  0.24835457567E+03  0.24835457567E+03  0.00000000000E+00 0.  1.
          1   -1    0    0  501    0  0.00000000000E+00 -0.00000000000E+00 -0.26569515211E+04  0.26569515211E+04  0.00000000000E+00 0. -1.
        -24    2    1    2    0    0  0.26496427776E+03 -0.20909002749E+03 -0.16153829342E+04  0.16521632876E+04  0.79099915925E+02 0.  0.
        254    2    1    2    0    0 -0.26496427776E+03  0.20909002749E+03 -0.79321401125E+03  0.12531428092E+04  0.90953489459E+03 0.  0.
         23    2    4    4    0    0  0.26330414294E+03  0.28481493307E+03 -0.49393973724E+03  0.63452134333E+03  0.90511067436E+02 0.  0.
         23    2    4    4    0    0 -0.52826842070E+03 -0.75724905583E+02 -0.29927427401E+03  0.61862146585E+03  0.91244952141E+02 0.  0.
          1    1    3    3  502    0  0.26407135013E+03 -0.21447269427E+03 -0.15687978032E+04  0.16052597179E+04  0.00000000000E+00 0. -1.
         -2    1    3    3    0  502  0.89292763269E+00  0.53826667809E+01 -0.46585130974E+02  0.46903569687E+02  0.00000000000E+00 0.  1.
         13    1    5    5    0    0  0.17823033490E+02  0.57958321450E+02 -0.48667576663E+02  0.77751916801E+02  0.00000000000E+00 0. -1.
        -13    1    5    5    0    0  0.24548110945E+03  0.22685661162E+03 -0.44527216057E+03  0.55676942653E+03  0.00000000000E+00 0.  1.
          1    1    6    6  503    0 -0.28546628788E+03 -0.45667197616E+02 -0.21342033662E+03  0.35933930280E+03  0.00000000000E+00 0. -1.
         -1    1    6    6    0  503 -0.24280213282E+03 -0.30057707968E+02 -0.85853937391E+02  0.25928216305E+03  0.00000000000E+00 0.  1.
<mgrwt>
<rscale>  0 0.16246428E+04</rscale>
<asrwt>0</asrwt>
<pdfrwt beam="1">  1        1 0.40876178E+00 0.16246428E+04</pdfrwt>
<pdfrwt beam="2">  1       -2 0.38208395E-01 0.16246428E+04</pdfrwt>
<totfact> 0.57391152E+00</totfact>
</mgrwt>
</event>
<event>
12    5  0.5095719E-008  0.1151041E+04  0.7818608E-02  0.9156824E-01
         -2   -1    0    0    0  501 -0.00000000000E+00  0.00000000000E+00  0.59860796208E+03  0.59860796208E+03  0.00000000000E+00 0.  1.
          1   -1    0    0  501    0  0.00000000000E+00 -0.00000000000E+00 -0.55332316351E+03  0.55332316351E+03  0.00000000000E+00 0. -1.
        -24    2    1    2    0    0 -0.20280270727E+03  0.64648576927E+02  0.92350207059E+02  0.24557344298E+03  0.80432447294E+02 0.  0.
        254    2    1    2    0    0  0.20280270727E+03 -0.64648576927E+02 -0.47065408485E+02  0.90635768261E+03  0.87975037345E+03 0.  0.
         23    2    4    4    0    0 -0.16866667537E+03  0.31351543325E+03 -0.31705323815E+01  0.36738880017E+03  0.90686845494E+02 0.  0.
         23    2    4    4    0    0  0.37146938264E+03 -0.37816401018E+03 -0.43894876103E+02  0.53896888244E+03  0.86966518036E+02 0.  0.
          3    1    3    3  502    0 -0.55496362138E+02  0.28704669916E+01  0.61496050558E+02  0.82884558426E+02  0.00000000000E+00 0. -1.
         -4    1    3    3    0  502 -0.14730634513E+03  0.61778109935E+02  0.30854156501E+02  0.16268888455E+03  0.00000000000E+00 0.  1.
         13    1    5    5    0    0 -0.11464711935E+03  0.27658085861E+03  0.14021334731E+02  0.29972909627E+03  0.00000000000E+00 0. -1.
        -13    1    5    5    0    0 -0.54019556019E+02  0.36934574646E+02 -0.17191867113E+02  0.67659703898E+02  0.00000000000E+00 0.  1.
          3    1    6    6  503    0  0.28640934110E+03 -0.23791417244E+03 -0.44124625347E+02  0.37494059087E+03  0.00000000000E+00 0. -1.
         -3    1    6    6    0  503  0.85060041536E+02 -0.14024983773E+03  0.22974924426E+00  0.16402829157E+03  0.00000000000E+00 0.  1.
<mgrwt>
<rscale>  0 0.11510407E+04</rscale>
<asrwt>0</asrwt>
<pdfrwt beam="1">  1        1 0.85126641E-01 0.11510407E+04</pdfrwt>
<pdfrwt beam="2">  1       -2 0.92093533E-01 0.11510407E+04</pdfrwt>
<totfact> 0.33492981E+01</totfact>
</mgrwt>
</event>
<event>
12    5  0.5095719E-008  0.1488298E+04  0.7818608E-02  0.8892272E-01
         -4   -1    0    0    0  501 -0.00000000000E+00  0.00000000000E+00  0.12833136712E+04  0.12833136712E+04  0.00000000000E+00 0.  1.
          3   -1    0    0  501    0  0.00000000000E+00 -0.00000000000E+00 -0.43150591098E+03  0.43150591098E+03  0.00000000000E+00 0. -1.
        -24    2    1    2    0    0 -0.44877204736E+03  0.91452259595E+02  0.35515715382E+03  0.58372639534E+03  0.69570355977E+02 0.  0.
        254    2    1    2    0    0  0.44877204736E+03 -0.91452259595E+02  0.49665060642E+03  0.11310931869E+04  0.90716597503E+03 0.  0.
         23    2    4    4    0    0  0.77406042543E+02 -0.29341965898E+02  0.68786361067E+03  0.69889786698E+03  0.91919721524E+02 0.  0.
         23    2    4    4    0    0  0.37136600482E+03 -0.62110293698E+02 -0.19121300425E+03  0.43219531988E+03  0.91978168176E+02 0.  0.
          1    1    3    3  502    0 -0.42194920338E+01 -0.24871679543E+01 -0.24810992602E+01  0.54905346730E+01  0.00000000000E+00 0. -1.
         -2    1    3    3    0  502 -0.44455255532E+03  0.93939427550E+02  0.35763825308E+03  0.57823586067E+03  0.00000000000E+00 0.  1.
         13    1    5    5    0    0  0.38947031815E+02  0.20945043519E+02  0.12712703991E+03  0.13459884997E+03  0.00000000000E+00 0. -1.
        -13    1    5    5    0    0  0.38459010729E+02 -0.50287009417E+02  0.56073657076E+03  0.56429901702E+03  0.00000000000E+00 0.  1.
          2    1    6    6  503    0  0.85344226518E+02 -0.14724751197E+02 -0.90544481882E+02  0.12529468663E+03  0.00000000000E+00 0. -1.
         -2    1    6    6    0  503  0.28602177830E+03 -0.47385542501E+02 -0.10066852237E+03  0.30690063326E+03  0.00000000000E+00 0.  1.
<mgrwt>
<rscale>  0 0.14882976E+04</rscale>
<asrwt>0</asrwt>
<pdfrwt beam="1">  1        3 0.66385526E-01 0.14882976E+04</pdfrwt>
<pdfrwt beam="2">  1       -4 0.19743287E+00 0.14882976E+04</pdfrwt>
<totfact> 0.66265724E-01</totfact>
</mgrwt>
</event>
<event>
12    5  0.5095719E-008  0.1498041E+04  0.7818608E-02  0.8885756E-01
         -2   -1    0    0    0  501 -0.00000000000E+00  0.00000000000E+00  0.56526391946E+03  0.56526391946E+03  0.00000000000E+00 0.  1.
          1   -1    0    0  501    0  0.00000000000E+00 -0.00000000000E+00 -0.99251346066E+03  0.99251346066E+03  0.00000000000E+00 0. -1.
        -24    2    1    2    0    0  0.26474461377E+03 -0.19016539420E+03 -0.50624555744E+03  0.60710911004E+03  0.77745221101E+02 0.  0.
        254    2    1    2    0    0 -0.26474461377E+03  0.19016539420E+03  0.78996016242E+02  0.95066827008E+03  0.88953763354E+03 0.  0.
         23    2    4    4    0    0 -0.29103062276E+03 -0.27600331658E+03 -0.12987143437E+03  0.43128686116E+03  0.90912666870E+02 0.  0.
         23    2    4    4    0    0  0.26286008996E+02  0.46616871078E+03  0.20886745061E+03  0.51938140891E+03  0.90151066677E+02 0.  0.
          1    1    3    3  502    0  0.21777249852E+03 -0.18483090168E+03 -0.45638656086E+03  0.53840135240E+03  0.00000000000E+00 0. -1.
         -2    1    3    3    0  502  0.46972115247E+02 -0.53344925141E+01 -0.49858996574E+02  0.68707757644E+02  0.00000000000E+00 0.  1.
         13    1    5    5    0    0 -0.18022554912E+03 -0.11688908385E+03 -0.44217969441E+02  0.21931606257E+03  0.00000000000E+00 0.  1.
        -13    1    5    5    0    0 -0.11080507364E+03 -0.15911423273E+03 -0.85653464928E+02  0.21197079859E+03  0.00000000000E+00 0. -1.
          1    1    6    6  503    0  0.48062768081E+02  0.42385767522E+03  0.19933368360E+03  0.47084952579E+03  0.00000000000E+00 0. -1.
         -1    1    6    6    0  503 -0.21776759085E+02  0.42311035561E+02  0.95337670140E+01  0.48531883128E+02  0.00000000000E+00 0.  1.
<mgrwt>
<rscale>  0 0.14980415E+04</rscale>
<asrwt>0</asrwt>
<pdfrwt beam="1">  1        1 0.15269438E+00 0.14980415E+04</pdfrwt>
<pdfrwt beam="2">  1       -2 0.86963681E-01 0.14980415E+04</pdfrwt>
<totfact> 0.14877114E+01</totfact>
</mgrwt>
</event>
<event>
12    5  0.5095719E-008  0.1044411E+04  0.7818608E-02  0.9261133E-01
         -2   -1    0    0    0  501 -0.00000000000E+00  0.00000000000E+00  0.10244547307E+04  0.10244547307E+04  0.00000000000E+00 0.  1.
          1   -1    0    0  501    0  0.00000000000E+00 -0.00000000000E+00 -0.26618906250E+03  0.26618906250E+03  0.00000000000E+00 0. -1.
        -24    2    1    2    0    0  0.59139981769E+02  0.28153909403E+02  0.22869106050E+03  0.25052527571E+03  0.78569285104E+02 0.  0.
        254    2    1    2    0    0 -0.59139981769E+02 -0.28153909403E+02  0.52957460768E+03  0.10401185175E+04  0.89280853783E+03 0.  0.
         23    2    4    4    0    0  0.27889731893E+03  0.95244525804E+02 -0.87208893653E+02  0.32001512808E+03  0.89157483498E+02 0.  0.
         23    2    4    4    0    0 -0.33803730070E+03 -0.12339843521E+03  0.61678350133E+03  0.72010338939E+03  0.92901094856E+02 0.  0.
          1    1    3    3  502    0  0.67257882393E+02 -0.42522955709E+01  0.17187823036E+03  0.18461806746E+03  0.00000000000E+00 0. -1.
         -4    1    3    3    0  502 -0.81179006243E+01  0.32406204974E+02  0.56812830136E+02  0.65907208251E+02  0.00000000000E+00 0.  1.
         13    1    5    5    0    0  0.21163743988E+03  0.10328540773E+03 -0.43725698978E+02  0.23952080945E+03  0.00000000000E+00 0. -1.
        -13    1    5    5    0    0  0.67259879052E+02 -0.80408819248E+01 -0.43483194675E+02  0.80494318628E+02  0.00000000000E+00 0.  1.
          2    1    6    6  503    0 -0.33693875356E+03 -0.10676303561E+03  0.60051095668E+03  0.69680662921E+03  0.00000000000E+00 0. -1.
         -2    1    6    6    0  503 -0.10985471419E+01 -0.16635399595E+02  0.16272544653E+02  0.23296760182E+02  0.00000000000E+00 0.  1.
<mgrwt>
<rscale>  0 0.10444111E+04</rscale>
<asrwt>0</asrwt>
<pdfrwt beam="1">  1        1 0.40952164E-01 0.10444111E+04</pdfrwt>
<pdfrwt beam="2">  1       -2 0.15760842E+00 0.10444111E+04</pdfrwt>
<totfact> 0.23428930E+01</totfact>
</mgrwt>
</event>
<event>
12    5  0.5095719E-008  0.2057971E+04  0.7818608E-02  0.8579987E-01
         -2   -1    0    0    0  501 -0.00000000000E+00  0.00000000000E+00  0.22704275838E+04  0.22704275838E+04  0.00000000000E+00 0.  1.
          1   -1    0    0  501    0  0.00000000000E+00 -0.00000000000E+00 -0.46634897432E+03  0.46634897432E+03  0.00000000000E+00 0. -1.
        -24    2    1    2    0    0  0.76445924144E+03 -0.16165208489E+03  0.10154951788E+04  0.12831687122E+04  0.69008386285E+02 0.  0.
        254    2    1    2    0    0 -0.76445924144E+03  0.16165208489E+03  0.78858343066E+03  0.14536078459E+04  0.93839363504E+03 0.  0.
         23    2    4    4    0    0 -0.19558244116E+03 -0.36499091290E+03  0.39227108311E+03  0.57775263149E+03  0.91927377644E+02 0.  0.
         23    2    4    4    0    0 -0.56887680028E+03  0.52664299779E+03  0.39631234755E+03  0.87585521444E+03  0.95316414257E+02 0.  0.
          3    1    3    3  502    0  0.55850409318E+03 -0.12457614353E+03  0.69287279278E+03  0.89862046750E+03  0.00000000000E+00 0. -1.
         -4    1    3    3    0  502  0.20595514826E+03 -0.37075941357E+02  0.32262238607E+03  0.38454824471E+03  0.00000000000E+00 0.  1.
         13    1    5    5    0    0 -0.94436800736E+02 -0.16748189135E+03  0.12055938763E+03  0.22694285450E+03  0.00000000000E+00 0.  1.
        -13    1    5    5    0    0 -0.10114564042E+03 -0.19750902155E+03  0.27171169548E+03  0.35080977699E+03  0.00000000000E+00 0. -1.
          1    1    6    6  503    0 -0.40574734919E+03  0.34472326571E+03  0.22818138923E+03  0.57925105756E+03  0.00000000000E+00 0. -1.
         -1    1    6    6    0  503 -0.16312945110E+03  0.18191973208E+03  0.16813095832E+03  0.29660415688E+03  0.00000000000E+00 0.  1.
<mgrwt>
<rscale>  0 0.20579714E+04</rscale>
<asrwt>0</asrwt>
<pdfrwt beam="1">  1        1 0.71745997E-01 0.20579714E+04</pdfrwt>
<pdfrwt beam="2">  1       -2 0.34929654E+00 0.20579714E+04</pdfrwt>
<totfact> 0.62070810E-01</totfact>
</mgrwt>
</event>
<event>
12    5  0.5095719E-008  0.1435933E+04  0.7818608E-02  0.8928211E-01
          3   -1    0    0  501    0  0.00000000000E+00  0.00000000000E+00  0.10190103180E+04  0.10190103180E+04  0.00000000000E+00 0. -1.
         -4   -1    0    0    0  501 -0.00000000000E+00 -0.00000000000E+00 -0.50585935176E+03  0.50585935176E+03  0.00000000000E+00 0.  1.
        -24    2    1    2    0    0  0.28048262848E+03 -0.12147744151E+03 -0.16178454274E+03  0.35523485684E+03  0.81180610818E+02 0.  0.
        254    2    1    2    0    0 -0.28048262848E+03  0.12147744151E+03  0.67493550895E+03  0.11696348129E+04  0.90503059649E+03 0.  0.
         23    2    4    4    0    0 -0.27155932841E+03  0.75588367577E+02  0.88665322718E+03  0.93483905269E+03  0.91170384472E+02 0.  0.
         23    2    4    4    0    0 -0.89233000680E+01  0.45889073938E+02 -0.21171771824E+03  0.23479576019E+03  0.90106738900E+02 0.  0.
          1    1    3    3  502    0  0.83192224966E+01  0.62271057507E+01  0.48938231388E+01  0.11486331612E+02  0.00000000000E+00 0. -1.
         -2    1    3    3    0  502  0.27216340598E+03 -0.12770454727E+03 -0.16667836588E+03  0.34374852523E+03  0.00000000000E+00 0.  1.
         13    1    5    5    0    0 -0.32284246934E+02  0.34002939356E+02  0.83429407355E+02  0.95702343213E+02  0.00000000000E+00 0.  1.
        -13    1    5    5    0    0 -0.23927508148E+03  0.41585428221E+02  0.80322381983E+03  0.83913670948E+03  0.00000000000E+00 0. -1.
          2    1    6    6  503    0 -0.93128072251E+01  0.16373423708E+02 -0.20320274832E+03  0.20407394323E+03  0.00000000000E+00 0. -1.
         -2    1    6    6    0  503  0.38950715711E+00  0.29515650230E+02 -0.85149699200E+01  0.30721816956E+02  0.00000000000E+00 0.  1.
<mgrwt>
<rscale>  0 0.14359330E+04</rscale>
<asrwt>0</asrwt>
<pdfrwt beam="1">  1        3 0.15677082E+00 0.14359330E+04</pdfrwt>
<pdfrwt beam="2">  1       -4 0.77824516E-01 0.14359330E+04</pdfrwt>
<totfact> 0.94713968E-01</totfact>
</mgrwt>
</event>
<event>
12    5  0.5095719E-008  0.2196648E+04  0.7818608E-02  0.8519824E-01
          1   -1    0    0  501    0  0.00000000000E+00  0.00000000000E+00  0.14302533681E+04  0.14302533681E+04  0.00000000000E+00 0. -1.
         -2   -1    0    0    0  501 -0.00000000000E+00 -0.00000000000E+00 -0.84342812762E+03  0.84342812762E+03  0.00000000000E+00 0.  1.
        -24    2    1    2    0    0 -0.70172344340E+02  0.30891503643E+03  0.11328683694E+04  0.11790438024E+04  0.80005549451E+02 0.  0.
        254    2    1    2    0    0  0.70172344340E+02 -0.30891503643E+03 -0.54604312893E+03  0.10946376933E+04  0.89426837321E+03 0.  0.
         23    2    4    4    0    0  0.30728558798E+03 -0.14422795213E+03  0.11060293624E+03  0.37138943855E+03  0.10232776167E+03 0.  0.
         23    2    4    4    0    0 -0.23711324364E+03 -0.16468708430E+03 -0.65664606517E+03  0.72324825476E+03  0.92517333880E+02 0.  0.
          1    1    3    3  502    0 -0.74945017377E+02  0.23444395383E+03  0.76279658410E+03  0.80152314491E+03  0.00000000000E+00 0. -1.
         -2    1    3    3    0  502  0.47726730377E+01  0.74471082594E+02  0.37007178533E+03  0.37752065751E+03  0.00000000000E+00 0.  1.
         13    1    5    5    0    0  0.31171626131E+03 -0.14067953882E+03  0.95230247218E+02  0.35500219745E+03  0.00000000000E+00 0.  1.
        -13    1    5    5    0    0 -0.44306733330E+01 -0.35484133039E+01  0.15372689020E+02  0.16387241100E+02  0.00000000000E+00 0. -1.
          4    1    6    6  503    0 -0.24134711462E+02 -0.56736773368E+02 -0.17749490163E+03  0.18789887135E+03  0.00000000000E+00 0. -1.
         -4    1    6    6    0  503 -0.21297853218E+03 -0.10795031093E+03 -0.47915116354E+03  0.53534938341E+03  0.00000000000E+00 0.  1.
<mgrwt>
<rscale>  0 0.21966483E+04</rscale>
<asrwt>0</asrwt>
<pdfrwt beam="1">  1        1 0.22003898E+00 0.21966483E+04</pdfrwt>
<pdfrwt beam="2">  1       -2 0.12975817E+00 0.21966483E+04</pdfrwt>
<totfact> 0.25557704E+00</totfact>
</mgrwt>
</event>
<event>
12    5  0.5095719E-008  0.1837505E+04  0.7818608E-02  0.8686605E-01
         -2   -1    0    0    0  501 -0.00000000000E+00  0.00000000000E+00  0.67281799275E+03  0.67281799275E+03  0.00000000000E+00 0.  1.
          1   -1    0    0  501    0  0.00000000000E+00 -0.00000000000E+00 -0.12545829280E+04  0.12545829280E+04  0.00000000000E+00 0. -1.
        -24    2    1    2    0    0 -0.29526825041E+03  0.26244464109E+03  0.38126162159E+03  0.55416665758E+03  0.75363989693E+02 0.  0.
        254    2    1    2    0    0  0.29526825041E+03 -0.26244464109E+03 -0.96302655681E+03  0.13732342631E+04  0.89570735344E+03 0.  0.
         23    2    4    4    0    0  0.53955393741E+03  0.31931710799E+02 -0.73916539641E+03  0.92047193926E+03  0.93621697206E+02 0.  0.
         23    2    4    4    0    0 -0.24428568700E+03 -0.29437635188E+03 -0.22386116040E+03  0.45276232388E+03  0.92449820800E+02 0.  0.
          1    1    3    3  502    0 -0.49798405595E+02  0.29524599444E+02  0.93472091858E+02  0.10994823841E+03  0.00000000000E+00 0. -1.
         -2    1    3    3    0  502 -0.24546984481E+03  0.23292004164E+03  0.28778952973E+03  0.44421841917E+03  0.00000000000E+00 0.  1.
         13    1    5    5    0    0  0.21142983031E+03 -0.33193851021E+02 -0.28961483023E+03  0.36011269733E+03  0.00000000000E+00 0.  1.
        -13    1    5    5    0    0  0.32812410710E+03  0.65125561820E+02 -0.44955056619E+03  0.56035924193E+03  0.00000000000E+00 0. -1.
          3    1    6    6  503    0 -0.19968847101E+03 -0.28311104610E+03 -0.18621912817E+03  0.39332545503E+03  0.00000000000E+00 0. -1.
         -3    1    6    6    0  503 -0.44597215992E+02 -0.11265305790E+02 -0.37642032223E+02  0.59436868849E+02  0.00000000000E+00 0.  1.
<mgrwt>
<rscale>  0 0.18375048E+04</rscale>
<asrwt>0</asrwt>
<pdfrwt beam="1">  1        1 0.19301275E+00 0.18375048E+04</pdfrwt>
<pdfrwt beam="2">  1       -2 0.10351046E+00 0.18375048E+04</pdfrwt>
<totfact> 0.61215157E+00</totfact>
</mgrwt>
</event>
<event>
12    5  0.5095719E-008  0.2011703E+04  0.7818608E-02  0.8601169E-01
          1   -1    0    0  501    0  0.00000000000E+00  0.00000000000E+00  0.20945596201E+04  0.20945596201E+04  0.00000000000E+00 0. -1.
         -2   -1    0    0    0  501 -0.00000000000E+00 -0.00000000000E+00 -0.48303085047E+03  0.48303085047E+03  0.00000000000E+00 0.  1.
        -24    2    1    2    0    0  0.12892499122E+03  0.76492019293E+03  0.39099812571E+03  0.87271218954E+03  0.83800218121E+02 0.  0.
        254    2    1    2    0    0 -0.12892499122E+03 -0.76492019293E+03  0.12205306439E+04  0.17048782810E+04  0.90287892071E+03 0.  0.
         23    2    4    4    0    0 -0.40082756494E+03 -0.11018070884E+03  0.70384829798E+03  0.82252013504E+03  0.91293047750E+02 0.  0.
         23    2    4    4    0    0  0.27190257372E+03 -0.65473948408E+03  0.51668234591E+03  0.88235814596E+03  0.94765233914E+02 0.  0.
          1    1    3    3  502    0  0.11648153651E+03  0.75549352258E+03  0.38036790129E+03  0.85382559773E+03  0.00000000000E+00 0. -1.
         -2    1    3    3    0  502  0.12443454710E+02  0.94266703444E+01  0.10630224427E+02  0.18886591812E+02  0.00000000000E+00 0.  1.
         13    1    5    5    0    0 -0.35744637381E+03 -0.98948783340E+02  0.67195752729E+03  0.76751917915E+03  0.00000000000E+00 0. -1.
        -13    1    5    5    0    0 -0.43381191134E+02 -0.11231925503E+02  0.31890770686E+02  0.55000955898E+02  0.00000000000E+00 0.  1.
          2    1    6    6  503    0  0.27532240254E+03 -0.63636180811E+03  0.51477206704E+03  0.86356763323E+03  0.00000000000E+00 0. -1.
         -2    1    6    6    0  503 -0.34198288200E+01 -0.18377675972E+02  0.19102788699E+01  0.18790512730E+02  0.00000000000E+00 0.  1.
<mgrwt>
<rscale>  0 0.20117027E+04</rscale>
<asrwt>0</asrwt>
<pdfrwt beam="1">  1        1 0.32223994E+00 0.20117027E+04</pdfrwt>
<pdfrwt beam="2">  1       -2 0.74312440E-01 0.20117027E+04</pdfrwt>
<totfact> 0.34095303E+00</totfact>
</mgrwt>
</event>
<event>
12    5  0.5095719E-008  0.1372538E+04  0.7818608E-02  0.8973940E-01
         -2   -1    0    0    0  501 -0.00000000000E+00  0.00000000000E+00  0.61359197689E+03  0.61359197689E+03  0.00000000000E+00 0.  1.
          1   -1    0    0  501    0  0.00000000000E+00 -0.00000000000E+00 -0.76755432819E+03  0.76755432819E+03  0.00000000000E+00 0. -1.
        -24    2    1    2    0    0  0.97722149176E+02  0.26367231776E+03 -0.30904756491E+03  0.42531276297E+03  0.79421907382E+02 0.  0.
        254    2    1    2    0    0 -0.97722149176E+02 -0.26367231776E+03  0.15508521361E+03  0.95583354212E+03  0.90027419554E+03 0.  0.
         23    2    4    4    0    0 -0.10691577018E+03  0.39259820306E+00 -0.35060862688E+03  0.37758293557E+03  0.90616377935E+02 0.  0.
         23    2    4    4    0    0  0.91936210047E+01 -0.26406491597E+03  0.50569384049E+03  0.57825060654E+03  0.93982451290E+02 0.  0.
          1    1    3    3  502    0  0.73743921571E+02  0.25690185933E+03 -0.28185157000E+03  0.38842893663E+03  0.00000000000E+00 0. -1.
         -2    1    3    3    0  502  0.23978227605E+02  0.67704584306E+01 -0.27195994903E+02  0.36883826336E+02  0.00000000000E+00 0.  1.
         13    1    5    5    0    0 -0.33490277555E+01 -0.92675706674E+01 -0.16113195687E+03  0.16143299346E+03  0.00000000000E+00 0. -1.
        -13    1    5    5    0    0 -0.10356674243E+03  0.96601688705E+01 -0.18947667001E+03  0.21614994212E+03  0.00000000000E+00 0.  1.
          4    1    6    6  503    0  0.30790551480E+02 -0.14950094187E+03  0.36435002839E+03  0.39503105304E+03  0.00000000000E+00 0.  1.
         -4    1    6    6    0  503 -0.21596930475E+02 -0.11456397410E+03  0.14134381210E+03  0.18321955350E+03  0.00000000000E+00 0. -1.
<mgrwt>
<rscale>  0 0.13725381E+04</rscale>
<asrwt>0</asrwt>
<pdfrwt beam="1">  1        1 0.11808528E+00 0.13725381E+04</pdfrwt>
<pdfrwt beam="2">  1       -2 0.94398765E-01 0.13725381E+04</pdfrwt>
<totfact> 0.19124029E+01</totfact>
</mgrwt>
</event>
<event>
12    5  0.5095719E-008  0.1687308E+04  0.7818608E-02  0.8768636E-01
         -2   -1    0    0    0  501 -0.00000000000E+00  0.00000000000E+00  0.60995036279E+03  0.60995036279E+03  0.00000000000E+00 0.  1.
          1   -1    0    0  501    0  0.00000000000E+00 -0.00000000000E+00 -0.11669018993E+04  0.11669018993E+04  0.00000000000E+00 0. -1.
        -24    2    1    2    0    0  0.19127991483E+03  0.37998073578E+03 -0.64194726821E+03  0.77683986651E+03  0.10203194428E+03 0.  0.
        254    2    1    2    0    0 -0.19127991483E+03 -0.37998073578E+03  0.84995731690E+02  0.10000123956E+04  0.90101451239E+03 0.  0.
         23    2    4    4    0    0 -0.77651372454E+02 -0.36681972210E+03  0.45800125801E+03  0.59884426564E+03  0.90900263942E+02 0.  0.
         23    2    4    4    0    0 -0.11362854238E+03 -0.13161013676E+02 -0.37300552632E+03  0.40116812994E+03  0.93370701481E+02 0.  0.
          1    1    3    3  502    0  0.29162158713E+02  0.16508859054E+03 -0.22608237579E+03  0.28145677264E+03  0.00000000000E+00 0. -1.
         -2    1    3    3    0  502  0.16211775612E+03  0.21489214524E+03 -0.41586489242E+03  0.49538309386E+03  0.00000000000E+00 0.  1.
         13    1    5    5    0    0 -0.97051327199E+02 -0.32470237806E+03  0.39203081830E+03  0.51820725287E+03  0.00000000000E+00 0. -1.
        -13    1    5    5    0    0  0.19399954745E+02 -0.42117344047E+02  0.65970439709E+02  0.80637012774E+02  0.00000000000E+00 0.  1.
          2    1    6    6  503    0 -0.13004872751E+03 -0.75429068286E+01 -0.32624998612E+03  0.35129563107E+03  0.00000000000E+00 0. -1.
         -2    1    6    6    0  503  0.16420185128E+02 -0.56181068470E+01 -0.46755540198E+02  0.49872498869E+02  0.00000000000E+00 0.  1.
<mgrwt>
<rscale>  0 0.16873082E+04</rscale>
<asrwt>0</asrwt>
<pdfrwt beam="1">  1        1 0.17952337E+00 0.16873082E+04</pdfrwt>
<pdfrwt beam="2">  1       -2 0.93838518E-01 0.16873082E+04</pdfrwt>
<totfact> 0.90571400E+00</totfact>
</mgrwt>
</event>
<event>
12    5  0.5095719E-008  0.1689226E+04  0.7818608E-02  0.8767533E-01
         -2   -1    0    0    0  501 -0.00000000000E+00  0.00000000000E+00  0.70989927188E+03  0.70989927188E+03  0.00000000000E+00 0.  1.
          1   -1    0    0  501    0  0.00000000000E+00 -0.00000000000E+00 -0.10048901123E+04  0.10048901123E+04  0.00000000000E+00 0. -1.
        -24    2    1    2    0    0 -0.22859593524E+03 -0.20514963572E+02 -0.66908296153E+03  0.71190249197E+03  0.80350378545E+02 0.  0.
        254    2    1    2    0    0  0.22859593524E+03  0.20514963572E+02  0.37409212106E+03  0.10028868923E+04  0.90175397880E+03 0.  0.
         23    2    4    4    0    0 -0.26275779010E+03  0.93786963199E+01  0.41846964683E+03  0.50201684417E+03  0.88172843364E+02 0.  0.
         23    2    4    4    0    0  0.49135372534E+03  0.11136267252E+02 -0.44377525769E+02  0.50087004809E+03  0.85725961194E+02 0.  0.
          1    1    3    3  502    0 -0.16319735511E+03  0.19858511742E+02 -0.49562461045E+03  0.52217955885E+03  0.00000000000E+00 0. -1.
         -2    1    3    3    0  502 -0.65398580131E+02 -0.40373475314E+02 -0.17345835108E+03  0.18972293312E+03  0.00000000000E+00 0.  1.
         13    1    5    5    0    0 -0.48630731533E+02  0.34720084370E+02  0.11697776677E+03  0.13135535858E+03  0.00000000000E+00 0. -1.
        -13    1    5    5    0    0 -0.21412705857E+03 -0.25341388050E+02  0.30149188006E+03  0.37066148559E+03  0.00000000000E+00 0.  1.
          1    1    6    6  503    0  0.14086794723E+03  0.30661633020E+02 -0.40777756600E+02  0.14982236058E+03  0.00000000000E+00 0. -1.
         -1    1    6    6    0  503  0.35048577811E+03 -0.19525365768E+02 -0.35997691687E+01  0.35104768751E+03  0.00000000000E+00 0.  1.
<mgrwt>
<rscale>  0 0.16892256E+04</rscale>
<asrwt>0</asrwt>
<pdfrwt beam="1">  1        1 0.15459848E+00 0.16892256E+04</pdfrwt>
<pdfrwt beam="2">  1       -2 0.10921527E+00 0.16892256E+04</pdfrwt>
<totfact> 0.83719986E+00</totfact>
</mgrwt>
</event>
<event>
12    5  0.5095719E-008  0.1603867E+04  0.7818608E-02  0.8818176E-01
         -2   -1    0    0    0  501 -0.00000000000E+00  0.00000000000E+00  0.38150299691E+03  0.38150299691E+03  0.00000000000E+00 0.  1.
          1   -1    0    0  501    0  0.00000000000E+00 -0.00000000000E+00 -0.16856937222E+04  0.16856937222E+04  0.00000000000E+00 0. -1.
        -24    2    1    2    0    0  0.28850317059E+03  0.40711007534E+03 -0.72714938705E+03  0.88569043236E+03  0.82028153729E+02 0.  0.
        254    2    1    2    0    0 -0.28850317059E+03 -0.40711007534E+03 -0.57704133822E+03  0.11815062867E+04  0.90222375643E+03 0.  0.
         23    2    4    4    0    0  0.26586132179E+03 -0.37192959242E+03 -0.29648008155E+03  0.55232661242E+03  0.90279476564E+02 0.  0.
         23    2    4    4    0    0 -0.55436449238E+03 -0.35180482921E+02 -0.28056125667E+03  0.62917967431E+03  0.92708074265E+02 0.  0.
          1    1    3    3  502    0  0.46749636074E+02  0.25439433916E+02 -0.91216816826E+02  0.10560871623E+03  0.00000000000E+00 0. -1.
         -2    1    3    3    0  502  0.24175353451E+03  0.38167064142E+03 -0.63593257023E+03  0.78008171614E+03  0.00000000000E+00 0.  1.
         13    1    5    5    0    0  0.15299810181E+03 -0.25031918252E+03 -0.14324637119E+03  0.32647761815E+03  0.00000000000E+00 0. -1.
        -13    1    5    5    0    0  0.11286321998E+03 -0.12161040989E+03 -0.15323371036E+03  0.22584899427E+03  0.00000000000E+00 0.  1.
          3    1    6    6  503    0 -0.52699635422E+03 -0.17012329200E+02 -0.24713779124E+03  0.58231577737E+03  0.00000000000E+00 0. -1.
         -3    1    6    6    0  503 -0.27368138152E+02 -0.18168153721E+02 -0.33423465424E+02  0.46863896940E+02  0.00000000000E+00 0.  1.
<mgrwt>
<rscale>  0 0.16038668E+04</rscale>
<asrwt>0</asrwt>
<pdfrwt beam="1">  1        1 0.25933750E+00 0.16038668E+04</pdfrwt>
<pdfrwt beam="2">  1       -2 0.58692768E-01 0.16038668E+04</pdfrwt>
<totfact> 0.11135344E+01</totfact>
</mgrwt>
</event>
<event>
12    5  0.5095719E-008  0.1568811E+04  0.7818608E-02  0.8839941E-01
          1   -1    0    0  501    0  0.00000000000E+00  0.00000000000E+00  0.25226876700E+03  0.25226876700E+03  0.00000000000E+00 0. -1.
         -2   -1    0    0    0  501 -0.00000000000E+00 -0.00000000000E+00 -0.24390334239E+04  0.24390334239E+04  0.00000000000E+00 0.  1.
        -24    2    1    2    0    0 -0.36540383380E+03  0.25147700411E+03 -0.12456009659E+04  0.13248797277E+04  0.83808599759E+02 0.  0.
        254    2    1    2    0    0  0.36540383380E+03 -0.25147700411E+03 -0.94116369107E+03  0.13664224632E+04  0.88575426009E+03 0.  0.
         23    2    4    4    0    0 -0.56484429847E+01  0.16528429709E+03 -0.74491132672E+03  0.76823526228E+03  0.89116383247E+02 0.  0.
         23    2    4    4    0    0  0.37105227678E+03 -0.41676130119E+03 -0.19625236435E+03  0.59818720095E+03  0.89124421935E+02 0.  0.
          3    1    3    3  502    0 -0.17873264881E+03  0.87508562906E+02 -0.64220534422E+03  0.67233236757E+03  0.00000000000E+00 0. -1.
         -4    1    3    3    0  502 -0.18667118499E+03  0.16396844120E+03 -0.60339562165E+03  0.65254736015E+03  0.00000000000E+00 0.  1.
         13    1    5    5    0    0 -0.11996811618E+02  0.17086499842E+03 -0.62559696073E+03  0.64862186862E+03  0.00000000000E+00 0. -1.
        -13    1    5    5    0    0  0.63483686334E+01 -0.55807013364E+01 -0.11931436599E+03  0.11961339366E+03  0.00000000000E+00 0.  1.
          2    1    6    6  503    0  0.29458324380E+03 -0.31731497136E+03 -0.18929462442E+03  0.47254685843E+03  0.00000000000E+00 0. -1.
         -2    1    6    6    0  503  0.76469032979E+02 -0.99446329840E+02 -0.69577399293E+01  0.12564034252E+03  0.00000000000E+00 0.  1.
<mgrwt>
<rscale>  0 0.15688110E+04</rscale>
<asrwt>0</asrwt>
<pdfrwt beam="1">  1        1 0.38810580E-01 0.15688110E+04</pdfrwt>
<pdfrwt beam="2">  1       -2 0.37523591E+00 0.15688110E+04</pdfrwt>
<totfact> 0.99921435E-01</totfact>
</mgrwt>
</event>
<event>
12    5  0.5095719E-008  0.2017696E+04  0.7818608E-02  0.8598392E-01
          1   -1    0    0  501    0  0.00000000000E+00  0.00000000000E+00  0.29971704154E+04  0.29971704154E+04  0.00000000000E+00 0. -1.
         -2   -1    0    0    0  501 -0.00000000000E+00 -0.00000000000E+00 -0.33957843254E+03  0.33957843254E+03  0.00000000000E+00 0.  1.
        -24    2    1    2    0    0 -0.19800246033E+03 -0.77480176098E+03  0.88919962561E+03  0.11985692221E+04  0.79808914902E+02 0.  0.
        254    2    1    2    0    0  0.19800246033E+03  0.77480176098E+03  0.17683923573E+04  0.21381796259E+04  0.89726129975E+03 0.  0.
         23    2    4    4    0    0  0.44142483799E+03  0.33245990823E+03  0.13950988645E+04  0.15033496778E+04  0.91509199919E+02 0.  0.
         23    2    4    4    0    0 -0.24342237766E+03  0.44234185275E+03  0.37329349273E+03  0.63482994807E+03  0.93489371647E+02 0.  0.
          3    1    3    3  502    0 -0.16909339159E+02 -0.15230541400E+02  0.22883792840E+02  0.32273256992E+02  0.00000000000E+00 0. -1.
         -4    1    3    3    0  502 -0.18109312117E+03 -0.75957121958E+03  0.86631583277E+03  0.11662959651E+04  0.00000000000E+00 0.  1.
         13    1    5    5    0    0  0.10248845443E+03  0.11386896089E+03  0.31163631061E+03  0.34725669703E+03  0.00000000000E+00 0.  1.
        -13    1    5    5    0    0  0.33893638356E+03  0.21859094734E+03  0.10834625539E+04  0.11560929808E+04  0.00000000000E+00 0. -1.
          4    1    6    6  503    0 -0.17536907576E+03  0.36729153238E+03  0.33271018083E+03  0.52569330119E+03  0.00000000000E+00 0. -1.
         -4    1    6    6    0  503 -0.68053301893E+02  0.75050320366E+02  0.40583311901E+02  0.10913664687E+03  0.00000000000E+00 0.  1.
<mgrwt>
<rscale>  0 0.20176961E+04</rscale>
<asrwt>0</asrwt>
<pdfrwt beam="1">  1        1 0.46110312E+00 0.20176961E+04</pdfrwt>
<pdfrwt beam="2">  1       -2 0.52242838E-01 0.20176961E+04</pdfrwt>
<totfact> 0.16933442E+00</totfact>
</mgrwt>
</event>
<event>
12    5  0.5095719E-008  0.4200203E+04  0.7818608E-02  0.7965334E-01
          1   -1    0    0  501    0  0.00000000000E+00  0.00000000000E+00  0.25523242956E+04  0.25523242956E+04  0.00000000000E+00 0. -1.
         -2   -1    0    0    0  501 -0.00000000000E+00 -0.00000000000E+00 -0.17280042615E+04  0.17280042615E+04  0.00000000000E+00 0.  1.
        -24    2    1    2    0    0 -0.82282473360E+03 -0.12895616228E+04  0.17157462749E+04  0.23003391974E+04  0.88121633509E+02 0.  0.
        254    2    1    2    0    0  0.82282473360E+03  0.12895616228E+04 -0.89142624080E+03  0.19799893596E+04  0.88640137648E+03 0.  0.
         23    2    4    4    0    0  0.89311854878E+03  0.13534457306E+04 -0.88349226483E+03  0.18487193047E+04  0.87911306512E+02 0.  0.
         23    2    4    4    0    0 -0.70293815177E+02 -0.63884107791E+02 -0.79339759737E+01  0.13127005491E+03  0.90257850963E+02 0.  0.
          1    1    3    3  502    0 -0.73979646344E+03 -0.12020441825E+04  0.15892622163E+04  0.21255501444E+04  0.00000000000E+00 0. -1.
         -4    1    3    3    0  502 -0.83028270165E+02 -0.87517440230E+02  0.12648405858E+03  0.17478905305E+03  0.00000000000E+00 0.  1.
         13    1    5    5    0    0  0.18964260754E+03  0.24970207518E+03 -0.20294286029E+03  0.37349866062E+03  0.00000000000E+00 0. -1.
        -13    1    5    5    0    0  0.70347594124E+03  0.11037436554E+04 -0.68054940454E+03  0.14752206441E+04  0.00000000000E+00 0.  1.
          1    1    6    6  503    0 -0.21529451439E+02  0.12052090640E+02 -0.29525377687E+02  0.38477501162E+02  0.00000000000E+00 0. -1.
         -1    1    6    6    0  503 -0.48764363738E+02 -0.75936198431E+02  0.21591401713E+02  0.92792553747E+02  0.00000000000E+00 0.  1.
<mgrwt>
<rscale>  0 0.42002035E+04</rscale>
<asrwt>0</asrwt>
<pdfrwt beam="1">  1        1 0.39266528E+00 0.42002035E+04</pdfrwt>
<pdfrwt beam="2">  1       -2 0.26584681E+00 0.42002035E+04</pdfrwt>
<totfact> 0.43364529E-02</totfact>
</mgrwt>
</event>
<event>
12    5  0.5095719E-008  0.1035666E+04  0.7818608E-02  0.9270270E-01
         -2   -1    0    0    0  501 -0.00000000000E+00  0.00000000000E+00  0.58605205919E+03  0.58605205919E+03  0.00000000000E+00 0.  1.
          1   -1    0    0  501    0  0.00000000000E+00 -0.00000000000E+00 -0.45755471782E+03  0.45755471782E+03  0.00000000000E+00 0. -1.
        -24    2    1    2    0    0  0.61626182073E+02 -0.69680170470E+02  0.66454093294E+02  0.14065082501E+03  0.81935313435E+02 0.  0.
        254    2    1    2    0    0 -0.61626182073E+02  0.69680170470E+02  0.62043248079E+02  0.90295595200E+03  0.89600612394E+03 0.  0.
         23    2    4    4    0    0 -0.17007908670E+03 -0.16429668898E+03 -0.33560233700E+03  0.42041855962E+03  0.90567869212E+02 0.  0.
         23    2    4    4    0    0  0.10845290462E+03  0.23397685945E+03  0.39764558507E+03  0.48253739238E+03  0.90626267891E+02 0.  0.
          1    1    3    3  502    0 -0.81634990366E+01  0.17289407141E+01  0.34975502370E+02  0.35957165052E+02  0.00000000000E+00 0. -1.
         -2    1    3    3    0  502  0.69789681110E+02 -0.71409111184E+02  0.31478590924E+02  0.10469365996E+03  0.00000000000E+00 0.  1.
         13    1    5    5    0    0 -0.98626211214E+02 -0.10357371003E+03 -0.12524439772E+03  0.19010734365E+03  0.00000000000E+00 0. -1.
        -13    1    5    5    0    0 -0.71452875482E+02 -0.60722978956E+02 -0.21035793927E+03  0.23031121597E+03  0.00000000000E+00 0.  1.
          4    1    6    6  503    0 -0.23896638474E+01 -0.72809757934E+01  0.84627331961E+01  0.11416696324E+02  0.00000000000E+00 0. -1.
         -4    1    6    6    0  503  0.11084256847E+03  0.24125783525E+03  0.38918285188E+03  0.47112069605E+03  0.00000000000E+00 0.  1.
<mgrwt>
<rscale>  0 0.10356657E+04</rscale>
<asrwt>0</asrwt>
<pdfrwt beam="1">  1        1 0.70393033E-01 0.10356657E+04</pdfrwt>
<pdfrwt beam="2">  1       -2 0.90161856E-01 0.10356657E+04</pdfrwt>
<totfact> 0.46099436E+01</totfact>
</mgrwt>
</event>
<event>
12    5  0.5095719E-008  0.2397054E+04  0.7818608E-02  0.8440607E-01
          1   -1    0    0  501    0  0.00000000000E+00  0.00000000000E+00  0.20252809817E+04  0.20252809817E+04  0.00000000000E+00 0. -1.
         -2   -1    0    0    0  501 -0.00000000000E+00 -0.00000000000E+00 -0.70926773781E+03  0.70926773781E+03  0.00000000000E+00 0.  1.
        -24    2    1    2    0    0  0.41628815587E+01  0.10214552090E+04  0.65630332823E+03  0.12167956502E+04  0.80433338748E+02 0.  0.
        254    2    1    2    0    0 -0.41628815587E+01 -0.10214552090E+04  0.65970991562E+03  0.15177530693E+04  0.90827811435E+03 0.  0.
         23    2    4    4    0    0  0.70768450371E+02 -0.10871620544E+04  0.77173818484E+03  0.13381267269E+04  0.89854355719E+02 0.  0.
         23    2    4    4    0    0 -0.74931331930E+02  0.65706845332E+02 -0.11202826922E+03  0.17962634243E+03  0.98910038733E+02 0.  0.
          3    1    3    3  502    0 -0.19417513859E+02  0.50994649628E+03  0.28723214875E+03  0.58559779387E+03  0.00000000000E+00 0. -1.
         -4    1    3    3    0  502  0.23580395417E+02  0.51150871274E+03  0.36907117949E+03  0.63119785629E+03  0.00000000000E+00 0.  1.
         13    1    5    5    0    0  0.53001147234E+02 -0.10541465314E+04  0.74057807255E+03  0.12893757842E+04  0.00000000000E+00 0.  1.
        -13    1    5    5    0    0  0.17767303137E+02 -0.33015522980E+02  0.31160112294E+02  0.48750942725E+02  0.00000000000E+00 0. -1.
          3    1    6    6  503    0  0.12591516161E+02 -0.16215228029E+02 -0.16311147380E+02  0.26220858646E+02  0.00000000000E+00 0. -1.
         -3    1    6    6    0  503 -0.87522848091E+02  0.81922073361E+02 -0.95717121843E+02  0.15340548379E+03  0.00000000000E+00 0.  1.
<mgrwt>
<rscale>  0 0.23970536E+04</rscale>
<asrwt>0</asrwt>
<pdfrwt beam="1">  1        1 0.31158169E+00 0.23970536E+04</pdfrwt>
<pdfrwt beam="2">  1       -2 0.10911811E+00 0.23970536E+04</pdfrwt>
<totfact> 0.15113704E+00</totfact>
</mgrwt>
</event>
<event>
12    5  0.5095719E-008  0.2350265E+04  0.7818608E-02  0.8458362E-01
         -4   -1    0    0    0  501 -0.00000000000E+00  0.00000000000E+00  0.20894720761E+04  0.20894720761E+04  0.00000000000E+00 0.  1.
          3   -1    0    0  501    0  0.00000000000E+00 -0.00000000000E+00 -0.66090178233E+03  0.66090178233E+03  0.00000000000E+00 0. -1.
        -24    2    1    2    0    0 -0.62038947878E+03 -0.61326235765E+03  0.31700206616E+02  0.87637737949E+03  0.77836903050E+02 0.  0.
        254    2    1    2    0    0  0.62038947878E+03  0.61326235765E+03  0.13968700871E+04  0.18739964789E+04  0.89422756498E+03 0.  0.
         23    2    4    4    0    0  0.21945143604E+03 -0.11848184778E+03  0.26061924984E+02  0.26654443016E+03  0.90387102409E+02 0.  0.
         23    2    4    4    0    0  0.40093804274E+03  0.73174420544E+03  0.13708081621E+04  0.16074520487E+04  0.92661617330E+02 0.  0.
          3    1    3    3  502    0 -0.57621339330E+03 -0.58404029310E+03  0.45303860618E+02  0.82169177820E+03  0.00000000000E+00 0. -1.
         -4    1    3    3    0  502 -0.44176085486E+02 -0.29222064559E+02 -0.13603654002E+02  0.54685601287E+02  0.00000000000E+00 0.  1.
         13    1    5    5    0    0  0.18001054991E+03 -0.81565099023E+02  0.55163606693E+02  0.20518208246E+03  0.00000000000E+00 0. -1.
        -13    1    5    5    0    0  0.39440886134E+02 -0.36916748759E+02 -0.29101681709E+02  0.61362347708E+02  0.00000000000E+00 0.  1.
          2    1    6    6  503    0  0.96784326135E+02  0.26712069880E+03  0.47439431593E+03  0.55296531582E+03  0.00000000000E+00 0. -1.
         -2    1    6    6    0  503  0.30415371660E+03  0.46462350664E+03  0.89641384621E+03  0.10544867329E+04  0.00000000000E+00 0.  1.
<mgrwt>
<rscale>  0 0.23502645E+04</rscale>
<asrwt>0</asrwt>
<pdfrwt beam="1">  1        3 0.10167720E+00 0.23502645E+04</pdfrwt>
<pdfrwt beam="2">  1       -4 0.32145724E+00 0.23502645E+04</pdfrwt>
<totfact> 0.39184190E-02</totfact>
</mgrwt>
</event>
<event>
12    5  0.5095719E-008  0.1856329E+04  0.7818608E-02  0.8676905E-01
          1   -1    0    0  501    0  0.00000000000E+00  0.00000000000E+00  0.65845128347E+03  0.65845128347E+03  0.00000000000E+00 0. -1.
         -4   -1    0    0    0  501 -0.00000000000E+00 -0.00000000000E+00 -0.13083566254E+04  0.13083566254E+04  0.00000000000E+00 0.  1.
        -24    2    1    2    0    0 -0.69309245152E+03 -0.94091472754E+02 -0.31416077229E+03  0.77126501757E+03  0.83200870749E+02 0.  0.
        254    2    1    2    0    0  0.69309245152E+03  0.94091472754E+02 -0.33574456964E+03  0.11955428913E+04  0.90959773377E+03 0.  0.
         23    2    4    4    0    0  0.84990170072E+03  0.16295104652E+03 -0.78677402434E+02  0.87373593799E+03  0.91314901426E+02 0.  0.
         23    2    4    4    0    0 -0.15680924920E+03 -0.68859573770E+02 -0.25706716721E+03  0.32180695331E+03  0.90251898623E+02 0.  0.
          3    1    3    3  502    0 -0.59334704919E+03 -0.87974987019E+02 -0.23678263359E+03  0.64487699191E+03  0.00000000000E+00 0. -1.
         -4    1    3    3    0  502 -0.99745402330E+02 -0.61164857351E+01 -0.77378138699E+02  0.12638802567E+03  0.00000000000E+00 0.  1.
         13    1    5    5    0    0  0.42274909507E+03  0.12738706686E+03 -0.36239412681E+02  0.44300965815E+03  0.00000000000E+00 0. -1.
        -13    1    5    5    0    0  0.42715260565E+03  0.35563979665E+02 -0.42437989754E+02  0.43072627983E+03  0.00000000000E+00 0.  1.
          4    1    6    6  503    0 -0.46331113721E+02  0.20733807802E+02 -0.79024010591E+02  0.93921547765E+02  0.00000000000E+00 0.  1.
         -4    1    6    6    0  503 -0.11047813548E+03 -0.89593381572E+02 -0.17804315662E+03  0.22788540554E+03  0.00000000000E+00 0. -1.
<mgrwt>
<rscale>  0 0.18563287E+04</rscale>
<asrwt>0</asrwt>
<pdfrwt beam="1">  1        1 0.10130020E+00 0.18563287E+04</pdfrwt>
<pdfrwt beam="2">  1       -4 0.20128563E+00 0.18563287E+04</pdfrwt>
<totfact> 0.17379748E+00</totfact>
</mgrwt>
</event>
<event>
12    5  0.7221780E-008  0.2125862E+04  0.7818608E-02  0.8549936E-01
          1   -1    0    0  501    0  0.00000000000E+00  0.00000000000E+00  0.13247976344E+04  0.13247976344E+04  0.00000000000E+00 0. -1.
         -2   -1    0    0    0  501 -0.00000000000E+00 -0.00000000000E+00 -0.85282610989E+03  0.85282610989E+03  0.00000000000E+00 0.  1.
        -24    2    1    2    0    0 -0.67983331629E+03 -0.13028806864E+02 -0.36931426843E+03  0.77761708759E+03  0.77150620942E+02 0.  0.
        254    2    1    2    0    0  0.67983331629E+03  0.13028806864E+02  0.84128579289E+03  0.14000066566E+04  0.88877092976E+03 0.  0.
         23    2    4    4    0    0  0.85706197273E+03  0.10449050007E+03  0.79004966575E+03  0.11739083689E+04  0.91700025174E+02 0.  0.
         23    2    4    4    0    0 -0.17722865644E+03 -0.91461693201E+02  0.51236127138E+02  0.22609828770E+03  0.93381245385E+02 0.  0.
          1    1    3    3  502    0 -0.58150803590E+02  0.54434086123E+01 -0.97764632837E+01  0.59217614692E+02  0.00000000000E+00 0. -1.
         -2    1    3    3    0  502 -0.62168251270E+03 -0.18472215476E+02 -0.35953780515E+03  0.71839947290E+03  0.00000000000E+00 0.  1.
         13    1    5    5    0    0  0.77723436409E+03  0.75314080330E+02  0.73681303029E+03  0.10736195364E+04  0.00000000000E+00 0. -1.
        -13    1    5    5    0    0  0.79827608641E+02  0.29176419735E+02  0.53236635460E+02  0.10028883250E+03  0.00000000000E+00 0.  1.
          2    1    6    6  503    0 -0.16527215667E+03 -0.85648126566E+02  0.14129576941E+02  0.18668190137E+03  0.00000000000E+00 0. -1.
         -2    1    6    6    0  503 -0.11956499772E+02 -0.58135666354E+01  0.37106550197E+02  0.39416386330E+02  0.00000000000E+00 0.  1.
<mgrwt>
<rscale>  0 0.21258617E+04</rscale>
<asrwt>0</asrwt>
<pdfrwt beam="1">  1        1 0.20381502E+00 0.21258617E+04</pdfrwt>
<pdfrwt beam="2">  1       -2 0.13120402E+00 0.21258617E+04</pdfrwt>
<totfact> 0.29668859E+00</totfact>
</mgrwt>
</event>
<event>
12    5  0.5095719E-008  0.2044189E+04  0.7818608E-02  0.8586235E-01
         -2   -1    0    0    0  501 -0.00000000000E+00  0.00000000000E+00  0.58896589802E+03  0.58896589802E+03  0.00000000000E+00 0.  1.
          1   -1    0    0  501    0  0.00000000000E+00 -0.00000000000E+00 -0.17737476005E+04  0.17737476005E+04  0.00000000000E+00 0. -1.
        -24    2    1    2    0    0  0.24254797918E+03 -0.68480087381E+03 -0.33873991824E+02  0.73212818800E+03  0.84157455726E+02 0.  0.
        254    2    1    2    0    0 -0.24254797918E+03  0.68480087381E+03 -0.11509077106E+04  0.16305853105E+04  0.89801900730E+03 0.  0.
         23    2    4    4    0    0 -0.27286958051E+03  0.23258532501E+03  0.21104079839E+02  0.37065224497E+03  0.91563983831E+02 0.  0.
         23    2    4    4    0    0  0.30321601330E+02  0.45221554880E+03 -0.11720117905E+04  0.12599330655E+04  0.91659099628E+02 0.  0.
          1    1    3    3  502    0  0.10003632321E+03 -0.21698920191E+03 -0.44149785515E+02  0.24298309256E+03  0.00000000000E+00 0. -1.
         -2    1    3    3    0  502  0.14251165597E+03 -0.46781167190E+03  0.10275793691E+02  0.48914509544E+03  0.00000000000E+00 0.  1.
         13    1    5    5    0    0 -0.25672725871E+03  0.18786459261E+03  0.37577596024E+02  0.32033430388E+03  0.00000000000E+00 0. -1.
        -13    1    5    5    0    0 -0.16142321806E+02  0.44720732403E+02 -0.16473516186E+02  0.50317941089E+02  0.00000000000E+00 0.  1.
          3    1    6    6  503    0  0.55668815918E+01  0.29889967045E+03 -0.87679443643E+03  0.92635872475E+03  0.00000000000E+00 0. -1.
         -3    1    6    6    0  503  0.24754719738E+02  0.15331587836E+03 -0.29521735405E+03  0.33357434080E+03  0.00000000000E+00 0.  1.
<mgrwt>
<rscale>  0 0.20441887E+04</rscale>
<asrwt>0</asrwt>
<pdfrwt beam="1">  1        1 0.27288425E+00 0.20441887E+04</pdfrwt>
<pdfrwt beam="2">  1       -2 0.90610139E-01 0.20441887E+04</pdfrwt>
<totfact> 0.35838298E+00</totfact>
</mgrwt>
</event>
<event>
12    5  0.5095719E-008  0.2489246E+04  0.7818608E-02  0.8406827E-01
          1   -1    0    0  501    0  0.00000000000E+00  0.00000000000E+00  0.12508349218E+04  0.12508349218E+04  0.00000000000E+00 0. -1.
         -2   -1    0    0    0  501 -0.00000000000E+00 -0.00000000000E+00 -0.12384416086E+04  0.12384416086E+04  0.00000000000E+00 0.  1.
        -24    2    1    2    0    0 -0.10361235033E+04 -0.25135749662E+03  0.17298260978E+03  0.10831576508E+04  0.81086422245E+02 0.  0.
        254    2    1    2    0    0  0.10361235033E+04  0.25135749662E+03 -0.16058929652E+03  0.14061188796E+04  0.90257901379E+03 0.  0.
         23    2    4    4    0    0  0.58437027823E+02 -0.11692984253E+03  0.23631087810E+03  0.28494420029E+03  0.90900450356E+02 0.  0.
         23    2    4    4    0    0  0.97768647551E+03  0.36828733915E+03 -0.39690017462E+03  0.11211746793E+04  0.89423175605E+02 0.  0.
          1    1    3    3  502    0 -0.71394866531E+03 -0.21154127524E+03  0.12102441439E+03  0.75439997130E+03  0.00000000000E+00 0. -1.
         -2    1    3    3    0  502 -0.32217483803E+03 -0.39816221390E+02  0.51958195391E+02  0.32875767947E+03  0.00000000000E+00 0.  1.
         13    1    5    5    0    0 -0.48800363575E+01  0.20342454373E+01 -0.58034215563E+01  0.78506439933E+01  0.00000000000E+00 0. -1.
        -13    1    5    5    0    0  0.63317064180E+02 -0.11896408797E+03  0.24211429966E+03  0.27709355629E+03  0.00000000000E+00 0.  1.
          3    1    6    6  503    0  0.40279358608E+03  0.19878345178E+03 -0.17467127327E+03  0.48194147715E+03  0.00000000000E+00 0. -1.
         -3    1    6    6    0  503  0.57489288943E+03  0.16950388737E+03 -0.22222890135E+03  0.63923320216E+03  0.00000000000E+00 0.  1.
<mgrwt>
<rscale>  0 0.24892457E+04</rscale>
<asrwt>0</asrwt>
<pdfrwt beam="1">  1        1 0.19243614E+00 0.24892457E+04</pdfrwt>
<pdfrwt beam="2">  1       -2 0.19052948E+00 0.24892457E+04</pdfrwt>
<totfact> 0.11772636E+00</totfact>
</mgrwt>
</event>
<event>
12    5  0.5095719E-008  0.1337594E+04  0.7818608E-02  0.9000273E-01
         -2   -1    0    0    0  501 -0.00000000000E+00  0.00000000000E+00  0.34684142336E+03  0.34684142336E+03  0.00000000000E+00 0.  1.
          1   -1    0    0  501    0  0.00000000000E+00 -0.00000000000E+00 -0.12896078939E+04  0.12896078939E+04  0.00000000000E+00 0. -1.
        -24    2    1    2    0    0 -0.23765182191E+03 -0.13698057515E+03  0.27795698376E+02  0.28676634020E+03  0.78868666772E+02 0.  0.
        254    2    1    2    0    0  0.23765182191E+03  0.13698057515E+03 -0.97056216888E+03  0.13496829770E+04  0.89688970803E+03 0.  0.
         23    2    4    4    0    0 -0.77604706218E+02  0.12046138148E+03 -0.10045156016E+04  0.10195130576E+04  0.99105225996E+02 0.  0.
         23    2    4    4    0    0  0.31525652812E+03  0.16519193668E+02  0.33953432739E+02  0.33016991944E+03  0.90552624610E+02 0.  0.
          1    1    3    3  502    0 -0.14385432060E+02 -0.54286995479E-01 -0.15672838153E+02  0.21273961982E+02  0.00000000000E+00 0. -1.
         -4    1    3    3    0  502 -0.22326638985E+03 -0.13692628816E+03  0.43468536529E+02  0.26549237822E+03  0.00000000000E+00 0.  1.
         13    1    5    5    0    0 -0.39980231996E+02  0.21183443379E+02 -0.58589106352E+03  0.58763551249E+03  0.00000000000E+00 0. -1.
        -13    1    5    5    0    0 -0.37624474221E+02  0.99277938105E+02 -0.41862453810E+03  0.43187754510E+03  0.00000000000E+00 0.  1.
          1    1    6    6  503    0  0.28282962253E+02  0.16897785249E+01  0.32088821243E+02  0.42807403028E+02  0.00000000000E+00 0. -1.
         -1    1    6    6    0  503  0.28697356587E+03  0.14829415143E+02  0.18646114962E+01  0.28736251641E+03  0.00000000000E+00 0.  1.
<mgrwt>
<rscale>  0 0.13375940E+04</rscale>
<asrwt>0</asrwt>
<pdfrwt beam="1">  1        1 0.19840121E+00 0.13375940E+04</pdfrwt>
<pdfrwt beam="2">  1       -2 0.53360221E-01 0.13375940E+04</pdfrwt>
<totfact> 0.26179274E+01</totfact>
</mgrwt>
</event>
<event>
12    5  0.5095719E-008  0.2251325E+04  0.7818608E-02  0.8497364E-01
          1   -1    0    0  501    0  0.00000000000E+00  0.00000000000E+00  0.16322535057E+04  0.16322535057E+04  0.00000000000E+00 0. -1.
         -2   -1    0    0    0  501 -0.00000000000E+00 -0.00000000000E+00 -0.77629829832E+03  0.77629829832E+03  0.00000000000E+00 0.  1.
        -24    2    1    2    0    0 -0.58335099309E+03  0.49822872554E+03 -0.22672726459E+03  0.80425679656E+03  0.83027093285E+02 0.  0.
        254    2    1    2    0    0  0.58335099309E+03 -0.49822872554E+03  0.10826824719E+04  0.16042950074E+04  0.90168225652E+03 0.  0.
         23    2    4    4    0    0  0.37184307443E+03 -0.50752764204E+03  0.16317900824E+03  0.65636212194E+03  0.91281251891E+02 0.  0.
         23    2    4    4    0    0  0.21150791866E+03  0.92989165022E+01  0.91950346369E+03  0.94793288548E+03  0.90928907042E+02 0.  0.
          1    1    3    3  502    0 -0.11941427637E+03  0.62972176896E+02 -0.28921994098E+02  0.13806428287E+03  0.00000000000E+00 0. -1.
         -2    1    3    3    0  502 -0.46393671672E+03  0.43525654864E+03 -0.19780527049E+03  0.66619251369E+03  0.00000000000E+00 0.  1.
         13    1    5    5    0    0  0.35257747320E+03 -0.50387451235E+03  0.16482310693E+03  0.63668442370E+03  0.00000000000E+00 0. -1.
        -13    1    5    5    0    0  0.19265601230E+02 -0.36531296896E+01 -0.16440986979E+01  0.19677698234E+02  0.00000000000E+00 0.  1.
          4    1    6    6  503    0  0.17364340162E+03  0.17300384167E+02  0.85568129235E+03  0.87329365525E+03  0.00000000000E+00 0. -1.
         -4    1    6    6    0  503  0.37864517038E+02 -0.80014676649E+01  0.63822171341E+02  0.74639230234E+02  0.00000000000E+00 0.  1.
<mgrwt>
<rscale>  0 0.22513246E+04</rscale>
<asrwt>0</asrwt>
<pdfrwt beam="1">  1        1 0.25111592E+00 0.22513246E+04</pdfrwt>
<pdfrwt beam="2">  1       -2 0.11943051E+00 0.22513246E+04</pdfrwt>
<totfact> 0.22710706E+00</totfact>
</mgrwt>
</event>
<event>
12    5  0.5095719E-008  0.1987576E+04  0.7818608E-02  0.8612451E-01
          1   -1    0    0  501    0  0.00000000000E+00  0.00000000000E+00  0.43116281128E+04  0.43116281128E+04  0.00000000000E+00 0. -1.
         -2   -1    0    0    0  501 -0.00000000000E+00 -0.00000000000E+00 -0.22905846115E+03  0.22905846115E+03  0.00000000000E+00 0.  1.
        -24    2    1    2    0    0  0.57679585952E+03  0.17013908375E+03  0.46437876917E+03  0.76693093780E+03  0.10437744356E+03 0.  0.
        254    2    1    2    0    0 -0.57679585952E+03 -0.17013908375E+03  0.36181908825E+04  0.37737556362E+04  0.88785447456E+03 0.  0.
         23    2    4    4    0    0 -0.76739608490E+03  0.29507940717E+02  0.28269038813E+04  0.29305322037E+04  0.82861169326E+02 0.  0.
         23    2    4    4    0    0  0.19060022538E+03 -0.19964702447E+03  0.79128700120E+03  0.84322343243E+03  0.93291255963E+02 0.  0.
          1    1    3    3  502    0  0.24809115354E+03  0.93917744137E+02  0.26521282433E+03  0.37511012425E+03  0.00000000000E+00 0. -1.
         -2    1    3    3    0  502  0.32870470598E+03  0.76221339616E+02  0.19916594484E+03  0.39182081355E+03  0.00000000000E+00 0.  1.
         13    1    5    5    0    0 -0.38651150482E+03  0.14241153460E+02  0.15807741973E+04  0.16274031513E+04  0.00000000000E+00 0.  1.
        -13    1    5    5    0    0 -0.38088458008E+03  0.15266787257E+02  0.12461296839E+04  0.13031290524E+04  0.00000000000E+00 0. -1.
          3    1    6    6  503    0  0.12088251766E+02 -0.11664461832E+02  0.89079137414E+01  0.19014111281E+02  0.00000000000E+00 0. -1.
         -3    1    6    6    0  503  0.17851197362E+03 -0.18798256264E+03  0.78237908746E+03  0.82420932115E+03  0.00000000000E+00 0.  1.
<mgrwt>
<rscale>  0 0.19875763E+04</rscale>
<asrwt>0</asrwt>
<pdfrwt beam="1">  1        1 0.66332735E+00 0.19875763E+04</pdfrwt>
<pdfrwt beam="2">  1       -2 0.35239766E-01 0.19875763E+04</pdfrwt>
<totfact> 0.30949429E-01</totfact>
</mgrwt>
</event>
<event>
12    5  0.5095719E-008  0.2847502E+04  0.7818608E-02  0.8288671E-01
          1   -1    0    0  501    0  0.00000000000E+00  0.00000000000E+00  0.17293825451E+04  0.17293825451E+04  0.00000000000E+00 0. -1.
         -2   -1    0    0    0  501 -0.00000000000E+00 -0.00000000000E+00 -0.11721334351E+04  0.11721334351E+04  0.00000000000E+00 0.  1.
        -24    2    1    2    0    0  0.35596462368E+03  0.10314912078E+04 -0.42244676776E+03  0.11733579847E+04  0.87308440443E+02 0.  0.
        254    2    1    2    0    0 -0.35596462368E+03 -0.10314912078E+04  0.97969587774E+03  0.17281579955E+04  0.91435284197E+03 0.  0.
         23    2    4    4    0    0 -0.56733438344E+03 -0.75150517548E+03  0.36360325926E+03  0.10134298471E+04  0.90578106895E+02 0.  0.
         23    2    4    4    0    0  0.21136975976E+03 -0.27998603228E+03  0.61609261848E+03  0.71472814842E+03  0.90536500802E+02 0.  0.
          3    1    3    3  502    0  0.21820013798E+03  0.54420741276E+03 -0.19155931985E+03  0.61682086649E+03  0.00000000000E+00 0. -1.
         -4    1    3    3    0  502  0.13776448570E+03  0.48728379500E+03 -0.23088744791E+03  0.55653711825E+03  0.00000000000E+00 0.  1.
         13    1    5    5    0    0 -0.53455450106E+03 -0.67876927272E+03  0.35142345030E+03  0.93272433313E+03  0.00000000000E+00 0.  1.
        -13    1    5    5    0    0 -0.32779882381E+02 -0.72735902764E+02  0.12179808957E+02  0.80705513975E+02  0.00000000000E+00 0. -1.
          1    1    6    6  503    0  0.46146659015E+02 -0.13378374152E+03  0.23024928845E+03  0.27026346121E+03  0.00000000000E+00 0. -1.
         -1    1    6    6    0  503  0.16522310074E+03 -0.14620229076E+03  0.38584333004E+03  0.44446468721E+03  0.00000000000E+00 0.  1.
<mgrwt>
<rscale>  0 0.28475021E+04</rscale>
<asrwt>0</asrwt>
<pdfrwt beam="1">  1        1 0.26605885E+00 0.28475021E+04</pdfrwt>
<pdfrwt beam="2">  1       -2 0.18032822E+00 0.28475021E+04</pdfrwt>
<totfact> 0.62194913E-01</totfact>
</mgrwt>
</event>
<event>
12    5  0.5095719E-008  0.1471346E+04  0.7818608E-02  0.8903734E-01
          3   -1    0    0  501    0  0.00000000000E+00  0.00000000000E+00  0.25604714647E+03  0.25604714647E+03  0.00000000000E+00 0. -1.
         -4   -1    0    0    0  501 -0.00000000000E+00 -0.00000000000E+00 -0.21137301101E+04  0.21137301101E+04  0.00000000000E+00 0.  1.
        -24    2    1    2    0    0 -0.18519560976E+03  0.67476245570E+02 -0.12636822179E+04  0.12816448992E+04  0.82888130693E+02 0.  0.
        254    2    1    2    0    0  0.18519560976E+03 -0.67476245570E+02 -0.59400074573E+03  0.10881323574E+04  0.89013745211E+03 0.  0.
         23    2    4    4    0    0 -0.27314088350E+03 -0.27718471265E+03 -0.27669187149E+03  0.48615026787E+03  0.91358546590E+02 0.  0.
         23    2    4    4    0    0  0.45833649326E+03  0.20970846708E+03 -0.31730887424E+03  0.60198208950E+03  0.87450169782E+02 0.  0.
          1    1    3    3  502    0 -0.10782360286E+03  0.48711752203E+02 -0.49926535453E+03  0.51309322581E+03  0.00000000000E+00 0. -1.
         -2    1    3    3    0  502 -0.77372006895E+02  0.18764493366E+02 -0.76441686336E+03  0.76855167338E+03  0.00000000000E+00 0.  1.
         13    1    5    5    0    0 -0.21389563354E+03 -0.18108496322E+03 -0.15542934557E+03  0.32047057184E+03  0.00000000000E+00 0.  1.
        -13    1    5    5    0    0 -0.59245249956E+02 -0.96099749436E+02 -0.12126252592E+03  0.16567969603E+03  0.00000000000E+00 0. -1.
          4    1    6    6  503    0  0.36225805017E+03  0.19552718795E+03 -0.28041699899E+03  0.49809182835E+03  0.00000000000E+00 0.  1.
         -4    1    6    6    0  503  0.96078443088E+02  0.14181279129E+02 -0.36891875242E+02  0.10389026115E+03  0.00000000000E+00 0. -1.
<mgrwt>
<rscale>  0 0.14713457E+04</rscale>
<asrwt>0</asrwt>
<pdfrwt beam="1">  1        3 0.39391869E-01 0.14713457E+04</pdfrwt>
<pdfrwt beam="2">  1       -4 0.32518924E+00 0.14713457E+04</pdfrwt>
<totfact> 0.30660109E-01</totfact>
</mgrwt>
</event>
<event>
12    5  0.5095719E-008  0.1946849E+04  0.7818608E-02  0.8631882E-01
         -2   -1    0    0    0  501 -0.00000000000E+00  0.00000000000E+00  0.51602652775E+03  0.51602652775E+03  0.00000000000E+00 0.  1.
          1   -1    0    0  501    0  0.00000000000E+00 -0.00000000000E+00 -0.18362536424E+04  0.18362536424E+04  0.00000000000E+00 0. -1.
        -24    2    1    2    0    0 -0.69657411952E+03  0.15425428257E+01 -0.91489312341E+03  0.11526764539E+04  0.80098044210E+02 0.  0.
        254    2    1    2    0    0  0.69657411952E+03 -0.15425428257E+01 -0.40533399128E+03  0.11996037163E+04  0.88855812878E+03 0.  0.
         23    2    4    4    0    0  0.73210269763E+03  0.27194432644E+03 -0.45022100293E+03  0.90587401632E+03  0.89334793931E+02 0.  0.
         23    2    4    4    0    0 -0.35528578101E+02 -0.27348686927E+03  0.44887011648E+02  0.29372969997E+03  0.90581153164E+02 0.  0.
          3    1    3    3  502    0 -0.50429078539E+03  0.33515454149E+02 -0.63448959169E+03  0.81117786204E+03  0.00000000000E+00 0. -1.
         -4    1    3    3    0  502 -0.19228333414E+03 -0.31972911323E+02 -0.28040353172E+03  0.34149859187E+03  0.00000000000E+00 0.  1.
         13    1    5    5    0    0  0.71564746764E+03  0.27391340550E+03 -0.45124386587E+03  0.88926985675E+03  0.00000000000E+00 0. -1.
        -13    1    5    5    0    0  0.16455229986E+02 -0.19690790588E+01  0.10228629344E+01  0.16604159564E+02  0.00000000000E+00 0.  1.
          1    1    6    6  503    0 -0.31395299916E+02 -0.27676410719E+03  0.53499291286E+02  0.28363041102E+03  0.00000000000E+00 0. -1.
         -1    1    6    6    0  503 -0.41332781848E+01  0.32772379199E+01 -0.86122796374E+01  0.10099288960E+02  0.00000000000E+00 0.  1.
<mgrwt>
<rscale>  0 0.19468493E+04</rscale>
<asrwt>0</asrwt>
<pdfrwt beam="1">  1        1 0.28250055E+00 0.19468493E+04</pdfrwt>
<pdfrwt beam="2">  1       -2 0.79388698E-01 0.19468493E+04</pdfrwt>
<totfact> 0.44293411E+00</totfact>
</mgrwt>
</event>
<event>
12    5  0.5095719E-008  0.2063650E+04  0.7818608E-02  0.8577427E-01
         -2   -1    0    0    0  501 -0.00000000000E+00  0.00000000000E+00  0.58127473971E+03  0.58127473971E+03  0.00000000000E+00 0.  1.
          1   -1    0    0  501    0  0.00000000000E+00 -0.00000000000E+00 -0.18315998125E+04  0.18315998125E+04  0.00000000000E+00 0. -1.
        -24    2    1    2    0    0 -0.18817206753E+03 -0.58705450435E+03 -0.11652685758E+04  0.13207895417E+04  0.81193851156E+02 0.  0.
        254    2    1    2    0    0  0.18817206753E+03  0.58705450435E+03 -0.85056496939E+02  0.10920850105E+04  0.89742595488E+03 0.  0.
         23    2    4    4    0    0 -0.31384335903E+03  0.11600082029E+03 -0.18118960750E+03  0.39078396526E+03  0.89042626472E+02 0.  0.
         23    2    4    4    0    0  0.50201542656E+03  0.47105368406E+03  0.96133110559E+02  0.70130104528E+03  0.93115623792E+02 0.  0.
          3    1    3    3  502    0 -0.15708419315E+03 -0.54502171125E+03 -0.10952251472E+04  0.12333864895E+04  0.00000000000E+00 0. -1.
         -2    1    3    3    0  502 -0.31087874382E+02 -0.42032793094E+02 -0.70043428641E+02  0.87403052147E+02  0.00000000000E+00 0.  1.
         13    1    5    5    0    0 -0.15470846765E+03  0.82070950106E+02 -0.51016854741E+02  0.18240907401E+03  0.00000000000E+00 0.  1.
        -13    1    5    5    0    0 -0.15913489138E+03  0.33929870183E+02 -0.13017275276E+03  0.20837489125E+03  0.00000000000E+00 0. -1.
          4    1    6    6  503    0  0.35400542181E+03  0.37575761699E+03  0.46153743256E+02  0.51830858898E+03  0.00000000000E+00 0. -1.
         -4    1    6    6    0  503  0.14801000475E+03  0.95296067064E+02  0.49979367303E+02  0.18299245629E+03  0.00000000000E+00 0.  1.
<mgrwt>
<rscale>  0 0.20636499E+04</rscale>
<asrwt>0</asrwt>
<pdfrwt beam="1">  1        1 0.28178459E+00 0.20636499E+04</pdfrwt>
<pdfrwt beam="2">  1       -2 0.89426883E-01 0.20636499E+04</pdfrwt>
<totfact> 0.33689552E+00</totfact>
</mgrwt>
</event>
<event>
12    5  0.5095719E-008  0.2067039E+04  0.7818608E-02  0.8575904E-01
         -2   -1    0    0    0  501 -0.00000000000E+00  0.00000000000E+00  0.63792518769E+03  0.63792518769E+03  0.00000000000E+00 0.  1.
          1   -1    0    0  501    0  0.00000000000E+00 -0.00000000000E+00 -0.16744318545E+04  0.16744318545E+04  0.00000000000E+00 0. -1.
        -24    2    1    2    0    0 -0.61750285887E+03 -0.49021931228E+03 -0.11694666650E+03  0.80102933736E+03  0.79666314402E+02 0.  0.
        254    2    1    2    0    0  0.61750285887E+03  0.49021931228E+03 -0.91956000030E+03  0.15113277048E+04  0.90382303708E+03 0.  0.
         23    2    4    4    0    0  0.33726041368E+03  0.35953795564E+03 -0.10494804538E+04  0.11630198785E+04  0.90520089955E+02 0.  0.
         23    2    4    4    0    0  0.28024244519E+03  0.13068135664E+03  0.12992045354E+03  0.34830782629E+03  0.93944518455E+02 0.  0.
          1    1    3    3  502    0 -0.60734377869E+02 -0.20917072203E+02 -0.73372594819E+01  0.64653104654E+02  0.00000000000E+00 0. -1.
         -2    1    3    3    0  502 -0.55676848100E+03 -0.46930224008E+03 -0.10960940702E+03  0.73637623270E+03  0.00000000000E+00 0.  1.
         13    1    5    5    0    0  0.72191373782E+01  0.39459892851E+02 -0.10972482335E+03  0.11682780468E+03  0.00000000000E+00 0. -1.
        -13    1    5    5    0    0  0.33004127630E+03  0.32007806279E+03 -0.93975563049E+03  0.10461920739E+04  0.00000000000E+00 0.  1.
          3    1    6    6  503    0  0.58046036573E+02  0.22692393784E+02 -0.11895145046E+02  0.63449047062E+02  0.00000000000E+00 0. -1.
         -3    1    6    6    0  503  0.22219640862E+03  0.10798896286E+03  0.14181559858E+03  0.28485877923E+03  0.00000000000E+00 0.  1.
<mgrwt>
<rscale>  0 0.20670387E+04</rscale>
<asrwt>0</asrwt>
<pdfrwt beam="1">  1        1 0.25760490E+00 0.20670387E+04</pdfrwt>
<pdfrwt beam="2">  1       -2 0.98142336E-01 0.20670387E+04</pdfrwt>
<totfact> 0.34690992E+00</totfact>
</mgrwt>
</event>
<event>
12    5  0.5095719E-008  0.1578003E+04  0.7818608E-02  0.8834177E-01
         -2   -1    0    0    0  501 -0.00000000000E+00  0.00000000000E+00  0.91652772676E+03  0.91652772676E+03  0.00000000000E+00 0.  1.
          1   -1    0    0  501    0  0.00000000000E+00 -0.00000000000E+00 -0.67921960014E+03  0.67921960014E+03  0.00000000000E+00 0. -1.
        -24    2    1    2    0    0  0.54032229457E+02 -0.33738055345E+03 -0.33997146506E+03  0.48869240130E+03  0.80588748382E+02 0.  0.
        254    2    1    2    0    0 -0.54032229457E+02  0.33738055345E+03  0.57727959168E+03  0.11070549256E+04  0.88066665752E+03 0.  0.
         23    2    4    4    0    0  0.20568736239E+03 -0.20894210042E+02 -0.13529889498E+03  0.26341476587E+03  0.91310945854E+02 0.  0.
         23    2    4    4    0    0 -0.25971959185E+03  0.35827476349E+03  0.71257848667E+03  0.84364015973E+03  0.90252683667E+02 0.  0.
          1    1    3    3  502    0  0.10245745306E+02 -0.27175144852E+03 -0.27055463642E+03  0.38360609531E+03  0.00000000000E+00 0. -1.
         -2    1    3    3    0  502  0.43786484151E+02 -0.65629104932E+02 -0.69416828640E+02  0.10508630599E+03  0.00000000000E+00 0.  1.
         13    1    5    5    0    0  0.13882548239E+03 -0.15111080442E+02 -0.37128119107E+02  0.14449690842E+03  0.00000000000E+00 0. -1.
        -13    1    5    5    0    0  0.66861880003E+02 -0.57831296001E+01 -0.98170775875E+02  0.11891785745E+03  0.00000000000E+00 0.  1.
          1    1    6    6  503    0 -0.14118042151E+03  0.15727160854E+03  0.26570584714E+03  0.33950827306E+03  0.00000000000E+00 0. -1.
         -1    1    6    6    0  503 -0.11853917034E+03  0.20100315495E+03  0.44687263953E+03  0.50413188668E+03  0.00000000000E+00 0.  1.
<mgrwt>
<rscale>  0 0.15780033E+04</rscale>
<asrwt>0</asrwt>
<pdfrwt beam="1">  1        1 0.10449532E+00 0.15780033E+04</pdfrwt>
<pdfrwt beam="2">  1       -2 0.14100427E+00 0.15780033E+04</pdfrwt>
<totfact> 0.84567506E+00</totfact>
</mgrwt>
</event>
<event>
12    5  0.5095719E-008  0.1336547E+04  0.7818608E-02  0.9001075E-01
          1   -1    0    0  501    0  0.00000000000E+00  0.00000000000E+00  0.40713590657E+03  0.40713590657E+03  0.00000000000E+00 0. -1.
         -2   -1    0    0    0  501 -0.00000000000E+00 -0.00000000000E+00 -0.10969054014E+04  0.10969054014E+04  0.00000000000E+00 0.  1.
        -24    2    1    2    0    0  0.20775510166E+03 -0.86187930463E+02 -0.50549606981E+03  0.55910040687E+03  0.80476373866E+02 0.  0.
        254    2    1    2    0    0 -0.20775510166E+03  0.86187930463E+02 -0.18427342498E+03  0.94494090107E+03  0.89909180273E+03 0.  0.
         23    2    4    4    0    0 -0.46010327010E+02  0.14015666224E+02  0.35481911311E+03  0.37027540911E+03  0.94307404110E+02 0.  0.
         23    2    4    4    0    0 -0.16174477465E+03  0.72172264239E+02 -0.53909253809E+03  0.57466549196E+03  0.90826511418E+02 0.  0.
          1    1    3    3  502    0  0.21958775362E+02 -0.23938639870E+02 -0.27720459566E+02  0.42704451440E+02  0.00000000000E+00 0. -1.
         -2    1    3    3    0  502  0.18579632629E+03 -0.62249290593E+02 -0.47777561024E+03  0.51639595543E+03  0.00000000000E+00 0.  1.
         13    1    5    5    0    0  0.25585678841E+02 -0.10205486687E+02  0.61722183293E+02  0.67589990610E+02  0.00000000000E+00 0. -1.
        -13    1    5    5    0    0 -0.71596005851E+02  0.24221152910E+02  0.29309692982E+03  0.30268541850E+03  0.00000000000E+00 0.  1.
          1    1    6    6  503    0 -0.11174783805E+03  0.92208662603E+02 -0.37846497736E+03  0.40524777095E+03  0.00000000000E+00 0. -1.
         -1    1    6    6    0  503 -0.49996936596E+02 -0.20036398363E+02 -0.16062756073E+03  0.16941772102E+03  0.00000000000E+00 0.  1.
<mgrwt>
<rscale>  0 0.13365472E+04</rscale>
<asrwt>0</asrwt>
<pdfrwt beam="1">  1        1 0.62636294E-01 0.13365472E+04</pdfrwt>
<pdfrwt beam="2">  1       -2 0.16875468E+00 0.13365472E+04</pdfrwt>
<totfact> 0.10901923E+01</totfact>
</mgrwt>
</event>
<event>
12    5  0.5095719E-008  0.2570793E+04  0.7818608E-02  0.8378190E-01
          1   -1    0    0  501    0  0.00000000000E+00  0.00000000000E+00  0.33873161759E+04  0.33873161759E+04  0.00000000000E+00 0. -1.
         -2   -1    0    0    0  501 -0.00000000000E+00 -0.00000000000E+00 -0.48777372017E+03  0.48777372017E+03  0.00000000000E+00 0.  1.
        -24    2    1    2    0    0  0.22531263998E+03  0.67608572063E+03  0.25855404989E+04  0.26831961692E+04  0.81635308352E+02 0.  0.
        254    2    1    2    0    0 -0.22531263998E+03 -0.67608572063E+03  0.31400195687E+03  0.11918937269E+04  0.90230579070E+03 0.  0.
         23    2    4    4    0    0 -0.32034845630E+03 -0.33562616333E+03  0.57476856054E+03  0.74388821436E+03  0.87992740136E+02 0.  0.
         23    2    4    4    0    0  0.95035816321E+02 -0.34045955730E+03 -0.26076660367E+03  0.44800551254E+03  0.88120378656E+02 0.  0.
          3    1    3    3  502    0  0.17106955256E+03  0.53906286263E+03  0.19216235152E+04  0.20031201901E+04  0.00000000000E+00 0. -1.
         -4    1    3    3    0  502  0.54243087420E+02  0.13702285800E+03  0.66391698368E+03  0.68007597911E+03  0.00000000000E+00 0.  1.
         13    1    5    5    0    0 -0.30387200681E+03 -0.32301735034E+03  0.50987907546E+03  0.67576258903E+03  0.00000000000E+00 0. -1.
        -13    1    5    5    0    0 -0.16476449491E+02 -0.12608812995E+02  0.64889485083E+02  0.68125625335E+02  0.00000000000E+00 0.  1.
          4    1    6    6  503    0  0.10194783991E+03 -0.24141085664E+03 -0.16271734019E+03  0.30846312027E+03  0.00000000000E+00 0. -1.
         -4    1    6    6    0  503 -0.69120235846E+01 -0.99048700660E+02 -0.98049263479E+02  0.13954239227E+03  0.00000000000E+00 0.  1.
<mgrwt>
<rscale>  0 0.25707927E+04</rscale>
<asrwt>0</asrwt>
<pdfrwt beam="1">  1        1 0.52112555E+00 0.25707927E+04</pdfrwt>
<pdfrwt beam="2">  1       -2 0.75042113E-01 0.25707927E+04</pdfrwt>
<totfact> 0.37914192E-01</totfact>
</mgrwt>
</event>
<event>
12    5  0.5095719E-008  0.2062846E+04  0.7818608E-02  0.8577789E-01
         -2   -1    0    0    0  501 -0.00000000000E+00  0.00000000000E+00  0.42482326531E+03  0.42482326531E+03  0.00000000000E+00 0.  1.
          1   -1    0    0  501    0  0.00000000000E+00 -0.00000000000E+00 -0.25041796574E+04  0.25041796574E+04  0.00000000000E+00 0. -1.
        -24    2    1    2    0    0 -0.47275438941E+03 -0.15169217159E+02 -0.17995531506E+04  0.18623387615E+04  0.78659411307E+02 0.  0.
        254    2    1    2    0    0  0.47275438941E+03  0.15169217159E+02 -0.27980324154E+03  0.10666641612E+04  0.91419678463E+03 0.  0.
         23    2    4    4    0    0  0.36484319474E+03 -0.81337512855E+02 -0.59341368365E+03  0.70752207671E+03  0.93388122056E+02 0.  0.
         23    2    4    4    0    0  0.10791119467E+03  0.96506730013E+02  0.31361044211E+03  0.35914208453E+03  0.98352186593E+02 0.  0.
          1    1    3    3  502    0 -0.35429901024E+03 -0.27418011123E+02 -0.12212062261E+04  0.12718585545E+04  0.00000000000E+00 0. -1.
         -2    1    3    3    0  502 -0.11845537917E+03  0.12248793964E+02 -0.57834692450E+03  0.59048020703E+03  0.00000000000E+00 0.  1.
         13    1    5    5    0    0  0.15189275368E+02 -0.12289588035E+02 -0.81164330287E+02  0.83482911851E+02  0.00000000000E+00 0. -1.
        -13    1    5    5    0    0  0.34965391938E+03 -0.69047924819E+02 -0.51224935336E+03  0.62403916486E+03  0.00000000000E+00 0.  1.
          1    1    6    6  503    0  0.79521426726E+02  0.88620565211E+02  0.14334778127E+03  0.18634872761E+03  0.00000000000E+00 0. -1.
         -1    1    6    6    0  503  0.28389767939E+02  0.78861648025E+01  0.17026266084E+03  0.17279335692E+03  0.00000000000E+00 0.  1.
<mgrwt>
<rscale>  0 0.20628464E+04</rscale>
<asrwt>0</asrwt>
<pdfrwt beam="1">  1        1 0.38525840E+00 0.20628464E+04</pdfrwt>
<pdfrwt beam="2">  1       -2 0.65357427E-01 0.20628464E+04</pdfrwt>
<totfact> 0.23542780E+00</totfact>
</mgrwt>
</event>
<event>
12    5  0.5095719E-008  0.1944508E+04  0.7818608E-02  0.8633013E-01
         -2   -1    0    0    0  501 -0.00000000000E+00  0.00000000000E+00  0.51102713665E+03  0.51102713665E+03  0.00000000000E+00 0.  1.
          1   -1    0    0  501    0  0.00000000000E+00 -0.00000000000E+00 -0.18497613632E+04  0.18497613632E+04  0.00000000000E+00 0. -1.
        -24    2    1    2    0    0 -0.48352827987E+03  0.13153402871E+03  0.16621516467E+03  0.53423709219E+03  0.81737332797E+02 0.  0.
        254    2    1    2    0    0  0.48352827987E+03 -0.13153402871E+03 -0.15049493912E+04  0.18265514076E+04  0.90571329707E+03 0.  0.
         23    2    4    4    0    0  0.31250769227E+03  0.19570792016E+03 -0.13712983724E+04  0.14233586598E+04  0.97611477349E+02 0.  0.
         23    2    4    4    0    0  0.17102058760E+03 -0.32724194887E+03 -0.13365101877E+03  0.40319274781E+03  0.91468369326E+02 0.  0.
          3    1    3    3  502    0 -0.90362060282E+02  0.48975504214E+02  0.58684265876E+02  0.11835431979E+03  0.00000000000E+00 0. -1.
         -4    1    3    3    0  502 -0.39316621958E+03  0.82558524496E+02  0.10753089879E+03  0.41588277240E+03  0.00000000000E+00 0.  1.
         13    1    5    5    0    0  0.17223824593E+03  0.12609979385E+03 -0.95542208051E+03  0.97897830584E+03  0.00000000000E+00 0. -1.
        -13    1    5    5    0    0  0.14026944634E+03  0.69608126305E+02 -0.41587629190E+03  0.44438035396E+03  0.00000000000E+00 0.  1.
          4    1    6    6  503    0  0.37472449898E+02 -0.70548391062E+02  0.93528413781E+01  0.80428450344E+02  0.00000000000E+00 0. -1.
         -4    1    6    6    0  503  0.13354813770E+03 -0.25669355780E+03 -0.14300386014E+03  0.32276429746E+03  0.00000000000E+00 0.  1.
<mgrwt>
<rscale>  0 0.19445084E+04</rscale>
<asrwt>0</asrwt>
<pdfrwt beam="1">  1        1 0.28457867E+00 0.19445084E+04</pdfrwt>
<pdfrwt beam="2">  1       -2 0.78619560E-01 0.19445084E+04</pdfrwt>
<totfact> 0.44335002E+00</totfact>
</mgrwt>
</event>
<event>
12    5  0.5095719E-008  0.1502913E+04  0.7818608E-02  0.8882518E-01
          1   -1    0    0  501    0  0.00000000000E+00  0.00000000000E+00  0.14798667200E+04  0.14798667200E+04  0.00000000000E+00 0. -1.
         -2   -1    0    0    0  501 -0.00000000000E+00 -0.00000000000E+00 -0.38157979684E+03  0.38157979684E+03  0.00000000000E+00 0.  1.
        -24    2    1    2    0    0 -0.31821852812E+03 -0.75454309868E+02  0.78702239767E+03  0.85603185508E+03  0.80186644523E+02 0.  0.
        254    2    1    2    0    0  0.31821852812E+03  0.75454309868E+02  0.31126452550E+03  0.10054146618E+04  0.89834105591E+03 0.  0.
         23    2    4    4    0    0  0.58957657691E+03 -0.25647626564E+02  0.35892185429E+03  0.69698829442E+03  0.93324403485E+02 0.  0.
         23    2    4    4    0    0 -0.27135804879E+03  0.10110193643E+03 -0.47657328795E+02  0.30842636734E+03  0.94862062426E+02 0.  0.
          3    1    3    3  502    0 -0.15710466451E+03 -0.54169437871E+02  0.49062648485E+03  0.51800632356E+03  0.00000000000E+00 0. -1.
         -4    1    3    3    0  502 -0.16111386361E+03 -0.21284871997E+02  0.29639591281E+03  0.33802553152E+03  0.00000000000E+00 0.  1.
         13    1    5    5    0    0  0.36709826750E+03 -0.51821195503E+02  0.19114962424E+03  0.41711479613E+03  0.00000000000E+00 0.  1.
        -13    1    5    5    0    0  0.22247830941E+03  0.26173568939E+02  0.16777223006E+03  0.27987349829E+03  0.00000000000E+00 0. -1.
          3    1    6    6  503    0 -0.24285679318E+03  0.63800922613E+02 -0.15600711553E+02  0.25158172017E+03  0.00000000000E+00 0. -1.
         -3    1    6    6    0  503 -0.28501255611E+02  0.37301013819E+02 -0.32056617242E+02  0.56844647174E+02  0.00000000000E+00 0.  1.
<mgrwt>
<rscale>  0 0.15029135E+04</rscale>
<asrwt>0</asrwt>
<pdfrwt beam="1">  1        1 0.22767180E+00 0.15029135E+04</pdfrwt>
<pdfrwt beam="2">  1       -2 0.58704585E-01 0.15029135E+04</pdfrwt>
<totfact> 0.15548234E+01</totfact>
</mgrwt>
</event>
<event>
12    5  0.5095719E-008  0.1834416E+04  0.7818608E-02  0.8688208E-01
         -2   -1    0    0    0  501 -0.00000000000E+00  0.00000000000E+00  0.23417859065E+03  0.23417859065E+03  0.00000000000E+00 0.  1.
          1   -1    0    0  501    0  0.00000000000E+00 -0.00000000000E+00 -0.35924320374E+04  0.35924320374E+04  0.00000000000E+00 0. -1.
        -24    2    1    2    0    0  0.31769666937E+03 -0.59566527778E+03 -0.16069896921E+04  0.17449019104E+04  0.80737285768E+02 0.  0.
        254    2    1    2    0    0 -0.31769666937E+03  0.59566527778E+03 -0.17512637547E+04  0.20817087177E+04  0.90046551858E+03 0.  0.
         23    2    4    4    0    0 -0.21071491394E+03  0.26583099024E+02  0.34381450836E+01  0.23151238012E+03  0.92079993457E+02 0.  0.
         23    2    4    4    0    0 -0.10698175543E+03  0.56908217876E+03 -0.17547018997E+04  0.18501963376E+04  0.94594442417E+02 0.  0.
          3    1    3    3  502    0  0.27677287574E+03 -0.55010786631E+03 -0.14099355975E+04  0.15385513571E+04  0.00000000000E+00 0. -1.
         -2    1    3    3    0  502  0.40923793629E+02 -0.45557411468E+02 -0.19705409467E+03  0.20635055331E+03  0.00000000000E+00 0.  1.
         13    1    5    5    0    0 -0.16954127899E+03  0.53158403460E+02  0.22152597790E+02  0.17905529517E+03  0.00000000000E+00 0. -1.
        -13    1    5    5    0    0 -0.41173634947E+02 -0.26575304435E+02 -0.18714452706E+02  0.52457084943E+02  0.00000000000E+00 0.  1.
          4    1    6    6  503    0 -0.56348277361E+02  0.24880334195E+03 -0.92034744424E+03  0.95504850633E+03  0.00000000000E+00 0. -1.
         -4    1    6    6    0  503 -0.50633478068E+02  0.32027883681E+03 -0.83435445550E+03  0.89514783127E+03  0.00000000000E+00 0.  1.
<mgrwt>
<rscale>  0 0.18344162E+04</rscale>
<asrwt>0</asrwt>
<pdfrwt beam="1">  1        1 0.55268184E+00 0.18344162E+04</pdfrwt>
<pdfrwt beam="2">  1       -2 0.36027476E-01 0.18344162E+04</pdfrwt>
<totfact> 0.12721577E+00</totfact>
</mgrwt>
</event>
<event>
12    5  0.5095719E-008  0.2041770E+04  0.7818608E-02  0.8587337E-01
         -2   -1    0    0    0  501 -0.00000000000E+00  0.00000000000E+00  0.80337057518E+03  0.80337057518E+03  0.00000000000E+00 0.  1.
          1   -1    0    0  501    0  0.00000000000E+00 -0.00000000000E+00 -0.12972917902E+04  0.12972917902E+04  0.00000000000E+00 0. -1.
        -24    2    1    2    0    0 -0.30495428788E+03 -0.32706390569E+03  0.50754731317E+03  0.68100489506E+03  0.78711345397E+02 0.  0.
        254    2    1    2    0    0  0.30495428788E+03  0.32706390569E+03 -0.10014685282E+04  0.14196574703E+04  0.90139902595E+03 0.  0.
         23    2    4    4    0    0  0.12640124778E+03  0.54848370139E+03 -0.27206824063E+03  0.63147881334E+03  0.89065807112E+02 0.  0.
         23    2    4    4    0    0  0.17855304010E+03 -0.22141979571E+03 -0.72940028753E+03  0.78817865697E+03  0.91065370970E+02 0.  0.
          3    1    3    3  502    0 -0.71300193989E+02 -0.46382722001E+02  0.63970480429E+02  0.10642977464E+03  0.00000000000E+00 0. -1.
         -4    1    3    3    0  502 -0.23365409389E+03 -0.28068118368E+03  0.44357683274E+03  0.57457512042E+03  0.00000000000E+00 0.  1.
         13    1    5    5    0    0  0.93563010153E+02  0.39444926765E+03 -0.15014598076E+03  0.43230553681E+03  0.00000000000E+00 0. -1.
        -13    1    5    5    0    0  0.32838237628E+02  0.15403443375E+03 -0.12192225988E+03  0.19917327653E+03  0.00000000000E+00 0.  1.
          1    1    6    6  503    0  0.13714688605E+02 -0.30630203537E+02 -0.18766851508E+03  0.19064567555E+03  0.00000000000E+00 0. -1.
         -1    1    6    6    0  503  0.16483835149E+03 -0.19078959217E+03 -0.54173177245E+03  0.59753298142E+03  0.00000000000E+00 0.  1.
<mgrwt>
<rscale>  0 0.20417699E+04</rscale>
<asrwt>0</asrwt>
<pdfrwt beam="1">  1        1 0.19958335E+00 0.20417699E+04</pdfrwt>
<pdfrwt beam="2">  1       -2 0.12359548E+00 0.20417699E+04</pdfrwt>
<totfact> 0.36349833E+00</totfact>
</mgrwt>
</event>
<event>
12    5  0.5095719E-008  0.4647123E+04  0.7818608E-02  0.7885374E-01
         -2   -1    0    0    0  501 -0.00000000000E+00  0.00000000000E+00  0.22003633686E+04  0.22003633686E+04  0.00000000000E+00 0.  1.
          1   -1    0    0  501    0  0.00000000000E+00 -0.00000000000E+00 -0.24536579985E+04  0.24536579985E+04  0.00000000000E+00 0. -1.
        -24    2    1    2    0    0  0.49846097048E+03 -0.11396172474E+04  0.17383094509E+04  0.21387105524E+04  0.71918495225E+02 0.  0.
        254    2    1    2    0    0 -0.49846097048E+03  0.11396172474E+04 -0.19916040808E+04  0.25153108148E+04  0.90172660526E+03 0.  0.
         23    2    4    4    0    0 -0.29908159282E+03  0.12472256301E+04 -0.17514552763E+04  0.21727415140E+04  0.90490496379E+02 0.  0.
         23    2    4    4    0    0 -0.19937937767E+03 -0.10760838274E+03 -0.24014880447E+03  0.34256930080E+03  0.91381493158E+02 0.  0.
          3    1    3    3  502    0  0.14906171839E+03 -0.27230025393E+03  0.40848630544E+03  0.51305739046E+03  0.00000000000E+00 0. -1.
         -4    1    3    3    0  502  0.34939925210E+03 -0.86731699347E+03  0.13298231455E+04  0.16256531619E+04  0.00000000000E+00 0.  1.
         13    1    5    5    0    0 -0.10716954224E+03  0.61605296823E+03 -0.88972373124E+03  0.10874809830E+04  0.00000000000E+00 0. -1.
        -13    1    5    5    0    0 -0.19191205058E+03  0.63117266191E+03 -0.86173154510E+03  0.10852605310E+04  0.00000000000E+00 0.  1.
          1    1    6    6  503    0 -0.10415413157E+03 -0.89452296362E+01 -0.12912407492E+03  0.16613586904E+03  0.00000000000E+00 0. -1.
         -1    1    6    6    0  503 -0.95225246095E+02 -0.98663153103E+02 -0.11102472955E+03  0.17643343177E+03  0.00000000000E+00 0.  1.
<mgrwt>
<rscale>  0 0.46471235E+04</rscale>
<asrwt>0</asrwt>
<pdfrwt beam="1">  1        1 0.37748585E+00 0.46471235E+04</pdfrwt>
<pdfrwt beam="2">  1       -2 0.33851744E+00 0.46471235E+04</pdfrwt>
<totfact> 0.17494495E-02</totfact>
</mgrwt>
</event>
<event>
12    5  0.5095719E-008  0.1653843E+04  0.7818608E-02  0.8788136E-01
          1   -1    0    0  501    0  0.00000000000E+00  0.00000000000E+00  0.15460027246E+04  0.15460027246E+04  0.00000000000E+00 0. -1.
         -4   -1    0    0    0  501 -0.00000000000E+00 -0.00000000000E+00 -0.44230137906E+03  0.44230137906E+03  0.00000000000E+00 0.  1.
        -24    2    1    2    0    0 -0.44631773688E+03  0.32471451698E+03  0.22881757863E+03  0.60722511755E+03  0.10828582227E+03 0.  0.
        254    2    1    2    0    0  0.44631773688E+03 -0.32471451698E+03  0.87488376695E+03  0.13810789861E+04  0.91505110268E+03 0.  0.
         23    2    4    4    0    0  0.21027963739E+03 -0.32672824770E+03 -0.68039670800E+02  0.40489763100E+03  0.91344518406E+02 0.  0.
         23    2    4    4    0    0  0.23603809950E+03  0.20137307216E+01  0.94292343775E+03  0.97618135515E+03  0.90041041512E+02 0.  0.
          1    1    3    3  502    0 -0.94878424393E+01  0.38906207562E+02  0.10575898807E+02  0.41419340610E+02  0.00000000000E+00 0. -1.
         -2    1    3    3    0  502 -0.43682989444E+03  0.28580830941E+03  0.21824167982E+03  0.56580577694E+03  0.00000000000E+00 0.  1.
         13    1    5    5    0    0  0.10950416337E+03 -0.12207189185E+03  0.86806973396E+01  0.16421955755E+03  0.00000000000E+00 0. -1.
        -13    1    5    5    0    0  0.10077547402E+03 -0.20465635585E+03 -0.76720368140E+02  0.24067807345E+03  0.00000000000E+00 0.  1.
          3    1    6    6  503    0  0.11422270225E+03 -0.20705160108E+02  0.30521455494E+03  0.32654471962E+03  0.00000000000E+00 0. -1.
         -3    1    6    6    0  503  0.12181539725E+03  0.22718890830E+02  0.63770888281E+03  0.64963663553E+03  0.00000000000E+00 0.  1.
<mgrwt>
<rscale>  0 0.16538430E+04</rscale>
<asrwt>0</asrwt>
<pdfrwt beam="1">  1        1 0.23784657E+00 0.16538430E+04</pdfrwt>
<pdfrwt beam="2">  1       -4 0.68046367E-01 0.16538430E+04</pdfrwt>
<totfact> 0.56818945E+00</totfact>
</mgrwt>
</event>
<event>
12    5  0.5095719E-008  0.1321568E+04  0.7818608E-02  0.9012634E-01
          1   -1    0    0  501    0  0.00000000000E+00  0.00000000000E+00  0.16832884056E+04  0.16832884056E+04  0.00000000000E+00 0. -1.
         -2   -1    0    0    0  501 -0.00000000000E+00 -0.00000000000E+00 -0.25939438803E+03  0.25939438803E+03  0.00000000000E+00 0.  1.
        -24    2    1    2    0    0  0.23156574343E+02 -0.87938963662E+02  0.85536970068E+03  0.86385061279E+03  0.79442231262E+02 0.  0.
        254    2    1    2    0    0 -0.23156574343E+02  0.87938963662E+02  0.56852431693E+03  0.10788321809E+04  0.91235381696E+03 0.  0.
         23    2    4    4    0    0 -0.71044542619E+02  0.36700945389E+03 -0.53883177215E+02  0.38890305761E+03  0.92730389603E+02 0.  0.
         23    2    4    4    0    0  0.47887968276E+02 -0.27907049022E+03  0.62240749415E+03  0.68992912328E+03  0.91855921742E+02 0.  0.
          3    1    3    3  502    0  0.11507295319E+02 -0.53898308674E+02  0.75875874052E+03  0.76075769588E+03  0.00000000000E+00 0. -1.
         -4    1    3    3    0  502  0.11649279024E+02 -0.34040654988E+02  0.96610960156E+02  0.10309291691E+03  0.00000000000E+00 0.  1.
         13    1    5    5    0    0 -0.72767784296E+02  0.31240771940E+03 -0.13656153000E+02  0.32106109090E+03  0.00000000000E+00 0.  1.
        -13    1    5    5    0    0  0.17232416770E+01  0.54601734483E+02 -0.40227024216E+02  0.67841966714E+02  0.00000000000E+00 0. -1.
          2    1    6    6  503    0  0.54831709112E+02 -0.76716190945E+02  0.17340094896E+03  0.19738231779E+03  0.00000000000E+00 0. -1.
         -2    1    6    6    0  503 -0.69437408362E+01 -0.20235429928E+03  0.44900654519E+03  0.49254680549E+03  0.00000000000E+00 0.  1.
<mgrwt>
<rscale>  0 0.13215681E+04</rscale>
<asrwt>0</asrwt>
<pdfrwt beam="1">  1        1 0.25896744E+00 0.13215681E+04</pdfrwt>
<pdfrwt beam="2">  1       -2 0.39906830E-01 0.13215681E+04</pdfrwt>
<totfact> 0.25032186E+01</totfact>
</mgrwt>
</event>
<event>
12    5  0.5095719E-008  0.2312722E+04  0.7818608E-02  0.8472922E-01
         -2   -1    0    0    0  501 -0.00000000000E+00  0.00000000000E+00  0.66281754740E+03  0.66281754740E+03  0.00000000000E+00 0.  1.
          1   -1    0    0  501    0  0.00000000000E+00 -0.00000000000E+00 -0.20174033523E+04  0.20174033523E+04  0.00000000000E+00 0. -1.
        -24    2    1    2    0    0  0.94940837972E+03  0.79208313103E+02 -0.31367595123E+03  0.10063066537E+04  0.81303447955E+02 0.  0.
        254    2    1    2    0    0 -0.94940837972E+03 -0.79208313103E+02 -0.10409098536E+04  0.16739142459E+04  0.90046951694E+03 0.  0.
         23    2    4    4    0    0 -0.44355976719E+03 -0.47939502228E+03 -0.51428160718E+03  0.83625278187E+03  0.90930133868E+02 0.  0.
         23    2    4    4    0    0 -0.50584861253E+03  0.40018670917E+03 -0.52662824647E+03  0.83766146406E+03  0.91143828045E+02 0.  0.
          3    1    3    3  502    0  0.13836924821E+03 -0.13715214150E+02 -0.60150910168E+02  0.15150012522E+03  0.00000000000E+00 0. -1.
         -4    1    3    3    0  502  0.81103913151E+03  0.92923527253E+02 -0.25352504106E+03  0.85480652852E+03  0.00000000000E+00 0.  1.
         13    1    5    5    0    0 -0.79067307571E+02 -0.14073990637E+03 -0.11282362507E+03  0.19694804072E+03  0.00000000000E+00 0.  1.
        -13    1    5    5    0    0 -0.36449245962E+03 -0.33865511591E+03 -0.40145798211E+03  0.63930474114E+03  0.00000000000E+00 0. -1.
          2    1    6    6  503    0 -0.31217871175E+03  0.29841093895E+03 -0.36855393236E+03  0.56774698380E+03  0.00000000000E+00 0. -1.
         -2    1    6    6    0  503 -0.19366990078E+03  0.10177577023E+03 -0.15807431411E+03  0.26991448026E+03  0.00000000000E+00 0.  1.
<mgrwt>
<rscale>  0 0.23127216E+04</rscale>
<asrwt>0</asrwt>
<pdfrwt beam="1">  1        1 0.31036974E+00 0.23127216E+04</pdfrwt>
<pdfrwt beam="2">  1       -2 0.10197193E+00 0.23127216E+04</pdfrwt>
<totfact> 0.18137105E+00</totfact>
</mgrwt>
</event>
<event>
12    5  0.5095719E-008  0.1286296E+04  0.7818608E-02  0.9040503E-01
         -2   -1    0    0    0  501 -0.00000000000E+00  0.00000000000E+00  0.77989525578E+03  0.77989525578E+03  0.00000000000E+00 0.  1.
          1   -1    0    0  501    0  0.00000000000E+00 -0.00000000000E+00 -0.53037832193E+03  0.53037832193E+03  0.00000000000E+00 0. -1.
        -24    2    1    2    0    0 -0.28120949470E+03 -0.43976569722E+01 -0.10662692724E+03  0.30999705547E+03  0.75038346803E+02 0.  0.
        254    2    1    2    0    0  0.28120949470E+03  0.43976569722E+01  0.35614386110E+03  0.10002765222E+04  0.89141267204E+03 0.  0.
         23    2    4    4    0    0 -0.26832945253E+03 -0.13078180174E+03 -0.22611387964E+02  0.31311450400E+03  0.91786943436E+02 0.  0.
         23    2    4    4    0    0  0.54953894723E+03  0.13517945871E+03  0.37875524906E+03  0.68716201825E+03  0.92030212718E+02 0.  0.
          3    1    3    3  502    0 -0.17772283841E+03  0.14338947126E+02 -0.32270542544E+02  0.18119713191E+03  0.00000000000E+00 0. -1.
         -4    1    3    3    0  502 -0.10348665629E+03 -0.18736604098E+02 -0.74356384699E+02  0.12879992356E+03  0.00000000000E+00 0.  1.
         13    1    5    5    0    0 -0.19304439198E+03 -0.46001416818E+02 -0.22598034947E+02  0.19973216769E+03  0.00000000000E+00 0.  1.
        -13    1    5    5    0    0 -0.75285060551E+02 -0.84780384918E+02 -0.13353016749E-01  0.11338233631E+03  0.00000000000E+00 0. -1.
          2    1    6    6  503    0  0.22444595946E+03  0.10099801481E+03  0.17455061833E+03  0.30173582166E+03  0.00000000000E+00 0. -1.
         -2    1    6    6    0  503  0.32509298777E+03  0.34181443895E+02  0.20420463073E+03  0.38542619659E+03  0.00000000000E+00 0.  1.
<mgrwt>
<rscale>  0 0.12862963E+04</rscale>
<asrwt>0</asrwt>
<pdfrwt beam="1">  1        1 0.81596664E-01 0.12862963E+04</pdfrwt>
<pdfrwt beam="2">  1       -2 0.11998389E+00 0.12862963E+04</pdfrwt>
<totfact> 0.18650784E+01</totfact>
</mgrwt>
</event>
<event>
12    5  0.5095719E-008  0.1634445E+04  0.7818608E-02  0.8799662E-01
         -2   -1    0    0    0  501 -0.00000000000E+00  0.00000000000E+00  0.25542050965E+03  0.25542050965E+03  0.00000000000E+00 0.  1.
          1   -1    0    0  501    0  0.00000000000E+00 -0.00000000000E+00 -0.26147173331E+04  0.26147173331E+04  0.00000000000E+00 0. -1.
        -24    2    1    2    0    0  0.18652196894E+03 -0.21427852404E+02  0.11491691209E+03  0.23422295402E+03  0.80030605093E+02 0.  0.
        254    2    1    2    0    0 -0.18652196894E+03  0.21427852404E+02 -0.24742137355E+04  0.26359148887E+04  0.88941783979E+03 0.  0.
         23    2    4    4    0    0  0.24137905999E+03 -0.22928055051E+03 -0.57343943960E+03  0.66931352525E+03  0.91183237174E+02 0.  0.
         23    2    4    4    0    0 -0.42790102893E+03  0.25070840292E+03 -0.19007742959E+04  0.19666013635E+04  0.92865520530E+02 0.  0.
          3    1    3    3  502    0  0.49034852229E+02 -0.13572159068E+02  0.75388490513E+02  0.90950781946E+02  0.00000000000E+00 0. -1.
         -4    1    3    3    0  502  0.13748711671E+03 -0.78556933368E+01  0.39528421575E+02  0.14327217208E+03  0.00000000000E+00 0.  1.
         13    1    5    5    0    0  0.38497510486E+02 -0.24261742688E+02 -0.31327155684E+02  0.55245643766E+02  0.00000000000E+00 0.  1.
        -13    1    5    5    0    0  0.20288154951E+03 -0.20501880783E+03 -0.54211228392E+03  0.61406788148E+03  0.00000000000E+00 0. -1.
          2    1    6    6  503    0 -0.40184982441E+03  0.25768169677E+03 -0.18114230037E+04  0.18732689173E+04  0.00000000000E+00 0. -1.
         -2    1    6    6    0  503 -0.26051204516E+02 -0.69732938485E+01 -0.89351292183E+02  0.93332446119E+02  0.00000000000E+00 0.  1.
<mgrwt>
<rscale>  0 0.16344448E+04</rscale>
<asrwt>0</asrwt>
<pdfrwt beam="1">  1        1 0.40226419E+00 0.16344448E+04</pdfrwt>
<pdfrwt beam="2">  1       -2 0.39295465E-01 0.16344448E+04</pdfrwt>
<totfact> 0.58113842E+00</totfact>
</mgrwt>
</event>
<event>
12    5  0.5095719E-008  0.1407345E+04  0.7818608E-02  0.8948519E-01
          1   -1    0    0  501    0  0.00000000000E+00  0.00000000000E+00  0.61795223858E+03  0.61795223858E+03  0.00000000000E+00 0. -1.
         -2   -1    0    0    0  501 -0.00000000000E+00 -0.00000000000E+00 -0.80128379718E+03  0.80128379718E+03  0.00000000000E+00 0.  1.
        -24    2    1    2    0    0  0.17914605375E+03  0.31443668796E+03  0.21285461946E+03  0.42757116695E+03  0.80909050571E+02 0.  0.
        254    2    1    2    0    0 -0.17914605375E+03 -0.31443668796E+03 -0.39618617807E+03  0.99166486882E+03  0.83394962980E+03 0.  0.
         23    2    4    4    0    0  0.14438273550E+03  0.21791902689E+03 -0.13351556088E+03  0.30959347333E+03  0.98420714986E+02 0.  0.
         23    2    4    4    0    0 -0.32352878926E+03 -0.53235571485E+03 -0.26267061719E+03  0.68207139549E+03  0.90288708068E+02 0.  0.
          3    1    3    3  502    0  0.15970870641E+03  0.24510139773E+03  0.20012733481E+03  0.35444677486E+03  0.00000000000E+00 0. -1.
         -2    1    3    3    0  502  0.19437347342E+02  0.69335290226E+02  0.12727284659E+02  0.73124392081E+02  0.00000000000E+00 0.  1.
         13    1    5    5    0    0  0.94548918181E+02  0.95734150376E+02 -0.21004377570E+02  0.13618263235E+03  0.00000000000E+00 0.  1.
        -13    1    5    5    0    0  0.49833817321E+02  0.12218487651E+03 -0.11251118331E+03  0.17341084097E+03  0.00000000000E+00 0. -1.
          4    1    6    6  503    0 -0.48605920552E+01 -0.52639380433E+02 -0.31183769212E+02  0.61375542277E+02  0.00000000000E+00 0. -1.
         -4    1    6    6    0  503 -0.31866819720E+03 -0.47971633441E+03 -0.23148684797E+03  0.62069585321E+03  0.00000000000E+00 0.  1.
<mgrwt>
<rscale>  0 0.14073452E+04</rscale>
<asrwt>0</asrwt>
<pdfrwt beam="1">  1        1 0.95069575E-01 0.14073452E+04</pdfrwt>
<pdfrwt beam="2">  1       -2 0.12327443E+00 0.14073452E+04</pdfrwt>
<totfact> 0.13889354E+01</totfact>
</mgrwt>
</event>
<event>
12    5  0.5095719E-008  0.3420376E+04  0.7818608E-02  0.8132923E-01
          1   -1    0    0  501    0  0.00000000000E+00  0.00000000000E+00  0.20970761947E+04  0.20970761947E+04  0.00000000000E+00 0. -1.
         -2   -1    0    0    0  501 -0.00000000000E+00 -0.00000000000E+00 -0.13946765648E+04  0.13946765648E+04  0.00000000000E+00 0.  1.
        -24    2    1    2    0    0  0.13536577200E+04  0.30484424776E+03 -0.45943460477E+03  0.14637578789E+04  0.78662149225E+02 0.  0.
        254    2    1    2    0    0 -0.13536577200E+04 -0.30484424776E+03  0.11618342347E+04  0.20279948806E+04  0.91519681406E+03 0.  0.
         23    2    4    4    0    0 -0.13661201678E+04 -0.46539179149E+03  0.88070874332E+03  0.16932076005E+04  0.91816420974E+02 0.  0.
         23    2    4    4    0    0  0.12462447843E+02  0.16054754373E+03  0.28112549137E+03  0.33478728011E+03  0.84381008666E+02 0.  0.
          3    1    3    3  502    0  0.49695850848E+02 -0.69410064037E+00 -0.25980064458E+02  0.56081397241E+02  0.00000000000E+00 0. -1.
         -4    1    3    3    0  502  0.13039618691E+04  0.30553834840E+03 -0.43345454031E+03  0.14076764817E+04  0.00000000000E+00 0.  1.
         13    1    5    5    0    0 -0.88198809832E+03 -0.33328432048E+03  0.53850273984E+03  0.10858023046E+04  0.00000000000E+00 0. -1.
        -13    1    5    5    0    0 -0.48413206951E+03 -0.13210747101E+03  0.34220600347E+03  0.60740529586E+03  0.00000000000E+00 0.  1.
          1    1    6    6  503    0  0.19289412467E+02  0.14568139457E+03  0.28243289490E+03  0.31837633436E+03  0.00000000000E+00 0. -1.
         -1    1    6    6    0  503 -0.68269646235E+01  0.14866149156E+02 -0.13074035254E+01  0.16410945758E+02  0.00000000000E+00 0.  1.
<mgrwt>
<rscale>  0 0.34203760E+04</rscale>
<asrwt>0</asrwt>
<pdfrwt beam="1">  1        1 0.32262711E+00 0.34203760E+04</pdfrwt>
<pdfrwt beam="2">  1       -2 0.21456563E+00 0.34203760E+04</pdfrwt>
<totfact> 0.19791129E-01</totfact>
</mgrwt>
</event>
<event>
12    5  0.5095719E-008  0.1945036E+04  0.7818608E-02  0.8632758E-01
          1   -1    0    0  501    0  0.00000000000E+00  0.00000000000E+00  0.15104133735E+04  0.15104133735E+04  0.00000000000E+00 0. -1.
         -2   -1    0    0    0  501 -0.00000000000E+00 -0.00000000000E+00 -0.62618052693E+03  0.62618052693E+03  0.00000000000E+00 0.  1.
        -24    2    1    2    0    0 -0.16352120569E+03 -0.73853913088E+03  0.23923154522E+03  0.79737697419E+03  0.79994213471E+02 0.  0.
        254    2    1    2    0    0  0.16352120569E+03  0.73853913088E+03  0.64500130134E+03  0.13392169262E+04  0.89738289721E+03 0.  0.
         23    2    4    4    0    0 -0.21692011215E+03  0.20564722296E+03 -0.11488028102E+03  0.33199790242E+03  0.87635682688E+02 0.  0.
         23    2    4    4    0    0  0.38044131784E+03  0.53289190793E+03  0.75988158236E+03  0.10072190238E+04  0.91437196223E+02 0.  0.
          1    1    3    3  502    0 -0.39452940880E+01 -0.13871135038E+03  0.26740880841E+02  0.14132048251E+03  0.00000000000E+00 0. -1.
         -2    1    3    3    0  502 -0.15957591160E+03 -0.59982778051E+03  0.21249066438E+03  0.65605649168E+03  0.00000000000E+00 0.  1.
         13    1    5    5    0    0 -0.11865287251E+03  0.53202489615E+02 -0.44223696197E+02  0.13734898748E+03  0.00000000000E+00 0.  1.
        -13    1    5    5    0    0 -0.98267239646E+02  0.15244473334E+03 -0.70656584822E+02  0.19464891495E+03  0.00000000000E+00 0. -1.
          4    1    6    6  503    0  0.36235167109E+03  0.51910300349E+03  0.70339646018E+03  0.94632618159E+03  0.00000000000E+00 0. -1.
         -4    1    6    6    0  503  0.18089646751E+02  0.13788904437E+02  0.56485122181E+02  0.60892842214E+02  0.00000000000E+00 0.  1.
<mgrwt>
<rscale>  0 0.19450362E+04</rscale>
<asrwt>0</asrwt>
<pdfrwt beam="1">  1        1 0.23237129E+00 0.19450362E+04</pdfrwt>
<pdfrwt beam="2">  1       -2 0.96335466E-01 0.19450362E+04</pdfrwt>
<totfact> 0.47474045E+00</totfact>
</mgrwt>
</event>
<event>
12    5  0.5095719E-008  0.3242410E+04  0.7818608E-02  0.8177706E-01
         -2   -1    0    0    0  501 -0.00000000000E+00  0.00000000000E+00  0.11351649129E+04  0.11351649129E+04  0.00000000000E+00 0.  1.
          1   -1    0    0  501    0  0.00000000000E+00 -0.00000000000E+00 -0.23153516845E+04  0.23153516845E+04  0.00000000000E+00 0. -1.
        -24    2    1    2    0    0 -0.14894632457E+04  0.97180796267E+02 -0.69285554145E+03  0.16474671241E+04  0.78449066778E+02 0.  0.
        254    2    1    2    0    0  0.14894632457E+04 -0.97180796267E+02 -0.48733123016E+03  0.18030494734E+04  0.88631304195E+03 0.  0.
         23    2    4    4    0    0  0.31533332311E+03 -0.24177488435E+03  0.17565114547E+03  0.44393043165E+03  0.91272689638E+02 0.  0.
         23    2    4    4    0    0  0.11741299226E+04  0.14459408808E+03 -0.66298237563E+03  0.13591190418E+04  0.90390341967E+02 0.  0.
          3    1    3    3  502    0 -0.13453780175E+04  0.10969140796E+03 -0.61735021244E+03  0.14843165093E+04  0.00000000000E+00 0. -1.
         -4    1    3    3    0  502 -0.14408522820E+03 -0.12510611688E+02 -0.75505329002E+02  0.16315061477E+03  0.00000000000E+00 0.  1.
         13    1    5    5    0    0  0.14188589194E+03 -0.54613488763E+02  0.55055506468E+02  0.16169523271E+03  0.00000000000E+00 0. -1.
        -13    1    5    5    0    0  0.17344743116E+03 -0.18716139559E+03  0.12059563901E+03  0.28223519894E+03  0.00000000000E+00 0.  1.
          3    1    6    6  503    0  0.40488119792E+03  0.19203664269E+02 -0.26174470463E+03  0.48250166378E+03  0.00000000000E+00 0. -1.
         -3    1    6    6    0  503  0.76924872467E+03  0.12539042381E+03 -0.40123767100E+03  0.87661737801E+03  0.00000000000E+00 0.  1.
<mgrwt>
<rscale>  0 0.32424102E+04</rscale>
<asrwt>0</asrwt>
<pdfrwt beam="1">  1        1 0.35620795E+00 0.32424102E+04</pdfrwt>
<pdfrwt beam="2">  1       -2 0.17464076E+00 0.32424102E+04</pdfrwt>
<totfact> 0.26323978E-01</totfact>
</mgrwt>
</event>
<event>
12    5  0.5095719E-008  0.1827193E+04  0.7818608E-02  0.8691971E-01
         -2   -1    0    0    0  501 -0.00000000000E+00  0.00000000000E+00  0.11492004911E+04  0.11492004911E+04  0.00000000000E+00 0.  1.
          1   -1    0    0  501    0  0.00000000000E+00 -0.00000000000E+00 -0.72629511922E+03  0.72629511922E+03  0.00000000000E+00 0. -1.
        -24    2    1    2    0    0 -0.76596645696E+02  0.44639353941E+03  0.69473617168E+03  0.83322105121E+03  0.80403568142E+02 0.  0.
        254    2    1    2    0    0  0.76596645696E+02 -0.44639353941E+03 -0.27183079981E+03  0.10422745591E+04  0.89850433202E+03 0.  0.
         23    2    4    4    0    0 -0.64885711452E+02 -0.35342395563E+03  0.27546306178E+03  0.46206378140E+03  0.92219258938E+02 0.  0.
         23    2    4    4    0    0  0.14148235715E+03 -0.92969583790E+02 -0.54729386159E+03  0.58021077770E+03  0.91942235847E+02 0.  0.
          1    1    3    3  502    0  0.82788783460E+01  0.18460127686E+03  0.27722510239E+03  0.33316651788E+03  0.00000000000E+00 0. -1.
         -2    1    3    3    0  502 -0.84875524042E+02  0.26179226256E+03  0.41751106929E+03  0.50005453332E+03  0.00000000000E+00 0.  1.
         13    1    5    5    0    0 -0.11365127195E+01  0.42796238462E+01  0.13299936565E+02  0.14017672918E+02  0.00000000000E+00 0.  1.
        -13    1    5    5    0    0 -0.63749198733E+02 -0.35770357947E+03  0.26216312521E+03  0.44804610848E+03  0.00000000000E+00 0. -1.
          3    1    6    6  503    0 -0.71538797385E+01 -0.30338686958E+02 -0.79587669738E+02  0.85474037555E+02  0.00000000000E+00 0. -1.
         -3    1    6    6    0  503  0.14863623689E+03 -0.62630896832E+02 -0.46770619185E+03  0.49473674015E+03  0.00000000000E+00 0.  1.
<mgrwt>
<rscale>  0 0.18271932E+04</rscale>
<asrwt>0</asrwt>
<pdfrwt beam="1">  1        1 0.11173771E+00 0.18271932E+04</pdfrwt>
<pdfrwt beam="2">  1       -2 0.17680008E+00 0.18271932E+04</pdfrwt>
<totfact> 0.40490560E+00</totfact>
</mgrwt>
</event>
<event>
12    5  0.5095719E-008  0.1135892E+04  0.7818608E-02  0.9170898E-01
          1   -1    0    0  501    0  0.00000000000E+00  0.00000000000E+00  0.56096148888E+03  0.56096148888E+03  0.00000000000E+00 0. -1.
         -2   -1    0    0    0  501 -0.00000000000E+00 -0.00000000000E+00 -0.57501785940E+03  0.57501785940E+03  0.00000000000E+00 0.  1.
        -24    2    1    2    0    0 -0.18966457918E+03  0.74309588582E+02 -0.19450474688E+02  0.21953911736E+03  0.79526948489E+02 0.  0.
        254    2    1    2    0    0  0.18966457918E+03 -0.74309588582E+02  0.53941041764E+01  0.91644023092E+03  0.89349819974E+03 0.  0.
         23    2    4    4    0    0  0.36340127474E+03  0.24576718018E+03  0.20364023913E+03  0.49206015272E+03  0.90508859040E+02 0.  0.
         23    2    4    4    0    0 -0.17373669557E+03 -0.32007676876E+03 -0.19824613495E+03  0.42438007820E+03  0.90351222789E+02 0.  0.
          1    1    3    3  502    0 -0.15408311983E+03  0.91414474525E+02 -0.14388506174E+02  0.17973659360E+03  0.00000000000E+00 0. -1.
         -2    1    3    3    0  502 -0.35581459344E+02 -0.17104885943E+02 -0.50619685144E+01  0.39802523757E+02  0.00000000000E+00 0.  1.
         13    1    5    5    0    0  0.67917990094E+01  0.14315604098E+02 -0.73279034131E+01  0.17457468972E+02  0.00000000000E+00 0. -1.
        -13    1    5    5    0    0  0.35660947573E+03  0.23145157608E+03  0.21096814254E+03  0.47460268375E+03  0.00000000000E+00 0.  1.
          3    1    6    6  503    0 -0.11235652404E+02 -0.10065703889E+03 -0.40760578942E+02  0.10917648171E+03  0.00000000000E+00 0. -1.
         -3    1    6    6    0  503 -0.16250104316E+03 -0.21941972987E+03 -0.15748555601E+03  0.31520359649E+03  0.00000000000E+00 0.  1.
<mgrwt>
<rscale>  0 0.11358924E+04</rscale>
<asrwt>0</asrwt>
<pdfrwt beam="1">  1        1 0.86301768E-01 0.11358924E+04</pdfrwt>
<pdfrwt beam="2">  1       -2 0.88464286E-01 0.11358924E+04</pdfrwt>
<totfact> 0.36087597E+01</totfact>
</mgrwt>
</event>
<event>
12    5  0.5095719E-008  0.3137599E+04  0.7818608E-02  0.8205494E-01
         -2   -1    0    0    0  501 -0.00000000000E+00  0.00000000000E+00  0.14072992715E+04  0.14072992715E+04  0.00000000000E+00 0.  1.
          1   -1    0    0  501    0  0.00000000000E+00 -0.00000000000E+00 -0.17488330114E+04  0.17488330114E+04  0.00000000000E+00 0. -1.
        -24    2    1    2    0    0  0.13029943288E+04  0.57830810229E+03  0.44886449999E+02  0.14285053573E+04  0.79864137248E+02 0.  0.
        254    2    1    2    0    0 -0.13029943288E+04 -0.57830810229E+03 -0.38642018985E+03  0.17276269255E+04  0.89618064508E+03 0.  0.
         23    2    4    4    0    0 -0.52275631896E+03 -0.59191054183E+03  0.10329435720E+03  0.80167326121E+03  0.91531606339E+02 0.  0.
         23    2    4    4    0    0 -0.78023800985E+03  0.13602439542E+02 -0.48971454705E+03  0.92595366433E+03  0.92808795481E+02 0.  0.
          1    1    3    3  502    0  0.70347607875E+02  0.12614822941E+02 -0.95627902647E+00  0.71476109023E+02  0.00000000000E+00 0. -1.
         -2    1    3    3    0  502  0.12326467209E+04  0.56569327935E+03  0.45842729025E+02  0.13570292483E+04  0.00000000000E+00 0.  1.
         13    1    5    5    0    0 -0.77484766108E+02 -0.14217572290E+03  0.13840885025E+02  0.16250967743E+03  0.00000000000E+00 0. -1.
        -13    1    5    5    0    0 -0.44527155285E+03 -0.44973481894E+03  0.89453472171E+02  0.63916358378E+03  0.00000000000E+00 0.  1.
          3    1    6    6  503    0 -0.64066539142E+02 -0.20369069434E+02 -0.25952972625E+02  0.72062314807E+02  0.00000000000E+00 0. -1.
         -3    1    6    6    0  503 -0.71617147071E+03  0.33971508976E+02 -0.46376157442E+03  0.85389134952E+03  0.00000000000E+00 0.  1.
<mgrwt>
<rscale>  0 0.31375987E+04</rscale>
<asrwt>0</asrwt>
<pdfrwt beam="1">  1        1 0.26905123E+00 0.31375987E+04</pdfrwt>
<pdfrwt beam="2">  1       -2 0.21650758E+00 0.31375987E+04</pdfrwt>
<totfact> 0.33940529E-01</totfact>
</mgrwt>
</event>
<event>
12    5  0.5095719E-008  0.1677955E+04  0.7818608E-02  0.8774038E-01
          1   -1    0    0  501    0  0.00000000000E+00  0.00000000000E+00  0.62168662432E+03  0.62168662432E+03  0.00000000000E+00 0. -1.
         -2   -1    0    0    0  501 -0.00000000000E+00 -0.00000000000E+00 -0.11322159738E+04  0.11322159738E+04  0.00000000000E+00 0.  1.
        -24    2    1    2    0    0 -0.48194733124E+03  0.67133232840E+02 -0.57181128563E+03  0.75516342734E+03  0.80768524635E+02 0.  0.
        254    2    1    2    0    0  0.48194733124E+03 -0.67133232840E+02  0.61281936196E+02  0.99873917074E+03  0.87002549068E+03 0.  0.
         23    2    4    4    0    0 -0.93550264489E+02  0.20463092545E+03 -0.18830155587E+03  0.30910378032E+03  0.97273857894E+02 0.  0.
         23    2    4    4    0    0  0.57549759572E+03 -0.27176415829E+03  0.24958349206E+03  0.68963539042E+03  0.90839483711E+02 0.  0.
          3    1    3    3  502    0 -0.18138061705E+02 -0.11347772452E+02 -0.14399900603E+02  0.25789888705E+02  0.00000000000E+00 0. -1.
         -4    1    3    3    0  502 -0.46380926953E+03  0.78481005292E+02 -0.55741138503E+03  0.72937353863E+03  0.00000000000E+00 0.  1.
         13    1    5    5    0    0 -0.37819626003E+01  0.10806822614E+03 -0.53869452367E+02  0.12080961319E+03  0.00000000000E+00 0. -1.
        -13    1    5    5    0    0 -0.89768301888E+02  0.96562699311E+02 -0.13443210350E+03  0.18829416713E+03  0.00000000000E+00 0.  1.
          4    1    6    6  503    0  0.14252458780E+03 -0.28602681742E+02  0.72331414606E+02  0.16236750004E+03  0.00000000000E+00 0. -1.
         -4    1    6    6    0  503  0.43297300792E+03 -0.24316147655E+03  0.17725207746E+03  0.52726789038E+03  0.00000000000E+00 0.  1.
<mgrwt>
<rscale>  0 0.16779553E+04</rscale>
<asrwt>0</asrwt>
<pdfrwt beam="1">  1        1 0.95644097E-01 0.16779553E+04</pdfrwt>
<pdfrwt beam="2">  1       -2 0.17418707E+00 0.16779553E+04</pdfrwt>
<totfact> 0.53989341E+00</totfact>
</mgrwt>
</event>
<event>
12    5  0.5095719E-008  0.1180264E+04  0.7818608E-02  0.9130309E-01
          1   -1    0    0  501    0  0.00000000000E+00  0.00000000000E+00  0.35812385035E+04  0.35812385035E+04  0.00000000000E+00 0. -1.
         -2   -1    0    0    0  501 -0.00000000000E+00 -0.00000000000E+00 -0.97244431394E+02  0.97244431394E+02  0.00000000000E+00 0.  1.
        -24    2    1    2    0    0 -0.10231724448E+03 -0.99926660189E+02  0.13725046465E+04  0.13822490519E+04  0.79932978042E+02 0.  0.
        254    2    1    2    0    0  0.10231724448E+03  0.99926660189E+02  0.21114894256E+04  0.22962338829E+04  0.89098164675E+03 0.  0.
         23    2    4    4    0    0  0.46499958894E+03 -0.55895931090E+02  0.90172861797E+03  0.10204918319E+04  0.94552132317E+02 0.  0.
         23    2    4    4    0    0 -0.36268234445E+03  0.15582259128E+03  0.12097608076E+04  0.12757420510E+04  0.90429011720E+02 0.  0.
          1    1    3    3  502    0 -0.93704193247E+02 -0.10600589375E+03  0.13500420709E+04  0.13574355670E+04  0.00000000000E+00 0. -1.
         -2    1    3    3    0  502 -0.86130512381E+01  0.60792335637E+01  0.22462575600E+02  0.24813484941E+02  0.00000000000E+00 0.  1.
         13    1    5    5    0    0  0.33699515684E+03  0.25109831815E+01  0.62696419830E+03  0.71179782714E+03  0.00000000000E+00 0. -1.
        -13    1    5    5    0    0  0.12800443210E+03 -0.58406914271E+02  0.27476441967E+03  0.30869400478E+03  0.00000000000E+00 0.  1.
          2    1    6    6  503    0 -0.13524655729E+03  0.20267439276E+02  0.49400839855E+03  0.51258823454E+03  0.00000000000E+00 0. -1.
         -2    1    6    6    0  503 -0.22743578716E+03  0.13555515200E+03  0.71575240907E+03  0.76315381648E+03  0.00000000000E+00 0.  1.
<mgrwt>
<rscale>  0 0.11802635E+04</rscale>
<asrwt>0</asrwt>
<pdfrwt beam="1">  1        1 0.55095967E+00 0.11802635E+04</pdfrwt>
<pdfrwt beam="2">  1       -2 0.14960685E-01 0.11802635E+04</pdfrwt>
<totfact> 0.67797234E+00</totfact>
</mgrwt>
</event>
<event>
12    5  0.5095719E-008  0.2867745E+04  0.7818608E-02  0.8282540E-01
         -2   -1    0    0    0  501 -0.00000000000E+00  0.00000000000E+00  0.22276539947E+04  0.22276539947E+04  0.00000000000E+00 0.  1.
          1   -1    0    0  501    0  0.00000000000E+00 -0.00000000000E+00 -0.92293942417E+03  0.92293942417E+03  0.00000000000E+00 0. -1.
        -24    2    1    2    0    0  0.98572652757E+03 -0.76608828327E+03  0.24915092925E+03  0.12755934933E+04  0.80712636347E+02 0.  0.
        254    2    1    2    0    0 -0.98572652757E+03  0.76608828327E+03  0.10555636413E+04  0.18749999256E+04  0.91807520129E+03 0.  0.
         23    2    4    4    0    0 -0.97086739955E+03  0.37351323523E+03  0.10384905801E+04  0.14728252363E+04  0.93036807296E+02 0.  0.
         23    2    4    4    0    0 -0.14859128016E+02  0.39257504804E+03  0.17073061218E+02  0.40217468924E+03  0.84362487037E+02 0.  0.
          3    1    3    3  502    0  0.81491712188E+03 -0.62651542827E+03  0.23575477817E+03  0.10546050506E+04  0.00000000000E+00 0. -1.
         -4    1    3    3    0  502  0.17080940569E+03 -0.13957285500E+03  0.13396151082E+02  0.22098844266E+03  0.00000000000E+00 0.  1.
         13    1    5    5    0    0 -0.14630799505E+03  0.72066721148E+02  0.12194156993E+03  0.20364034028E+03  0.00000000000E+00 0.  1.
        -13    1    5    5    0    0 -0.82455940450E+03  0.30144651408E+03  0.91654901014E+03  0.12691848961E+04  0.00000000000E+00 0. -1.
          3    1    6    6  503    0 -0.82263488550E+01  0.17409543949E+03 -0.34313559086E+02  0.17763534335E+03  0.00000000000E+00 0. -1.
         -3    1    6    6    0  503 -0.66327791610E+01  0.21847960855E+03  0.51386620305E+02  0.22453934590E+03  0.00000000000E+00 0.  1.
<mgrwt>
<rscale>  0 0.28677445E+04</rscale>
<asrwt>0</asrwt>
<pdfrwt beam="1">  1        1 0.14199068E+00 0.28677445E+04</pdfrwt>
<pdfrwt beam="2">  1       -2 0.34271600E+00 0.28677445E+04</pdfrwt>
<totfact> 0.22751049E-01</totfact>
</mgrwt>
</event>
<event>
12    5  0.5095719E-008  0.2552953E+04  0.7818608E-02  0.8384360E-01
         -2   -1    0    0    0  501 -0.00000000000E+00  0.00000000000E+00  0.24247619567E+04  0.24247619567E+04  0.00000000000E+00 0.  1.
          3   -1    0    0  501    0  0.00000000000E+00 -0.00000000000E+00 -0.67198029306E+03  0.67198029306E+03  0.00000000000E+00 0. -1.
        -24    2    1    2    0    0  0.20817184335E+03 -0.51606535849E+03 -0.40437213816E+03  0.69237448209E+03  0.78782147305E+02 0.  0.
        254    2    1    2    0    0 -0.20817184335E+03  0.51606535849E+03  0.21571538018E+04  0.24043677676E+04  0.90444063761E+03 0.  0.
         23    2    4    4    0    0 -0.38335225504E+03  0.41353562485E+03  0.58847984102E+03  0.82004100487E+03  0.90487910353E+02 0.  0.
         23    2    4    4    0    0  0.17518041169E+03  0.10252973364E+03  0.15686739608E+04  0.15843267628E+04  0.90292708232E+02 0.  0.
          3    1    3    3  502    0  0.16819778220E+03 -0.35109011731E+03 -0.31346963116E+03  0.49981794092E+03  0.00000000000E+00 0. -1.
         -2    1    3    3    0  502  0.39974061148E+02 -0.16497524118E+03 -0.90902506999E+02  0.19255654117E+03  0.00000000000E+00 0.  1.
         13    1    5    5    0    0 -0.13708930421E+03  0.21002352317E+03  0.23703835424E+03  0.34509497098E+03  0.00000000000E+00 0. -1.
        -13    1    5    5    0    0 -0.24626295082E+03  0.20351210168E+03  0.35144148679E+03  0.47494603390E+03  0.00000000000E+00 0.  1.
          4    1    6    6  503    0  0.47695362638E+02  0.18911925219E+02  0.73771603969E+03  0.73949811612E+03  0.00000000000E+00 0. -1.
         -4    1    6    6    0  503  0.12748504905E+03  0.83617808417E+02  0.83095792106E+03  0.84482864665E+03  0.00000000000E+00 0.  1.
<mgrwt>
<rscale>  0 0.25529530E+04</rscale>
<asrwt>0</asrwt>
<pdfrwt beam="1">  1        3 0.10338158E+00 0.25529530E+04</pdfrwt>
<pdfrwt beam="2">  1       -2 0.37304030E+00 0.25529530E+04</pdfrwt>
<totfact> 0.33367664E-02</totfact>
</mgrwt>
</event>
<event>
12    5  0.5095719E-008  0.2477901E+04  0.7818608E-02  0.8410901E-01
          1   -1    0    0  501    0  0.00000000000E+00  0.00000000000E+00  0.18196661411E+04  0.18196661411E+04  0.00000000000E+00 0. -1.
         -2   -1    0    0    0  501 -0.00000000000E+00 -0.00000000000E+00 -0.84356040307E+03  0.84356040307E+03  0.00000000000E+00 0.  1.
        -24    2    1    2    0    0 -0.77055385882E+03 -0.55313978910E+03  0.95192745952E+03  0.13462018618E+04  0.79854172990E+02 0.  0.
        254    2    1    2    0    0  0.77055385882E+03  0.55313978910E+03  0.24178278501E+02  0.13170246823E+04  0.91337426564E+03 0.  0.
         23    2    4    4    0    0  0.23397320386E+03 -0.23555744754E+03 -0.80271663861E+02  0.35303805430E+03  0.89227554867E+02 0.  0.
         23    2    4    4    0    0  0.53658065495E+03  0.78869723664E+03  0.10444994236E+03  0.96398662804E+03  0.91642229487E+02 0.  0.
          3    1    3    3  502    0 -0.34851223601E+03 -0.25690516808E+03  0.49049381424E+03  0.65425165330E+03  0.00000000000E+00 0. -1.
         -2    1    3    3    0  502 -0.42204162280E+03 -0.29623462101E+03  0.46143364528E+03  0.69195020851E+03  0.00000000000E+00 0.  1.
         13    1    5    5    0    0  0.12575354857E+03 -0.18368849602E+03 -0.65977437919E+02  0.23218191329E+03  0.00000000000E+00 0. -1.
        -13    1    5    5    0    0  0.10821965529E+03 -0.51868951529E+02 -0.14294225941E+02  0.12085614101E+03  0.00000000000E+00 0.  1.
          3    1    6    6  503    0  0.27486119682E+03  0.32420437399E+03  0.53967678104E+02  0.42845030506E+03  0.00000000000E+00 0. -1.
         -3    1    6    6    0  503  0.26171945813E+03  0.46449286265E+03  0.50482264258E+02  0.53553632298E+03  0.00000000000E+00 0.  1.
<mgrwt>
<rscale>  0 0.24779010E+04</rscale>
<asrwt>0</asrwt>
<pdfrwt beam="1">  1        1 0.27994864E+00 0.24779010E+04</pdfrwt>
<pdfrwt beam="2">  1       -2 0.12977852E+00 0.24779010E+04</pdfrwt>
<totfact> 0.13474970E+00</totfact>
</mgrwt>
</event>
<event>
12    5  0.5095719E-008  0.1995053E+04  0.7818608E-02  0.8608937E-01
         -2   -1    0    0    0  501 -0.00000000000E+00  0.00000000000E+00  0.87502473632E+03  0.87502473632E+03  0.00000000000E+00 0.  1.
          1   -1    0    0  501    0  0.00000000000E+00 -0.00000000000E+00 -0.11371781256E+04  0.11371781256E+04  0.00000000000E+00 0. -1.
        -24    2    1    2    0    0 -0.44799905506E+03 -0.45792682874E+03  0.29596262482E+03  0.71054395438E+03  0.82937940600E+02 0.  0.
        254    2    1    2    0    0  0.44799905506E+03  0.45792682874E+03 -0.55811601410E+03  0.13016589075E+04  0.98611474615E+03 0.  0.
         23    2    4    4    0    0  0.35376160829E+03  0.53971431483E+03 -0.78937000758E+03  0.10233434105E+04  0.87680726133E+02 0.  0.
         23    2    4    4    0    0  0.94237446773E+02 -0.81787486088E+02  0.23125399348E+03  0.27831549708E+03  0.91712688109E+02 0.  0.
          1    1    3    3  502    0 -0.26956375065E+03 -0.23200037559E+03  0.13285150660E+03  0.37965551853E+03  0.00000000000E+00 0. -1.
         -2    1    3    3    0  502 -0.17843530441E+03 -0.22592645315E+03  0.16311111822E+03  0.33088843585E+03  0.00000000000E+00 0.  1.
         13    1    5    5    0    0  0.59820143334E+02  0.46502309094E+02 -0.11422178273E+03  0.13706761087E+03  0.00000000000E+00 0. -1.
        -13    1    5    5    0    0  0.29394146495E+03  0.49321200574E+03 -0.67514822485E+03  0.88627579959E+03  0.00000000000E+00 0.  1.
          2    1    6    6  503    0  0.10244210435E+03 -0.88884877164E+02  0.17700567192E+03  0.22299308067E+03  0.00000000000E+00 0.  1.
         -2    1    6    6    0  503 -0.82046575800E+01  0.70973910753E+01  0.54248321558E+02  0.55322416414E+02  0.00000000000E+00 0. -1.
<mgrwt>
<rscale>  0 0.19950529E+04</rscale>
<asrwt>0</asrwt>
<pdfrwt beam="1">  1        1 0.17495048E+00 0.19950529E+04</pdfrwt>
<pdfrwt beam="2">  1       -2 0.13461919E+00 0.19950529E+04</pdfrwt>
<totfact> 0.38457943E+00</totfact>
</mgrwt>
</event>
<event>
12    5  0.5095719E-008  0.2597173E+04  0.7818608E-02  0.8369162E-01
         -2   -1    0    0    0  501 -0.00000000000E+00  0.00000000000E+00  0.36485749532E+03  0.36485749532E+03  0.00000000000E+00 0.  1.
          1   -1    0    0  501    0  0.00000000000E+00 -0.00000000000E+00 -0.46218778901E+04  0.46218778901E+04  0.00000000000E+00 0. -1.
        -24    2    1    2    0    0 -0.39908816348E+03  0.75320962087E+03 -0.33345002042E+04  0.34426671224E+04  0.80431389360E+02 0.  0.
        254    2    1    2    0    0  0.39908816348E+03 -0.75320962087E+03 -0.92252019059E+03  0.15440682631E+04  0.89805746127E+03 0.  0.
         23    2    4    4    0    0 -0.13526200541E+03 -0.58310554998E+02 -0.56877141764E+03  0.59457201121E+03  0.91208662173E+02 0.  0.
         23    2    4    4    0    0  0.53435016889E+03 -0.69489906588E+03 -0.35374877295E+03  0.94949625186E+03  0.89387488913E+02 0.  0.
          1    1    3    3  502    0 -0.34154599804E+03  0.58443024061E+03 -0.25708309069E+04  0.26584551767E+04  0.00000000000E+00 0. -1.
         -2    1    3    3    0  502 -0.57542165439E+02  0.16877938026E+03 -0.76366929732E+03  0.78421194563E+03  0.00000000000E+00 0.  1.
         13    1    5    5    0    0 -0.66730433807E+02 -0.85748163689E+01 -0.40140303119E+03  0.40700229940E+03  0.00000000000E+00 0.  1.
        -13    1    5    5    0    0 -0.68531571600E+02 -0.49735738629E+02 -0.16736838645E+03  0.18756971181E+03  0.00000000000E+00 0. -1.
          1    1    6    6  503    0  0.11272326941E+03 -0.10548328384E+03 -0.87423093312E+02  0.17741492575E+03  0.00000000000E+00 0. -1.
         -1    1    6    6    0  503  0.42162689948E+03 -0.58941578204E+03 -0.26632567964E+03  0.77208132610E+03  0.00000000000E+00 0.  1.
<mgrwt>
<rscale>  0 0.25971729E+04</rscale>
<asrwt>0</asrwt>
<pdfrwt beam="1">  1        1 0.71105811E+00 0.25971729E+04</pdfrwt>
<pdfrwt beam="2">  1       -2 0.56131924E-01 0.25971729E+04</pdfrwt>
<totfact> 0.55598253E-02</totfact>
</mgrwt>
</event>
<event>
12    5  0.5095719E-008  0.1755736E+04  0.7818608E-02  0.8730199E-01
          1   -1    0    0  501    0  0.00000000000E+00  0.00000000000E+00  0.22682439810E+04  0.22682439810E+04  0.00000000000E+00 0. -1.
         -2   -1    0    0    0  501 -0.00000000000E+00 -0.00000000000E+00 -0.33975715174E+03  0.33975715174E+03  0.00000000000E+00 0.  1.
        -24    2    1    2    0    0  0.32028543670E+03  0.11833972357E+03  0.15576059958E+04  0.15966537404E+04  0.81115209723E+02 0.  0.
        254    2    1    2    0    0 -0.32028543670E+03 -0.11833972357E+03  0.37088083345E+03  0.10113473924E+04  0.87674620292E+03 0.  0.
         23    2    4    4    0    0  0.26886970778E+03  0.87250838812E+02  0.41796538892E+02  0.29985835106E+03  0.90909028172E+02 0.  0.
         23    2    4    4    0    0 -0.58915514447E+03 -0.20559056238E+03  0.32908429456E+03  0.71148904133E+03  0.92460366691E+02 0.  0.
          3    1    3    3  502    0  0.22866387473E+03  0.11744180498E+03  0.12234194535E+04  0.12501339546E+04  0.00000000000E+00 0. -1.
         -4    1    3    3    0  502  0.91621561969E+02  0.89791859181E+00  0.33418654230E+03  0.34651978577E+03  0.00000000000E+00 0.  1.
         13    1    5    5    0    0  0.24895830423E+02  0.41218596217E+02  0.13255109809E+02  0.49944699244E+02  0.00000000000E+00 0. -1.
        -13    1    5    5    0    0  0.24397387735E+03  0.46032242595E+02  0.28541429083E+02  0.24991365182E+03  0.00000000000E+00 0.  1.
          1    1    6    6  503    0 -0.56312700337E+03 -0.17329396566E+03  0.30363751292E+03  0.66282619118E+03  0.00000000000E+00 0.  1.
         -1    1    6    6    0  503 -0.26028141099E+02 -0.32296596723E+02  0.25446781633E+02  0.48662850147E+02  0.00000000000E+00 0. -1.
<mgrwt>
<rscale>  0 0.17557359E+04</rscale>
<asrwt>0</asrwt>
<pdfrwt beam="1">  1        1 0.34896060E+00 0.17557359E+04</pdfrwt>
<pdfrwt beam="2">  1       -2 0.52270332E-01 0.17557359E+04</pdfrwt>
<totfact> 0.56262553E+00</totfact>
</mgrwt>
</event>
<event>
12    5  0.5095719E-008  0.1949151E+04  0.7818608E-02  0.8630770E-01
         -2   -1    0    0    0  501 -0.00000000000E+00  0.00000000000E+00  0.63816884415E+03  0.63816884415E+03  0.00000000000E+00 0.  1.
          1   -1    0    0  501    0  0.00000000000E+00 -0.00000000000E+00 -0.14883172704E+04  0.14883172704E+04  0.00000000000E+00 0. -1.
        -24    2    1    2    0    0 -0.13405274290E+03 -0.26060989606E+03 -0.11006217697E+04  0.11416272072E+04  0.77825088295E+02 0.  0.
        254    2    1    2    0    0  0.13405274290E+03  0.26060989606E+03  0.25047334350E+03  0.98485890734E+03  0.90626845679E+03 0.  0.
         23    2    4    4    0    0  0.17187570819E+03  0.27504159344E+02 -0.31116474852E+03  0.36851287269E+03  0.93169194309E+02 0.  0.
         23    2    4    4    0    0 -0.37822965294E+02  0.23310573671E+03  0.56163809202E+03  0.61634603465E+03  0.93146265776E+02 0.  0.
          3    1    3    3  502    0 -0.91175814066E+02 -0.23446691040E+03 -0.95547421953E+03  0.98803782586E+03  0.00000000000E+00 0. -1.
         -4    1    3    3    0  502 -0.42876928835E+02 -0.26142985659E+02 -0.14514755021E+03  0.15358938133E+03  0.00000000000E+00 0.  1.
         13    1    5    5    0    0 -0.24578220627E+01 -0.76594088441E+01  0.20752221140E+01  0.83074653147E+01  0.00000000000E+00 0. -1.
        -13    1    5    5    0    0  0.17433353026E+03  0.35163568188E+02 -0.31323997064E+03  0.36020540738E+03  0.00000000000E+00 0.  1.
          4    1    6    6  503    0 -0.23660945145E+02  0.16798680818E+02  0.13162277663E+03  0.13478349799E+03  0.00000000000E+00 0. -1.
         -4    1    6    6    0  503 -0.14162020149E+02  0.21630705589E+03  0.43001531539E+03  0.48156253666E+03  0.00000000000E+00 0.  1.
<mgrwt>
<rscale>  0 0.19491513E+04</rscale>
<asrwt>0</asrwt>
<pdfrwt beam="1">  1        1 0.22897188E+00 0.19491513E+04</pdfrwt>
<pdfrwt beam="2">  1       -2 0.98179824E-01 0.19491513E+04</pdfrwt>
<totfact> 0.47016892E+00</totfact>
</mgrwt>
</event>
<event>
12    5  0.5095719E-008  0.1557336E+04  0.7818608E-02  0.8847196E-01
          1   -1    0    0  501    0  0.00000000000E+00  0.00000000000E+00  0.23999298199E+04  0.23999298199E+04  0.00000000000E+00 0. -1.
         -2   -1    0    0    0  501 -0.00000000000E+00 -0.00000000000E+00 -0.25264218999E+03  0.25264218999E+03  0.00000000000E+00 0.  1.
        -24    2    1    2    0    0  0.12612322197E+03  0.42216988470E+03  0.28651484688E+03  0.53162904263E+03  0.80026263304E+02 0.  0.
        254    2    1    2    0    0 -0.12612322197E+03 -0.42216988470E+03  0.18607727830E+04  0.21209429673E+04  0.91749073108E+03 0.  0.
         23    2    4    4    0    0 -0.51047891221E+03 -0.30582608128E+03  0.11936542671E+04  0.13368935029E+04  0.91407969183E+02 0.  0.
         23    2    4    4    0    0  0.38435569024E+03 -0.11634380341E+03  0.66711851593E+03  0.78404946439E+03  0.91767483937E+02 0.  0.
          3    1    3    3  502    0  0.53557685867E+02  0.14860499793E+03  0.14826114290E+03  0.21664080322E+03  0.00000000000E+00 0. -1.
         -4    1    3    3    0  502  0.72565536106E+02  0.27356488677E+03  0.13825370398E+03  0.31498823941E+03  0.00000000000E+00 0.  1.
         13    1    5    5    0    0 -0.33479414614E+03 -0.22008675653E+03  0.88606458704E+03  0.97243804589E+03  0.00000000000E+00 0. -1.
        -13    1    5    5    0    0 -0.17568476607E+03 -0.85739324754E+02  0.30758968006E+03  0.36445545698E+03  0.00000000000E+00 0.  1.
          2    1    6    6  503    0  0.10592292112E+03 -0.42190290202E+02  0.27285221183E+03  0.29571610593E+03  0.00000000000E+00 0.  1.
         -2    1    6    6    0  503  0.27843276911E+03 -0.74153513212E+02  0.39426630410E+03  0.48833335846E+03  0.00000000000E+00 0. -1.
<mgrwt>
<rscale>  0 0.15573356E+04</rscale>
<asrwt>0</asrwt>
<pdfrwt beam="1">  1        1 0.36921996E+00 0.15573356E+04</pdfrwt>
<pdfrwt beam="2">  1       -2 0.38868031E-01 0.15573356E+04</pdfrwt>
<totfact> 0.84188677E+00</totfact>
</mgrwt>
</event>
<event>
12    5  0.5095719E-008  0.1432199E+04  0.7818608E-02  0.8930835E-01
         -2   -1    0    0    0  501 -0.00000000000E+00  0.00000000000E+00  0.27316471461E+03  0.27316471461E+03  0.00000000000E+00 0.  1.
          1   -1    0    0  501    0  0.00000000000E+00 -0.00000000000E+00 -0.18772512646E+04  0.18772512646E+04  0.00000000000E+00 0. -1.
        -24    2    1    2    0    0  0.31828869570E+03  0.13329114323E+03 -0.86383454216E+03  0.93358963169E+03  0.79405676702E+02 0.  0.
        254    2    1    2    0    0 -0.31828869570E+03 -0.13329114323E+03 -0.74025200785E+03  0.12168263475E+04  0.90200837151E+03 0.  0.
         23    2    4    4    0    0 -0.30687070594E+03  0.27245553825E+03 -0.68552678086E+02  0.42635261075E+03  0.93141980511E+02 0.  0.
         23    2    4    4    0    0 -0.11417989766E+02 -0.40574668148E+03 -0.67169932977E+03  0.79047373680E+03  0.94382196068E+02 0.  0.
          3    1    3    3  502    0  0.22290990664E+03  0.69420624502E+02 -0.65378330523E+03  0.69421946082E+03  0.00000000000E+00 0. -1.
         -4    1    3    3    0  502  0.95378789065E+02  0.63870518728E+02 -0.21005123693E+03  0.23937017087E+03  0.00000000000E+00 0.  1.
         13    1    5    5    0    0 -0.10183617870E+02 -0.70729264673E+01 -0.65967748600E+01  0.14044564795E+02  0.00000000000E+00 0. -1.
        -13    1    5    5    0    0 -0.29668708807E+03  0.27952846472E+03 -0.61955903226E+02  0.41230804595E+03  0.00000000000E+00 0.  1.
          3    1    6    6  503    0  0.66257837669E+01 -0.90087051856E+02 -0.23145689102E+03  0.24845899123E+03  0.00000000000E+00 0. -1.
         -3    1    6    6    0  503 -0.18043773533E+02 -0.31565962962E+03 -0.44024243874E+03  0.54201474556E+03  0.00000000000E+00 0.  1.
<mgrwt>
<rscale>  0 0.14321994E+04</rscale>
<asrwt>0</asrwt>
<pdfrwt beam="1">  1        1 0.28880788E+00 0.14321994E+04</pdfrwt>
<pdfrwt beam="2">  1       -2 0.42025342E-01 0.14321994E+04</pdfrwt>
<totfact> 0.16547484E+01</totfact>
</mgrwt>
</event>
<event>
12    5  0.5095719E-008  0.2066770E+04  0.7818608E-02  0.8576024E-01
         -2   -1    0    0    0  501 -0.00000000000E+00  0.00000000000E+00  0.78796588111E+03  0.78796588111E+03  0.00000000000E+00 0.  1.
          1   -1    0    0  501    0  0.00000000000E+00 -0.00000000000E+00 -0.13552420412E+04  0.13552420412E+04  0.00000000000E+00 0. -1.
        -24    2    1    2    0    0 -0.45588502340E+03 -0.62231247267E+03  0.99189489348E+02  0.78235394488E+03  0.84469947752E+02 0.  0.
        254    2    1    2    0    0  0.45588502340E+03  0.62231247267E+03 -0.66646564949E+03  0.13608539775E+04  0.90146720287E+03 0.  0.
         23    2    4    4    0    0  0.12398962735E+03  0.62081646303E+03 -0.77081216337E+03  0.10013620699E+04  0.88250186466E+02 0.  0.
         23    2    4    4    0    0  0.33189539605E+03  0.14960096437E+01  0.10434651388E+03  0.35949190756E+03  0.90495550588E+02 0.  0.
          1    1    3    3  502    0 -0.58052486515E+02 -0.43164968276E+02 -0.26296605778E+01  0.72389369327E+02  0.00000000000E+00 0. -1.
         -2    1    3    3    0  502 -0.39783253689E+03 -0.57914750440E+03  0.10181914993E+03  0.70996457556E+03  0.00000000000E+00 0.  1.
         13    1    5    5    0    0  0.98132039982E+01  0.86162830914E+01 -0.35182137342E+02  0.37527617763E+02  0.00000000000E+00 0.  1.
        -13    1    5    5    0    0  0.11417642335E+03  0.61220017994E+03 -0.73563002603E+03  0.96383445215E+03  0.00000000000E+00 0. -1.
          4    1    6    6  503    0  0.10753196455E+03 -0.16499748225E+02  0.75825894710E+02  0.13260818753E+03  0.00000000000E+00 0. -1.
         -4    1    6    6    0  503  0.22436343150E+03  0.17995757869E+02  0.28520619170E+02  0.22688372002E+03  0.00000000000E+00 0.  1.
<mgrwt>
<rscale>  0 0.20667699E+04</rscale>
<asrwt>0</asrwt>
<pdfrwt beam="1">  1        1 0.20849877E+00 0.20667699E+04</pdfrwt>
<pdfrwt beam="2">  1       -2 0.12122552E+00 0.20667699E+04</pdfrwt>
<totfact> 0.34624258E+00</totfact>
</mgrwt>
</event>
<event>
12    5  0.5095719E-008  0.2745936E+04  0.7818608E-02  0.8320252E-01
         -2   -1    0    0    0  501 -0.00000000000E+00  0.00000000000E+00  0.15313948146E+04  0.15313948146E+04  0.00000000000E+00 0.  1.
          1   -1    0    0  501    0  0.00000000000E+00 -0.00000000000E+00 -0.12309307527E+04  0.12309307527E+04  0.00000000000E+00 0. -1.
        -24    2    1    2    0    0 -0.88408338286E+03 -0.84089206023E+03  0.31844897900E+03  0.12634930526E+04  0.79385495611E+02 0.  0.
        254    2    1    2    0    0  0.88408338286E+03  0.84089206023E+03 -0.17984917129E+02  0.14988325147E+04  0.87032899818E+03 0.  0.
         23    2    4    4    0    0  0.16392933444E+03  0.74227757295E+03 -0.30198339899E+02  0.76617252221E+03  0.90882187791E+02 0.  0.
         23    2    4    4    0    0  0.72015404843E+03  0.98614487284E+02  0.12213422770E+02  0.73265999250E+03  0.91075937238E+02 0.  0.
          3    1    3    3  502    0 -0.63374860324E+03 -0.61571082263E+03  0.26568630813E+03  0.92267346529E+03  0.00000000000E+00 0. -1.
         -4    1    3    3    0  502 -0.25033477962E+03 -0.22518123760E+03  0.52762670870E+02  0.34081958731E+03  0.00000000000E+00 0.  1.
         13    1    5    5    0    0  0.17314415306E+03  0.65979636293E+03 -0.18766553164E+02  0.68239454995E+03  0.00000000000E+00 0. -1.
        -13    1    5    5    0    0 -0.92148186220E+01  0.82481210017E+02 -0.11431786735E+02  0.83777972260E+02  0.00000000000E+00 0.  1.
          3    1    6    6  503    0  0.78946013359E+02 -0.11371345449E+02  0.19244071532E+02  0.82049465640E+02  0.00000000000E+00 0. -1.
         -3    1    6    6    0  503  0.64120803507E+03  0.10998583273E+03 -0.70306487618E+01  0.65061052686E+03  0.00000000000E+00 0.  1.
<mgrwt>
<rscale>  0 0.27459359E+04</rscale>
<asrwt>0</asrwt>
<pdfrwt beam="1">  1        1 0.18937396E+00 0.27459359E+04</pdfrwt>
<pdfrwt beam="2">  1       -2 0.23559920E+00 0.27459359E+04</pdfrwt>
<totfact> 0.61087383E-01</totfact>
</mgrwt>
</event>
<event>
12    5  0.5095719E-008  0.3368392E+04  0.7818608E-02  0.8145708E-01
         -2   -1    0    0    0  501 -0.00000000000E+00  0.00000000000E+00  0.19756247746E+04  0.19756247746E+04  0.00000000000E+00 0.  1.
          1   -1    0    0  501    0  0.00000000000E+00 -0.00000000000E+00 -0.14357561361E+04  0.14357561361E+04  0.00000000000E+00 0. -1.
        -24    2    1    2    0    0  0.13195082685E+04 -0.42329319872E+03 -0.48187392661E+03  0.14692576261E+04  0.78970172590E+02 0.  0.
        254    2    1    2    0    0 -0.13195082685E+04  0.42329319872E+03  0.10217425651E+04  0.19421232845E+04  0.89866889357E+03 0.  0.
         23    2    4    4    0    0  0.50834762856E+02 -0.10638710653E+03  0.21891160554E+03  0.26539787134E+03  0.92797357305E+02 0.  0.
         23    2    4    4    0    0 -0.13703430313E+04  0.52968030525E+03  0.80283095958E+03  0.16767254132E+04  0.92028866567E+02 0.  0.
          3    1    3    3  502    0  0.84392700485E+03 -0.27760042150E+03 -0.34820657295E+03  0.95421307944E+03  0.00000000000E+00 0. -1.
         -4    1    3    3    0  502  0.47558126363E+03 -0.14569277722E+03 -0.13366735365E+03  0.51504454670E+03  0.00000000000E+00 0.  1.
         13    1    5    5    0    0  0.31409400239E+02 -0.18066161563E+02  0.97489914367E+01  0.37523052262E+02  0.00000000000E+00 0.  1.
        -13    1    5    5    0    0  0.19425362617E+02 -0.88320944964E+02  0.20916261410E+03  0.22787481908E+03  0.00000000000E+00 0. -1.
          3    1    6    6  503    0 -0.96487629625E+03  0.41481571382E+03  0.58916830942E+03  0.12042332167E+04  0.00000000000E+00 0. -1.
         -3    1    6    6    0  503 -0.40546673509E+03  0.11486459143E+03  0.21366265016E+03  0.47249219645E+03  0.00000000000E+00 0.  1.
<mgrwt>
<rscale>  0 0.33683915E+04</rscale>
<asrwt>0</asrwt>
<pdfrwt beam="1">  1        1 0.22088556E+00 0.33683915E+04</pdfrwt>
<pdfrwt beam="2">  1       -2 0.30394227E+00 0.33683915E+04</pdfrwt>
<totfact> 0.15791373E-01</totfact>
</mgrwt>
</event>
<event>
12    5  0.5095719E-008  0.1088426E+04  0.7818608E-02  0.9216547E-01
          1   -1    0    0  501    0  0.00000000000E+00  0.00000000000E+00  0.13556589629E+04  0.13556589629E+04  0.00000000000E+00 0. -1.
         -2   -1    0    0    0  501 -0.00000000000E+00 -0.00000000000E+00 -0.21846774593E+03  0.21846774593E+03  0.00000000000E+00 0.  1.
        -24    2    1    2    0    0  0.61119188738E+02  0.57514071145E+02  0.35862530559E+03  0.37719930076E+03  0.81386602516E+02 0.  0.
        254    2    1    2    0    0 -0.61119188738E+02 -0.57514071145E+02  0.77856591134E+03  0.11969274080E+04  0.90522202702E+03 0.  0.
         23    2    4    4    0    0 -0.18406785030E+03  0.33095992329E+03  0.65421196067E+03  0.76144868731E+03  0.91626249398E+02 0.  0.
         23    2    4    4    0    0  0.12294866156E+03 -0.38847399443E+03  0.12435395066E+03  0.43547872073E+03  0.90273990888E+02 0.  0.
          3    1    3    3  502    0  0.58856701684E+02  0.10195370909E+02  0.27184897744E+03  0.27833419384E+03  0.00000000000E+00 0. -1.
         -4    1    3    3    0  502  0.22624870544E+01  0.47318700236E+02  0.86776328148E+02  0.98865106921E+02  0.00000000000E+00 0.  1.
         13    1    5    5    0    0 -0.83151881927E+02  0.22055397143E+03  0.45389497491E+03  0.51144788398E+03  0.00000000000E+00 0.  1.
        -13    1    5    5    0    0 -0.10091596837E+03  0.11040595186E+03  0.20031698576E+03  0.25000080332E+03  0.00000000000E+00 0. -1.
          3    1    6    6  503    0  0.72002516249E+02 -0.10893389998E+03  0.62102463231E+02  0.14459485762E+03  0.00000000000E+00 0. -1.
         -3    1    6    6    0  503  0.50946145311E+02 -0.27954009445E+03  0.62251487433E+02  0.29088386310E+03  0.00000000000E+00 0.  1.
<mgrwt>
<rscale>  0 0.10884259E+04</rscale>
<asrwt>0</asrwt>
<pdfrwt beam="1">  1        1 0.20856291E+00 0.10884259E+04</pdfrwt>
<pdfrwt beam="2">  1       -2 0.33610423E-01 0.10884259E+04</pdfrwt>
<totfact> 0.59765132E+01</totfact>
</mgrwt>
</event>
<event>
12    5  0.5095719E-008  0.1192319E+04  0.7818608E-02  0.9119607E-01
         -2   -1    0    0    0  501 -0.00000000000E+00  0.00000000000E+00  0.97107172301E+02  0.97107172301E+02  0.00000000000E+00 0.  1.
          1   -1    0    0  501    0  0.00000000000E+00 -0.00000000000E+00 -0.36599359780E+04  0.36599359780E+04  0.00000000000E+00 0. -1.
        -24    2    1    2    0    0 -0.24657201779E+03 -0.23669220948E+02 -0.60049236688E+03  0.65469732887E+03  0.81728316834E+02 0.  0.
        254    2    1    2    0    0  0.24657201779E+03  0.23669220948E+02 -0.29623364389E+04  0.31023458215E+04  0.88755530927E+03 0.  0.
         23    2    4    4    0    0 -0.47506545281E+02 -0.26798370611E+03 -0.33739433406E+03  0.44299305538E+03  0.91300448383E+02 0.  0.
         23    2    4    4    0    0  0.29407856307E+03  0.29165292706E+03 -0.26249421048E+04  0.26593527661E+04  0.10145171177E+03 0.  0.
          1    1    3    3  502    0 -0.22409731831E+03 -0.23088680576E+02 -0.58634397210E+03  0.62813370302E+03  0.00000000000E+00 0. -1.
         -2    1    3    3    0  502 -0.22474699479E+02 -0.58054037231E+00 -0.14148394780E+02  0.26563625856E+02  0.00000000000E+00 0.  1.
         13    1    5    5    0    0 -0.34674819524E+02 -0.27084875854E+03 -0.31370103304E+03  0.41589629867E+03  0.00000000000E+00 0. -1.
        -13    1    5    5    0    0 -0.12831725757E+02  0.28650524309E+01 -0.23693301020E+02  0.27096756717E+02  0.00000000000E+00 0.  1.
          3    1    6    6  503    0  0.11785750960E+03  0.93204839369E+02 -0.12529270756E+04  0.12619048266E+04  0.00000000000E+00 0. -1.
         -3    1    6    6    0  503  0.17622105348E+03  0.19844808769E+03 -0.13720150292E+04  0.13974479395E+04  0.00000000000E+00 0.  1.
<mgrwt>
<rscale>  0 0.11923188E+04</rscale>
<asrwt>0</asrwt>
<pdfrwt beam="1">  1        1 0.56306708E+00 0.11923188E+04</pdfrwt>
<pdfrwt beam="2">  1       -2 0.14939565E-01 0.11923188E+04</pdfrwt>
<totfact> 0.58724468E+00</totfact>
</mgrwt>
</event>
<event>
12    5  0.5095719E-008  0.1792071E+04  0.7818608E-02  0.8710527E-01
         -2   -1    0    0    0  501 -0.00000000000E+00  0.00000000000E+00  0.34945126029E+03  0.34945126029E+03  0.00000000000E+00 0.  1.
          1   -1    0    0  501    0  0.00000000000E+00 -0.00000000000E+00 -0.22975442295E+04  0.22975442295E+04  0.00000000000E+00 0. -1.
        -24    2    1    2    0    0 -0.14736050797E+03 -0.65080668247E+03 -0.74336456733E+03  0.10020975444E+04  0.79650180856E+02 0.  0.
        254    2    1    2    0    0  0.14736050797E+03  0.65080668247E+03 -0.12047284019E+04  0.16448979454E+04  0.89947444162E+03 0.  0.
         23    2    4    4    0    0  0.67398871042E+01  0.56267344449E+03 -0.17371188085E+03  0.59655953437E+03  0.95187337845E+02 0.  0.
         23    2    4    4    0    0  0.14062062087E+03  0.88133237978E+02 -0.10310165211E+04  0.10483384110E+04  0.92069162421E+02 0.  0.
          3    1    3    3  502    0 -0.32255563607E+02 -0.25439556603E+03 -0.33001730568E+03  0.41793414248E+03  0.00000000000E+00 0. -1.
         -4    1    3    3    0  502 -0.11510494437E+03 -0.39641111644E+03 -0.41334726165E+03  0.58416340194E+03  0.00000000000E+00 0.  1.
         13    1    5    5    0    0  0.38969378839E+02  0.13617962979E+03 -0.61180569234E+02  0.15429376562E+03  0.00000000000E+00 0. -1.
        -13    1    5    5    0    0 -0.32229491734E+02  0.42649381471E+03 -0.11253131162E+03  0.44226576876E+03  0.00000000000E+00 0.  1.
          1    1    6    6  503    0 -0.10147722530E+02  0.37088440145E+01 -0.15897962253E+03  0.15934632778E+03  0.00000000000E+00 0. -1.
         -1    1    6    6    0  503  0.15076834340E+03  0.84424393964E+02 -0.87203689852E+03  0.88899208323E+03  0.00000000000E+00 0.  1.
<mgrwt>
<rscale>  0 0.17920711E+04</rscale>
<asrwt>0</asrwt>
<pdfrwt beam="1">  1        1 0.35346835E+00 0.17920711E+04</pdfrwt>
<pdfrwt beam="2">  1       -2 0.53761731E-01 0.17920711E+04</pdfrwt>
<totfact> 0.50532211E+00</totfact>
</mgrwt>
</event>
<event>
12    5  0.5095719E-008  0.1345796E+04  0.7818608E-02  0.8994016E-01
          1   -1    0    0  501    0  0.00000000000E+00  0.00000000000E+00  0.17625381546E+04  0.17625381546E+04  0.00000000000E+00 0. -1.
         -2   -1    0    0    0  501 -0.00000000000E+00 -0.00000000000E+00 -0.25689768652E+03  0.25689768652E+03  0.00000000000E+00 0.  1.
        -24    2    1    2    0    0 -0.62735339696E+02 -0.33064466154E+03  0.20732911032E+03  0.40319164542E+03  0.79476587106E+02 0.  0.
        254    2    1    2    0    0  0.62735339696E+02  0.33064466154E+03  0.12983113578E+04  0.16162441957E+04  0.90187100154E+03 0.  0.
         23    2    4    4    0    0  0.13899187291E+03  0.31605932632E+03  0.50435517160E+02  0.36240180093E+03  0.97872802333E+02 0.  0.
         23    2    4    4    0    0 -0.76256533213E+02  0.14585335215E+02  0.12478758406E+04  0.12538423948E+04  0.94333697607E+02 0.  0.
          3    1    3    3  502    0 -0.45715248773E+02 -0.28542879165E+03  0.20582176241E+03  0.35485500836E+03  0.00000000000E+00 0. -1.
         -4    1    3    3    0  502 -0.17020090924E+02 -0.45215869890E+02  0.15073479105E+01  0.48336637064E+02  0.00000000000E+00 0.  1.
         13    1    5    5    0    0  0.10926704707E+03  0.14277157786E+03  0.10886570893E+01  0.17978931057E+03  0.00000000000E+00 0. -1.
        -13    1    5    5    0    0  0.29724825843E+02  0.17328774846E+03  0.49346860071E+02  0.18261249037E+03  0.00000000000E+00 0.  1.
          2    1    6    6  503    0 -0.57363371175E+02  0.20869065861E+02  0.12052590670E+04  0.12068038336E+04  0.00000000000E+00 0. -1.
         -2    1    6    6    0  503 -0.18893162038E+02 -0.62837306464E+01  0.42616773616E+02  0.47038561161E+02  0.00000000000E+00 0.  1.
<mgrwt>
<rscale>  0 0.13457964E+04</rscale>
<asrwt>0</asrwt>
<pdfrwt beam="1">  1        1 0.27115971E+00 0.13457964E+04</pdfrwt>
<pdfrwt beam="2">  1       -2 0.39522722E-01 0.13457964E+04</pdfrwt>
<totfact> 0.22489011E+01</totfact>
</mgrwt>
</event>
<event>
12    5  0.5095719E-008  0.2363995E+04  0.7818608E-02  0.8453107E-01
          1   -1    0    0  501    0  0.00000000000E+00  0.00000000000E+00  0.82311193102E+03  0.82311193102E+03  0.00000000000E+00 0. -1.
         -2   -1    0    0    0  501 -0.00000000000E+00 -0.00000000000E+00 -0.16973617084E+04  0.16973617084E+04  0.00000000000E+00 0.  1.
        -24    2    1    2    0    0 -0.16563786181E+03 -0.98084093052E+03 -0.45737447342E+03  0.10971582998E+04  0.71274775360E+02 0.  0.
        254    2    1    2    0    0  0.16563786181E+03  0.98084093052E+03 -0.41687530396E+03  0.14233153396E+04  0.92873930934E+03 0.  0.
         23    2    4    4    0    0 -0.20603680992E+03  0.92864231919E+03 -0.18672934378E+03  0.97393976552E+03  0.94144012043E+02 0.  0.
         23    2    4    4    0    0  0.37167467174E+03  0.52198611335E+02 -0.23014596018E+03  0.44937557411E+03  0.90024924221E+02 0.  0.
          3    1    3    3  502    0 -0.71801585207E+02 -0.37833555100E+03 -0.21451251798E+03  0.44080480619E+03  0.00000000000E+00 0. -1.
         -4    1    3    3    0  502 -0.93836276605E+02 -0.60250537952E+03 -0.24286195545E+03  0.65635349360E+03  0.00000000000E+00 0.  1.
         13    1    5    5    0    0 -0.20796790196E+03  0.87674492363E+03 -0.19335723593E+03  0.92158522668E+03  0.00000000000E+00 0. -1.
        -13    1    5    5    0    0  0.19310920413E+01  0.51897395562E+02  0.66278921527E+01  0.52354538838E+02  0.00000000000E+00 0.  1.
          3    1    6    6  503    0  0.29396851788E+03  0.62787120768E+01 -0.15781977896E+03  0.33371244262E+03  0.00000000000E+00 0. -1.
         -3    1    6    6    0  503  0.77706153858E+02  0.45919899258E+02 -0.72326181221E+02  0.11566313149E+03  0.00000000000E+00 0.  1.
<mgrwt>
<rscale>  0 0.23639955E+04</rscale>
<asrwt>0</asrwt>
<pdfrwt beam="1">  1        1 0.12663261E+00 0.23639955E+04</pdfrwt>
<pdfrwt beam="2">  1       -2 0.26113257E+00 0.23639955E+04</pdfrwt>
<totfact> 0.91350571E-01</totfact>
</mgrwt>
</event>
<event>
12    5  0.5095719E-008  0.2278822E+04  0.7818608E-02  0.8486318E-01
         -2   -1    0    0    0  501 -0.00000000000E+00  0.00000000000E+00  0.75572654523E+03  0.75572654523E+03  0.00000000000E+00 0.  1.
          1   -1    0    0  501    0  0.00000000000E+00 -0.00000000000E+00 -0.17178933405E+04  0.17178933405E+04  0.00000000000E+00 0. -1.
        -24    2    1    2    0    0  0.17975628643E+03  0.18624990045E+03 -0.14068782280E+04  0.14328434412E+04  0.82052608281E+02 0.  0.
        254    2    1    2    0    0 -0.17975628643E+03 -0.18624990045E+03  0.44471143272E+03  0.10407764446E+04  0.90468005464E+03 0.  0.
         23    2    4    4    0    0 -0.58400109576E+02 -0.31886182779E+03 -0.18258183225E+03  0.38146474667E+03  0.84236509103E+02 0.  0.
         23    2    4    4    0    0 -0.12135617685E+03  0.13261192734E+03  0.62729326497E+03  0.65931169790E+03  0.94243460148E+02 0.  0.
          3    1    3    3  502    0  0.18525482678E+03  0.18625802274E+03 -0.13256084927E+04  0.13513879080E+04  0.00000000000E+00 0. -1.
         -4    1    3    3    0  502 -0.54985403498E+01 -0.81222915115E-02 -0.81269735329E+02  0.81455533221E+02  0.00000000000E+00 0.  1.
         13    1    5    5    0    0 -0.65087195473E+02 -0.13223747813E+03 -0.93672872593E+02  0.17463590895E+03  0.00000000000E+00 0. -1.
        -13    1    5    5    0    0  0.66870858972E+01 -0.18662434967E+03 -0.88908959656E+02  0.20682883772E+03  0.00000000000E+00 0.  1.
          4    1    6    6  503    0  0.29741285928E+01  0.19571747440E+02  0.18696636478E+03  0.18801148980E+03  0.00000000000E+00 0. -1.
         -4    1    6    6    0  503 -0.12433030544E+03  0.11304017990E+03  0.44032690019E+03  0.47130020810E+03  0.00000000000E+00 0.  1.
<mgrwt>
<rscale>  0 0.22788222E+04</rscale>
<asrwt>0</asrwt>
<pdfrwt beam="1">  1        1 0.26429128E+00 0.22788222E+04</pdfrwt>
<pdfrwt beam="2">  1       -2 0.11626562E+00 0.22788222E+04</pdfrwt>
<totfact> 0.21155820E+00</totfact>
</mgrwt>
</event>
<event>
12    5  0.5095719E-008  0.2823769E+04  0.7818608E-02  0.8295927E-01
          1   -1    0    0  501    0  0.00000000000E+00  0.00000000000E+00  0.35752498538E+04  0.35752498538E+04  0.00000000000E+00 0. -1.
         -2   -1    0    0    0  501 -0.00000000000E+00 -0.00000000000E+00 -0.55756053603E+03  0.55756053603E+03  0.00000000000E+00 0.  1.
        -24    2    1    2    0    0 -0.38962157142E+03  0.10933176285E+04  0.62666819684E+03  0.13214966798E+04  0.80573198012E+02 0.  0.
        254    2    1    2    0    0  0.38962157142E+03 -0.10933176285E+04  0.23910211209E+04  0.28113137100E+04  0.91616285102E+03 0.  0.
         23    2    4    4    0    0 -0.33721200523E+02 -0.71699861337E+03  0.19722661026E+04  0.21007639595E+04  0.90285676467E+02 0.  0.
         23    2    4    4    0    0  0.42334277195E+03 -0.37631901510E+03  0.41875501836E+03  0.71054975046E+03  0.93220592084E+02 0.  0.
          3    1    3    3  502    0 -0.39261860974E+03  0.10739190797E+04  0.62033444960E+03  0.13008713971E+04  0.00000000000E+00 0. -1.
         -4    1    3    3    0  502  0.29970383194E+01  0.19398548812E+02  0.63337472373E+01  0.20625282756E+02  0.00000000000E+00 0.  1.
         13    1    5    5    0    0 -0.12454590087E+02 -0.34017313606E+03  0.10665684437E+04  0.11195718487E+04  0.00000000000E+00 0. -1.
        -13    1    5    5    0    0 -0.21266610437E+02 -0.37682547731E+03  0.90569765892E+03  0.98119211087E+03  0.00000000000E+00 0.  1.
          1    1    6    6  503    0  0.20528061394E+03 -0.24092199363E+03  0.25036202652E+03  0.40356496602E+03  0.00000000000E+00 0. -1.
         -1    1    6    6    0  503  0.21806215800E+03 -0.13539702148E+03  0.16839299184E+03  0.30698478444E+03  0.00000000000E+00 0.  1.
<mgrwt>
<rscale>  0 0.28237693E+04</rscale>
<asrwt>0</asrwt>
<pdfrwt beam="1">  1        1 0.55003843E+00 0.28237693E+04</pdfrwt>
<pdfrwt beam="2">  1       -2 0.85778546E-01 0.28237693E+04</pdfrwt>
<totfact> 0.19529128E-01</totfact>
</mgrwt>
</event>
<event>
12    5  0.5095719E-008  0.1300627E+04  0.7818608E-02  0.9029068E-01
          3   -1    0    0  501    0  0.00000000000E+00  0.00000000000E+00  0.57318459550E+03  0.57318459550E+03  0.00000000000E+00 0. -1.
         -4   -1    0    0    0  501 -0.00000000000E+00 -0.00000000000E+00 -0.73782144107E+03  0.73782144107E+03  0.00000000000E+00 0.  1.
        -24    2    1    2    0    0 -0.87437981193E+02 -0.30230169527E+03  0.95887386065E+02  0.34210085238E+03  0.93845015189E+02 0.  0.
        254    2    1    2    0    0  0.87437981193E+02  0.30230169527E+03 -0.26052423163E+03  0.96890518419E+03  0.87856284076E+03 0.  0.
         23    2    4    4    0    0 -0.11019231931E+03  0.63894165799E+02 -0.52763270313E+03  0.54976769705E+03  0.87312310981E+02 0.  0.
         23    2    4    4    0    0  0.19763030050E+03  0.23840752947E+03  0.26710847150E+03  0.41913748714E+03  0.91833609276E+02 0.  0.
          1    1    3    3  502    0  0.16787446854E+02 -0.15386376537E+02  0.26828421821E+01  0.22929382830E+02  0.00000000000E+00 0. -1.
         -2    1    3    3    0  502 -0.10422542805E+03 -0.28691531873E+03  0.93204543882E+02  0.31917146955E+03  0.00000000000E+00 0.  1.
         13    1    5    5    0    0 -0.98879020952E+02  0.77324555527E+02 -0.36076282845E+03  0.38197639464E+03  0.00000000000E+00 0. -1.
        -13    1    5    5    0    0 -0.11313298355E+02 -0.13430389728E+02 -0.16686987468E+03  0.16779130241E+03  0.00000000000E+00 0.  1.
          3    1    6    6  503    0  0.19567174820E+03  0.20379237599E+03  0.20882418568E+03  0.35132080223E+03  0.00000000000E+00 0. -1.
         -3    1    6    6    0  503  0.19585522954E+01  0.34615153483E+02  0.58284285827E+02  0.67816684909E+02  0.00000000000E+00 0.  1.
<mgrwt>
<rscale>  0 0.13006274E+04</rscale>
<asrwt>0</asrwt>
<pdfrwt beam="1">  1        3 0.88182246E-01 0.13006274E+04</pdfrwt>
<pdfrwt beam="2">  1       -4 0.11351099E+00 0.13006274E+04</pdfrwt>
<totfact> 0.15917455E+00</totfact>
</mgrwt>
</event>
<event>
12    5  0.5095719E-008  0.1545517E+04  0.7818608E-02  0.8854736E-01
         -2   -1    0    0    0  501 -0.00000000000E+00  0.00000000000E+00  0.37499063363E+03  0.37499063363E+03  0.00000000000E+00 0.  1.
          1   -1    0    0  501    0  0.00000000000E+00 -0.00000000000E+00 -0.15924557775E+04  0.15924557775E+04  0.00000000000E+00 0. -1.
        -24    2    1    2    0    0  0.26668945069E+03 -0.91606312449E+02  0.12749466802E+03  0.32003752137E+03  0.81572943542E+02 0.  0.
        254    2    1    2    0    0 -0.26668945069E+03  0.91606312449E+02 -0.13449598119E+04  0.16474088898E+04  0.90858360916E+03 0.  0.
         23    2    4    4    0    0 -0.25063755449E+02 -0.38741294351E+03 -0.68034518706E+03  0.78846246400E+03  0.89924985134E+02 0.  0.
         23    2    4    4    0    0 -0.24162569524E+03  0.47901925596E+03 -0.66461462484E+03  0.85894642576E+03  0.90741052372E+02 0.  0.
          1    1    3    3  502    0  0.90821391691E+02 -0.66213115635E+02  0.25856347787E+02  0.11533105649E+03  0.00000000000E+00 0. -1.
         -2    1    3    3    0  502  0.17586805900E+03 -0.25393196813E+02  0.10163832024E+03  0.20470646488E+03  0.00000000000E+00 0.  1.
         13    1    5    5    0    0 -0.79972573945E+01 -0.12250704138E+03 -0.30457520297E+03  0.32838694490E+03  0.00000000000E+00 0. -1.
        -13    1    5    5    0    0 -0.17066498055E+02 -0.26490590213E+03 -0.37576998409E+03  0.46007551911E+03  0.00000000000E+00 0.  1.
          1    1    6    6  503    0 -0.13416063785E+03  0.20029241765E+03 -0.24361033211E+03  0.34272747661E+03  0.00000000000E+00 0. -1.
         -1    1    6    6    0  503 -0.10746505739E+03  0.27872683831E+03 -0.42100429273E+03  0.51621894914E+03  0.00000000000E+00 0.  1.
<mgrwt>
<rscale>  0 0.15455174E+04</rscale>
<asrwt>0</asrwt>
<pdfrwt beam="1">  1        1 0.24499320E+00 0.15455174E+04</pdfrwt>
<pdfrwt beam="2">  1       -2 0.57690866E-01 0.15455174E+04</pdfrwt>
<totfact> 0.13438017E+01</totfact>
</mgrwt>
</event>
<event>
12    5  0.5095719E-008  0.1966643E+04  0.7818608E-02  0.8622377E-01
          3   -1    0    0  501    0  0.00000000000E+00  0.00000000000E+00  0.77338649802E+03  0.77338649802E+03  0.00000000000E+00 0. -1.
         -4   -1    0    0    0  501 -0.00000000000E+00 -0.00000000000E+00 -0.12502430315E+04  0.12502430315E+04  0.00000000000E+00 0.  1.
        -24    2    1    2    0    0 -0.18708750178E+03  0.67660532881E+03  0.15309846199E+03  0.72315496047E+03  0.81960072589E+02 0.  0.
        254    2    1    2    0    0  0.18708750178E+03 -0.67660532881E+03 -0.62995499550E+03  0.13004745691E+04  0.89531799055E+03 0.  0.
         23    2    4    4    0    0 -0.31401633735E+03 -0.42381252098E+03 -0.14590618931E+03  0.55383300628E+03  0.84965108710E+02 0.  0.
         23    2    4    4    0    0  0.50110383913E+03 -0.25279280782E+03 -0.48404880618E+03  0.74664156280E+03  0.90338891215E+02 0.  0.
          1    1    3    3  502    0 -0.19391358520E+03  0.61682475535E+03  0.14093484965E+03  0.66176875808E+03  0.00000000000E+00 0. -1.
         -2    1    3    3    0  502  0.68260834204E+01  0.59780573461E+02  0.12163612341E+02  0.61386202386E+02  0.00000000000E+00 0.  1.
         13    1    5    5    0    0 -0.29549989726E+03 -0.35047638244E+03 -0.11985039619E+03  0.47383330549E+03  0.00000000000E+00 0. -1.
        -13    1    5    5    0    0 -0.18516440090E+02 -0.73336138547E+02 -0.26055793121E+02  0.79999700785E+02  0.00000000000E+00 0.  1.
          1    1    6    6  503    0  0.27751053500E+03 -0.98001995888E+02 -0.28450738015E+03  0.40934207894E+03  0.00000000000E+00 0. -1.
         -1    1    6    6    0  503  0.22359330412E+03 -0.15479081194E+03 -0.19954142603E+03  0.33729948386E+03  0.00000000000E+00 0.  1.
<mgrwt>
<rscale>  0 0.19666429E+04</rscale>
<asrwt>0</asrwt>
<pdfrwt beam="1">  1        3 0.11898254E+00 0.19666429E+04</pdfrwt>
<pdfrwt beam="2">  1       -4 0.19234508E+00 0.19666429E+04</pdfrwt>
<totfact> 0.18227070E-01</totfact>
</mgrwt>
</event>
<event>
12    5  0.5095719E-008  0.1856436E+04  0.7818608E-02  0.8676850E-01
          1   -1    0    0  501    0  0.00000000000E+00  0.00000000000E+00  0.15662788744E+04  0.15662788744E+04  0.00000000000E+00 0. -1.
         -2   -1    0    0    0  501 -0.00000000000E+00 -0.00000000000E+00 -0.55008627033E+03  0.55008627033E+03  0.00000000000E+00 0.  1.
        -24    2    1    2    0    0  0.62734974112E+03 -0.39331689182E+02  0.63304106286E+03  0.89563993054E+03  0.79468348784E+02 0.  0.
        254    2    1    2    0    0 -0.62734974112E+03  0.39331689182E+02  0.38315154125E+03  0.12207252142E+04  0.97378142601E+03 0.  0.
         23    2    4    4    0    0 -0.13399175274E+02 -0.18646011275E+03 -0.23713420982E+03  0.31495349490E+03  0.89533004735E+02 0.  0.
         23    2    4    4    0    0 -0.61395056585E+03  0.22579180193E+03  0.62028575107E+03  0.90577171933E+03  0.88038397460E+02 0.  0.
          1    1    3    3  502    0  0.19430563430E+03 -0.38688398454E+01  0.24808088088E+03  0.31514087469E+03  0.00000000000E+00 0. -1.
         -2    1    3    3    0  502  0.43304410682E+03 -0.35462849337E+02  0.38496018197E+03  0.58049905585E+03  0.00000000000E+00 0.  1.
         13    1    5    5    0    0 -0.46542436619E+02 -0.56960507643E+02 -0.87303272156E+02  0.11416023461E+03  0.00000000000E+00 0.  1.
        -13    1    5    5    0    0  0.33143261344E+02 -0.12949960511E+03 -0.14983093767E+03  0.20079326029E+03  0.00000000000E+00 0. -1.
          4    1    6    6  503    0 -0.48718878653E+02  0.26677891204E+01  0.23890604216E+02  0.54326855291E+02  0.00000000000E+00 0.  1.
         -4    1    6    6    0  503 -0.56523168719E+03  0.22312401281E+03  0.59639514686E+03  0.85144486404E+03  0.00000000000E+00 0. -1.
<mgrwt>
<rscale>  0 0.18564358E+04</rscale>
<asrwt>0</asrwt>
<pdfrwt beam="1">  1        1 0.24096598E+00 0.18564358E+04</pdfrwt>
<pdfrwt beam="2">  1       -2 0.84628657E-01 0.18564358E+04</pdfrwt>
<totfact> 0.59044749E+00</totfact>
</mgrwt>
</event>
<event>
12    5  0.5095719E-008  0.2133933E+04  0.7818608E-02  0.8546441E-01
         -2   -1    0    0    0  501 -0.00000000000E+00  0.00000000000E+00  0.29961535281E+03  0.29961535281E+03  0.00000000000E+00 0.  1.
          1   -1    0    0  501    0  0.00000000000E+00 -0.00000000000E+00 -0.37995963206E+04  0.37995963206E+04  0.00000000000E+00 0. -1.
        -24    2    1    2    0    0 -0.33663910205E+03  0.80304680151E+03 -0.14571112765E+04  0.16993280406E+04  0.79576799497E+02 0.  0.
        254    2    1    2    0    0  0.33663910205E+03 -0.80304680151E+03 -0.20428696913E+04  0.23998836328E+04  0.90989824982E+03 0.  0.
         23    2    4    4    0    0 -0.94736241060E+02  0.64837840687E+02 -0.11180431804E+02  0.14705223805E+03  0.91216542940E+02 0.  0.
         23    2    4    4    0    0  0.43137534311E+03 -0.86788464219E+03 -0.20316892595E+04  0.22528313948E+04  0.90441181543E+02 0.  0.
          1    1    3    3  502    0 -0.45306618485E+01  0.58940222106E+01 -0.27940188852E+01  0.79418471489E+01  0.00000000000E+00 0. -1.
         -2    1    3    3    0  502 -0.33210844020E+03  0.79715277929E+03 -0.14543172576E+04  0.16913861934E+04  0.00000000000E+00 0.  1.
         13    1    5    5    0    0 -0.81501536836E+02  0.28052042818E+01  0.46353014414E+01  0.81681428104E+02  0.00000000000E+00 0. -1.
        -13    1    5    5    0    0 -0.13234704224E+02  0.62032636405E+02 -0.15815733245E+02  0.65370809949E+02  0.00000000000E+00 0.  1.
          4    1    6    6  503    0  0.30336774392E+03 -0.69307380517E+03 -0.15620716347E+04  0.17356414029E+04  0.00000000000E+00 0.  1.
         -4    1    6    6    0  503  0.12800759919E+03 -0.17481083702E+03 -0.46961762484E+03  0.51718999192E+03  0.00000000000E+00 0. -1.
<mgrwt>
<rscale>  0 0.21339329E+04</rscale>
<asrwt>0</asrwt>
<pdfrwt beam="1">  1        1 0.58455329E+00 0.21339329E+04</pdfrwt>
<pdfrwt beam="2">  1       -2 0.46094669E-01 0.21339329E+04</pdfrwt>
<totfact> 0.51548003E-01</totfact>
</mgrwt>
</event>
<event>
12    5  0.5095719E-008  0.1649516E+04  0.7818608E-02  0.8790693E-01
         -2   -1    0    0    0  501 -0.00000000000E+00  0.00000000000E+00  0.26271395908E+03  0.26271395908E+03  0.00000000000E+00 0.  1.
          1   -1    0    0  501    0  0.00000000000E+00 -0.00000000000E+00 -0.25892257454E+04  0.25892257454E+04  0.00000000000E+00 0. -1.
        -24    2    1    2    0    0  0.20362195129E+03  0.13039666405E+03  0.83725687945E+02  0.26828701622E+03  0.80639588344E+02 0.  0.
        254    2    1    2    0    0 -0.20362195129E+03 -0.13039666405E+03 -0.24102374742E+04  0.25836526882E+04  0.89863860488E+03 0.  0.
         23    2    4    4    0    0  0.30364703318E+03 -0.79601613412E+02 -0.15150403797E+04  0.15498574021E+04  0.90402859381E+02 0.  0.
         23    2    4    4    0    0 -0.50726898447E+03 -0.50795050639E+02 -0.89519709450E+03  0.10337952861E+04  0.86330156219E+02 0.  0.
          1    1    3    3  502    0  0.10515499961E+03  0.10419178757E+03  0.23388900845E+02  0.14986841970E+03  0.00000000000E+00 0. -1.
         -2    1    3    3    0  502  0.98466951676E+02  0.26204876476E+02  0.60336787100E+02  0.11841859652E+03  0.00000000000E+00 0.  1.
         13    1    5    5    0    0  0.10442201197E+03 -0.51606208950E+02 -0.74103172265E+03  0.75013010296E+03  0.00000000000E+00 0. -1.
        -13    1    5    5    0    0  0.19922502121E+03 -0.27995404461E+02 -0.77400865708E+03  0.79972729913E+03  0.00000000000E+00 0.  1.
          2    1    6    6  503    0 -0.28581945891E+03  0.82729974786E+01 -0.45215885565E+03  0.53498489354E+03  0.00000000000E+00 0. -1.
         -2    1    6    6    0  503 -0.22144952556E+03 -0.59068048118E+02 -0.44303823885E+03  0.49881039260E+03  0.00000000000E+00 0.  1.
<mgrwt>
<rscale>  0 0.16495160E+04</rscale>
<asrwt>0</asrwt>
<pdfrwt beam="1">  1        1 0.39834244E+00 0.16495160E+04</pdfrwt>
<pdfrwt beam="2">  1       -2 0.40417531E-01 0.16495160E+04</pdfrwt>
<totfact> 0.57218889E+00</totfact>
</mgrwt>
</event>
<event>
12    5  0.5095719E-008  0.2963495E+04  0.7818608E-02  0.8254233E-01
         -4   -1    0    0    0  501 -0.00000000000E+00  0.00000000000E+00  0.14079405369E+04  0.14079405369E+04  0.00000000000E+00 0.  1.
          3   -1    0    0  501    0  0.00000000000E+00 -0.00000000000E+00 -0.15594231723E+04  0.15594231723E+04  0.00000000000E+00 0. -1.
        -24    2    1    2    0    0  0.27423033161E+03 -0.58017140419E+03 -0.12522127053E+04  0.14093157276E+04  0.79580322563E+02 0.  0.
        254    2    1    2    0    0 -0.27423033161E+03  0.58017140419E+03  0.11007300698E+04  0.15580479816E+04  0.89671940615E+03 0.  0.
         23    2    4    4    0    0  0.42439498122E+02  0.42911505669E+03  0.45747727102E+02  0.44254283850E+03  0.88376843674E+02 0.  0.
         23    2    4    4    0    0 -0.31666982973E+03  0.15105634750E+03  0.10549823427E+04  0.11155051431E+04  0.90918533113E+02 0.  0.
          1    1    3    3  502    0  0.20563075965E+03 -0.43668110441E+03 -0.86201803305E+03  0.98795216765E+03  0.00000000000E+00 0. -1.
         -2    1    3    3    0  502  0.68599571962E+02 -0.14349029978E+03 -0.39019467221E+03  0.42136355992E+03  0.00000000000E+00 0.  1.
         13    1    5    5    0    0 -0.12372926517E+02  0.13190714164E+03  0.46236310019E+02  0.14032241336E+03  0.00000000000E+00 0. -1.
        -13    1    5    5    0    0  0.54812424639E+02  0.29720791504E+03 -0.48858291611E+00  0.30222042514E+03  0.00000000000E+00 0.  1.
          4    1    6    6  503    0 -0.16609029684E+03  0.12041071929E+03  0.52372334425E+03  0.56246854964E+03  0.00000000000E+00 0.  1.
         -4    1    6    6    0  503 -0.15057953290E+03  0.30645628204E+02  0.53125899847E+03  0.55303659346E+03  0.00000000000E+00 0. -1.
<mgrwt>
<rscale>  0 0.29634946E+04</rscale>
<asrwt>0</asrwt>
<pdfrwt beam="1">  1        3 0.23991126E+00 0.29634946E+04</pdfrwt>
<pdfrwt beam="2">  1       -4 0.21660624E+00 0.29634946E+04</pdfrwt>
<totfact> 0.16906223E-02</totfact>
</mgrwt>
</event>
<event>
12    5  0.5095719E-008  0.2739004E+04  0.7818608E-02  0.8322459E-01
         -2   -1    0    0    0  501 -0.00000000000E+00  0.00000000000E+00  0.71557546983E+03  0.71557546983E+03  0.00000000000E+00 0.  1.
          1   -1    0    0  501    0  0.00000000000E+00 -0.00000000000E+00 -0.26210173079E+04  0.26210173079E+04  0.00000000000E+00 0. -1.
        -24    2    1    2    0    0 -0.44901077672E+03 -0.14203326581E+03 -0.22176846307E+04  0.22686019974E+04  0.81521623598E+02 0.  0.
        254    2    1    2    0    0  0.44901077672E+03  0.14203326581E+03  0.31224279262E+03  0.10679907803E+04  0.90626961725E+03 0.  0.
         23    2    4    4    0    0 -0.12526228698E+03 -0.17125488571E+03 -0.13828079373E+03  0.26856809876E+03  0.89377678062E+02 0.  0.
         23    2    4    4    0    0  0.57427306370E+03  0.31328815152E+03  0.45052358635E+03  0.79942268159E+03  0.90366500489E+02 0.  0.
          1    1    3    3  502    0 -0.31490442494E+03 -0.12408189304E+03 -0.17114443940E+04  0.17445925102E+04  0.00000000000E+00 0. -1.
         -2    1    3    3    0  502 -0.13410635177E+03 -0.17951372771E+02 -0.50624023675E+03  0.52400948720E+03  0.00000000000E+00 0.  1.
         13    1    5    5    0    0 -0.40819070051E+02 -0.92819430045E+02 -0.11058596779E+03  0.15003632675E+03  0.00000000000E+00 0.  1.
        -13    1    5    5    0    0 -0.84443216930E+02 -0.78435455662E+02 -0.27694825945E+02  0.11853177200E+03  0.00000000000E+00 0. -1.
          2    1    6    6  503    0  0.45402620763E+02  0.41588570363E+02  0.17940136762E+02  0.64131549677E+02  0.00000000000E+00 0. -1.
         -2    1    6    6    0  503  0.52887044293E+03  0.27169958115E+03  0.43258344959E+03  0.73529113191E+03  0.00000000000E+00 0.  1.
<mgrwt>
<rscale>  0 0.27390040E+04</rscale>
<asrwt>0</asrwt>
<pdfrwt beam="1">  1        1 0.40323344E+00 0.27390040E+04</pdfrwt>
<pdfrwt beam="2">  1       -2 0.11008853E+00 0.27390040E+04</pdfrwt>
<totfact> 0.55960607E-01</totfact>
</mgrwt>
</event>
<event>
12    5  0.5095719E-008  0.2706748E+04  0.7818608E-02  0.8332819E-01
         -2   -1    0    0    0  501 -0.00000000000E+00  0.00000000000E+00  0.72616513636E+03  0.72616513636E+03  0.00000000000E+00 0.  1.
          1   -1    0    0  501    0  0.00000000000E+00 -0.00000000000E+00 -0.25223211605E+04  0.25223211605E+04  0.00000000000E+00 0. -1.
        -24    2    1    2    0    0  0.62690429862E+03  0.57632666702E+02 -0.20085118666E+04  0.21063563585E+04  0.79288504066E+02 0.  0.
        254    2    1    2    0    0 -0.62690429862E+03 -0.57632666702E+02  0.21235584239E+03  0.11421299384E+04  0.92899691523E+03 0.  0.
         23    2    4    4    0    0 -0.73376600851E+02  0.38501126323E+03  0.23386623203E+02  0.40328051422E+03  0.92034996830E+02 0.  0.
         23    2    4    4    0    0 -0.55352769777E+03 -0.44264392993E+03  0.18896921919E+03  0.73884942419E+03  0.88670992549E+02 0.  0.
          3    1    3    3  502    0  0.55966557287E+03  0.65498700715E+02 -0.17174731959E+04  0.18075480109E+04  0.00000000000E+00 0. -1.
         -4    1    3    3    0  502  0.67238725756E+02 -0.78660340126E+01 -0.29103867069E+03  0.29880834755E+03  0.00000000000E+00 0.  1.
         13    1    5    5    0    0 -0.40347230711E+02  0.32567553570E+03  0.46720268788E+02  0.33147433852E+03  0.00000000000E+00 0.  1.
        -13    1    5    5    0    0 -0.33029370140E+02  0.59335727527E+02 -0.23333645585E+02  0.71806175704E+02  0.00000000000E+00 0. -1.
          4    1    6    6  503    0 -0.22324758011E+03 -0.23344316164E+03  0.96252652309E+02  0.33704564204E+03  0.00000000000E+00 0. -1.
         -4    1    6    6    0  503 -0.33028011766E+03 -0.20920076829E+03  0.92716566881E+02  0.40180378215E+03  0.00000000000E+00 0.  1.
<mgrwt>
<rscale>  0 0.27067484E+04</rscale>
<asrwt>0</asrwt>
<pdfrwt beam="1">  1        1 0.38804941E+00 0.27067484E+04</pdfrwt>
<pdfrwt beam="2">  1       -2 0.11171771E+00 0.27067484E+04</pdfrwt>
<totfact> 0.63458098E-01</totfact>
</mgrwt>
</event>
<event>
12    5  0.5095719E-008  0.1164765E+04  0.7818608E-02  0.9144269E-01
          1   -1    0    0  501    0  0.00000000000E+00  0.00000000000E+00  0.17911395350E+03  0.17911395350E+03  0.00000000000E+00 0. -1.
         -2   -1    0    0    0  501 -0.00000000000E+00 -0.00000000000E+00 -0.18935970979E+04  0.18935970979E+04  0.00000000000E+00 0.  1.
        -24    2    1    2    0    0 -0.20769029951E+02 -0.18463676734E+03 -0.12387083909E+03  0.23767927032E+03  0.81396328563E+02 0.  0.
        254    2    1    2    0    0  0.20769029951E+02  0.18463676734E+03 -0.15906123053E+04  0.18350317811E+04  0.89597547025E+03 0.  0.
         23    2    4    4    0    0 -0.15060730272E+03 -0.29715097730E+03 -0.94664006575E+03  0.10076625812E+04  0.90968129654E+02 0.  0.
         23    2    4    4    0    0  0.17137633267E+03  0.48178774464E+03 -0.64397223956E+03  0.82736919983E+03  0.91379807536E+02 0.  0.
          3    1    3    3  502    0 -0.30707156423E+02 -0.15752471354E+03 -0.67032063700E+02  0.17392602564E+03  0.00000000000E+00 0. -1.
         -4    1    3    3    0  502  0.99381264725E+01 -0.27112053798E+02 -0.56838775389E+02  0.63753244675E+02  0.00000000000E+00 0.  1.
         13    1    5    5    0    0 -0.19737452312E+02 -0.12475395853E+03 -0.29128694204E+03  0.31749204682E+03  0.00000000000E+00 0.  1.
        -13    1    5    5    0    0 -0.13086985041E+03 -0.17239701877E+03 -0.65535312371E+03  0.69017053442E+03  0.00000000000E+00 0. -1.
          4    1    6    6  503    0  0.95587725372E+02  0.37026002444E+03 -0.50836012858E+03  0.63612853990E+03  0.00000000000E+00 0. -1.
         -4    1    6    6    0  503  0.75788607296E+02  0.11152772019E+03 -0.13561211098E+03  0.19124065993E+03  0.00000000000E+00 0.  1.
<mgrwt>
<rscale>  0 0.11647655E+04</rscale>
<asrwt>0</asrwt>
<pdfrwt beam="1">  1        1 0.27555994E-01 0.11647655E+04</pdfrwt>
<pdfrwt beam="2">  1       -2 0.29132262E+00 0.11647655E+04</pdfrwt>
<totfact> 0.53792433E+00</totfact>
</mgrwt>
</event>
<event>
12    5  0.5095719E-008  0.1062621E+04  0.7818608E-02  0.9242410E-01
          1   -1    0    0  501    0  0.00000000000E+00  0.00000000000E+00  0.66302345040E+03  0.66302345040E+03  0.00000000000E+00 0. -1.
         -2   -1    0    0    0  501 -0.00000000000E+00 -0.00000000000E+00 -0.42576267623E+03  0.42576267623E+03  0.00000000000E+00 0.  1.
        -24    2    1    2    0    0  0.12746296409E+03 -0.45991545606E+02  0.16798801487E+03  0.23050949830E+03  0.80948293289E+02 0.  0.
        254    2    1    2    0    0 -0.12746296409E+03  0.45991545606E+02  0.69272759297E+02  0.85827662833E+03  0.84467628478E+03 0.  0.
         23    2    4    4    0    0 -0.16960691602E+03  0.88341302666E+02 -0.35886243194E+03  0.41683873006E+03  0.91660188216E+02 0.  0.
         23    2    4    4    0    0  0.42143951927E+02 -0.42349757060E+02  0.42813519123E+03  0.44143789827E+03  0.89431881615E+02 0.  0.
          3    1    3    3  502    0  0.32761256649E+02 -0.14660133684E+01  0.10116433589E+03  0.10634694161E+03  0.00000000000E+00 0. -1.
         -4    1    3    3    0  502  0.94701707444E+02 -0.44525532237E+02  0.66823678974E+02  0.12416255670E+03  0.00000000000E+00 0.  1.
         13    1    5    5    0    0 -0.17206634757E+03  0.88209168906E+02 -0.36342048778E+03  0.41165779038E+03  0.00000000000E+00 0.  1.
        -13    1    5    5    0    0  0.24594315517E+01  0.13213375986E+00  0.45580558413E+01  0.51809396773E+01  0.00000000000E+00 0. -1.
          1    1    6    6  503    0  0.11582367174E+02 -0.29383553548E+00  0.15416038627E+01  0.11688203932E+02  0.00000000000E+00 0. -1.
         -1    1    6    6    0  503  0.30561584753E+02 -0.42055921524E+02  0.42659358737E+03  0.42974969434E+03  0.00000000000E+00 0.  1.
<mgrwt>
<rscale>  0 0.10626206E+04</rscale>
<asrwt>0</asrwt>
<pdfrwt beam="1">  1        1 0.10200361E+00 0.10626206E+04</pdfrwt>
<pdfrwt beam="2">  1       -2 0.65501950E-01 0.10626206E+04</pdfrwt>
<totfact> 0.55555012E+01</totfact>
</mgrwt>
</event>
<event>
12    5  0.5095719E-008  0.2163528E+04  0.7818608E-02  0.8533764E-01
          1   -1    0    0  501    0  0.00000000000E+00  0.00000000000E+00  0.18270050917E+04  0.18270050917E+04  0.00000000000E+00 0. -1.
         -2   -1    0    0    0  501 -0.00000000000E+00 -0.00000000000E+00 -0.64050885378E+03  0.64050885378E+03  0.00000000000E+00 0.  1.
        -24    2    1    2    0    0  0.28406701499E+03  0.79986046569E+03  0.17235619532E+03  0.86987398525E+03  0.80642783740E+02 0.  0.
        254    2    1    2    0    0 -0.28406701499E+03 -0.79986046569E+03  0.10141400426E+04  0.15976399602E+04  0.89638305593E+03 0.  0.
         23    2    4    4    0    0  0.19908509187E+03  0.73955432811E+02  0.17775318158E+03  0.29167559311E+03  0.91510536049E+02 0.  0.
         23    2    4    4    0    0 -0.48315210686E+03 -0.87381589850E+03  0.83638686102E+03  0.13059643671E+04  0.94919777048E+02 0.  0.
          1    1    3    3  502    0  0.86517088691E+02  0.19787390402E+03  0.11846036525E+02  0.21628596143E+03  0.00000000000E+00 0. -1.
         -2    1    3    3    0  502  0.19754992630E+03  0.60198656167E+03  0.16051015880E+03  0.65358802382E+03  0.00000000000E+00 0.  1.
         13    1    5    5    0    0  0.70263915364E+02  0.41322641029E+02  0.17287548296E+02  0.83327293188E+02  0.00000000000E+00 0. -1.
        -13    1    5    5    0    0  0.12882117650E+03  0.32632791783E+02  0.16046563328E+03  0.20834829992E+03  0.00000000000E+00 0.  1.
          2    1    6    6  503    0 -0.39067540573E+03 -0.66394289239E+03  0.68756445385E+03  0.10325658890E+04  0.00000000000E+00 0. -1.
         -2    1    6    6    0  503 -0.92476701132E+02 -0.20987300612E+03  0.14882240717E+03  0.27339847809E+03  0.00000000000E+00 0.  1.
<mgrwt>
<rscale>  0 0.21635276E+04</rscale>
<asrwt>0</asrwt>
<pdfrwt beam="1">  1        1 0.28107770E+00 0.21635276E+04</pdfrwt>
<pdfrwt beam="2">  1       -2 0.98539824E-01 0.21635276E+04</pdfrwt>
<totfact> 0.26828744E+00</totfact>
</mgrwt>
</event>
<event>
12    5  0.5095719E-008  0.1848703E+04  0.7818608E-02  0.8680820E-01
          3   -1    0    0  501    0  0.00000000000E+00  0.00000000000E+00  0.34135248737E+04  0.34135248737E+04  0.00000000000E+00 0. -1.
         -4   -1    0    0    0  501 -0.00000000000E+00 -0.00000000000E+00 -0.25030601899E+03  0.25030601899E+03  0.00000000000E+00 0.  1.
        -24    2    1    2    0    0  0.11483375904E+03 -0.64133557182E+03  0.17122809153E+04  0.18337251738E+04  0.78383493802E+02 0.  0.
        254    2    1    2    0    0 -0.11483375904E+03  0.64133557182E+03  0.14509379394E+04  0.18301057190E+04  0.90529991192E+03 0.  0.
         23    2    4    4    0    0 -0.44804250252E+03  0.30016425767E+03  0.11080804654E+04  0.12358408871E+04  0.92842419113E+02 0.  0.
         23    2    4    4    0    0  0.33320874347E+03  0.34117131415E+03  0.34285747409E+03  0.59426483189E+03  0.90407469581E+02 0.  0.
          1    1    3    3  502    0  0.41839585778E+02 -0.40797392882E+03  0.10095880547E+04  0.10897069871E+04  0.00000000000E+00 0. -1.
         -2    1    3    3    0  502  0.72994173264E+02 -0.23336164300E+03  0.70269286062E+03  0.74401818669E+03  0.00000000000E+00 0.  1.
         13    1    5    5    0    0 -0.32716840709E+03  0.16680253295E+03  0.74109234641E+03  0.82709135983E+03  0.00000000000E+00 0.  1.
        -13    1    5    5    0    0 -0.12087409542E+03  0.13336172472E+03  0.36698811894E+03  0.40874952723E+03  0.00000000000E+00 0. -1.
          1    1    6    6  503    0  0.88070212795E+02  0.64498137462E+02  0.12179993985E+03  0.16355915586E+03  0.00000000000E+00 0. -1.
         -1    1    6    6    0  503  0.24513853068E+03  0.27667317669E+03  0.22105753424E+03  0.43070567603E+03  0.00000000000E+00 0.  1.
<mgrwt>
<rscale>  0 0.18487031E+04</rscale>
<asrwt>0</asrwt>
<pdfrwt beam="1">  1        3 0.52515764E+00 0.18487031E+04</pdfrwt>
<pdfrwt beam="2">  1       -4 0.38508621E-01 0.18487031E+04</pdfrwt>
<totfact> 0.36985339E-02</totfact>
</mgrwt>
</event>
<event>
12    5  0.5095719E-008  0.1569400E+04  0.7818608E-02  0.8839571E-01
          1   -1    0    0  501    0  0.00000000000E+00  0.00000000000E+00  0.11644560327E+04  0.11644560327E+04  0.00000000000E+00 0. -1.
         -2   -1    0    0    0  501 -0.00000000000E+00 -0.00000000000E+00 -0.52879091288E+03  0.52879091288E+03  0.00000000000E+00 0.  1.
        -24    2    1    2    0    0  0.23888499804E+03 -0.80751733840E+02  0.71230497221E+03  0.76007444623E+03  0.82145636306E+02 0.  0.
        254    2    1    2    0    0 -0.23888499804E+03  0.80751733840E+02 -0.76639852389E+02  0.93317249935E+03  0.89518174789E+03 0.  0.
         23    2    4    4    0    0 -0.52463785455E+02  0.40597678619E+03  0.19383076641E+03  0.46214543051E+03  0.91860945038E+02 0.  0.
         23    2    4    4    0    0 -0.18642121259E+03 -0.32522505235E+03 -0.27047061880E+03  0.47102706884E+03  0.90487240909E+02 0.  0.
          3    1    3    3  502    0  0.22191463007E+03 -0.46244411474E+02  0.61504320555E+03  0.65548668432E+03  0.00000000000E+00 0. -1.
         -4    1    3    3    0  502  0.16970367967E+02 -0.34507322366E+02  0.97261766665E+02  0.10458776191E+03  0.00000000000E+00 0.  1.
         13    1    5    5    0    0 -0.70442415125E+02  0.35780179344E+03  0.18833573042E+03  0.41043221680E+03  0.00000000000E+00 0.  1.
        -13    1    5    5    0    0  0.17978629670E+02  0.48174992753E+02  0.54950359940E+01  0.51713213709E+02  0.00000000000E+00 0. -1.
          1    1    6    6  503    0  0.93755290314E+01 -0.82441420895E+01 -0.13728333935E+02  0.18556227420E+02  0.00000000000E+00 0. -1.
         -1    1    6    6    0  503 -0.19579674162E+03 -0.31698091026E+03 -0.25674228487E+03  0.45247084142E+03  0.00000000000E+00 0.  1.
<mgrwt>
<rscale>  0 0.15693996E+04</rscale>
<asrwt>0</asrwt>
<pdfrwt beam="1">  1        1 0.17914708E+00 0.15693996E+04</pdfrwt>
<pdfrwt beam="2">  1       -2 0.81352448E-01 0.15693996E+04</pdfrwt>
<totfact> 0.12743591E+01</totfact>
</mgrwt>
</event>
<event>
12    5  0.5095719E-008  0.3007252E+04  0.7818608E-02  0.8241663E-01
         -2   -1    0    0    0  501 -0.00000000000E+00  0.00000000000E+00  0.25104547110E+04  0.25104547110E+04  0.00000000000E+00 0.  1.
          1   -1    0    0  501    0  0.00000000000E+00 -0.00000000000E+00 -0.90059026108E+03  0.90059026108E+03  0.00000000000E+00 0. -1.
        -24    2    1    2    0    0  0.20768419953E+03  0.69594498668E+03 -0.58461167912E+03  0.93577538695E+03  0.80203542557E+02 0.  0.
        254    2    1    2    0    0 -0.20768419953E+03 -0.69594498668E+03  0.21944761291E+04  0.24752695852E+04  0.88530327397E+03 0.  0.
         23    2    4    4    0    0 -0.22861601142E+03 -0.14589113832E+03  0.92907393283E+02  0.30081799894E+03  0.91160187818E+02 0.  0.
         23    2    4    4    0    0  0.20931811884E+02 -0.55005384836E+03  0.21015687358E+04  0.21744515862E+04  0.93011680468E+02 0.  0.
          1    1    3    3  502    0  0.16002986537E+03  0.54605040349E+03 -0.49830207056E+03  0.75636337464E+03  0.00000000000E+00 0. -1.
         -2    1    3    3    0  502  0.47654334157E+02  0.14989458319E+03 -0.86309608559E+02  0.17941201231E+03  0.00000000000E+00 0.  1.
         13    1    5    5    0    0 -0.20521117801E+03 -0.13916307689E+03  0.52200714827E+02  0.25338292006E+03  0.00000000000E+00 0. -1.
        -13    1    5    5    0    0 -0.23404833406E+02 -0.67280614310E+01  0.40706678456E+02  0.47435078879E+02  0.00000000000E+00 0.  1.
          3    1    6    6  503    0 -0.17920853782E+02 -0.44172363869E+03  0.16102795517E+04  0.16698626185E+04  0.00000000000E+00 0. -1.
         -3    1    6    6    0  503  0.38852665665E+02 -0.10833020967E+03  0.49128918405E+03  0.50458896770E+03  0.00000000000E+00 0.  1.
<mgrwt>
<rscale>  0 0.30072519E+04</rscale>
<asrwt>0</asrwt>
<pdfrwt beam="1">  1        1 0.13855235E+00 0.30072519E+04</pdfrwt>
<pdfrwt beam="2">  1       -2 0.38622380E+00 0.30072519E+04</pdfrwt>
<totfact> 0.12370424E-01</totfact>
</mgrwt>
</event>
<event>
12    5  0.5095719E-008  0.1688838E+04  0.7818608E-02  0.8767756E-01
         -2   -1    0    0    0  501 -0.00000000000E+00  0.00000000000E+00  0.69291000653E+03  0.69291000653E+03  0.00000000000E+00 0.  1.
          1   -1    0    0  501    0  0.00000000000E+00 -0.00000000000E+00 -0.10290562560E+04  0.10290562560E+04  0.00000000000E+00 0. -1.
        -24    2    1    2    0    0  0.15482085357E+03 -0.10005203785E+03 -0.70306475915E+03  0.73126162764E+03  0.80396551700E+02 0.  0.
        254    2    1    2    0    0 -0.15482085357E+03  0.10005203785E+03  0.36691850971E+03  0.99070463485E+03  0.90160222591E+03 0.  0.
         23    2    4    4    0    0 -0.94243996771E+02  0.29869105083E+03  0.58904921076E+03  0.67334576229E+03  0.91199057679E+02 0.  0.
         23    2    4    4    0    0 -0.60576856800E+02 -0.19863901298E+03 -0.22213070105E+03  0.31735887256E+03  0.90816257287E+02 0.  0.
          3    1    3    3  502    0  0.64004292708E+02 -0.19341173233E+02 -0.38535337170E+03  0.39111104759E+03  0.00000000000E+00 0. -1.
         -4    1    3    3    0  502  0.90816560863E+02 -0.80710864614E+02 -0.31771138745E+03  0.34015058005E+03  0.00000000000E+00 0.  1.
         13    1    5    5    0    0  0.11440793302E+02  0.73284113832E+01  0.11134980221E+02  0.17566591853E+02  0.00000000000E+00 0. -1.
        -13    1    5    5    0    0 -0.10568479007E+03  0.29136263944E+03  0.57791423054E+03  0.65577917043E+03  0.00000000000E+00 0.  1.
          1    1    6    6  503    0  0.16587938159E+02 -0.17170195696E+02 -0.56587062064E+01  0.24535612251E+02  0.00000000000E+00 0. -1.
         -1    1    6    6    0  503 -0.77164794959E+02 -0.18146881728E+03 -0.21647199485E+03  0.29282326031E+03  0.00000000000E+00 0.  1.
<mgrwt>
<rscale>  0 0.16888379E+04</rscale>
<asrwt>0</asrwt>
<pdfrwt beam="1">  1        1 0.15831635E+00 0.16888379E+04</pdfrwt>
<pdfrwt beam="2">  1       -2 0.10660154E+00 0.16888379E+04</pdfrwt>
<totfact> 0.85015442E+00</totfact>
</mgrwt>
</event>
<event>
12    5  0.5095719E-008  0.1429761E+04  0.7818608E-02  0.8932553E-01
         -2   -1    0    0    0  501 -0.00000000000E+00  0.00000000000E+00  0.66938772303E+03  0.66938772303E+03  0.00000000000E+00 0.  1.
          1   -1    0    0  501    0  0.00000000000E+00 -0.00000000000E+00 -0.76346537976E+03  0.76346537976E+03  0.00000000000E+00 0. -1.
        -24    2    1    2    0    0  0.61362798374E+02  0.26536525468E+03 -0.35415047313E+03  0.45355579255E+03  0.78142100796E+02 0.  0.
        254    2    1    2    0    0 -0.61362798374E+02 -0.26536525468E+03  0.26007281640E+03  0.97929731023E+03  0.90399183657E+03 0.  0.
         23    2    4    4    0    0 -0.66394407397E+02 -0.59201441082E+03  0.19893235384E+03  0.63453313869E+03  0.90382203675E+02 0.  0.
         23    2    4    4    0    0  0.50316090231E+01  0.32664915613E+03  0.61140462557E+02  0.34476417155E+03  0.91647092306E+02 0.  0.
          1    1    3    3  502    0  0.27775366590E+02  0.22858103708E+03 -0.31506953084E+03  0.39024296376E+03  0.00000000000E+00 0. -1.
         -2    1    3    3    0  502  0.33587431784E+02  0.36784217601E+02 -0.39080942292E+02  0.63312828785E+02  0.00000000000E+00 0.  1.
         13    1    5    5    0    0 -0.42121691599E+02 -0.34596010300E+03  0.69210501652E+02  0.35532059230E+03  0.00000000000E+00 0. -1.
        -13    1    5    5    0    0 -0.24272715798E+02 -0.24605430781E+03  0.12972185219E+03  0.27921254639E+03  0.00000000000E+00 0.  1.
          3    1    6    6  503    0  0.40301860335E+02  0.99886719258E+02  0.37538891149E+02  0.11406474030E+03  0.00000000000E+00 0. -1.
         -3    1    6    6    0  503 -0.35270251312E+02  0.22676243687E+03  0.23601571408E+02  0.23069943125E+03  0.00000000000E+00 0.  1.
<mgrwt>
<rscale>  0 0.14297613E+04</rscale>
<asrwt>0</asrwt>
<pdfrwt beam="1">  1        1 0.11745621E+00 0.14297613E+04</pdfrwt>
<pdfrwt beam="2">  1       -2 0.10298273E+00 0.14297613E+04</pdfrwt>
<totfact> 0.15628603E+01</totfact>
</mgrwt>
</event>
<event>
12    5  0.5095719E-008  0.1311182E+04  0.7818608E-02  0.9020744E-01
         -2   -1    0    0    0  501 -0.00000000000E+00  0.00000000000E+00  0.24189967572E+03  0.24189967572E+03  0.00000000000E+00 0.  1.
          1   -1    0    0  501    0  0.00000000000E+00 -0.00000000000E+00 -0.17767682772E+04  0.17767682772E+04  0.00000000000E+00 0. -1.
        -24    2    1    2    0    0  0.62360316077E+02 -0.17562030557E+03  0.21888161337E+02  0.20424970443E+03  0.80669383308E+02 0.  0.
        254    2    1    2    0    0 -0.62360316077E+02  0.17562030557E+03 -0.15567567628E+04  0.18144182485E+04  0.91317613914E+03 0.  0.
         23    2    4    4    0    0  0.31150829369E+03 -0.11792733135E+03 -0.10891039022E+04  0.11416304233E+04  0.78920473566E+02 0.  0.
         23    2    4    4    0    0 -0.37386860977E+03  0.29354763691E+03 -0.46765286061E+03  0.67278782515E+03  0.89422072921E+02 0.  0.
          1    1    3    3  502    0  0.63968502251E+01 -0.75943311903E+02 -0.25697497741E+02  0.80428028111E+02  0.00000000000E+00 0. -1.
         -2    1    3    3    0  502  0.55963465852E+02 -0.99676993665E+02  0.47585659078E+02  0.12382167632E+03  0.00000000000E+00 0.  1.
         13    1    5    5    0    0  0.22296260903E+02 -0.28461320307E+02 -0.74236952008E+02  0.82572968018E+02  0.00000000000E+00 0.  1.
        -13    1    5    5    0    0  0.28921203279E+03 -0.89466011040E+02 -0.10148669502E+04  0.10590574553E+04  0.00000000000E+00 0. -1.
          4    1    6    6  503    0 -0.15478738421E+03  0.13632728348E+03 -0.14417897039E+03  0.25165817697E+03  0.00000000000E+00 0. -1.
         -4    1    6    6    0  503 -0.21908122556E+03  0.15722035343E+03 -0.32347389021E+03  0.42112964818E+03  0.00000000000E+00 0.  1.
<mgrwt>
<rscale>  0 0.13111822E+04</rscale>
<asrwt>0</asrwt>
<pdfrwt beam="1">  1        1 0.27334897E+00 0.13111822E+04</pdfrwt>
<pdfrwt beam="2">  1       -2 0.37215334E-01 0.13111822E+04</pdfrwt>
<totfact> 0.24791234E+01</totfact>
</mgrwt>
</event>
<event>
12    5  0.5095719E-008  0.1738074E+04  0.7818608E-02  0.8739942E-01
         -2   -1    0    0    0  501 -0.00000000000E+00  0.00000000000E+00  0.38489400262E+03  0.38489400262E+03  0.00000000000E+00 0.  1.
          1   -1    0    0  501    0  0.00000000000E+00 -0.00000000000E+00 -0.19621647431E+04  0.19621647431E+04  0.00000000000E+00 0. -1.
        -24    2    1    2    0    0  0.81143487051E+02 -0.78273484445E+02 -0.14373833251E+04  0.14440019064E+04  0.79747591217E+02 0.  0.
        254    2    1    2    0    0 -0.81143487051E+02  0.78273484445E+02 -0.13988741530E+03  0.90305683933E+03  0.88500404646E+03 0.  0.
         23    2    4    4    0    0 -0.15646945446E+03 -0.33756187279E+03  0.11650060664E+03  0.40009888212E+03  0.89866656710E+02 0.  0.
         23    2    4    4    0    0  0.75325967412E+02  0.41583535724E+03 -0.25638802194E+03  0.50295795721E+03  0.92945377673E+02 0.  0.
          1    1    3    3  502    0 -0.46735451594E+01 -0.36473663391E+02 -0.23775464110E+03  0.24058146128E+03  0.00000000000E+00 0. -1.
         -2    1    3    3    0  502  0.85817032210E+02 -0.41799821054E+02 -0.11996286840E+04  0.12034204451E+04  0.00000000000E+00 0.  1.
         13    1    5    5    0    0 -0.11410261484E+03 -0.29785397748E+03  0.12260273196E+03  0.34171307920E+03  0.00000000000E+00 0. -1.
        -13    1    5    5    0    0 -0.42366839622E+02 -0.39707895311E+02 -0.61021253179E+01  0.58385802923E+02  0.00000000000E+00 0.  1.
          4    1    6    6  503    0  0.20609897775E+02  0.26317154686E+03 -0.20027360780E+03  0.33135109619E+03  0.00000000000E+00 0. -1.
         -4    1    6    6    0  503  0.54716069637E+02  0.15266381037E+03 -0.56114414135E+02  0.17160686102E+03  0.00000000000E+00 0.  1.
<mgrwt>
<rscale>  0 0.17380742E+04</rscale>
<asrwt>0</asrwt>
<pdfrwt beam="1">  1        1 0.30187150E+00 0.17380742E+04</pdfrwt>
<pdfrwt beam="2">  1       -2 0.59214463E-01 0.17380742E+04</pdfrwt>
<totfact> 0.70133022E+00</totfact>
</mgrwt>
</event>
<event>
12    5  0.5095719E-008  0.1574800E+04  0.7818608E-02  0.8836181E-01
          1   -1    0    0  501    0  0.00000000000E+00  0.00000000000E+00  0.48722613554E+03  0.48722613554E+03  0.00000000000E+00 0. -1.
         -2   -1    0    0    0  501 -0.00000000000E+00 -0.00000000000E+00 -0.12725067490E+04  0.12725067490E+04  0.00000000000E+00 0.  1.
        -24    2    1    2    0    0 -0.30030600891E+03 -0.29374547169E+02  0.21749665728E+03  0.38055340504E+03  0.80433420628E+02 0.  0.
        254    2    1    2    0    0  0.30030600891E+03  0.29374547169E+02 -0.10027772707E+04  0.13791794795E+04  0.89751168178E+03 0.  0.
         23    2    4    4    0    0 -0.84735351467E+02 -0.35255093907E+03 -0.26254741429E+03  0.45717503091E+03  0.92766479454E+02 0.  0.
         23    2    4    4    0    0  0.38504136038E+03  0.38192548623E+03 -0.74022985645E+03  0.92200444859E+03  0.89599311391E+02 0.  0.
          1    1    3    3  502    0 -0.24859675841E+03 -0.45734637761E+02  0.14984689500E+03  0.29384706451E+03  0.00000000000E+00 0. -1.
         -2    1    3    3    0  502 -0.51709250501E+02  0.16360090592E+02  0.67649762280E+02  0.86706340530E+02  0.00000000000E+00 0.  1.
         13    1    5    5    0    0  0.17636251000E+02 -0.88176685080E+02 -0.76661651482E+02  0.11816587472E+03  0.00000000000E+00 0.  1.
        -13    1    5    5    0    0 -0.10237160247E+03 -0.26437425399E+03 -0.18588576281E+03  0.33900915618E+03  0.00000000000E+00 0. -1.
          3    1    6    6  503    0  0.29444548568E+03  0.34005735634E+03 -0.60042734649E+03  0.75023339571E+03  0.00000000000E+00 0. -1.
         -3    1    6    6    0  503  0.90595874701E+02  0.41868129895E+02 -0.13980250997E+03  0.17177105288E+03  0.00000000000E+00 0.  1.
<mgrwt>
<rscale>  0 0.15747997E+04</rscale>
<asrwt>0</asrwt>
<pdfrwt beam="1">  1        1 0.74957867E-01 0.15747997E+04</pdfrwt>
<pdfrwt beam="2">  1       -2 0.19577027E+00 0.15747997E+04</pdfrwt>
<totfact> 0.54737610E+00</totfact>
</mgrwt>
</event>
<event>
12    5  0.5095719E-008  0.1160562E+04  0.7818608E-02  0.9148094E-01
         -2   -1    0    0    0  501 -0.00000000000E+00  0.00000000000E+00  0.15168160729E+03  0.15168160729E+03  0.00000000000E+00 0.  1.
          1   -1    0    0  501    0  0.00000000000E+00 -0.00000000000E+00 -0.22199541817E+04  0.22199541817E+04  0.00000000000E+00 0. -1.
        -24    2    1    2    0    0 -0.15588331113E+03  0.54545372135E+02 -0.11660204318E+03  0.21746671720E+03  0.80130720104E+02 0.  0.
        254    2    1    2    0    0  0.15588331113E+03 -0.54545372135E+02 -0.19516705313E+04  0.21541690718E+04  0.89674507139E+03 0.  0.
         23    2    4    4    0    0  0.25642179948E+03  0.37087962796E+03 -0.87500449295E+03  0.98833176220E+03  0.88673399701E+02 0.  0.
         23    2    4    4    0    0 -0.10053848835E+03 -0.42542500010E+03 -0.10766660383E+04  0.11658373096E+04  0.94193715722E+02 0.  0.
          3    1    3    3  502    0 -0.85525773787E+02  0.43180972553E+02 -0.11002724643E+03  0.14589465148E+03  0.00000000000E+00 0. -1.
         -4    1    3    3    0  502 -0.70357537345E+02  0.11364399582E+02 -0.65747967461E+01  0.71572065719E+02  0.00000000000E+00 0.  1.
         13    1    5    5    0    0  0.11134525709E+03  0.23042307062E+03 -0.44672607216E+03  0.51483661612E+03  0.00000000000E+00 0.  1.
        -13    1    5    5    0    0  0.14507654238E+03  0.14045655734E+03 -0.42827842078E+03  0.47349514608E+03  0.00000000000E+00 0. -1.
          3    1    6    6  503    0 -0.86912945237E+02 -0.26343028860E+03 -0.77511662109E+03  0.82325886166E+03  0.00000000000E+00 0. -1.
         -3    1    6    6    0  503 -0.13625543109E+02 -0.16199471150E+03 -0.30154941722E+03  0.34257844795E+03  0.00000000000E+00 0.  1.
<mgrwt>
<rscale>  0 0.11605623E+04</rscale>
<asrwt>0</asrwt>
<pdfrwt beam="1">  1        1 0.34153145E+00 0.11605623E+04</pdfrwt>
<pdfrwt beam="2">  1       -2 0.23335629E-01 0.11605623E+04</pdfrwt>
<totfact> 0.30011311E+01</totfact>
</mgrwt>
</event>
<event>
12    5  0.5095719E-008  0.1391223E+04  0.7818608E-02  0.8960197E-01
          1   -1    0    0  501    0  0.00000000000E+00  0.00000000000E+00  0.25312150566E+04  0.25312150566E+04  0.00000000000E+00 0. -1.
         -2   -1    0    0    0  501 -0.00000000000E+00 -0.00000000000E+00 -0.19116317546E+03  0.19116317546E+03  0.00000000000E+00 0.  1.
        -24    2    1    2    0    0  0.61326712525E+02 -0.78853207584E+02 -0.71429571298E+02  0.14645373285E+03  0.79797983649E+02 0.  0.
        254    2    1    2    0    0 -0.61326712525E+02  0.78853207584E+02  0.24114814524E+04  0.25759244992E+04  0.90009190431E+03 0.  0.
         23    2    4    4    0    0  0.39022959691E+03 -0.16212368347E+02  0.14513088726E+04  0.15056558186E+04  0.90332836334E+02 0.  0.
         23    2    4    4    0    0 -0.45155630944E+03  0.95065575931E+02  0.96017257986E+03  0.10702686806E+04  0.10297136126E+03 0.  0.
          1    1    3    3  502    0  0.12828520628E+02 -0.54843165672E+02  0.64145181646E+00  0.56327215649E+02  0.00000000000E+00 0. -1.
         -2    1    3    3    0  502  0.48498191897E+02 -0.24010041912E+02 -0.72071023114E+02  0.90126517200E+02  0.00000000000E+00 0.  1.
         13    1    5    5    0    0  0.66443639199E+02 -0.12537899447E+01  0.40101567190E+03  0.40648480696E+03  0.00000000000E+00 0.  1.
        -13    1    5    5    0    0  0.32378595771E+03 -0.14958578402E+02  0.10502932007E+04  0.10991710117E+04  0.00000000000E+00 0. -1.
          3    1    6    6  503    0 -0.40503656277E+03  0.50843503819E+02  0.81394373949E+03  0.91057349518E+03  0.00000000000E+00 0. -1.
         -3    1    6    6    0  503 -0.46519746662E+02  0.44222072112E+02  0.14622884037E+03  0.15969518542E+03  0.00000000000E+00 0.  1.
<mgrwt>
<rscale>  0 0.13912226E+04</rscale>
<asrwt>0</asrwt>
<pdfrwt beam="1">  1        1 0.38941767E+00 0.13912226E+04</pdfrwt>
<pdfrwt beam="2">  1       -2 0.29409721E-01 0.13912226E+04</pdfrwt>
<totfact> 0.11794257E+01</totfact>
</mgrwt>
</event>
<event>
12    5  0.5095719E-008  0.1684123E+04  0.7818608E-02  0.8770472E-01
          1   -1    0    0  501    0  0.00000000000E+00  0.00000000000E+00  0.65359652825E+03  0.65359652825E+03  0.00000000000E+00 0. -1.
         -2   -1    0    0    0  501 -0.00000000000E+00 -0.00000000000E+00 -0.10848699026E+04  0.10848699026E+04  0.00000000000E+00 0.  1.
        -24    2    1    2    0    0  0.48980850535E+03 -0.28338398857E+03 -0.35474234247E+03  0.67274205267E+03  0.80751984503E+02 0.  0.
        254    2    1    2    0    0 -0.48980850535E+03  0.28338398857E+03 -0.76531031881E+02  0.10657243782E+04  0.89982920295E+03 0.  0.
         23    2    4    4    0    0 -0.64348613950E+03 -0.19700914408E+02 -0.21939370076E+03  0.68616370215E+03  0.90688987539E+02 0.  0.
         23    2    4    4    0    0  0.15367763415E+03  0.30308490298E+03  0.14286266888E+03  0.37956067601E+03  0.90439432572E+02 0.  0.
          1    1    3    3  502    0  0.15202757312E+02 -0.25753292159E+02 -0.31187348579E+02  0.43208871754E+02  0.00000000000E+00 0. -1.
         -4    1    3    3    0  502  0.47460574804E+03 -0.25763069641E+03 -0.32355499389E+03  0.62953318092E+03  0.00000000000E+00 0.  1.
         13    1    5    5    0    0 -0.48425219322E+03 -0.10173024345E+02 -0.20513936640E+03  0.52600935040E+03  0.00000000000E+00 0. -1.
        -13    1    5    5    0    0 -0.15923394628E+03 -0.95278900633E+01 -0.14254334364E+02  0.16015435175E+03  0.00000000000E+00 0.  1.
          2    1    6    6  503    0  0.14929878096E+03  0.28243572498E+03  0.10512422932E+03  0.33632003855E+03  0.00000000000E+00 0. -1.
         -2    1    6    6    0  503  0.43788531866E+01  0.20649177995E+02  0.37738439563E+02  0.43240637457E+02  0.00000000000E+00 0.  1.
<mgrwt>
<rscale>  0 0.16841226E+04</rscale>
<asrwt>0</asrwt>
<pdfrwt beam="1">  1        1 0.10055331E+00 0.16841226E+04</pdfrwt>
<pdfrwt beam="2">  1       -2 0.16690306E+00 0.16841226E+04</pdfrwt>
<totfact> 0.56481691E+00</totfact>
</mgrwt>
</event>
<event>
12    5  0.5095719E-008  0.1243541E+04  0.7818608E-02  0.9075577E-01
         -2   -1    0    0    0  501 -0.00000000000E+00  0.00000000000E+00  0.39579769109E+03  0.39579769109E+03  0.00000000000E+00 0.  1.
          1   -1    0    0  501    0  0.00000000000E+00 -0.00000000000E+00 -0.97675733806E+03  0.97675733806E+03  0.00000000000E+00 0. -1.
        -24    2    1    2    0    0  0.64126726433E+02 -0.45331098357E+02  0.16140770025E+03  0.19697989786E+03  0.81126376341E+02 0.  0.
        254    2    1    2    0    0 -0.64126726433E+02  0.45331098357E+02 -0.74236734722E+03  0.11755751313E+04  0.90813020299E+03 0.  0.
         23    2    4    4    0    0 -0.20397923921E+02 -0.17499102381E+03  0.15117738050E+03  0.25016657237E+03  0.93224352198E+02 0.  0.
         23    2    4    4    0    0 -0.43728802512E+02  0.22032212216E+03 -0.89354472772E+03  0.92540855892E+03  0.86630103335E+02 0.  0.
          3    1    3    3  502    0  0.16272445105E+02 -0.45424913696E+01 -0.61760982086E+01  0.17988076235E+02  0.00000000000E+00 0. -1.
         -4    1    3    3    0  502  0.47854281328E+02 -0.40788606988E+02  0.16758379846E+03  0.17899182162E+03  0.00000000000E+00 0.  1.
         13    1    5    5    0    0 -0.19516607043E+01 -0.83119177666E+02  0.12965255620E+03  0.15402075186E+03  0.00000000000E+00 0. -1.
        -13    1    5    5    0    0 -0.18446263217E+02 -0.91871846140E+02  0.21524824305E+02  0.96145820508E+02  0.00000000000E+00 0.  1.
          2    1    6    6  503    0 -0.96968569823E+01  0.19835522714E+03 -0.77890520910E+03  0.80382345694E+03  0.00000000000E+00 0. -1.
         -2    1    6    6    0  503 -0.34031945530E+02  0.21966895024E+02 -0.11463951863E+03  0.12158510198E+03  0.00000000000E+00 0.  1.
<mgrwt>
<rscale>  0 0.12435406E+04</rscale>
<asrwt>0</asrwt>
<pdfrwt beam="1">  1        1 0.15027036E+00 0.12435406E+04</pdfrwt>
<pdfrwt beam="2">  1       -2 0.60891953E-01 0.12435406E+04</pdfrwt>
<totfact> 0.34264813E+01</totfact>
</mgrwt>
</event>
<event>
12    5  0.5095719E-008  0.1559824E+04  0.7818608E-02  0.8845617E-01
         -2   -1    0    0    0  501 -0.00000000000E+00  0.00000000000E+00  0.15891372963E+04  0.15891372963E+04  0.00000000000E+00 0.  1.
          1   -1    0    0  501    0  0.00000000000E+00 -0.00000000000E+00 -0.38276278513E+03  0.38276278513E+03  0.00000000000E+00 0. -1.
        -24    2    1    2    0    0  0.42427946980E+03 -0.24197435320E+03  0.60115250668E+03  0.77874915214E+03  0.80630326612E+02 0.  0.
        254    2    1    2    0    0 -0.42427946980E+03  0.24197435320E+03  0.60522200454E+03  0.11931509293E+04  0.90484850075E+03 0.  0.
         23    2    4    4    0    0  0.19166820526E+03 -0.23132199058E+02 -0.81534515727E+02  0.22876726612E+03  0.91732138585E+02 0.  0.
         23    2    4    4    0    0 -0.61594767506E+03  0.26510655226E+03  0.68675652027E+03  0.96438366322E+03  0.93425421022E+02 0.  0.
          1    1    3    3  502    0  0.19236431830E+03 -0.15035744477E+03  0.32802679176E+03  0.40891682316E+03  0.00000000000E+00 0. -1.
         -2    1    3    3    0  502  0.23191515150E+03 -0.91616908427E+02  0.27312571492E+03  0.36983232898E+03  0.00000000000E+00 0.  1.
         13    1    5    5    0    0  0.19113518681E+03 -0.61739275771E+00 -0.70909613067E+02  0.20386567645E+03  0.00000000000E+00 0. -1.
        -13    1    5    5    0    0  0.53301845809E+00 -0.22514806300E+02 -0.10624902660E+02  0.24901589667E+02  0.00000000000E+00 0.  1.
          3    1    6    6  503    0 -0.42226133604E+03  0.13391873802E+03  0.44033178569E+03  0.62460463158E+03  0.00000000000E+00 0. -1.
         -3    1    6    6    0  503 -0.19368633903E+03  0.13118781424E+03  0.24642473458E+03  0.33977903164E+03  0.00000000000E+00 0.  1.
<mgrwt>
<rscale>  0 0.15598239E+04</rscale>
<asrwt>0</asrwt>
<pdfrwt beam="1">  1        1 0.58886583E-01 0.15598239E+04</pdfrwt>
<pdfrwt beam="2">  1       -2 0.24448266E+00 0.15598239E+04</pdfrwt>
<totfact> 0.37210152E+00</totfact>
</mgrwt>
</event>
<event>
12    5  0.5095719E-008  0.1754264E+04  0.7818608E-02  0.8731007E-01
          1   -1    0    0  501    0  0.00000000000E+00  0.00000000000E+00  0.31497171310E+04  0.31497171310E+04  0.00000000000E+00 0. -1.
         -2   -1    0    0    0  501 -0.00000000000E+00 -0.00000000000E+00 -0.24426348069E+03  0.24426348069E+03  0.00000000000E+00 0.  1.
        -24    2    1    2    0    0 -0.40007209379E+03  0.47468864236E+02  0.20572227740E+04  0.20979454091E+04  0.83056753728E+02 0.  0.
        254    2    1    2    0    0  0.40007209379E+03 -0.47468864236E+02  0.84823087627E+03  0.12960352026E+04  0.89325284972E+03 0.  0.
         23    2    4    4    0    0  0.64135242186E+03 -0.72502441007E+02  0.80016930010E+03  0.10323725908E+04  0.94513091102E+02 0.  0.
         23    2    4    4    0    0 -0.24128032807E+03  0.25033576771E+02  0.48061576172E+02  0.26366261179E+03  0.91461363799E+02 0.  0.
          1    1    3    3  502    0 -0.38137542586E+03  0.62978055373E+02  0.19582403973E+04  0.19960257775E+04  0.00000000000E+00 0. -1.
         -2    1    3    3    0  502 -0.18696667928E+02 -0.15509191137E+02  0.98982376756E+02  0.10191963162E+03  0.00000000000E+00 0.  1.
         13    1    5    5    0    0  0.13961937606E+03  0.87789828669E+01  0.12760260757E+03  0.18934905907E+03  0.00000000000E+00 0.  1.
        -13    1    5    5    0    0  0.50173304580E+03 -0.81281423874E+02  0.67256669253E+03  0.84302353171E+03  0.00000000000E+00 0. -1.
          3    1    6    6  503    0 -0.23379913565E+03  0.16913042663E+02  0.22098684170E+02  0.23544943977E+03  0.00000000000E+00 0. -1.
         -3    1    6    6    0  503 -0.74811924200E+01  0.81205341077E+01  0.25962892002E+02  0.28213172018E+02  0.00000000000E+00 0.  1.
<mgrwt>
<rscale>  0 0.17542644E+04</rscale>
<asrwt>0</asrwt>
<pdfrwt beam="1">  1        1 0.48457184E+00 0.17542644E+04</pdfrwt>
<pdfrwt beam="2">  1       -2 0.37578999E-01 0.17542644E+04</pdfrwt>
<totfact> 0.25877433E+00</totfact>
</mgrwt>
</event>
<event>
12    5  0.5095719E-008  0.1513727E+04  0.7818608E-02  0.8875376E-01
         -2   -1    0    0    0  501 -0.00000000000E+00  0.00000000000E+00  0.53660679854E+03  0.53660679854E+03  0.00000000000E+00 0.  1.
          1   -1    0    0  501    0  0.00000000000E+00 -0.00000000000E+00 -0.10675267007E+04  0.10675267007E+04  0.00000000000E+00 0. -1.
        -24    2    1    2    0    0  0.13984182420E+03  0.13278467583E+03  0.29956422983E+03  0.36493629607E+03  0.79071274583E+02 0.  0.
        254    2    1    2    0    0 -0.13984182420E+03 -0.13278467583E+03 -0.83048413200E+03  0.12391972032E+04  0.89928766753E+03 0.  0.
         23    2    4    4    0    0 -0.43810194477E+02 -0.38038358605E+03 -0.87115888820E+03  0.95586892179E+03  0.90313794545E+02 0.  0.
         23    2    4    4    0    0 -0.96031629725E+02  0.24759891022E+03  0.40674756196E+02  0.28332828140E+03  0.89962130915E+02 0.  0.
          3    1    3    3  502    0  0.54161569957E+02  0.91001049953E+02  0.10964308196E+03  0.15243448486E+03  0.00000000000E+00 0. -1.
         -4    1    3    3    0  502  0.85680254245E+02  0.41783625873E+02  0.18992114787E+03  0.21250181121E+03  0.00000000000E+00 0.  1.
         13    1    5    5    0    0 -0.45537602870E+02 -0.12435500095E+03 -0.37212348222E+03  0.39498572830E+03  0.00000000000E+00 0.  1.
        -13    1    5    5    0    0  0.17274083920E+01 -0.25602858510E+03 -0.49903540597E+03  0.56088319349E+03  0.00000000000E+00 0. -1.
          1    1    6    6  503    0 -0.75945050308E+02  0.19799367895E+03 -0.62506958509E+01  0.21215140530E+03  0.00000000000E+00 0. -1.
         -1    1    6    6    0  503 -0.20086579417E+02  0.49605231275E+02  0.46925452047E+02  0.71176876107E+02  0.00000000000E+00 0.  1.
<mgrwt>
<rscale>  0 0.15137266E+04</rscale>
<asrwt>0</asrwt>
<pdfrwt beam="1">  1        1 0.16423488E+00 0.15137266E+04</pdfrwt>
<pdfrwt beam="2">  1       -2 0.82554892E-01 0.15137266E+04</pdfrwt>
<totfact> 0.14638203E+01</totfact>
</mgrwt>
</event>
<event>
12    5  0.5095719E-008  0.2963280E+04  0.7818608E-02  0.8254295E-01
         -2   -1    0    0    0  501 -0.00000000000E+00  0.00000000000E+00  0.50579471062E+03  0.50579471062E+03  0.00000000000E+00 0.  1.
          1   -1    0    0  501    0  0.00000000000E+00 -0.00000000000E+00 -0.43402134432E+04  0.43402134432E+04  0.00000000000E+00 0. -1.
        -24    2    1    2    0    0 -0.38690502899E+03 -0.62336445932E+03 -0.35844613656E+04  0.36596472949E+04  0.79851680670E+02 0.  0.
        254    2    1    2    0    0  0.38690502899E+03  0.62336445932E+03 -0.24995736696E+03  0.11863608589E+04  0.89816181818E+03 0.  0.
         23    2    4    4    0    0  0.76954195307E+01 -0.17780747769E+03 -0.21645140179E+03  0.29449973459E+03  0.90576849858E+02 0.  0.
         23    2    4    4    0    0  0.37920960945E+03  0.80117193701E+03 -0.33505965170E+02  0.89186112432E+03  0.92828954560E+02 0.  0.
          1    1    3    3  502    0 -0.32616077340E+03 -0.50336630197E+03 -0.30587912493E+04  0.31170438545E+04  0.00000000000E+00 0. -1.
         -2    1    3    3    0  502 -0.60744255585E+02 -0.11999815735E+03 -0.52567011634E+03  0.54260344043E+03  0.00000000000E+00 0.  1.
         13    1    5    5    0    0  0.36440697774E+02 -0.46535379037E+02 -0.10244286036E+03  0.11827089919E+03  0.00000000000E+00 0. -1.
        -13    1    5    5    0    0 -0.28745278243E+02 -0.13127209865E+03 -0.11400854143E+03  0.17622883540E+03  0.00000000000E+00 0.  1.
          1    1    6    6  503    0  0.19089990411E+02  0.10412868220E+03  0.81906928166E+01  0.10618049557E+03  0.00000000000E+00 0. -1.
         -1    1    6    6    0  503  0.36011961904E+03  0.69704325481E+03 -0.41696657987E+02  0.78568062875E+03  0.00000000000E+00 0.  1.
<mgrwt>
<rscale>  0 0.29632799E+04</rscale>
<asrwt>0</asrwt>
<pdfrwt beam="1">  1        1 0.66772512E+00 0.29632799E+04</pdfrwt>
<pdfrwt beam="2">  1       -2 0.77814574E-01 0.29632799E+04</pdfrwt>
<totfact> 0.51410345E-02</totfact>
</mgrwt>
</event>
<event>
12    5  0.5095719E-008  0.1661182E+04  0.7818608E-02  0.8783819E-01
          1   -1    0    0  501    0  0.00000000000E+00  0.00000000000E+00  0.47899024573E+03  0.47899024573E+03  0.00000000000E+00 0. -1.
         -2   -1    0    0    0  501 -0.00000000000E+00 -0.00000000000E+00 -0.14402829827E+04  0.14402829827E+04  0.00000000000E+00 0.  1.
        -24    2    1    2    0    0 -0.27747502282E+03  0.49639822303E+03 -0.47815716186E+03  0.74722192264E+03  0.79389836372E+02 0.  0.
        254    2    1    2    0    0  0.27747502282E+03 -0.49639822303E+03 -0.48313557506E+03  0.11720513057E+04  0.90381452483E+03 0.  0.
         23    2    4    4    0    0  0.42815338491E+03  0.16364783746E+02  0.11108112170E+02  0.43817701502E+03  0.91063599615E+02 0.  0.
         23    2    4    4    0    0 -0.15067836209E+03 -0.51276300677E+03 -0.49424368723E+03  0.73387429073E+03  0.93084812466E+02 0.  0.
          1    1    3    3  502    0 -0.26831396604E+03  0.47105106624E+03 -0.47368394653E+03  0.71990136309E+03  0.00000000000E+00 0. -1.
         -2    1    3    3    0  502 -0.91610567844E+01  0.25347156791E+02 -0.44732153271E+01  0.27320559551E+02  0.00000000000E+00 0.  1.
         13    1    5    5    0    0  0.42420822109E+03  0.28220440805E+02  0.13904104164E+02  0.42537316821E+03  0.00000000000E+00 0.  1.
        -13    1    5    5    0    0  0.39451638228E+01 -0.11855657059E+02 -0.27959919942E+01  0.12803846809E+02  0.00000000000E+00 0. -1.
          1    1    6    6  503    0 -0.21925694414E+02 -0.34632763867E+02 -0.12064345743E+02  0.42728361153E+02  0.00000000000E+00 0. -1.
         -1    1    6    6    0  503 -0.12875266768E+03 -0.47813024291E+03 -0.48217934148E+03  0.69114592958E+03  0.00000000000E+00 0.  1.
<mgrwt>
<rscale>  0 0.16611821E+04</rscale>
<asrwt>0</asrwt>
<pdfrwt beam="1">  1        1 0.73690807E-01 0.16611821E+04</pdfrwt>
<pdfrwt beam="2">  1       -2 0.22158200E+00 0.16611821E+04</pdfrwt>
<totfact> 0.37903010E+00</totfact>
</mgrwt>
</event>
<event>
12    5  0.5095719E-008  0.1898065E+04  0.7818608E-02  0.8655820E-01
         -2   -1    0    0    0  501 -0.00000000000E+00  0.00000000000E+00  0.35274143787E+03  0.35274143787E+03  0.00000000000E+00 0.  1.
          1   -1    0    0  501    0  0.00000000000E+00 -0.00000000000E+00 -0.25533236990E+04  0.25533236990E+04  0.00000000000E+00 0. -1.
        -24    2    1    2    0    0 -0.65574406785E+02 -0.67293249649E+03 -0.42751764398E+03  0.80477433145E+03  0.88046811371E+02 0.  0.
        254    2    1    2    0    0  0.65574406785E+02  0.67293249649E+03 -0.17730646171E+04  0.21012908054E+04  0.90251136539E+03 0.  0.
         23    2    4    4    0    0  0.87647418452E+02 -0.20252532358E+03 -0.48782824810E+03  0.54337624911E+03  0.92643250181E+02 0.  0.
         23    2    4    4    0    0 -0.22073011668E+02  0.87545782007E+03 -0.12852363690E+04  0.15579145563E+04  0.91387241128E+02 0.  0.
          1    1    3    3  502    0 -0.24411929716E+02 -0.50964853206E+03 -0.35413483458E+03  0.62108699037E+03  0.00000000000E+00 0. -1.
         -2    1    3    3    0  502 -0.41162477069E+02 -0.16328396443E+03 -0.73382809398E+02  0.18368734108E+03  0.00000000000E+00 0.  1.
         13    1    5    5    0    0  0.18597522276E+02 -0.89595726307E+01 -0.94139679487E+01  0.22688423680E+02  0.00000000000E+00 0. -1.
        -13    1    5    5    0    0  0.69049896176E+02 -0.19356575094E+03 -0.47841428015E+03  0.52068782543E+03  0.00000000000E+00 0.  1.
          2    1    6    6  503    0 -0.43969729105E+01  0.71135874112E+03 -0.98083006089E+03  0.12116427693E+04  0.00000000000E+00 0.  1.
         -2    1    6    6    0  503 -0.17676038757E+02  0.16409907895E+03 -0.30440630814E+03  0.34627178703E+03  0.00000000000E+00 0. -1.
<mgrwt>
<rscale>  0 0.18980654E+04</rscale>
<asrwt>0</asrwt>
<pdfrwt beam="1">  1        1 0.39281904E+00 0.18980654E+04</pdfrwt>
<pdfrwt beam="2">  1       -2 0.54267913E-01 0.18980654E+04</pdfrwt>
<totfact> 0.32712385E+00</totfact>
</mgrwt>
</event>
<event>
12    5  0.5095719E-008  0.1124008E+04  0.7818608E-02  0.9182103E-01
         -2   -1    0    0    0  501 -0.00000000000E+00  0.00000000000E+00  0.20462411865E+03  0.20462411865E+03  0.00000000000E+00 0.  1.
          1   -1    0    0  501    0  0.00000000000E+00 -0.00000000000E+00 -0.15435542774E+04  0.15435542774E+04  0.00000000000E+00 0. -1.
        -24    2    1    2    0    0 -0.15499860890E+03 -0.90258554526E+02 -0.18544631412E+03  0.27022111721E+03  0.80361317439E+02 0.  0.
        254    2    1    2    0    0  0.15499860890E+03  0.90258554526E+02 -0.11534838446E+04  0.14779572788E+04  0.90645549413E+03 0.  0.
         23    2    4    4    0    0  0.41967201910E+03  0.17807294777E+03 -0.24957350642E+03  0.52763891902E+03  0.91001733020E+02 0.  0.
         23    2    4    4    0    0 -0.26467341020E+03 -0.87814393240E+02 -0.90391033820E+03  0.95031835982E+03  0.91036826509E+02 0.  0.
          1    1    3    3  502    0 -0.75847296927E+01  0.13990465605E+02 -0.13009452125E+02  0.20554977426E+02  0.00000000000E+00 0. -1.
         -2    1    3    3    0  502 -0.14741387921E+03 -0.10424902013E+03 -0.17243686199E+03  0.24966613979E+03  0.00000000000E+00 0.  1.
         13    1    5    5    0    0  0.41187609357E+03  0.17976910580E+03 -0.22655162084E+03  0.50327376721E+03  0.00000000000E+00 0.  1.
        -13    1    5    5    0    0  0.77959255264E+01 -0.16961580303E+01 -0.23021885581E+02  0.24365151808E+02  0.00000000000E+00 0. -1.
          4    1    6    6  503    0 -0.47852788298E+02 -0.56109960666E+02 -0.20487467974E+03  0.21774262659E+03  0.00000000000E+00 0. -1.
         -4    1    6    6    0  503 -0.21682062190E+03 -0.31704432574E+02 -0.69903565846E+03  0.73257573323E+03  0.00000000000E+00 0.  1.
<mgrwt>
<rscale>  0 0.11240079E+04</rscale>
<asrwt>0</asrwt>
<pdfrwt beam="1">  1        1 0.23746989E+00 0.11240079E+04</pdfrwt>
<pdfrwt beam="2">  1       -2 0.31480634E-01 0.11240079E+04</pdfrwt>
<totfact> 0.49918338E+01</totfact>
</mgrwt>
</event>
<event>
12    5  0.5095719E-008  0.2401805E+04  0.7818608E-02  0.8438828E-01
         -2   -1    0    0    0  501 -0.00000000000E+00  0.00000000000E+00  0.12947961943E+04  0.12947961943E+04  0.00000000000E+00 0.  1.
          1   -1    0    0  501    0  0.00000000000E+00 -0.00000000000E+00 -0.11138172197E+04  0.11138172197E+04  0.00000000000E+00 0. -1.
        -24    2    1    2    0    0  0.44460961233E+03 -0.10340154429E+03 -0.84960676665E+03  0.96711947821E+03  0.71546072316E+02 0.  0.
        254    2    1    2    0    0 -0.44460961233E+03  0.10340154429E+03  0.10305857413E+04  0.14414939357E+04  0.89857009181E+03 0.  0.
         23    2    4    4    0    0 -0.26062035916E+03 -0.36683887256E+03  0.29716786569E+03  0.54664234360E+03  0.89528662365E+02 0.  0.
         23    2    4    4    0    0 -0.18398925317E+03  0.47024041685E+03  0.73341787561E+03  0.89485159215E+03  0.88766529681E+02 0.  0.
          3    1    3    3  502    0  0.14302275403E+03 -0.24475580992E+02 -0.34081203490E+03  0.37041517973E+03  0.00000000000E+00 0. -1.
         -4    1    3    3    0  502  0.30158685830E+03 -0.78925963301E+02 -0.50879473174E+03  0.59670429848E+03  0.00000000000E+00 0.  1.
         13    1    5    5    0    0 -0.89795379720E+02 -0.14120751405E+03  0.16240427183E+03  0.23319073685E+03  0.00000000000E+00 0. -1.
        -13    1    5    5    0    0 -0.17082497944E+03 -0.22563135851E+03  0.13476359386E+03  0.31345160675E+03  0.00000000000E+00 0.  1.
          3    1    6    6  503    0  0.65526930059E+01  0.28640296993E+02  0.24893147824E+02  0.38508092735E+02  0.00000000000E+00 0. -1.
         -3    1    6    6    0  503 -0.19054194618E+03  0.44160011986E+03  0.70852472778E+03  0.85634349942E+03  0.00000000000E+00 0.  1.
<mgrwt>
<rscale>  0 0.24018046E+04</rscale>
<asrwt>0</asrwt>
<pdfrwt beam="1">  1        1 0.17135650E+00 0.24018046E+04</pdfrwt>
<pdfrwt beam="2">  1       -2 0.19919941E+00 0.24018046E+04</pdfrwt>
<totfact> 0.13096672E+00</totfact>
</mgrwt>
</event>
<event>
12    5  0.5095719E-008  0.1135639E+04  0.7818608E-02  0.9171136E-01
         -2   -1    0    0    0  501 -0.00000000000E+00  0.00000000000E+00  0.18733914736E+03  0.18733914736E+03  0.00000000000E+00 0.  1.
          1   -1    0    0  501    0  0.00000000000E+00 -0.00000000000E+00 -0.17210435732E+04  0.17210435732E+04  0.00000000000E+00 0. -1.
        -24    2    1    2    0    0  0.18111176792E+03 -0.41914757756E+02 -0.38000209247E+03  0.42968492741E+03  0.75294270427E+02 0.  0.
        254    2    1    2    0    0 -0.18111176792E+03  0.41914757756E+02 -0.11537023334E+04  0.14786977932E+04  0.90606830322E+03 0.  0.
         23    2    4    4    0    0 -0.25688450048E+03 -0.19716280389E+02 -0.12711447481E+04  0.13002484141E+04  0.91970589723E+02 0.  0.
         23    2    4    4    0    0  0.75772732569E+02  0.61631038145E+02  0.11744241469E+03  0.17844937913E+03  0.92258161044E+02 0.  0.
          1    1    3    3  502    0  0.12055293713E+03 -0.39054976153E+02 -0.32091138468E+03  0.34502524347E+03  0.00000000000E+00 0. -1.
         -2    1    3    3    0  502  0.60558830783E+02 -0.28597816027E+01 -0.59090707796E+02  0.84659683938E+02  0.00000000000E+00 0.  1.
         13    1    5    5    0    0 -0.17834507246E+02 -0.28707954862E+02 -0.13211302692E+03  0.13636740155E+03  0.00000000000E+00 0. -1.
        -13    1    5    5    0    0 -0.23904999324E+03  0.89916744727E+01 -0.11390317212E+04  0.11638810125E+04  0.00000000000E+00 0.  1.
          4    1    6    6  503    0 -0.63470834146E+00 -0.20006786198E+02  0.31918983494E+02  0.37676197472E+02  0.00000000000E+00 0. -1.
         -4    1    6    6    0  503  0.76407440911E+02  0.81637824343E+02  0.85523431193E+02  0.14077318165E+03  0.00000000000E+00 0.  1.
<mgrwt>
<rscale>  0 0.11356387E+04</rscale>
<asrwt>0</asrwt>
<pdfrwt beam="1">  1        1 0.26477594E+00 0.11356387E+04</pdfrwt>
<pdfrwt beam="2">  1       -2 0.28821407E-01 0.11356387E+04</pdfrwt>
<totfact> 0.44484083E+01</totfact>
</mgrwt>
</event>
<event>
12    5  0.5095719E-008  0.1151303E+04  0.7818608E-02  0.9156582E-01
          1   -1    0    0  501    0  0.00000000000E+00  0.00000000000E+00  0.35876111931E+03  0.35876111931E+03  0.00000000000E+00 0. -1.
         -2   -1    0    0    0  501 -0.00000000000E+00 -0.00000000000E+00 -0.92366429324E+03  0.92366429324E+03  0.00000000000E+00 0.  1.
        -24    2    1    2    0    0 -0.62568366587E+02  0.24193000454E+02  0.11230214419E+03  0.15332760690E+03  0.79984258945E+02 0.  0.
        254    2    1    2    0    0  0.62568366587E+02 -0.24193000454E+02 -0.67720531812E+03  0.11290978057E+04  0.90097431155E+03 0.  0.
         23    2    4    4    0    0 -0.75228691082E+02 -0.43963915314E+03 -0.35470600480E+03  0.57703066958E+03  0.90587542529E+02 0.  0.
         23    2    4    4    0    0  0.13779705767E+03  0.41544615268E+03 -0.32249931332E+03  0.55206713607E+03  0.95858128287E+02 0.  0.
          1    1    3    3  502    0 -0.57849166960E+02  0.35984281670E+02  0.12034775265E+03  0.13829308086E+03  0.00000000000E+00 0. -1.
         -2    1    3    3    0  502 -0.47191996273E+01 -0.11791281216E+02 -0.80456084584E+01  0.15034526042E+02  0.00000000000E+00 0.  1.
         13    1    5    5    0    0 -0.68024811212E+02 -0.35760760073E+03 -0.32926724818E+03  0.49084365308E+03  0.00000000000E+00 0.  1.
        -13    1    5    5    0    0 -0.72038798695E+01 -0.82031552404E+02 -0.25438756617E+02  0.86187016500E+02  0.00000000000E+00 0. -1.
          3    1    6    6  503    0  0.34351460967E+02  0.37310942943E+02 -0.12378343723E+02  0.52204910949E+02  0.00000000000E+00 0. -1.
         -3    1    6    6    0  503  0.10344559670E+03  0.37813520974E+03 -0.31012096960E+03  0.49986222512E+03  0.00000000000E+00 0.  1.
<mgrwt>
<rscale>  0 0.11513033E+04</rscale>
<asrwt>0</asrwt>
<pdfrwt beam="1">  1        1 0.55194019E-01 0.11513033E+04</pdfrwt>
<pdfrwt beam="2">  1       -2 0.14210220E+00 0.11513033E+04</pdfrwt>
<totfact> 0.20749179E+01</totfact>
</mgrwt>
</event>
<event>
12    5  0.5095719E-008  0.3551850E+04  0.7818608E-02  0.8101611E-01
         -2   -1    0    0    0  501 -0.00000000000E+00  0.00000000000E+00  0.18331943819E+04  0.18331943819E+04  0.00000000000E+00 0.  1.
          1   -1    0    0  501    0  0.00000000000E+00 -0.00000000000E+00 -0.17204450464E+04  0.17204450464E+04  0.00000000000E+00 0. -1.
        -24    2    1    2    0    0 -0.13540794068E+04  0.88635644477E+03  0.44338871810E+03  0.16801700927E+04  0.84965864600E+02 0.  0.
        254    2    1    2    0    0  0.13540794068E+04 -0.88635644477E+03 -0.33063938267E+03  0.18734693355E+04  0.88397181104E+03 0.  0.
         23    2    4    4    0    0  0.13536802512E+03  0.15225554032E+03  0.41217891312E+02  0.22711293398E+03  0.91515673152E+02 0.  0.
         23    2    4    4    0    0  0.12187113817E+04 -0.10386119851E+04 -0.37185727398E+03  0.16463564015E+04  0.90770487175E+02 0.  0.
          1    1    3    3  502    0 -0.71978805308E+02  0.64247216698E+02  0.41299674344E+02  0.10494911323E+03  0.00000000000E+00 0. -1.
         -2    1    3    3    0  502 -0.12821006015E+04  0.82210922807E+03  0.40208904376E+03  0.15752209795E+04  0.00000000000E+00 0.  1.
         13    1    5    5    0    0  0.81225068819E+02  0.11702087455E+03 -0.12640795990E+02  0.14300764528E+03  0.00000000000E+00 0. -1.
        -13    1    5    5    0    0  0.54142956302E+02  0.35234665767E+02  0.53858687302E+02  0.84105288697E+02  0.00000000000E+00 0.  1.
          2    1    6    6  503    0  0.10236491669E+04 -0.84098700727E+03 -0.28187512650E+03  0.13544631225E+04  0.00000000000E+00 0. -1.
         -2    1    6    6    0  503  0.19506221480E+03 -0.19762497782E+03 -0.89982147479E+02  0.29189327907E+03  0.00000000000E+00 0.  1.
<mgrwt>
<rscale>  0 0.35518503E+04</rscale>
<asrwt>0</asrwt>
<pdfrwt beam="1">  1        1 0.26468385E+00 0.35518503E+04</pdfrwt>
<pdfrwt beam="2">  1       -2 0.28202991E+00 0.35518503E+04</pdfrwt>
<totfact> 0.13482651E-01</totfact>
</mgrwt>
</event>
<event>
12    5  0.5095719E-008  0.2209578E+04  0.7818608E-02  0.8514452E-01
          1   -1    0    0  501    0  0.00000000000E+00  0.00000000000E+00  0.65138603480E+03  0.65138603480E+03  0.00000000000E+00 0. -1.
         -2   -1    0    0    0  501 -0.00000000000E+00 -0.00000000000E+00 -0.18737869875E+04  0.18737869875E+04  0.00000000000E+00 0.  1.
        -24    2    1    2    0    0  0.59828693932E+03  0.57169798087E+03 -0.51195249313E+02  0.83316946040E+03  0.82246903241E+02 0.  0.
        254    2    1    2    0    0 -0.59828693932E+03 -0.57169798087E+03 -0.11712057034E+04  0.16920035619E+04  0.89797962711E+03 0.  0.
         23    2    4    4    0    0 -0.79281478532E+03 -0.39290507947E+03 -0.65402285402E+03  0.11041654203E+04  0.92226332908E+02 0.  0.
         23    2    4    4    0    0  0.19452784600E+03 -0.17879290141E+03 -0.51718284934E+03  0.58783814158E+03  0.90926325039E+02 0.  0.
          1    1    3    3  502    0  0.54055269438E+03  0.54490701999E+03 -0.40327107840E+02  0.76860077509E+03  0.00000000000E+00 0. -1.
         -2    1    3    3    0  502  0.57734244943E+02  0.26790960883E+02 -0.10868141473E+02  0.64568685315E+02  0.00000000000E+00 0.  1.
         13    1    5    5    0    0 -0.19132897386E+03 -0.94960330815E+02 -0.11061848024E+03  0.24054248863E+03  0.00000000000E+00 0.  1.
        -13    1    5    5    0    0 -0.60148581147E+03 -0.29794474865E+03 -0.54340437377E+03  0.86362293166E+03  0.00000000000E+00 0. -1.
          3    1    6    6  503    0  0.11902994799E+03 -0.59117776598E+02 -0.19535005560E+03  0.23627247882E+03  0.00000000000E+00 0. -1.
         -3    1    6    6    0  503  0.75497898011E+02 -0.11967512481E+03 -0.32183279374E+03  0.35156566276E+03  0.00000000000E+00 0.  1.
<mgrwt>
<rscale>  0 0.22095779E+04</rscale>
<asrwt>0</asrwt>
<pdfrwt beam="1">  1        1 0.10021324E+00 0.22095779E+04</pdfrwt>
<pdfrwt beam="2">  1       -2 0.28827492E+00 0.22095779E+04</pdfrwt>
<totfact> 0.90869138E-01</totfact>
</mgrwt>
</event>
<event>
12    5  0.5095719E-008  0.1695318E+04  0.7818608E-02  0.8764039E-01
          1   -1    0    0  501    0  0.00000000000E+00  0.00000000000E+00  0.33939671806E+04  0.33939671806E+04  0.00000000000E+00 0. -1.
         -2   -1    0    0    0  501 -0.00000000000E+00 -0.00000000000E+00 -0.21170677018E+03  0.21170677018E+03  0.00000000000E+00 0.  1.
        -24    2    1    2    0    0  0.95352187089E+02 -0.54451462334E+03  0.59931012790E+03  0.81936608180E+03  0.81239965450E+02 0.  0.
        254    2    1    2    0    0 -0.95352187089E+02  0.54451462334E+03  0.25829502825E+04  0.27863078689E+04  0.88673060406E+03 0.  0.
         23    2    4    4    0    0 -0.35208938117E+03  0.23506449301E+03  0.21324059745E+04  0.21759577395E+04  0.91731104211E+02 0.  0.
         23    2    4    4    0    0  0.25673719408E+03  0.30945013033E+03  0.45054430795E+03  0.61035012949E+03  0.88677715095E+02 0.  0.
          3    1    3    3  502    0 -0.12291064257E+02 -0.10297877337E+03  0.97449123180E+02  0.14230962593E+03  0.00000000000E+00 0. -1.
         -4    1    3    3    0  502  0.10764325135E+03 -0.44153584998E+03  0.50186100472E+03  0.67705645587E+03  0.00000000000E+00 0.  1.
         13    1    5    5    0    0 -0.28286263327E+03  0.22638435938E+03  0.18416061842E+04  0.18769055611E+04  0.00000000000E+00 0. -1.
        -13    1    5    5    0    0 -0.69226747898E+02  0.86801336334E+01  0.29079979031E+03  0.29905217837E+03  0.00000000000E+00 0.  1.
          2    1    6    6  503    0  0.19736370109E+03  0.18883615956E+03  0.25964620398E+03  0.37686559529E+03  0.00000000000E+00 0. -1.
         -2    1    6    6    0  503  0.59373492991E+02  0.12061397077E+03  0.19089810396E+03  0.23348453420E+03  0.00000000000E+00 0.  1.
<mgrwt>
<rscale>  0 0.16953181E+04</rscale>
<asrwt>0</asrwt>
<pdfrwt beam="1">  1        1 0.52214876E+00 0.16953181E+04</pdfrwt>
<pdfrwt beam="2">  1       -2 0.32570275E-01 0.16953181E+04</pdfrwt>
<totfact> 0.22375006E+00</totfact>
</mgrwt>
</event>
<event>
12    5  0.5095719E-008  0.1218791E+04  0.7818608E-02  0.9096566E-01
         -2   -1    0    0    0  501 -0.00000000000E+00  0.00000000000E+00  0.68325642965E+03  0.68325642965E+03  0.00000000000E+00 0.  1.
          1   -1    0    0  501    0  0.00000000000E+00 -0.00000000000E+00 -0.54351863207E+03  0.54351863207E+03  0.00000000000E+00 0. -1.
        -24    2    1    2    0    0  0.17982420628E+03 -0.47835623477E+02 -0.99193093944E+02  0.22563423625E+03  0.80290389498E+02 0.  0.
        254    2    1    2    0    0 -0.17982420628E+03  0.47835623477E+02  0.23893089153E+03  0.10011408255E+04  0.95423791031E+03 0.  0.
         23    2    4    4    0    0  0.25258313329E+03  0.20267898958E+03 -0.17212465783E+03  0.37796109816E+03  0.91382065266E+02 0.  0.
         23    2    4    4    0    0 -0.43240733956E+03 -0.15484336610E+03  0.41105554935E+03  0.62317972731E+03  0.91835355659E+02 0.  0.
          3    1    3    3  502    0  0.14216479077E+03 -0.66313582929E+02 -0.95196840240E+02  0.18349593294E+03  0.00000000000E+00 0. -1.
         -4    1    3    3    0  502  0.37659415509E+02  0.18477959452E+02 -0.39962537035E+01  0.42138303308E+02  0.00000000000E+00 0.  1.
         13    1    5    5    0    0  0.82230675369E+02  0.12405720854E+03 -0.78938273069E+02  0.16847351696E+03  0.00000000000E+00 0.  1.
        -13    1    5    5    0    0  0.17035245792E+03  0.78621781042E+02 -0.93186384758E+02  0.20948758120E+03  0.00000000000E+00 0. -1.
          1    1    6    6  503    0 -0.40873981353E+03 -0.13520218186E+03  0.40646612879E+03  0.59208325343E+03  0.00000000000E+00 0. -1.
         -1    1    6    6    0  503 -0.23667526033E+02 -0.19641184239E+02  0.45894205682E+01  0.31096473883E+02  0.00000000000E+00 0.  1.
<mgrwt>
<rscale>  0 0.12187905E+04</rscale>
<asrwt>0</asrwt>
<pdfrwt beam="1">  1        1 0.83618251E-01 0.12187905E+04</pdfrwt>
<pdfrwt beam="2">  1       -2 0.10511637E+00 0.12187905E+04</pdfrwt>
<totfact> 0.25005101E+01</totfact>
</mgrwt>
</event>
<event>
12    5  0.5095719E-008  0.1331504E+04  0.7818608E-02  0.9004949E-01
          1   -1    0    0  501    0  0.00000000000E+00  0.00000000000E+00  0.79307505460E+03  0.79307505460E+03  0.00000000000E+00 0. -1.
         -2   -1    0    0    0  501 -0.00000000000E+00 -0.00000000000E+00 -0.55886957132E+03  0.55886957132E+03  0.00000000000E+00 0.  1.
        -24    2    1    2    0    0  0.41395601951E+02 -0.12197721116E+03  0.41380691761E+03  0.44079989553E+03  0.80475753696E+02 0.  0.
        254    2    1    2    0    0 -0.41395601951E+02  0.12197721116E+03 -0.17960143433E+03  0.91114473039E+03  0.88393212896E+03 0.  0.
         23    2    4    4    0    0 -0.31809435229E+02 -0.23466473477E+03 -0.40542766809E+03  0.47867697057E+03  0.93170114234E+02 0.  0.
         23    2    4    4    0    0 -0.95861667223E+01  0.35664194593E+03  0.22582623375E+03  0.43246775982E+03  0.93517395420E+02 0.  0.
          1    1    3    3  502    0  0.28973315112E+02 -0.12049070111E+03  0.40905846022E+03  0.42741816283E+03  0.00000000000E+00 0. -1.
         -2    1    3    3    0  502  0.12422286839E+02 -0.14865100552E+01  0.47484573956E+01  0.13381732702E+02  0.00000000000E+00 0.  1.
         13    1    5    5    0    0 -0.56042692091E+02 -0.12654304565E+03 -0.17603155885E+03  0.22392194053E+03  0.00000000000E+00 0.  1.
        -13    1    5    5    0    0  0.24233256862E+02 -0.10812168912E+03 -0.22939610924E+03  0.25475503004E+03  0.00000000000E+00 0. -1.
          1    1    6    6  503    0 -0.27360944234E+02  0.20641200820E+03  0.17764908761E+03  0.27370373897E+03  0.00000000000E+00 0. -1.
         -1    1    6    6    0  503  0.17774777512E+02  0.15022993773E+03  0.48177146141E+02  0.15876402085E+03  0.00000000000E+00 0.  1.
<mgrwt>
<rscale>  0 0.13315037E+04</rscale>
<asrwt>0</asrwt>
<pdfrwt beam="1">  1        1 0.12201155E+00 0.13315037E+04</pdfrwt>
<pdfrwt beam="2">  1       -2 0.85979934E-01 0.13315037E+04</pdfrwt>
<totfact> 0.22601916E+01</totfact>
</mgrwt>
</event>
<event>
12    5  0.5095719E-008  0.1847074E+04  0.7818608E-02  0.8681659E-01
         -2   -1    0    0    0  501 -0.00000000000E+00  0.00000000000E+00  0.77598051230E+03  0.77598051230E+03  0.00000000000E+00 0.  1.
          1   -1    0    0  501    0  0.00000000000E+00 -0.00000000000E+00 -0.10991517491E+04  0.10991517491E+04  0.00000000000E+00 0. -1.
        -24    2    1    2    0    0 -0.10817367062E+03 -0.42506636792E+03 -0.66856377760E+03  0.80358716225E+03  0.79948999092E+02 0.  0.
        254    2    1    2    0    0  0.10817367062E+03  0.42506636792E+03  0.34539254083E+03  0.10715450991E+04  0.91462010257E+03 0.  0.
         23    2    4    4    0    0 -0.15987582931E+03  0.50473008879E+03 -0.90041831392E+02  0.54639424710E+03  0.10063000814E+03 0.  0.
         23    2    4    4    0    0  0.26804949993E+03 -0.79663720864E+02  0.43543437222E+03  0.52515085202E+03  0.89350333149E+02 0.  0.
          3    1    3    3  502    0 -0.81848580180E+02 -0.26590724568E+03 -0.48564773007E+03  0.55969596309E+03  0.00000000000E+00 0. -1.
         -4    1    3    3    0  502 -0.26325090441E+02 -0.15915912225E+03 -0.18291604753E+03  0.24389119915E+03  0.00000000000E+00 0.  1.
         13    1    5    5    0    0 -0.77768951363E+02  0.20572572178E+03  0.11179045834E+02  0.22021819512E+03  0.00000000000E+00 0.  1.
        -13    1    5    5    0    0 -0.82106877944E+02  0.29900436701E+03 -0.10122087723E+03  0.32617605198E+03  0.00000000000E+00 0. -1.
          3    1    6    6  503    0  0.27325783900E+03 -0.74069389643E+02  0.40755786646E+03  0.49624543884E+03  0.00000000000E+00 0. -1.
         -3    1    6    6    0  503 -0.52083390717E+01 -0.55943312210E+01  0.27876505761E+02  0.28905413180E+02  0.00000000000E+00 0.  1.
<mgrwt>
<rscale>  0 0.18470737E+04</rscale>
<asrwt>0</asrwt>
<pdfrwt beam="1">  1        1 0.16910027E+00 0.18470737E+04</pdfrwt>
<pdfrwt beam="2">  1       -2 0.11938162E+00 0.18470737E+04</pdfrwt>
<totfact> 0.56285210E+00</totfact>
</mgrwt>
</event>
<event>
12    5  0.5095719E-008  0.1572017E+04  0.7818608E-02  0.8837926E-01
          1   -1    0    0  501    0  0.00000000000E+00  0.00000000000E+00  0.92165924254E+03  0.92165924254E+03  0.00000000000E+00 0. -1.
         -2   -1    0    0    0  501 -0.00000000000E+00 -0.00000000000E+00 -0.67032322922E+03  0.67032322922E+03  0.00000000000E+00 0.  1.
        -24    2    1    2    0    0 -0.14362794581E+02 -0.35958815584E+03  0.46486577008E+03  0.59236188099E+03  0.72680686365E+02 0.  0.
        254    2    1    2    0    0  0.14362794581E+02  0.35958815584E+03 -0.21352975676E+03  0.99962059077E+03  0.90781960586E+03 0.  0.
         23    2    4    4    0    0 -0.38875583001E+03  0.37754315447E+02  0.62584553596E+02  0.40662350743E+03  0.94177315440E+02 0.  0.
         23    2    4    4    0    0  0.40311862459E+03  0.32183384039E+03 -0.27611431035E+03  0.59299708334E+03  0.96564911621E+02 0.  0.
          1    1    3    3  502    0 -0.10220390417E+02 -0.27939294574E+03  0.40531978507E+03  0.49239110743E+03  0.00000000000E+00 0. -1.
         -2    1    3    3    0  502 -0.41424041642E+01 -0.80195210097E+02  0.59545985012E+02  0.99970773558E+02  0.00000000000E+00 0.  1.
         13    1    5    5    0    0 -0.22503310813E+03 -0.10478331833E+02  0.69648504531E+02  0.23579781461E+03  0.00000000000E+00 0.  1.
        -13    1    5    5    0    0 -0.16372272188E+03  0.48232647280E+02 -0.70639509354E+01  0.17082569282E+03  0.00000000000E+00 0. -1.
          3    1    6    6  503    0  0.39894356847E+03  0.29241320234E+03 -0.26591437800E+03  0.56157983240E+03  0.00000000000E+00 0. -1.
         -3    1    6    6    0  503  0.41750561214E+01  0.29420638053E+02 -0.10199932354E+02  0.31417250947E+02  0.00000000000E+00 0.  1.
<mgrwt>
<rscale>  0 0.15720173E+04</rscale>
<asrwt>0</asrwt>
<pdfrwt beam="1">  1        1 0.14179373E+00 0.15720173E+04</pdfrwt>
<pdfrwt beam="2">  1       -2 0.10312665E+00 0.15720173E+04</pdfrwt>
<totfact> 0.11302071E+01</totfact>
</mgrwt>
</event>
<event>
12    5  0.5095719E-008  0.2328070E+04  0.7818608E-02  0.8466935E-01
          1   -1    0    0  501    0  0.00000000000E+00  0.00000000000E+00  0.76892596220E+03  0.76892596220E+03  0.00000000000E+00 0. -1.
         -2   -1    0    0    0  501 -0.00000000000E+00 -0.00000000000E+00 -0.17621694563E+04  0.17621694563E+04  0.00000000000E+00 0.  1.
        -24    2    1    2    0    0  0.22909349035E+03 -0.36486315755E+03  0.54647432138E+03  0.70142482570E+03  0.88054818812E+02 0.  0.
        254    2    1    2    0    0 -0.22909349035E+03  0.36486315755E+03 -0.15397178155E+04  0.18296705928E+04  0.88958112381E+03 0.  0.
         23    2    4    4    0    0 -0.21288720662E+03  0.12499229683E+03  0.56190170825E+01  0.26313838173E+03  0.90918631627E+02 0.  0.
         23    2    4    4    0    0 -0.16206283724E+02  0.23987086072E+03 -0.15453368326E+04  0.15665322111E+04  0.90313724345E+02 0.  0.
          3    1    3    3  502    0  0.20893318033E+03 -0.34423640393E+03  0.53670521587E+03  0.67097262565E+03  0.00000000000E+00 0. -1.
         -4    1    3    3    0  502  0.20160310016E+02 -0.20626753624E+02  0.97691055098E+01  0.30452200043E+02  0.00000000000E+00 0.  1.
         13    1    5    5    0    0 -0.12612316878E+03  0.22205045898E+02  0.10881786889E+02  0.12852443757E+03  0.00000000000E+00 0.  1.
        -13    1    5    5    0    0 -0.86764037842E+02  0.10278725093E+03 -0.52627698063E+01  0.13461394416E+03  0.00000000000E+00 0. -1.
          3    1    6    6  503    0 -0.71913131133E+01  0.81826499632E+01 -0.27454966538E+03  0.27476569929E+03  0.00000000000E+00 0. -1.
         -3    1    6    6    0  503 -0.90149706104E+01  0.23168821076E+03 -0.12707871672E+04  0.12917665118E+04  0.00000000000E+00 0.  1.
<mgrwt>
<rscale>  0 0.23280703E+04</rscale>
<asrwt>0</asrwt>
<pdfrwt beam="1">  1        1 0.11829630E+00 0.23280703E+04</pdfrwt>
<pdfrwt beam="2">  1       -2 0.27110299E+00 0.23280703E+04</pdfrwt>
<totfact> 0.88830324E-01</totfact>
</mgrwt>
</event>
<event>
12    5  0.5095719E-008  0.1545298E+04  0.7818608E-02  0.8854876E-01
          1   -1    0    0  501    0  0.00000000000E+00  0.00000000000E+00  0.26810680395E+04  0.26810680395E+04  0.00000000000E+00 0. -1.
         -2   -1    0    0    0  501 -0.00000000000E+00 -0.00000000000E+00 -0.22266752430E+03  0.22266752430E+03  0.00000000000E+00 0.  1.
        -24    2    1    2    0    0 -0.58997294613E+02 -0.12820507323E+03  0.17325540717E+04  0.17399614821E+04  0.76191380511E+02 0.  0.
        254    2    1    2    0    0  0.58997294613E+02  0.12820507323E+03  0.72584644355E+03  0.11637740817E+04  0.89866558408E+03 0.  0.
         23    2    4    4    0    0  0.84561712402E+02 -0.21040536255E+03  0.77242231258E+03  0.80991810980E+03  0.88938269704E+02 0.  0.
         23    2    4    4    0    0 -0.25564417789E+02  0.33861043578E+03 -0.46575869031E+02  0.35385597188E+03  0.87944133318E+02 0.  0.
          3    1    3    3  502    0 -0.29217283779E+02 -0.12532048158E+03  0.12919233057E+04  0.12983161019E+04  0.00000000000E+00 0. -1.
         -4    1    3    3    0  502 -0.29780010835E+02 -0.28845916474E+01  0.44063076597E+03  0.44164538018E+03  0.00000000000E+00 0.  1.
         13    1    5    5    0    0  0.14838206050E+02 -0.29174778489E+02  0.37499236648E+02  0.49774821023E+02  0.00000000000E+00 0. -1.
        -13    1    5    5    0    0  0.69723506352E+02 -0.18123058406E+03  0.73492307594E+03  0.76014328878E+03  0.00000000000E+00 0.  1.
          1    1    6    6  503    0  0.28429088699E+02  0.10954304164E+03  0.35693410997E+01  0.11322822639E+03  0.00000000000E+00 0. -1.
         -1    1    6    6    0  503 -0.53993506488E+02  0.22906739414E+03 -0.50145210130E+02  0.24062774549E+03  0.00000000000E+00 0.  1.
<mgrwt>
<rscale>  0 0.15452984E+04</rscale>
<asrwt>0</asrwt>
<pdfrwt beam="1">  1        1 0.41247198E+00 0.15452984E+04</pdfrwt>
<pdfrwt beam="2">  1       -2 0.34256544E-01 0.15452984E+04</pdfrwt>
<totfact> 0.68597276E+00</totfact>
</mgrwt>
</event>
<event>
12    5  0.5095719E-008  0.1739396E+04  0.7818608E-02  0.8739209E-01
         -2   -1    0    0    0  501 -0.00000000000E+00  0.00000000000E+00  0.47778725625E+03  0.47778725625E+03  0.00000000000E+00 0.  1.
          1   -1    0    0  501    0  0.00000000000E+00 -0.00000000000E+00 -0.15830787767E+04  0.15830787767E+04  0.00000000000E+00 0. -1.
        -24    2    1    2    0    0  0.13907893145E+03 -0.14112560878E+03 -0.11161695242E+04  0.11365280744E+04  0.81254357131E+02 0.  0.
        254    2    1    2    0    0 -0.13907893145E+03  0.14112560878E+03  0.10878003814E+02  0.92433795847E+03  0.90278621161E+03 0.  0.
         23    2    4    4    0    0 -0.76428843967E+02  0.77852977032E+02  0.44735183078E+03  0.46963931765E+03  0.92384922803E+02 0.  0.
         23    2    4    4    0    0 -0.62650087482E+02  0.63272631744E+02 -0.43647382696E+03  0.45469864082E+03  0.91175615961E+02 0.  0.
          3    1    3    3  502    0  0.51444895895E+01 -0.54263520430E+02 -0.28917934875E+03  0.29427145829E+03  0.00000000000E+00 0. -1.
         -4    1    3    3    0  502  0.13393444186E+03 -0.86862088346E+02 -0.82699017548E+03  0.84225661615E+03  0.00000000000E+00 0.  1.
         13    1    5    5    0    0 -0.81223666190E+01 -0.21012638151E+02  0.81616923719E+02  0.84668920148E+02  0.00000000000E+00 0.  1.
        -13    1    5    5    0    0 -0.68306477348E+02  0.98865615184E+02  0.36573490706E+03  0.38497039751E+03  0.00000000000E+00 0. -1.
          4    1    6    6  503    0 -0.83799249710E+02  0.34247219983E+02 -0.28532441371E+03  0.29934128914E+03  0.00000000000E+00 0.  1.
         -4    1    6    6    0  503  0.21149162228E+02  0.29025411761E+02 -0.15114941326E+03  0.15535735168E+03  0.00000000000E+00 0. -1.
<mgrwt>
<rscale>  0 0.17393963E+04</rscale>
<asrwt>0</asrwt>
<pdfrwt beam="1">  1        1 0.24355058E+00 0.17393963E+04</pdfrwt>
<pdfrwt beam="2">  1       -2 0.73505733E-01 0.17393963E+04</pdfrwt>
<totfact> 0.79656629E+00</totfact>
</mgrwt>
</event>
<event>
12    5  0.5095719E-008  0.2145543E+04  0.7818608E-02  0.8541443E-01
          1   -1    0    0  501    0  0.00000000000E+00  0.00000000000E+00  0.17309070315E+04  0.17309070315E+04  0.00000000000E+00 0. -1.
         -2   -1    0    0    0  501 -0.00000000000E+00 -0.00000000000E+00 -0.66487600902E+03  0.66487600902E+03  0.00000000000E+00 0.  1.
        -24    2    1    2    0    0 -0.47529039350E+03 -0.72415471284E+03  0.24505424894E+03  0.90371395309E+03  0.79663779733E+02 0.  0.
        254    2    1    2    0    0  0.47529039350E+03  0.72415471284E+03  0.82097677352E+03  0.14920690874E+04  0.89552570744E+03 0.  0.
         23    2    4    4    0    0  0.63951697341E+03  0.41453264881E+03  0.23342042608E+03  0.80204853967E+03  0.89316787182E+02 0.  0.
         23    2    4    4    0    0 -0.16422657991E+03  0.30962206403E+03  0.58755634744E+03  0.69002054775E+03  0.89831524570E+02 0.  0.
          1    1    3    3  502    0 -0.41458257539E+02 -0.55152640442E+02  0.42492391684E+02  0.81032118428E+02  0.00000000000E+00 0. -1.
         -2    1    3    3    0  502 -0.43383213596E+03 -0.66900207240E+03  0.20256185726E+03  0.82268183466E+03  0.00000000000E+00 0.  1.
         13    1    5    5    0    0  0.15201847690E+03  0.63094830677E+02  0.28098118947E+02  0.16697328907E+03  0.00000000000E+00 0. -1.
        -13    1    5    5    0    0  0.48749849651E+03  0.35143781813E+03  0.20532230713E+03  0.63507525060E+03  0.00000000000E+00 0.  1.
          4    1    6    6  503    0 -0.70645344657E+02  0.21713504774E+03  0.40594816065E+03  0.46575991972E+03  0.00000000000E+00 0. -1.
         -4    1    6    6    0  503 -0.93581235254E+02  0.92487016296E+02  0.18160818679E+03  0.22426062803E+03  0.00000000000E+00 0.  1.
<mgrwt>
<rscale>  0 0.21455429E+04</rscale>
<asrwt>0</asrwt>
<pdfrwt beam="1">  1        1 0.26629339E+00 0.21455429E+04</pdfrwt>
<pdfrwt beam="2">  1       -2 0.10228862E+00 0.21455429E+04</pdfrwt>
<totfact> 0.28582672E+00</totfact>
</mgrwt>
</event>
<event>
12    5  0.5095719E-008  0.1212121E+04  0.7818608E-02  0.9102313E-01
          1   -1    0    0  501    0  0.00000000000E+00  0.00000000000E+00  0.19610902844E+04  0.19610902844E+04  0.00000000000E+00 0. -1.
         -2   -1    0    0    0  501 -0.00000000000E+00 -0.00000000000E+00 -0.18729852522E+03  0.18729852522E+03  0.00000000000E+00 0.  1.
        -24    2    1    2    0    0  0.15863572075E+03  0.18505945189E+03  0.55434419825E+03  0.61089825827E+03  0.80541288764E+02 0.  0.
        254    2    1    2    0    0 -0.15863572075E+03 -0.18505945189E+03  0.12194475610E+04  0.15374905514E+04  0.90410870422E+03 0.  0.
         23    2    4    4    0    0 -0.21676794960E+03 -0.36417896750E+03  0.16735924749E+03  0.46485172026E+03  0.91996411656E+02 0.  0.
         23    2    4    4    0    0  0.58132228851E+02  0.17911951562E+03  0.10520883135E+04  0.10726388311E+04  0.90559846541E+02 0.  0.
          1    1    3    3  502    0  0.58916254399E+02  0.36448750344E+02  0.23296684013E+03  0.24304975835E+03  0.00000000000E+00 0. -1.
         -2    1    3    3    0  502  0.99719466350E+02  0.14861070154E+03  0.32137735812E+03  0.36784849992E+03  0.00000000000E+00 0.  1.
         13    1    5    5    0    0 -0.12124093041E+03 -0.24627150770E+03  0.14805528771E+03  0.31188040485E+03  0.00000000000E+00 0.  1.
        -13    1    5    5    0    0 -0.95527019194E+02 -0.11790745980E+03  0.19303959780E+02  0.15297131541E+03  0.00000000000E+00 0. -1.
          1    1    6    6  503    0  0.22433151828E+02  0.90856739475E+01  0.49413382341E+02  0.55022523810E+02  0.00000000000E+00 0. -1.
         -1    1    6    6    0  503  0.35699077023E+02  0.17003384167E+03  0.10026749311E+04  0.10176163073E+04  0.00000000000E+00 0.  1.
<mgrwt>
<rscale>  0 0.12121210E+04</rscale>
<asrwt>0</asrwt>
<pdfrwt beam="1">  1        1 0.30170618E+00 0.12121210E+04</pdfrwt>
<pdfrwt beam="2">  1       -2 0.28815159E-01 0.12121210E+04</pdfrwt>
<totfact> 0.30434318E+01</totfact>
</mgrwt>
</event>
<event>
12    5  0.5095719E-008  0.3098756E+04  0.7818608E-02  0.8216079E-01
          1   -1    0    0  501    0  0.00000000000E+00  0.00000000000E+00  0.22204888113E+04  0.22204888113E+04  0.00000000000E+00 0. -1.
         -2   -1    0    0    0  501 -0.00000000000E+00 -0.00000000000E+00 -0.10811008975E+04  0.10811008975E+04  0.00000000000E+00 0.  1.
        -24    2    1    2    0    0  0.10105926011E+04  0.21206188758E+03  0.15588489554E+04  0.18717464495E+04  0.84599384902E+02 0.  0.
        254    2    1    2    0    0 -0.10105926011E+04 -0.21206188758E+03 -0.41946104160E+03  0.14298432593E+04  0.89567657736E+03 0.  0.
         23    2    4    4    0    0 -0.33990064593E+03  0.62469232069E+02  0.25032232347E+03  0.43884184186E+03  0.10240137929E+03 0.  0.
         23    2    4    4    0    0 -0.67069195513E+03 -0.27453111965E+03 -0.66978336508E+03  0.99100141742E+03  0.90989114077E+02 0.  0.
          1    1    3    3  502    0  0.67966967837E+03  0.16768762262E+03  0.99824946670E+03  0.12192505929E+04  0.00000000000E+00 0. -1.
         -2    1    3    3    0  502  0.33092292268E+03  0.44374264957E+02  0.56059948872E+03  0.65249585661E+03  0.00000000000E+00 0.  1.
         13    1    5    5    0    0 -0.16474999994E+03  0.22262079912E+02  0.18222463861E+03  0.24666572846E+03  0.00000000000E+00 0. -1.
        -13    1    5    5    0    0 -0.17515064600E+03  0.40207152157E+02  0.68097684858E+02  0.19217611340E+03  0.00000000000E+00 0.  1.
          4    1    6    6  503    0 -0.33401606744E+03 -0.18460888602E+03 -0.36374462307E+03  0.52721658255E+03  0.00000000000E+00 0.  1.
         -4    1    6    6    0  503 -0.33667588769E+03 -0.89922233628E+02 -0.30603874201E+03  0.46378483487E+03  0.00000000000E+00 0. -1.
<mgrwt>
<rscale>  0 0.30987562E+04</rscale>
<asrwt>0</asrwt>
<pdfrwt beam="1">  1        1 0.34161366E+00 0.30987562E+04</pdfrwt>
<pdfrwt beam="2">  1       -2 0.16632322E+00 0.30987562E+04</pdfrwt>
<totfact> 0.35455476E-01</totfact>
</mgrwt>
</event>
<event>
12    5  0.5095719E-008  0.1439102E+04  0.7818608E-02  0.8925991E-01
          1   -1    0    0  501    0  0.00000000000E+00  0.00000000000E+00  0.70944263050E+03  0.70944263050E+03  0.00000000000E+00 0. -1.
         -2   -1    0    0    0  501 -0.00000000000E+00 -0.00000000000E+00 -0.72980303202E+03  0.72980303202E+03  0.00000000000E+00 0.  1.
        -24    2    1    2    0    0  0.36818737169E+03 -0.37467803605E+02  0.20441307039E+03  0.43031649265E+03  0.80136156134E+02 0.  0.
        254    2    1    2    0    0 -0.36818737169E+03  0.37467803605E+02 -0.22477347191E+03  0.10089291699E+04  0.91128984366E+03 0.  0.
         23    2    4    4    0    0 -0.73492278868E+02  0.19146875362E+03  0.30317751755E+03  0.37795388990E+03  0.94186713920E+02 0.  0.
         23    2    4    4    0    0 -0.29469509283E+03 -0.15400095002E+03 -0.52795098946E+03  0.63097527997E+03  0.94000352733E+02 0.  0.
          1    1    3    3  502    0  0.19347770056E+03 -0.20624195672E+02  0.61769564673E+02  0.20414322712E+03  0.00000000000E+00 0. -1.
         -2    1    3    3    0  502  0.17470967114E+03 -0.16843607933E+02  0.14264350572E+03  0.22617326553E+03  0.00000000000E+00 0.  1.
         13    1    5    5    0    0 -0.16350120349E+01  0.13052693488E+03  0.15900963490E+03  0.20572801944E+03  0.00000000000E+00 0.  1.
        -13    1    5    5    0    0 -0.71857266833E+02  0.60941818747E+02  0.14416788265E+03  0.17222587046E+03  0.00000000000E+00 0. -1.
          2    1    6    6  503    0 -0.26655458222E+03 -0.14041667294E+03 -0.51601010827E+03  0.59752373943E+03  0.00000000000E+00 0. -1.
         -2    1    6    6    0  503 -0.28140510602E+02 -0.13584277082E+02 -0.11940881190E+02  0.33451540538E+02  0.00000000000E+00 0.  1.
<mgrwt>
<rscale>  0 0.14391016E+04</rscale>
<asrwt>0</asrwt>
<pdfrwt beam="1">  1        1 0.10914502E+00 0.14391016E+04</pdfrwt>
<pdfrwt beam="2">  1       -2 0.11227739E+00 0.14391016E+04</pdfrwt>
<totfact> 0.14201630E+01</totfact>
</mgrwt>
</event>
<event>
12    5  0.5095719E-008  0.1449730E+04  0.7818608E-02  0.8918588E-01
          1   -1    0    0  501    0  0.00000000000E+00  0.00000000000E+00  0.65869324879E+03  0.65869324879E+03  0.00000000000E+00 0. -1.
         -2   -1    0    0    0  501 -0.00000000000E+00 -0.00000000000E+00 -0.79768423714E+03  0.79768423714E+03  0.00000000000E+00 0.  1.
        -24    2    1    2    0    0 -0.17062926190E+03 -0.14884908954E+03  0.33471047814E+03  0.41194037254E+03  0.79958550994E+02 0.  0.
        254    2    1    2    0    0  0.17062926190E+03  0.14884908954E+03 -0.47370146648E+03  0.10444371134E+04  0.90287618643E+03 0.  0.
         23    2    4    4    0    0 -0.14848451202E+03 -0.26789736854E+03  0.17336915541E+02  0.31999124421E+03  0.90978994003E+02 0.  0.
         23    2    4    4    0    0  0.31911377392E+03  0.41674645808E+03 -0.49103838203E+03  0.72444586919E+03  0.90509191462E+02 0.  0.
          1    1    3    3  502    0 -0.16175551651E+03 -0.14949169539E+03  0.27869724378E+03  0.35522495380E+03  0.00000000000E+00 0. -1.
         -2    1    3    3    0  502 -0.88737453920E+01  0.64260584723E+00  0.56013234352E+02  0.56715418734E+02  0.00000000000E+00 0.  1.
         13    1    5    5    0    0 -0.82344510611E+02 -0.20296310412E+03  0.44290487929E+02  0.22346428659E+03  0.00000000000E+00 0. -1.
        -13    1    5    5    0    0 -0.66140001407E+02 -0.64934264418E+02 -0.26953572388E+02  0.96526957613E+02  0.00000000000E+00 0.  1.
          3    1    6    6  503    0  0.28722970550E+03  0.32505941510E+03 -0.37723954643E+03  0.57486885675E+03  0.00000000000E+00 0. -1.
         -3    1    6    6    0  503  0.31884068423E+02  0.91687042977E+02 -0.11379883559E+03  0.14957701244E+03  0.00000000000E+00 0.  1.
<mgrwt>
<rscale>  0 0.14497299E+04</rscale>
<asrwt>0</asrwt>
<pdfrwt beam="1">  1        1 0.10133742E+00 0.14497299E+04</pdfrwt>
<pdfrwt beam="2">  1       -2 0.12272065E+00 0.14497299E+04</pdfrwt>
<totfact> 0.12744427E+01</totfact>
</mgrwt>
</event>
<event>
12    5  0.5095719E-008  0.1273921E+04  0.7818608E-02  0.9050505E-01
         -2   -1    0    0    0  501 -0.00000000000E+00  0.00000000000E+00  0.10217287211E+04  0.10217287211E+04  0.00000000000E+00 0.  1.
          1   -1    0    0  501    0  0.00000000000E+00 -0.00000000000E+00 -0.39709048287E+03  0.39709048287E+03  0.00000000000E+00 0. -1.
        -24    2    1    2    0    0 -0.24664868948E+03 -0.13306887992E+03  0.60970313345E+01  0.29132109677E+03  0.79296310200E+02 0.  0.
        254    2    1    2    0    0  0.24664868948E+03  0.13306887992E+03  0.61854120689E+03  0.11274981072E+04  0.90006436117E+03 0.  0.
         23    2    4    4    0    0  0.17057292609E+03  0.35713492336E+03  0.74192068976E+03  0.84601078081E+03  0.92991691836E+02 0.  0.
         23    2    4    4    0    0  0.76075763382E+02 -0.22406604344E+03 -0.12337948287E+03  0.28148732638E+03  0.89551686317E+02 0.  0.
          3    1    3    3  502    0 -0.12869145836E+03 -0.98275718082E+02 -0.26533462129E+02  0.16408422481E+03  0.00000000000E+00 0. -1.
         -4    1    3    3    0  502 -0.11795723112E+03 -0.34793161839E+02  0.32630493464E+02  0.12723687196E+03  0.00000000000E+00 0.  1.
         13    1    5    5    0    0  0.15658076087E+03  0.23603290978E+03  0.48545907670E+03  0.56204945007E+03  0.00000000000E+00 0.  1.
        -13    1    5    5    0    0  0.13992165219E+02  0.12110201357E+03  0.25646161306E+03  0.28396133073E+03  0.00000000000E+00 0. -1.
          1    1    6    6  503    0  0.94422091078E+02 -0.15455943364E+03 -0.88658377331E+02  0.20165430241E+03  0.00000000000E+00 0. -1.
         -1    1    6    6    0  503 -0.18346327697E+02 -0.69506609799E+02 -0.34721105537E+02  0.79833023965E+02  0.00000000000E+00 0.  1.
<mgrwt>
<rscale>  0 0.12739211E+04</rscale>
<asrwt>0</asrwt>
<pdfrwt beam="1">  1        1 0.61090844E-01 0.12739211E+04</pdfrwt>
<pdfrwt beam="2">  1       -2 0.15718903E+00 0.12739211E+04</pdfrwt>
<totfact> 0.13758537E+01</totfact>
</mgrwt>
</event>
<event>
12    5  0.5095719E-008  0.1846302E+04  0.7818608E-02  0.8682057E-01
          1   -1    0    0  501    0  0.00000000000E+00  0.00000000000E+00  0.29579222690E+03  0.29579222690E+03  0.00000000000E+00 0. -1.
         -2   -1    0    0    0  501 -0.00000000000E+00 -0.00000000000E+00 -0.28811014229E+04  0.28811014229E+04  0.00000000000E+00 0.  1.
        -24    2    1    2    0    0  0.28386023047E+03  0.47186302753E+03 -0.24438443941E+03  0.60864914673E+03  0.86594932829E+02 0.  0.
        254    2    1    2    0    0 -0.28386023047E+03 -0.47186302753E+03 -0.23409247566E+04  0.25682445031E+04  0.90150971395E+03 0.  0.
         23    2    4    4    0    0 -0.37909867700E+00 -0.66142858271E+03 -0.11980330723E+04  0.13715671286E+04  0.91789063473E+02 0.  0.
         23    2    4    4    0    0 -0.28348113180E+03  0.18956555518E+03 -0.11428916843E+04  0.11966773745E+04  0.97666190574E+02 0.  0.
          3    1    3    3  502    0  0.13772566681E+03  0.18070176598E+03 -0.62977889846E+02  0.23577044373E+03  0.00000000000E+00 0. -1.
         -4    1    3    3    0  502  0.14613456366E+03  0.29116126154E+03 -0.18140654957E+03  0.37287870299E+03  0.00000000000E+00 0.  1.
         13    1    5    5    0    0  0.22948589356E+02 -0.42861934264E+02 -0.94820793107E+02  0.10655874421E+03  0.00000000000E+00 0. -1.
        -13    1    5    5    0    0 -0.23327688033E+02 -0.61856664844E+03 -0.11032122792E+04  0.12650083844E+04  0.00000000000E+00 0.  1.
          4    1    6    6  503    0  0.19407508418E+01 -0.54392025774E+01 -0.57252035471E+01  0.81319981655E+01  0.00000000000E+00 0. -1.
         -4    1    6    6    0  503 -0.28542188264E+03  0.19500475776E+03 -0.11371664807E+04  0.11885453763E+04  0.00000000000E+00 0.  1.
<mgrwt>
<rscale>  0 0.18463016E+04</rscale>
<asrwt>0</asrwt>
<pdfrwt beam="1">  1        1 0.45506494E-01 0.18463016E+04</pdfrwt>
<pdfrwt beam="2">  1       -2 0.44324639E+00 0.18463016E+04</pdfrwt>
<totfact> 0.28318348E-01</totfact>
</mgrwt>
</event>
<event>
12    5  0.5095719E-008  0.2443904E+04  0.7818608E-02  0.8423247E-01
          1   -1    0    0  501    0  0.00000000000E+00  0.00000000000E+00  0.31521576148E+04  0.31521576148E+04  0.00000000000E+00 0. -1.
         -2   -1    0    0    0  501 -0.00000000000E+00 -0.00000000000E+00 -0.47369676509E+03  0.47369676509E+03  0.00000000000E+00 0.  1.
        -24    2    1    2    0    0  0.15547319588E+03  0.98022893513E+03  0.16859129854E+04  0.19580124069E+04  0.80556261875E+02 0.  0.
        254    2    1    2    0    0 -0.15547319588E+03 -0.98022893513E+03  0.99254786431E+03  0.16678419730E+04  0.90084677058E+03 0.  0.
         23    2    4    4    0    0 -0.39293185729E+03 -0.11112319320E+03  0.19735233153E+03  0.46245542289E+03  0.90406121808E+02 0.  0.
         23    2    4    4    0    0  0.23745866141E+03 -0.86910574193E+03  0.79519553279E+03  0.12053865501E+04  0.94283579082E+02 0.  0.
          1    1    3    3  502    0  0.14928969641E+03  0.90180779004E+03  0.15067320176E+04  0.17623240555E+04  0.00000000000E+00 0. -1.
         -2    1    3    3    0  502  0.61834994742E+01  0.78421145086E+02  0.17918096779E+03  0.19568835142E+03  0.00000000000E+00 0.  1.
         13    1    5    5    0    0 -0.35167667982E+03 -0.72723704274E+02  0.18791130867E+03  0.40530961525E+03  0.00000000000E+00 0.  1.
        -13    1    5    5    0    0 -0.41255177479E+02 -0.38399488924E+02  0.94410228600E+01  0.57145807642E+02  0.00000000000E+00 0. -1.
          3    1    6    6  503    0  0.10315635117E+03 -0.23200243687E+03  0.24721841873E+03  0.35437735546E+03  0.00000000000E+00 0. -1.
         -3    1    6    6    0  503  0.13430231024E+03 -0.63710330506E+03  0.54797711406E+03  0.85100919465E+03  0.00000000000E+00 0.  1.
<mgrwt>
<rscale>  0 0.24439041E+04</rscale>
<asrwt>0</asrwt>
<pdfrwt beam="1">  1        1 0.48494731E+00 0.24439041E+04</pdfrwt>
<pdfrwt beam="2">  1       -2 0.72876427E-01 0.24439041E+04</pdfrwt>
<totfact> 0.61673787E-01</totfact>
</mgrwt>
</event>
<event>
12    5  0.5095719E-008  0.2644482E+04  0.7818608E-02  0.8353247E-01
         -2   -1    0    0    0  501 -0.00000000000E+00  0.00000000000E+00  0.13380628191E+04  0.13380628191E+04  0.00000000000E+00 0.  1.
          1   -1    0    0  501    0  0.00000000000E+00 -0.00000000000E+00 -0.13066066437E+04  0.13066066437E+04  0.00000000000E+00 0. -1.
        -24    2    1    2    0    0  0.57496284172E+03  0.18042198183E+03  0.10166698814E+04  0.11846488819E+04  0.81492114622E+02 0.  0.
        254    2    1    2    0    0 -0.57496284172E+03 -0.18042198183E+03 -0.98521370604E+03  0.14600205808E+04  0.89324111462E+03 0.  0.
         23    2    4    4    0    0 -0.24455516469E+03 -0.15153262034E+03 -0.10654473697E+04  0.11068136535E+04  0.84196212843E+02 0.  0.
         23    2    4    4    0    0 -0.33040767704E+03 -0.28889361496E+02  0.80233663704E+02  0.35320692729E+03  0.91180395047E+02 0.  0.
          3    1    3    3  502    0  0.99794889395E+02  0.81832095119E+01  0.21126735436E+03  0.23379452493E+03  0.00000000000E+00 0. -1.
         -4    1    3    3    0  502  0.47516795233E+03  0.17223877232E+03  0.80540252707E+03  0.95085435700E+03  0.00000000000E+00 0.  1.
         13    1    5    5    0    0 -0.11268346050E+03 -0.11580625486E+03 -0.63297386268E+03  0.65327219577E+03  0.00000000000E+00 0.  1.
        -13    1    5    5    0    0 -0.13187170419E+03 -0.35726365478E+02 -0.43247350707E+03  0.45354145772E+03  0.00000000000E+00 0. -1.
          4    1    6    6  503    0 -0.16004339545E+02  0.20151609349E+02  0.73274146405E+01  0.26756630000E+02  0.00000000000E+00 0. -1.
         -4    1    6    6    0  503 -0.31440333749E+03 -0.49040970845E+02  0.72906249064E+02  0.32645029729E+03  0.00000000000E+00 0.  1.
<mgrwt>
<rscale>  0 0.26444824E+04</rscale>
<asrwt>0</asrwt>
<pdfrwt beam="1">  1        1 0.20101641E+00 0.26444824E+04</pdfrwt>
<pdfrwt beam="2">  1       -2 0.20585582E+00 0.26444824E+04</pdfrwt>
<totfact> 0.83923083E-01</totfact>
</mgrwt>
</event>
<event>
12    5  0.5095719E-008  0.1295288E+04  0.7818608E-02  0.9033310E-01
          1   -1    0    0  501    0  0.00000000000E+00  0.00000000000E+00  0.50360925008E+03  0.50360925008E+03  0.00000000000E+00 0. -1.
         -2   -1    0    0    0  501 -0.00000000000E+00 -0.00000000000E+00 -0.83287295875E+03  0.83287295875E+03  0.00000000000E+00 0.  1.
        -24    2    1    2    0    0 -0.28222823885E+03  0.15086378354E+03 -0.92978040561E+02  0.34246133369E+03  0.78880853540E+02 0.  0.
        254    2    1    2    0    0  0.28222823885E+03 -0.15086378354E+03 -0.23628566812E+03  0.99402087514E+03  0.91095220691E+03 0.  0.
         23    2    4    4    0    0  0.40459527900E+03  0.32155259736E+02  0.22637937512E+03  0.47362113080E+03  0.91312942884E+02 0.  0.
         23    2    4    4    0    0 -0.12236704015E+03 -0.18301904328E+03 -0.46266504324E+03  0.52039974434E+03  0.91034548156E+02 0.  0.
          1    1    3    3  502    0 -0.24385012876E+03  0.10966425783E+03 -0.10053573698E+03  0.28565113190E+03  0.00000000000E+00 0. -1.
         -2    1    3    3    0  502 -0.38378110086E+02  0.41199525710E+02  0.75576964141E+01  0.56810201791E+02  0.00000000000E+00 0.  1.
         13    1    5    5    0    0  0.96124849785E+02  0.44861912194E+02  0.42476252064E+02  0.11426639883E+03  0.00000000000E+00 0. -1.
        -13    1    5    5    0    0  0.30847042922E+03 -0.12706652458E+02  0.18390312306E+03  0.35935473197E+03  0.00000000000E+00 0.  1.
          2    1    6    6  503    0  0.66873071019E+01 -0.13525593410E+02 -0.55422443092E+01  0.16074147734E+02  0.00000000000E+00 0. -1.
         -2    1    6    6    0  503 -0.12905434725E+03 -0.16949344987E+03 -0.45712279893E+03  0.50432559661E+03  0.00000000000E+00 0.  1.
<mgrwt>
<rscale>  0 0.12952877E+04</rscale>
<asrwt>0</asrwt>
<pdfrwt beam="1">  1        1 0.77478348E-01 0.12952877E+04</pdfrwt>
<pdfrwt beam="2">  1       -2 0.12813430E+00 0.12952877E+04</pdfrwt>
<totfact> 0.16983287E+01</totfact>
</mgrwt>
</event>
<event>
12    5  0.5095719E-008  0.1219680E+04  0.7818608E-02  0.9095803E-01
          1   -1    0    0  501    0  0.00000000000E+00  0.00000000000E+00  0.36985091081E+03  0.36985091081E+03  0.00000000000E+00 0. -1.
         -2   -1    0    0    0  501 -0.00000000000E+00 -0.00000000000E+00 -0.10055531981E+04  0.10055531981E+04  0.00000000000E+00 0.  1.
        -24    2    1    2    0    0 -0.81962749946E+02  0.67805221801E+02  0.13028410635E+03  0.18623361158E+03  0.79959797599E+02 0.  0.
        254    2    1    2    0    0  0.81962749946E+02 -0.67805221801E+02 -0.76598639362E+03  0.11891704973E+04  0.90336918033E+03 0.  0.
         23    2    4    4    0    0  0.20616351818E+03  0.24282135843E+03 -0.77458015975E+03  0.84246731153E+03  0.91165447284E+02 0.  0.
         23    2    4    4    0    0 -0.12420076823E+03 -0.31062658023E+03  0.85937661345E+01  0.34670318578E+03  0.90634116308E+02 0.  0.
          3    1    3    3  502    0 -0.97859390788E+02  0.56210638508E+02  0.10455630830E+03  0.15384445993E+03  0.00000000000E+00 0. -1.
         -4    1    3    3    0  502  0.15896640842E+02  0.11594583293E+02  0.25727798053E+02  0.32389151648E+02  0.00000000000E+00 0.  1.
         13    1    5    5    0    0  0.22957304866E+02 -0.21863372806E+01 -0.32981330297E+02  0.40244081125E+02  0.00000000000E+00 0. -1.
        -13    1    5    5    0    0  0.18320621331E+03  0.24500769571E+03 -0.74159882945E+03  0.80222323040E+03  0.00000000000E+00 0.  1.
          3    1    6    6  503    0 -0.48075705846E+02 -0.35580404354E+02  0.13329901867E+02  0.61277442426E+02  0.00000000000E+00 0. -1.
         -3    1    6    6    0  503 -0.76125062386E+02 -0.27504617587E+03 -0.47361357325E+01  0.28542574335E+03  0.00000000000E+00 0.  1.
<mgrwt>
<rscale>  0 0.12196799E+04</rscale>
<asrwt>0</asrwt>
<pdfrwt beam="1">  1        1 0.56900140E-01 0.12196799E+04</pdfrwt>
<pdfrwt beam="2">  1       -2 0.15470049E+00 0.12196799E+04</pdfrwt>
<totfact> 0.15843768E+01</totfact>
</mgrwt>
</event>
<event>
12    5  0.5095719E-008  0.1639261E+04  0.7818608E-02  0.8796785E-01
          1   -1    0    0  501    0  0.00000000000E+00  0.00000000000E+00  0.32801506497E+04  0.32801506497E+04  0.00000000000E+00 0. -1.
         -2   -1    0    0    0  501 -0.00000000000E+00 -0.00000000000E+00 -0.20480580491E+03  0.20480580491E+03  0.00000000000E+00 0.  1.
        -24    2    1    2    0    0  0.27441026325E+03  0.21174606762E+03  0.11823510432E+03  0.37526693841E+03  0.81904489774E+02 0.  0.
        254    2    1    2    0    0 -0.27441026325E+03 -0.21174606762E+03  0.29571097405E+04  0.31096895162E+04  0.89751516995E+03 0.  0.
         23    2    4    4    0    0 -0.27489067694E+03 -0.12418387609E+03  0.29713175963E+04  0.29880322303E+04  0.92853819331E+02 0.  0.
         23    2    4    4    0    0  0.48041369385E+00 -0.87562191532E+02 -0.14207855819E+02  0.12165728593E+03  0.83254212330E+02 0.  0.
          1    1    3    3  502    0  0.38369414716E+01  0.50904737852E+01 -0.96590190392E+01  0.11572886071E+02  0.00000000000E+00 0. -1.
         -2    1    3    3    0  502  0.27057332177E+03  0.20665559384E+03  0.12789412336E+03  0.36369405234E+03  0.00000000000E+00 0.  1.
         13    1    5    5    0    0 -0.45871782853E+02 -0.44090431660E+02  0.37058485521E+03  0.37600707644E+03  0.00000000000E+00 0.  1.
        -13    1    5    5    0    0 -0.22901889409E+03 -0.80093444430E+02  0.26007327411E+04  0.26120251539E+04  0.00000000000E+00 0. -1.
          1    1    6    6  503    0 -0.34560758468E+02 -0.73894979676E+02 -0.36462839352E+00  0.81578471431E+02  0.00000000000E+00 0. -1.
         -1    1    6    6    0  503  0.35041172162E+02 -0.13667211856E+02 -0.13843227426E+02  0.40078814503E+02  0.00000000000E+00 0.  1.
<mgrwt>
<rscale>  0 0.16392607E+04</rscale>
<asrwt>0</asrwt>
<pdfrwt beam="1">  1        1 0.50463852E+00 0.16392607E+04</pdfrwt>
<pdfrwt beam="2">  1       -2 0.31508588E-01 0.16392607E+04</pdfrwt>
<totfact> 0.29250201E+00</totfact>
</mgrwt>
</event>
<event>
12    5  0.5095719E-008  0.1521387E+04  0.7818608E-02  0.8870354E-01
          1   -1    0    0  501    0  0.00000000000E+00  0.00000000000E+00  0.68136150750E+03  0.68136150750E+03  0.00000000000E+00 0. -1.
         -2   -1    0    0    0  501 -0.00000000000E+00 -0.00000000000E+00 -0.84926263289E+03  0.84926263289E+03  0.00000000000E+00 0.  1.
        -24    2    1    2    0    0 -0.90745573187E+02 -0.36081919334E+03  0.27271454040E+03  0.46835571643E+03  0.80985228478E+02 0.  0.
        254    2    1    2    0    0  0.90745573187E+02  0.36081919334E+03 -0.44061566579E+03  0.10622684240E+04  0.89210245502E+03 0.  0.
         23    2    4    4    0    0  0.46944877319E+03  0.91065462837E+02 -0.16201236799E+03  0.51279737579E+03  0.89655295819E+02 0.  0.
         23    2    4    4    0    0 -0.37870320000E+03  0.26975373050E+03 -0.27860329780E+03  0.54947104816E+03  0.90085772544E+02 0.  0.
          3    1    3    3  502    0 -0.49499131542E+02 -0.22355455644E+03  0.11848235425E+03  0.25780781989E+03  0.00000000000E+00 0. -1.
         -2    1    3    3    0  502 -0.41246441645E+02 -0.13726463690E+03  0.15423218615E+03  0.21054789654E+03  0.00000000000E+00 0.  1.
         13    1    5    5    0    0  0.44940647877E+03  0.65821728850E+02 -0.15381037363E+03  0.47953760456E+03  0.00000000000E+00 0. -1.
        -13    1    5    5    0    0  0.20042294420E+02  0.25243733987E+02 -0.82019943661E+01  0.33259771238E+02  0.00000000000E+00 0.  1.
          3    1    6    6  503    0 -0.25505963804E+03  0.13286060159E+03 -0.19119384560E+03  0.34534395174E+03  0.00000000000E+00 0. -1.
         -3    1    6    6    0  503 -0.12364356196E+03  0.13689312892E+03 -0.87409452196E+02  0.20412709642E+03  0.00000000000E+00 0.  1.
<mgrwt>
<rscale>  0 0.15213874E+04</rscale>
<asrwt>0</asrwt>
<pdfrwt beam="1">  1        1 0.10482485E+00 0.15213874E+04</pdfrwt>
<pdfrwt beam="2">  1       -2 0.13065579E+00 0.15213874E+04</pdfrwt>
<totfact> 0.10285689E+01</totfact>
</mgrwt>
</event>
<event>
12    5  0.5095719E-008  0.1650280E+04  0.7818608E-02  0.8790241E-01
          1   -1    0    0  501    0  0.00000000000E+00  0.00000000000E+00  0.21776232553E+04  0.21776232553E+04  0.00000000000E+00 0. -1.
         -2   -1    0    0    0  501 -0.00000000000E+00 -0.00000000000E+00 -0.31265996646E+03  0.31265996646E+03  0.00000000000E+00 0.  1.
        -24    2    1    2    0    0  0.26962037646E+02 -0.52545283266E+03  0.29762620883E+03  0.60923246959E+03  0.75863106966E+02 0.  0.
        254    2    1    2    0    0 -0.26962037646E+02  0.52545283266E+03  0.15673370800E+04  0.18810507522E+04  0.89720609618E+03 0.  0.
         23    2    4    4    0    0 -0.16819300697E+03  0.12944954232E+03 -0.24717604994E+02  0.23180709864E+03  0.89874909620E+02 0.  0.
         23    2    4    4    0    0  0.14123096933E+03  0.39600329034E+03  0.15920546850E+04  0.16492436535E+04  0.92745436535E+02 0.  0.
          3    1    3    3  502    0 -0.22575872676E+01 -0.21612365965E+02 -0.27776515801E+01  0.21906766333E+02  0.00000000000E+00 0. -1.
         -4    1    3    3    0  502  0.29219624914E+02 -0.50384046670E+03  0.30040386041E+03  0.58732570326E+03  0.00000000000E+00 0.  1.
         13    1    5    5    0    0  0.50052878798E+01  0.27765133625E+02  0.53851368661E+01  0.28722034242E+02  0.00000000000E+00 0.  1.
        -13    1    5    5    0    0 -0.17319829485E+03  0.10168440870E+03 -0.30102741861E+02  0.20308506439E+03  0.00000000000E+00 0. -1.
          4    1    6    6  503    0  0.60068478247E+02  0.66839428426E+02  0.39603480965E+03  0.40610257538E+03  0.00000000000E+00 0.  1.
         -4    1    6    6    0  503  0.81162491081E+02  0.32916386191E+03  0.11960198754E+04  0.12431410782E+04  0.00000000000E+00 0. -1.
<mgrwt>
<rscale>  0 0.16502795E+04</rscale>
<asrwt>0</asrwt>
<pdfrwt beam="1">  1        1 0.33501895E+00 0.16502795E+04</pdfrwt>
<pdfrwt beam="2">  1       -2 0.48101535E-01 0.16502795E+04</pdfrwt>
<totfact> 0.77574523E+00</totfact>
</mgrwt>
</event>
<event>
12    5  0.5095719E-008  0.2030816E+04  0.7818608E-02  0.8592347E-01
          1   -1    0    0  501    0  0.00000000000E+00  0.00000000000E+00  0.70951183301E+03  0.70951183301E+03  0.00000000000E+00 0. -1.
         -2   -1    0    0    0  501 -0.00000000000E+00 -0.00000000000E+00 -0.14531868565E+04  0.14531868565E+04  0.00000000000E+00 0.  1.
        -24    2    1    2    0    0 -0.61865849338E+03  0.44117530949E+03 -0.65470615627E+03  0.10068529530E+04  0.87970067206E+02 0.  0.
        254    2    1    2    0    0  0.61865849338E+03 -0.44117530949E+03 -0.88968867236E+02  0.11558457366E+04  0.86642363902E+03 0.  0.
         23    2    4    4    0    0 -0.17111056466E+03  0.48934443070E+02 -0.97903400565E+02  0.22195173066E+03  0.89465579093E+02 0.  0.
         23    2    4    4    0    0  0.78976905804E+03 -0.49010975256E+03  0.89345333287E+01  0.93389400590E+03  0.90196750394E+02 0.  0.
          3    1    3    3  502    0 -0.22937164315E+02  0.41245530217E+02 -0.34788465172E+02  0.58630577165E+02  0.00000000000E+00 0. -1.
         -4    1    3    3    0  502 -0.59572132906E+03  0.39992977927E+03 -0.61991769110E+03  0.94822237581E+03  0.00000000000E+00 0.  1.
         13    1    5    5    0    0 -0.34428911901E+02  0.33253956064E+02  0.77452365860E+01  0.48488805495E+02  0.00000000000E+00 0.  1.
        -13    1    5    5    0    0 -0.13668165276E+03  0.15680487006E+02 -0.10564863715E+03  0.17346292516E+03  0.00000000000E+00 0. -1.
          2    1    6    6  503    0  0.74606652654E+03 -0.48416403215E+03  0.30959827425E+01  0.88940410228E+03  0.00000000000E+00 0. -1.
         -2    1    6    6    0  503  0.43702531503E+02 -0.59457204045E+01  0.58385505862E+01  0.44489903617E+02  0.00000000000E+00 0.  1.
<mgrwt>
<rscale>  0 0.20308159E+04</rscale>
<asrwt>0</asrwt>
<pdfrwt beam="1">  1        1 0.10915567E+00 0.20308159E+04</pdfrwt>
<pdfrwt beam="2">  1       -2 0.22356721E+00 0.20308159E+04</pdfrwt>
<totfact> 0.20287026E+00</totfact>
</mgrwt>
</event>
<event>
12    5  0.5095719E-008  0.1953956E+04  0.7818608E-02  0.8628456E-01
          1   -1    0    0  501    0  0.00000000000E+00  0.00000000000E+00  0.63344856175E+03  0.63344856175E+03  0.00000000000E+00 0. -1.
         -2   -1    0    0    0  501 -0.00000000000E+00 -0.00000000000E+00 -0.15068084869E+04  0.15068084869E+04  0.00000000000E+00 0.  1.
        -24    2    1    2    0    0  0.87226411135E+02 -0.31759773022E+03 -0.11073919890E+04  0.11581181947E+04  0.80274344667E+02 0.  0.
        254    2    1    2    0    0 -0.87226411135E+02  0.31759773022E+03  0.23403206390E+03  0.98213885396E+03  0.89518096298E+03 0.  0.
         23    2    4    4    0    0 -0.42601875033E+03 -0.57469929260E+02  0.94061623797E+02  0.44940185912E+03  0.91212244306E+02 0.  0.
         23    2    4    4    0    0  0.33879233919E+03  0.37506765948E+03  0.13997044010E+03  0.53273699484E+03  0.93600124378E+02 0.  0.
          3    1    3    3  502    0  0.68199539752E+02 -0.12393945210E+03 -0.39246273385E+03  0.41718001207E+03  0.00000000000E+00 0. -1.
         -2    1    3    3    0  502  0.19026871383E+02 -0.19365827812E+03 -0.71492925519E+03  0.74093818261E+03  0.00000000000E+00 0.  1.
         13    1    5    5    0    0 -0.99721087042E+02  0.23237687362E+02  0.34403194641E+02  0.10801789257E+03  0.00000000000E+00 0. -1.
        -13    1    5    5    0    0 -0.32629766329E+03 -0.80707616621E+02  0.59658429156E+02  0.34138396655E+03  0.00000000000E+00 0.  1.
          2    1    6    6  503    0  0.59458412389E+02  0.12555235683E+03  0.48924948198E+02  0.14728322262E+03  0.00000000000E+00 0. -1.
         -2    1    6    6    0  503  0.27933392680E+03  0.24951530265E+03  0.91045491903E+02  0.38545377222E+03  0.00000000000E+00 0.  1.
<mgrwt>
<rscale>  0 0.19539556E+04</rscale>
<asrwt>0</asrwt>
<pdfrwt beam="1">  1        1 0.97453625E-01 0.19539556E+04</pdfrwt>
<pdfrwt beam="2">  1       -2 0.23181669E+00 0.19539556E+04</pdfrwt>
<totfact> 0.21483413E+00</totfact>
</mgrwt>
</event>
<event>
12    5  0.5095719E-008  0.3021948E+04  0.7818608E-02  0.8237491E-01
         -2   -1    0    0    0  501 -0.00000000000E+00  0.00000000000E+00  0.22497966464E+04  0.22497966464E+04  0.00000000000E+00 0.  1.
          1   -1    0    0  501    0  0.00000000000E+00 -0.00000000000E+00 -0.10147775580E+04  0.10147775580E+04  0.00000000000E+00 0. -1.
        -24    2    1    2    0    0 -0.69685731772E+02  0.11528721743E+04 -0.24097795866E+03  0.11824216505E+04  0.77975839970E+02 0.  0.
        254    2    1    2    0    0  0.69685731772E+02 -0.11528721743E+04  0.14759970471E+04  0.20821525539E+04  0.90709515657E+03 0.  0.
         23    2    4    4    0    0 -0.53415246581E+01  0.12944586475E+03  0.64266279731E+02  0.17129617602E+03  0.91801205994E+02 0.  0.
         23    2    4    4    0    0  0.75027256430E+02 -0.12823180390E+04  0.14117307674E+04  0.19108563779E+04  0.91758894713E+02 0.  0.
          1    1    3    3  502    0 -0.19995014804E+02  0.68714609760E+03 -0.17560857292E+03  0.70951246004E+03  0.00000000000E+00 0. -1.
         -2    1    3    3    0  502 -0.49690716968E+02  0.46572607667E+03 -0.65369385735E+02  0.47290919047E+03  0.00000000000E+00 0.  1.
         13    1    5    5    0    0  0.69888945556E+01  0.45055574573E+02 -0.21441772322E+02  0.50384511980E+02  0.00000000000E+00 0. -1.
        -13    1    5    5    0    0 -0.12330419214E+02  0.84390290180E+02  0.85708052052E+02  0.12091166404E+03  0.00000000000E+00 0.  1.
          1    1    6    6  503    0  0.32948132888E+02 -0.68054251237E+03  0.68137878227E+03  0.96358743014E+03  0.00000000000E+00 0. -1.
         -1    1    6    6    0  503  0.42079123542E+02 -0.60177552666E+03  0.73035198513E+03  0.94726894772E+03  0.00000000000E+00 0.  1.
<mgrwt>
<rscale>  0 0.30219485E+04</rscale>
<asrwt>0</asrwt>
<pdfrwt beam="1">  1        1 0.15611962E+00 0.30219485E+04</pdfrwt>
<pdfrwt beam="2">  1       -2 0.34612256E+00 0.30219485E+04</pdfrwt>
<totfact> 0.18071451E-01</totfact>
</mgrwt>
</event>
<event>
12    5  0.5095719E-008  0.2005630E+04  0.7818608E-02  0.8603993E-01
         -2   -1    0    0    0  501 -0.00000000000E+00  0.00000000000E+00  0.12261701089E+04  0.12261701089E+04  0.00000000000E+00 0.  1.
          1   -1    0    0  501    0  0.00000000000E+00 -0.00000000000E+00 -0.82014513282E+03  0.82014513282E+03  0.00000000000E+00 0. -1.
        -24    2    1    2    0    0  0.75963316257E+03  0.20121127820E+03  0.30599233325E+03  0.84745812985E+03  0.83817979524E+02 0.  0.
        254    2    1    2    0    0 -0.75963316257E+03 -0.20121127820E+03  0.10003264279E+03  0.11988571118E+04  0.89984627845E+03 0.  0.
         23    2    4    4    0    0 -0.94774525408E+03 -0.99543442218E+02  0.37301873989E+02  0.95804463269E+03  0.91258560702E+02 0.  0.
         23    2    4    4    0    0  0.18811209151E+03 -0.10166783599E+03  0.62730768805E+02  0.24081247915E+03  0.91285228324E+02 0.  0.
          1    1    3    3  502    0  0.14631673345E+03  0.20753040885E+02  0.88014325788E+02  0.17200522299E+03  0.00000000000E+00 0. -1.
         -2    1    3    3    0  502  0.61331642912E+03  0.18045823732E+03  0.21797800746E+03  0.67545290686E+03  0.00000000000E+00 0.  1.
         13    1    5    5    0    0 -0.39678738948E+02 -0.23381049771E+02  0.94991975398E+00  0.46064934174E+02  0.00000000000E+00 0.  1.
        -13    1    5    5    0    0 -0.90806651513E+03 -0.76162392446E+02  0.36351954235E+02  0.91197969852E+03  0.00000000000E+00 0. -1.
          3    1    6    6  503    0  0.15519574681E+03 -0.10956478860E+03  0.75784602138E+02  0.20453231689E+03  0.00000000000E+00 0. -1.
         -3    1    6    6    0  503  0.32916344701E+02  0.78969526115E+01 -0.13053833333E+02  0.36280162261E+02  0.00000000000E+00 0.  1.
<mgrwt>
<rscale>  0 0.20056295E+04</rscale>
<asrwt>0</asrwt>
<pdfrwt beam="1">  1        1 0.12617617E+00 0.20056295E+04</pdfrwt>
<pdfrwt beam="2">  1       -2 0.18864156E+00 0.20056295E+04</pdfrwt>
<totfact> 0.27301105E+00</totfact>
</mgrwt>
</event>
<event>
12    5  0.5095719E-008  0.1054418E+04  0.7818608E-02  0.9250794E-01
          1   -1    0    0  501    0  0.00000000000E+00  0.00000000000E+00  0.83659056284E+03  0.83659056284E+03  0.00000000000E+00 0. -1.
         -2   -1    0    0    0  501 -0.00000000000E+00 -0.00000000000E+00 -0.33224064955E+03  0.33224064955E+03  0.00000000000E+00 0.  1.
        -24    2    1    2    0    0 -0.88048959018E+02  0.55130077822E+02  0.11431726378E+03  0.17442889010E+03  0.81025034639E+02 0.  0.
        254    2    1    2    0    0  0.88048959018E+02 -0.55130077822E+02  0.39003264951E+03  0.99440232229E+03  0.90880061963E+03 0.  0.
         23    2    4    4    0    0 -0.11912878756E+03  0.18724406221E+03 -0.20371688707E+03  0.31456601601E+03  0.90549442254E+02 0.  0.
         23    2    4    4    0    0  0.20717774658E+03 -0.24237414003E+03  0.59374953658E+03  0.67983630628E+03  0.89280729842E+02 0.  0.
          3    1    3    3  502    0 -0.10057351178E+03  0.52804073063E+02  0.11503833788E+03  0.16166978872E+03  0.00000000000E+00 0. -1.
         -4    1    3    3    0  502  0.12524552761E+02  0.23260047590E+01 -0.72107410256E+00  0.12759101374E+02  0.00000000000E+00 0.  1.
         13    1    5    5    0    0 -0.89034209261E+02  0.56447127268E+02 -0.92981484148E+02  0.14056644333E+03  0.00000000000E+00 0.  1.
        -13    1    5    5    0    0 -0.30094578301E+02  0.13079693494E+03 -0.11073540292E+03  0.17399957268E+03  0.00000000000E+00 0. -1.
          1    1    6    6  503    0  0.13349519539E+03 -0.21159090351E+03  0.42556729274E+03  0.49365898988E+03  0.00000000000E+00 0. -1.
         -1    1    6    6    0  503  0.73682551190E+02 -0.30783236524E+02  0.16818224384E+03  0.18617731640E+03  0.00000000000E+00 0.  1.
<mgrwt>
<rscale>  0 0.10544181E+04</rscale>
<asrwt>0</asrwt>
<pdfrwt beam="1">  1        1 0.12870624E+00 0.10544181E+04</pdfrwt>
<pdfrwt beam="2">  1       -2 0.51113947E-01 0.10544181E+04</pdfrwt>
<totfact> 0.65128399E+01</totfact>
</mgrwt>
</event>
<event>
12    5  0.5095719E-008  0.1891551E+04  0.7818608E-02  0.8659073E-01
         -2   -1    0    0    0  501 -0.00000000000E+00  0.00000000000E+00  0.40921118117E+03  0.40921118117E+03  0.00000000000E+00 0.  1.
          1   -1    0    0  501    0  0.00000000000E+00 -0.00000000000E+00 -0.21858921916E+04  0.21858921916E+04  0.00000000000E+00 0. -1.
        -24    2    1    2    0    0  0.48667943990E+03 -0.24211074393E+03 -0.13784295201E+04  0.14838271905E+04  0.78744524106E+02 0.  0.
        254    2    1    2    0    0 -0.48667943990E+03  0.24211074393E+03 -0.39825149035E+03  0.11112761822E+04  0.88366057627E+03 0.  0.
         23    2    4    4    0    0 -0.50591668680E+03 -0.12001860994E+03  0.46513165807E+02  0.53005958975E+03  0.91888701036E+02 0.  0.
         23    2    4    4    0    0  0.19237246903E+02  0.36212935387E+03 -0.44476465616E+03  0.58121659247E+03  0.92137871628E+02 0.  0.
          1    1    3    3  502    0  0.44348949755E+03 -0.20301321787E+03 -0.12751594381E+04  0.13652578121E+04  0.00000000000E+00 0. -1.
         -2    1    3    3    0  502  0.43189942350E+02 -0.39097526063E+02 -0.10327008197E+03  0.11856937840E+03  0.00000000000E+00 0.  1.
         13    1    5    5    0    0 -0.16975734229E+03 -0.78829931242E+02  0.39625680309E+02  0.19131625090E+03  0.00000000000E+00 0. -1.
        -13    1    5    5    0    0 -0.33615934451E+03 -0.41188678698E+02  0.68874854975E+01  0.33874333885E+03  0.00000000000E+00 0.  1.
          3    1    6    6  503    0 -0.31420849562E+02  0.59372385331E+02 -0.82292135751E+02  0.10622780019E+03  0.00000000000E+00 0. -1.
         -3    1    6    6    0  503  0.50658096465E+02  0.30275696854E+03 -0.36247252041E+03  0.47498879228E+03  0.00000000000E+00 0.  1.
<mgrwt>
<rscale>  0 0.18915512E+04</rscale>
<asrwt>0</asrwt>
<pdfrwt beam="1">  1        1 0.33629110E+00 0.18915512E+04</pdfrwt>
<pdfrwt beam="2">  1       -2 0.62955567E-01 0.18915512E+04</pdfrwt>
<totfact> 0.42831632E+00</totfact>
</mgrwt>
</event>
<event>
12    5  0.5095719E-008  0.1625580E+04  0.7818608E-02  0.8804985E-01
          1   -1    0    0  501    0  0.00000000000E+00  0.00000000000E+00  0.97103258420E+03  0.97103258420E+03  0.00000000000E+00 0. -1.
         -2   -1    0    0    0  501 -0.00000000000E+00 -0.00000000000E+00 -0.68033527577E+03  0.68033527577E+03  0.00000000000E+00 0.  1.
        -24    2    1    2    0    0 -0.47950113099E+03 -0.23615245010E+03 -0.60322205300E+02  0.54402835997E+03  0.81478670105E+02 0.  0.
        254    2    1    2    0    0  0.47950113099E+03  0.23615245010E+03  0.35101951374E+03  0.11073395000E+04  0.90404466423E+03 0.  0.
         23    2    4    4    0    0 -0.22000910762E+03  0.99177492961E+01 -0.78588590903E+02  0.25095063075E+03  0.91091620188E+02 0.  0.
         23    2    4    4    0    0  0.69951023861E+03  0.22623470081E+03  0.42960810464E+03  0.85638886925E+03  0.91334867551E+02 0.  0.
          3    1    3    3  502    0 -0.19332735952E+03 -0.99467195784E+02 -0.64766101761E+02  0.22685642797E+03  0.00000000000E+00 0. -1.
         -4    1    3    3    0  502 -0.28617377148E+03 -0.13668525432E+03  0.44438964614E+01  0.31717193199E+03  0.00000000000E+00 0.  1.
         13    1    5    5    0    0 -0.19352816516E+03  0.36537307573E+02 -0.81814453481E+02  0.21326446106E+03  0.00000000000E+00 0. -1.
        -13    1    5    5    0    0 -0.26480942459E+02 -0.26619558277E+02  0.32258625777E+01  0.37686169688E+02  0.00000000000E+00 0.  1.
          2    1    6    6  503    0  0.76696775408E+01 -0.28815796488E+01  0.17076760499E+02  0.18940517522E+02  0.00000000000E+00 0.  1.
         -2    1    6    6    0  503  0.69184056107E+03  0.22911628046E+03  0.41253134414E+03  0.83744835173E+03  0.00000000000E+00 0. -1.
<mgrwt>
<rscale>  0 0.16255802E+04</rscale>
<asrwt>0</asrwt>
<pdfrwt beam="1">  1        1 0.14938963E+00 0.16255802E+04</pdfrwt>
<pdfrwt beam="2">  1       -2 0.10466697E+00 0.16255802E+04</pdfrwt>
<totfact> 0.99144748E+00</totfact>
</mgrwt>
</event>
<event>
12    5  0.5095719E-008  0.2294653E+04  0.7818608E-02  0.8480032E-01
          1   -1    0    0  501    0  0.00000000000E+00  0.00000000000E+00  0.10595515892E+04  0.10595515892E+04  0.00000000000E+00 0. -1.
         -2   -1    0    0    0  501 -0.00000000000E+00 -0.00000000000E+00 -0.12423730820E+04  0.12423730820E+04  0.00000000000E+00 0.  1.
        -24    2    1    2    0    0 -0.41109455171E+03 -0.87255224240E+03  0.19569707289E+02  0.96804826310E+03  0.79926967287E+02 0.  0.
        254    2    1    2    0    0  0.41109455171E+03  0.87255224240E+03 -0.20239120010E+03  0.13338764082E+04  0.89884254917E+03 0.  0.
         23    2    4    4    0    0  0.65619578817E+03  0.68901670658E+03 -0.20054688152E+01  0.95617812198E+03  0.94528539051E+02 0.  0.
         23    2    4    4    0    0 -0.24510123646E+03  0.18353553582E+03 -0.20038573128E+03  0.37769828618E+03  0.93496764961E+02 0.  0.
          1    1    3    3  502    0 -0.38883706267E+03 -0.85276089438E+03  0.25957322851E+02  0.93758689565E+03  0.00000000000E+00 0. -1.
         -2    1    3    3    0  502 -0.22257489032E+02 -0.19791348019E+02 -0.63876155621E+01  0.30461367451E+02  0.00000000000E+00 0.  1.
         13    1    5    5    0    0  0.16117705926E+03  0.20510834656E+03 -0.34694363396E+02  0.26315618387E+03  0.00000000000E+00 0.  1.
        -13    1    5    5    0    0  0.49501872891E+03  0.48390836002E+03  0.32688894581E+02  0.69302193811E+03  0.00000000000E+00 0. -1.
          3    1    6    6  503    0 -0.24033348331E+03  0.18714191766E+03 -0.17431928294E+03  0.35095511529E+03  0.00000000000E+00 0. -1.
         -3    1    6    6    0  503 -0.47677531525E+01 -0.36063818401E+01 -0.26066448338E+02  0.26743170886E+02  0.00000000000E+00 0.  1.
<mgrwt>
<rscale>  0 0.22946532E+04</rscale>
<asrwt>0</asrwt>
<pdfrwt beam="1">  1        1 0.16300794E+00 0.22946532E+04</pdfrwt>
<pdfrwt beam="2">  1       -2 0.19113432E+00 0.22946532E+04</pdfrwt>
<totfact> 0.16435649E+00</totfact>
</mgrwt>
</event>
<event>
12    5  0.5095719E-008  0.1979228E+04  0.7818608E-02  0.8616394E-01
         -2   -1    0    0    0  501 -0.00000000000E+00  0.00000000000E+00  0.15210357645E+04  0.15210357645E+04  0.00000000000E+00 0.  1.
          1   -1    0    0  501    0  0.00000000000E+00 -0.00000000000E+00 -0.64386108052E+03  0.64386108052E+03  0.00000000000E+00 0. -1.
        -24    2    1    2    0    0  0.12462826109E+03 -0.39114843093E+03  0.10655392001E+04  0.11446464664E+04  0.79450912996E+02 0.  0.
        254    2    1    2    0    0 -0.12462826109E+03  0.39114843093E+03 -0.18836451615E+03  0.10202503786E+04  0.91482257604E+03 0.  0.
         23    2    4    4    0    0 -0.43392673484E+03 -0.60865040354E+02 -0.72080441304E+02  0.45338807291E+03  0.91477813123E+02 0.  0.
         23    2    4    4    0    0  0.30929847375E+03  0.45201347129E+03 -0.11628407484E+03  0.56686230571E+03  0.88482560328E+02 0.  0.
          1    1    3    3  502    0  0.20310278674E+02 -0.73552048159E+02  0.12480956992E+03  0.14628684135E+03  0.00000000000E+00 0. -1.
         -2    1    3    3    0  502  0.10431798242E+03 -0.31759638277E+03  0.94072963016E+03  0.99835962502E+03  0.00000000000E+00 0.  1.
         13    1    5    5    0    0 -0.10708484723E+03  0.14604196892E+02 -0.44282693092E+02  0.11679642109E+03  0.00000000000E+00 0. -1.
        -13    1    5    5    0    0 -0.32684188761E+03 -0.75469237246E+02 -0.27797748211E+02  0.33659165182E+03  0.00000000000E+00 0.  1.
          4    1    6    6  503    0  0.14637483725E+03  0.18861979506E+03 -0.93179138898E+02  0.25629157612E+03  0.00000000000E+00 0. -1.
         -4    1    6    6    0  503  0.16292363650E+03  0.26339367623E+03 -0.23104935943E+02  0.31057072958E+03  0.00000000000E+00 0.  1.
<mgrwt>
<rscale>  0 0.19792279E+04</rscale>
<asrwt>0</asrwt>
<pdfrwt beam="1">  1        1 0.99055551E-01 0.19792279E+04</pdfrwt>
<pdfrwt beam="2">  1       -2 0.23400550E+00 0.19792279E+04</pdfrwt>
<totfact> 0.20281213E+00</totfact>
</mgrwt>
</event>
<event>
12    5  0.5095719E-008  0.1348324E+04  0.7818608E-02  0.8992098E-01
         -2   -1    0    0    0  501 -0.00000000000E+00  0.00000000000E+00  0.16973756402E+03  0.16973756402E+03  0.00000000000E+00 0.  1.
          1   -1    0    0  501    0  0.00000000000E+00 -0.00000000000E+00 -0.26776287524E+04  0.26776287524E+04  0.00000000000E+00 0. -1.
        -24    2    1    2    0    0 -0.36790019824E+03  0.39463799586E+02 -0.87727782907E+03  0.95551879285E+03  0.80571873330E+02 0.  0.
        254    2    1    2    0    0  0.36790019824E+03 -0.39463799586E+02 -0.16306133593E+04  0.18918475236E+04  0.88503060827E+03 0.  0.
         23    2    4    4    0    0  0.62007003736E+03  0.98993202090E+02 -0.89995430515E+03  0.11012995806E+04  0.93040364792E+02 0.  0.
         23    2    4    4    0    0 -0.25216983912E+03 -0.13845700168E+03 -0.73065905417E+03  0.79054794303E+03  0.91342365374E+02 0.  0.
          1    1    3    3  502    0 -0.22081763374E+03 -0.35766963087E+01 -0.58891458250E+03  0.62896232448E+03  0.00000000000E+00 0. -1.
         -2    1    3    3    0  502 -0.14708256449E+03  0.43040495895E+02 -0.28836324657E+03  0.32655646837E+03  0.00000000000E+00 0.  1.
         13    1    5    5    0    0  0.11331933002E+03 -0.17562310558E+02 -0.17108161068E+03  0.20595781807E+03  0.00000000000E+00 0. -1.
        -13    1    5    5    0    0  0.50675070734E+03  0.11655551265E+03 -0.72887269446E+03  0.89534176249E+03  0.00000000000E+00 0.  1.
          3    1    6    6  503    0 -0.20692949782E+03 -0.91046304666E+02 -0.46666274884E+03  0.51853964922E+03  0.00000000000E+00 0. -1.
         -3    1    6    6    0  503 -0.45240341306E+02 -0.47410697010E+02 -0.26399630533E+03  0.27200829381E+03  0.00000000000E+00 0.  1.
<mgrwt>
<rscale>  0 0.13483237E+04</rscale>
<asrwt>0</asrwt>
<pdfrwt beam="1">  1        1 0.41194285E+00 0.13483237E+04</pdfrwt>
<pdfrwt beam="2">  1       -2 0.26113474E-01 0.13483237E+04</pdfrwt>
<totfact> 0.11656792E+01</totfact>
</mgrwt>
</event>
<event>
12    5  0.5095719E-008  0.3271534E+04  0.7818608E-02  0.8170176E-01
          1   -1    0    0  501    0  0.00000000000E+00  0.00000000000E+00  0.26313982651E+04  0.26313982651E+04  0.00000000000E+00 0. -1.
         -2   -1    0    0    0  501 -0.00000000000E+00 -0.00000000000E+00 -0.10168487613E+04  0.10168487613E+04  0.00000000000E+00 0.  1.
        -24    2    1    2    0    0 -0.88149122544E+03 -0.12194189320E+04  0.10311700955E+04  0.18258978509E+04  0.81128809507E+02 0.  0.
        254    2    1    2    0    0  0.88149122544E+03  0.12194189320E+04  0.58337940832E+03  0.18223491755E+04  0.84653155351E+03 0.  0.
         23    2    4    4    0    0  0.44396198112E+03  0.69133607940E+03 -0.12069340073E+03  0.83543350354E+03  0.91293080236E+02 0.  0.
         23    2    4    4    0    0  0.43752924432E+03  0.52808285262E+03  0.70407280905E+03  0.98691567196E+03  0.89334675496E+02 0.  0.
          3    1    3    3  502    0 -0.22521947832E+03 -0.26862175481E+03  0.26864192155E+03  0.44164458854E+03  0.00000000000E+00 0. -1.
         -4    1    3    3    0  502 -0.65627174713E+03 -0.95079717721E+03  0.76252817393E+03  0.13842532623E+04  0.00000000000E+00 0.  1.
         13    1    5    5    0    0  0.13154193825E+03  0.27734951275E+03 -0.24441376583E+02  0.30793410761E+03  0.00000000000E+00 0.  1.
        -13    1    5    5    0    0  0.31242004287E+03  0.41398656665E+03 -0.96252024147E+02  0.52749939593E+03  0.00000000000E+00 0. -1.
          2    1    6    6  503    0  0.34749614083E+03  0.44150781911E+03  0.61798585406E+03  0.83521807814E+03  0.00000000000E+00 0. -1.
         -2    1    6    6    0  503  0.90033103496E+02  0.86575033510E+02  0.86086954984E+02  0.15169759382E+03  0.00000000000E+00 0.  1.
<mgrwt>
<rscale>  0 0.32715342E+04</rscale>
<asrwt>0</asrwt>
<pdfrwt beam="1">  1        1 0.40483050E+00 0.32715342E+04</pdfrwt>
<pdfrwt beam="2">  1       -2 0.15643827E+00 0.32715342E+04</pdfrwt>
<totfact> 0.21486515E-01</totfact>
</mgrwt>
</event>
<event>
12    5  0.5095719E-008  0.2582799E+04  0.7818608E-02  0.8374067E-01
          1   -1    0    0  501    0  0.00000000000E+00  0.00000000000E+00  0.14346869579E+04  0.14346869579E+04  0.00000000000E+00 0. -1.
         -2   -1    0    0    0  501 -0.00000000000E+00 -0.00000000000E+00 -0.11624228497E+04  0.11624228497E+04  0.00000000000E+00 0.  1.
        -24    2    1    2    0    0  0.10254887398E+04 -0.46581026829E+03 -0.22058847208E+01  0.11291406028E+04  0.79669776540E+02 0.  0.
        254    2    1    2    0    0 -0.10254887398E+04  0.46581026829E+03  0.27446999296E+03  0.14679692049E+04  0.90055174636E+03 0.  0.
         23    2    4    4    0    0 -0.90162945019E+03  0.22612494081E+03 -0.16088774789E+03  0.94760262730E+03  0.89429958836E+02 0.  0.
         23    2    4    4    0    0 -0.12385928964E+03  0.23968532748E+03  0.43535774085E+03  0.52036657758E+03  0.91950164233E+02 0.  0.
          3    1    3    3  502    0  0.98207757389E+03 -0.46100413348E+03 -0.90292403891E+01  0.10849344217E+04  0.00000000000E+00 0. -1.
         -4    1    3    3    0  502  0.43411165945E+02 -0.48061348136E+01  0.68233556682E+01  0.44206181051E+02  0.00000000000E+00 0.  1.
         13    1    5    5    0    0 -0.61309755151E+03  0.11496736907E+03 -0.12663334906E+03  0.63650774442E+03  0.00000000000E+00 0.  1.
        -13    1    5    5    0    0 -0.28853189868E+03  0.11115757174E+03 -0.34254398826E+02  0.31109488288E+03  0.00000000000E+00 0. -1.
          2    1    6    6  503    0  0.12310261773E+02  0.37974305262E+02  0.83384143993E+02  0.92447314047E+02  0.00000000000E+00 0.  1.
         -2    1    6    6    0  503 -0.13616955141E+03  0.20171102222E+03  0.35197359686E+03  0.42791926353E+03  0.00000000000E+00 0. -1.
<mgrwt>
<rscale>  0 0.25827992E+04</rscale>
<asrwt>0</asrwt>
<pdfrwt beam="1">  1        1 0.22072107E+00 0.25827992E+04</pdfrwt>
<pdfrwt beam="2">  1       -2 0.17883428E+00 0.25827992E+04</pdfrwt>
<totfact> 0.10392867E+00</totfact>
</mgrwt>
</event>
<event>
12    5  0.5095719E-008  0.1852674E+04  0.7818608E-02  0.8678779E-01
         -2   -1    0    0    0  501 -0.00000000000E+00  0.00000000000E+00  0.16191901805E+04  0.16191901805E+04  0.00000000000E+00 0.  1.
          1   -1    0    0  501    0  0.00000000000E+00 -0.00000000000E+00 -0.52995617036E+03  0.52995617036E+03  0.00000000000E+00 0. -1.
        -24    2    1    2    0    0  0.10430889185E+03  0.68845105562E+03  0.53043272959E+03  0.87894970658E+03  0.79677507313E+02 0.  0.
        254    2    1    2    0    0 -0.10430889185E+03 -0.68845105562E+03  0.55880128055E+03  0.12701966443E+04  0.90349069894E+03 0.  0.
         23    2    4    4    0    0 -0.49547911965E+02  0.95555403366E+02  0.44978517207E+03  0.47146421331E+03  0.91574956836E+02 0.  0.
         23    2    4    4    0    0 -0.54760979884E+02 -0.78400645899E+03  0.10901610848E+03  0.79873243097E+03  0.91782850858E+02 0.  0.
          1    1    3    3  502    0  0.81880662113E+02  0.39235591248E+03  0.34518094943E+03  0.52895887623E+03  0.00000000000E+00 0. -1.
         -2    1    3    3    0  502  0.22428229735E+02  0.29609514314E+03  0.18525178016E+03  0.34999083035E+03  0.00000000000E+00 0.  1.
         13    1    5    5    0    0 -0.44467588556E+02  0.10858866933E+03  0.31835223586E+03  0.33928897951E+03  0.00000000000E+00 0. -1.
        -13    1    5    5    0    0 -0.50803234083E+01 -0.13033265967E+02  0.13143293621E+03  0.13217523380E+03  0.00000000000E+00 0.  1.
          2    1    6    6  503    0 -0.26489828738E+02 -0.27130818433E+03 -0.54440740275E+01  0.27265267256E+03  0.00000000000E+00 0.  1.
         -2    1    6    6    0  503 -0.28271151146E+02 -0.51269827466E+03  0.11446018251E+03  0.52607975841E+03  0.00000000000E+00 0. -1.
<mgrwt>
<rscale>  0 0.18526736E+04</rscale>
<asrwt>0</asrwt>
<pdfrwt beam="1">  1        1 0.81531719E-01 0.18526736E+04</pdfrwt>
<pdfrwt beam="2">  1       -2 0.24910618E+00 0.18526736E+04</pdfrwt>
<totfact> 0.21868149E+00</totfact>
</mgrwt>
</event>
<event>
12    5  0.5095719E-008  0.1515532E+04  0.7818608E-02  0.8874189E-01
         -2   -1    0    0    0  501 -0.00000000000E+00  0.00000000000E+00  0.94275850663E+03  0.94275850663E+03  0.00000000000E+00 0.  1.
          1   -1    0    0  501    0  0.00000000000E+00 -0.00000000000E+00 -0.60907381124E+03  0.60907381124E+03  0.00000000000E+00 0. -1.
        -24    2    1    2    0    0  0.45841020815E+02  0.39551962433E+03  0.39395364028E+03  0.56589096996E+03  0.80597436471E+02 0.  0.
        254    2    1    2    0    0 -0.45841020815E+02 -0.39551962433E+03 -0.60268944899E+02  0.98594134792E+03  0.89995045608E+03 0.  0.
         23    2    4    4    0    0 -0.21945093697E+03 -0.28082153712E+03  0.35543687403E+03  0.51192987753E+03  0.93366903312E+02 0.  0.
         23    2    4    4    0    0  0.17360991615E+03 -0.11469808721E+03 -0.41570581893E+03  0.47401147039E+03  0.92625547108E+02 0.  0.
          3    1    3    3  502    0  0.29082455718E+02  0.12348782072E+03  0.79301307255E+02  0.14961192609E+03  0.00000000000E+00 0. -1.
         -4    1    3    3    0  502  0.16758565097E+02  0.27203180361E+03  0.31465233303E+03  0.41627904386E+03  0.00000000000E+00 0.  1.
         13    1    5    5    0    0 -0.30516674042E+02 -0.20993805084E+02  0.64644214915E+01  0.37600478610E+02  0.00000000000E+00 0. -1.
        -13    1    5    5    0    0 -0.18893426293E+03 -0.25982773204E+03  0.34897245254E+03  0.47432939892E+03  0.00000000000E+00 0.  1.
          1    1    6    6  503    0  0.45450387808E+01 -0.13059444693E+02  0.53272620797E-01  0.13827845500E+02  0.00000000000E+00 0. -1.
         -1    1    6    6    0  503  0.16906487737E+03 -0.10163864251E+03 -0.41575909155E+03  0.46018362489E+03  0.00000000000E+00 0.  1.
<mgrwt>
<rscale>  0 0.15155323E+04</rscale>
<asrwt>0</asrwt>
<pdfrwt beam="1">  1        1 0.93703663E-01 0.15155323E+04</pdfrwt>
<pdfrwt beam="2">  1       -2 0.14503977E+00 0.15155323E+04</pdfrwt>
<totfact> 0.92720231E+00</totfact>
</mgrwt>
</event>
<event>
12    5  0.5095719E-008  0.3030070E+04  0.7818608E-02  0.8235196E-01
         -2   -1    0    0    0  501 -0.00000000000E+00  0.00000000000E+00  0.15983432924E+04  0.15983432924E+04  0.00000000000E+00 0.  1.
          1   -1    0    0  501    0  0.00000000000E+00 -0.00000000000E+00 -0.14360690750E+04  0.14360690750E+04  0.00000000000E+00 0. -1.
        -24    2    1    2    0    0  0.10219633126E+04 -0.32709825815E+03  0.93932117684E+03  0.14282759160E+04  0.79028705740E+02 0.  0.
        254    2    1    2    0    0 -0.10219633126E+04  0.32709825815E+03 -0.77704695944E+03  0.16061364513E+04  0.90800332614E+03 0.  0.
         23    2    4    4    0    0 -0.25419199785E+03  0.28160092010E+03 -0.73311820705E+03  0.83049617339E+03  0.91372526169E+02 0.  0.
         23    2    4    4    0    0 -0.76777131473E+03  0.45497338049E+02 -0.43928752392E+02  0.77564027791E+03  0.90251348735E+02 0.  0.
          1    1    3    3  502    0  0.22559989933E+03 -0.49330819655E+02  0.23465502246E+03  0.32922913588E+03  0.00000000000E+00 0. -1.
         -2    1    3    3    0  502  0.79636341325E+03 -0.27776743849E+03  0.70466615438E+03  0.10990467802E+04  0.00000000000E+00 0.  1.
         13    1    5    5    0    0 -0.10648100955E+03  0.17961930821E+03 -0.43479507325E+03  0.48233604157E+03  0.00000000000E+00 0. -1.
        -13    1    5    5    0    0 -0.14771098830E+03  0.10198161189E+03 -0.29832313379E+03  0.34816013181E+03  0.00000000000E+00 0.  1.
          1    1    6    6  503    0 -0.21631992468E+03  0.83882462205E+01 -0.52965953917E+02  0.22286781904E+03  0.00000000000E+00 0. -1.
         -1    1    6    6    0  503 -0.55145139004E+03  0.37109091828E+02  0.90372015243E+01  0.55277245887E+03  0.00000000000E+00 0.  1.
<mgrwt>
<rscale>  0 0.30300702E+04</rscale>
<asrwt>0</asrwt>
<pdfrwt beam="1">  1        1 0.22093370E+00 0.30300702E+04</pdfrwt>
<pdfrwt beam="2">  1       -2 0.24589897E+00 0.30300702E+04</pdfrwt>
<totfact> 0.36802298E-01</totfact>
</mgrwt>
</event>
<event>
12    5  0.5095719E-008  0.1786382E+04  0.7818608E-02  0.8713575E-01
          1   -1    0    0  501    0  0.00000000000E+00  0.00000000000E+00  0.15462427348E+04  0.15462427348E+04  0.00000000000E+00 0. -1.
         -2   -1    0    0    0  501 -0.00000000000E+00 -0.00000000000E+00 -0.51595401395E+03  0.51595401395E+03  0.00000000000E+00 0.  1.
        -24    2    1    2    0    0 -0.52173145691E+03 -0.90839497730E+02  0.83765774497E+03  0.99445713540E+03  0.82577048684E+02 0.  0.
        254    2    1    2    0    0  0.52173145691E+03  0.90839497730E+02  0.19263097587E+03  0.10677396133E+04  0.90692097868E+03 0.  0.
         23    2    4    4    0    0  0.68470281066E+03 -0.17829086659E+03  0.19299863468E+03  0.73907916639E+03  0.91564016735E+02 0.  0.
         23    2    4    4    0    0 -0.16297135376E+03  0.26913036432E+03 -0.36765880776E+00  0.32866044696E+03  0.95009152586E+02 0.  0.
          3    1    3    3  502    0 -0.24863022970E+03 -0.46241746711E+02  0.47677315128E+03  0.53969243837E+03  0.00000000000E+00 0. -1.
         -4    1    3    3    0  502 -0.27310122721E+03 -0.44597751019E+02  0.36088459369E+03  0.45476469703E+03  0.00000000000E+00 0.  1.
         13    1    5    5    0    0  0.64116001605E+03 -0.16520055569E+03  0.15543373036E+03  0.68010075306E+03  0.00000000000E+00 0.  1.
        -13    1    5    5    0    0  0.43542794618E+02 -0.13090310906E+02  0.37564904316E+02  0.58978413331E+02  0.00000000000E+00 0. -1.
          2    1    6    6  503    0  0.19461794813E+01  0.40661396223E+02  0.21506727374E+02  0.46039940049E+02  0.00000000000E+00 0. -1.
         -2    1    6    6    0  503 -0.16491753324E+03  0.22846896810E+03 -0.21874386182E+02  0.28262050691E+03  0.00000000000E+00 0.  1.
<mgrwt>
<rscale>  0 0.17863820E+04</rscale>
<asrwt>0</asrwt>
<pdfrwt beam="1">  1        1 0.23788350E+00 0.17863820E+04</pdfrwt>
<pdfrwt beam="2">  1       -2 0.79377541E-01 0.17863820E+04</pdfrwt>
<totfact> 0.70877162E+00</totfact>
</mgrwt>
</event>
<event>
12    5  0.5095719E-008  0.1553548E+04  0.7818608E-02  0.8849605E-01
         -2   -1    0    0    0  501 -0.00000000000E+00  0.00000000000E+00  0.11113721276E+04  0.11113721276E+04  0.00000000000E+00 0.  1.
          1   -1    0    0  501    0  0.00000000000E+00 -0.00000000000E+00 -0.54291242404E+03  0.54291242404E+03  0.00000000000E+00 0. -1.
        -24    2    1    2    0    0 -0.26021618923E+03  0.10921654194E+03 -0.24618212045E+03  0.38493601907E+03  0.89047089645E+02 0.  0.
        254    2    1    2    0    0  0.26021618923E+03 -0.10921654194E+03  0.81464182401E+03  0.12693485326E+04  0.93164568242E+03 0.  0.
         23    2    4    4    0    0 -0.19646792480E+03 -0.75129220881E+02 -0.94410915422E+02  0.24732045453E+03  0.89498273570E+02 0.  0.
         23    2    4    4    0    0  0.45668411403E+03 -0.34087321059E+02  0.90905273943E+03  0.10220280781E+04  0.91881357172E+02 0.  0.
          1    1    3    3  502    0 -0.22084223623E+03  0.12315752646E+03 -0.22310193208E+03  0.33721438540E+03  0.00000000000E+00 0. -1.
         -2    1    3    3    0  502 -0.39373953004E+02 -0.13940984516E+02 -0.23080188374E+02  0.47721633667E+02  0.00000000000E+00 0.  1.
         13    1    5    5    0    0 -0.19073765763E+03 -0.53268410570E+02 -0.61440623216E+02  0.20734832477E+03  0.00000000000E+00 0.  1.
        -13    1    5    5    0    0 -0.57302671671E+01 -0.21860810311E+02 -0.32970292206E+02  0.39972129758E+02  0.00000000000E+00 0. -1.
          4    1    6    6  503    0  0.26746794471E+03  0.23687362756E+02  0.55134798911E+03  0.61325752967E+03  0.00000000000E+00 0. -1.
         -4    1    6    6    0  503  0.18921616933E+03 -0.57774683816E+02  0.35770475032E+03  0.40877054839E+03  0.00000000000E+00 0.  1.
<mgrwt>
<rscale>  0 0.15535479E+04</rscale>
<asrwt>0</asrwt>
<pdfrwt beam="1">  1        1 0.83524989E-01 0.15535479E+04</pdfrwt>
<pdfrwt beam="2">  1       -2 0.17098033E+00 0.15535479E+04</pdfrwt>
<totfact> 0.69761993E+00</totfact>
</mgrwt>
</event>
<event>
12    5  0.7023663E-008  0.1973031E+04  0.7818608E-02  0.8619334E-01
          1   -1    0    0  501    0  0.00000000000E+00  0.00000000000E+00  0.65264089471E+03  0.65264089471E+03  0.00000000000E+00 0. -1.
         -2   -1    0    0    0  501 -0.00000000000E+00 -0.00000000000E+00 -0.14911923133E+04  0.14911923133E+04  0.00000000000E+00 0.  1.
        -24    2    1    2    0    0  0.16067578814E+03 -0.44600735987E+03  0.33450028352E+03  0.58699489806E+03  0.89069055907E+02 0.  0.
        254    2    1    2    0    0 -0.16067578814E+03  0.44600735987E+03 -0.11730517021E+04  0.15568383100E+04  0.90716919785E+03 0.  0.
         23    2    4    4    0    0 -0.35584895818E+03  0.61486199472E+03 -0.10107917865E+04  0.12388028756E+04  0.90822768609E+02 0.  0.
         23    2    4    4    0    0  0.19517317004E+03 -0.16885463485E+03 -0.16225991562E+03  0.31803543437E+03  0.90630035218E+02 0.  0.
          1    1    3    3  502    0  0.14042120199E+03 -0.43146716127E+03  0.33138001436E+03  0.56186718995E+03  0.00000000000E+00 0. -1.
         -2    1    3    3    0  502  0.20254586152E+02 -0.14540198598E+02  0.31202691689E+01  0.25127708116E+02  0.00000000000E+00 0.  1.
         13    1    5    5    0    0  0.77562640411E-01  0.37261795777E+02 -0.63247591153E+02  0.73407800860E+02  0.00000000000E+00 0. -1.
        -13    1    5    5    0    0 -0.35592652083E+03  0.57760019894E+03 -0.94754419535E+03  0.11653950747E+04  0.00000000000E+00 0.  1.
          1    1    6    6  503    0 -0.74142714235E+01 -0.30989592512E+01  0.28834725558E+01  0.85375279303E+01  0.00000000000E+00 0. -1.
         -1    1    6    6    0  503  0.20258744147E+03 -0.16575567559E+03 -0.16514338817E+03  0.30949790644E+03  0.00000000000E+00 0.  1.
<mgrwt>
<rscale>  0 0.19730313E+04</rscale>
<asrwt>0</asrwt>
<pdfrwt beam="1">  1        1 0.10040629E+00 0.19730313E+04</pdfrwt>
<pdfrwt beam="2">  1       -2 0.22941420E+00 0.19730313E+04</pdfrwt>
<totfact> 0.21246379E+00</totfact>
</mgrwt>
</event>
<event>
12    5  0.5095719E-008  0.1972111E+04  0.7818608E-02  0.8619772E-01
         -2   -1    0    0    0  501 -0.00000000000E+00  0.00000000000E+00  0.13619007786E+04  0.13619007786E+04  0.00000000000E+00 0.  1.
          1   -1    0    0  501    0  0.00000000000E+00 -0.00000000000E+00 -0.71393275242E+03  0.71393275242E+03  0.00000000000E+00 0. -1.
        -24    2    1    2    0    0  0.23229654934E+03 -0.27826703566E+03 -0.46516270842E+03  0.59506868341E+03  0.79600016939E+02 0.  0.
        254    2    1    2    0    0 -0.23229654934E+03  0.27826703566E+03  0.11131307346E+04  0.14807648476E+04  0.90675811086E+03 0.  0.
         23    2    4    4    0    0 -0.35482742474E+03  0.16438371206E+03  0.54379152318E+02  0.40500396267E+03  0.90258580935E+02 0.  0.
         23    2    4    4    0    0  0.12253087539E+03  0.11388332360E+03  0.10587515823E+04  0.10757608849E+04  0.91232350328E+02 0.  0.
          1    1    3    3  502    0  0.18991394385E+03 -0.18328957323E+03 -0.29688317798E+03  0.39724299249E+03  0.00000000000E+00 0. -1.
         -2    1    3    3    0  502  0.42382605498E+02 -0.94977462436E+02 -0.16827953045E+03  0.19782569092E+03  0.00000000000E+00 0.  1.
         13    1    5    5    0    0 -0.31015486765E+03  0.15133995719E+03  0.17371755923E+02  0.34554536963E+03  0.00000000000E+00 0. -1.
        -13    1    5    5    0    0 -0.44672557087E+02  0.13043754870E+02  0.37007396395E+02  0.59458593035E+02  0.00000000000E+00 0.  1.
          1    1    6    6  503    0  0.35438727239E+02  0.50305879554E+02  0.65412396916E+03  0.65701198766E+03  0.00000000000E+00 0. -1.
         -1    1    6    6    0  503  0.87092148156E+02  0.63577444045E+02  0.40462761313E+03  0.41874889728E+03  0.00000000000E+00 0.  1.
<mgrwt>
<rscale>  0 0.19721111E+04</rscale>
<asrwt>0</asrwt>
<pdfrwt beam="1">  1        1 0.10983581E+00 0.19721111E+04</pdfrwt>
<pdfrwt beam="2">  1       -2 0.20952320E+00 0.19721111E+04</pdfrwt>
<totfact> 0.24817179E+00</totfact>
</mgrwt>
</event>
<event>
12    5  0.5095719E-008  0.1438912E+04  0.7818608E-02  0.8926124E-01
          1   -1    0    0  501    0  0.00000000000E+00  0.00000000000E+00  0.16144213678E+04  0.16144213678E+04  0.00000000000E+00 0. -1.
         -2   -1    0    0    0  501 -0.00000000000E+00 -0.00000000000E+00 -0.32062053435E+03  0.32062053435E+03  0.00000000000E+00 0.  1.
        -24    2    1    2    0    0 -0.12960492593E+03 -0.11119362633E+03  0.93566898272E+03  0.95394512666E+03  0.73303479380E+02 0.  0.
        254    2    1    2    0    0  0.12960492593E+03  0.11119362633E+03  0.35813185070E+03  0.98109677547E+03  0.89729092327E+03 0.  0.
         23    2    4    4    0    0 -0.61479279733E+02  0.79038388329E+02 -0.27897000630E+03  0.30904354915E+03  0.87503612429E+02 0.  0.
         23    2    4    4    0    0  0.19108420566E+03  0.32155238006E+02  0.63710185700E+03  0.67205322632E+03  0.90607007578E+02 0.  0.
          1    1    3    3  502    0 -0.10627207557E+03 -0.47997183778E+02  0.65548524545E+03  0.66577653210E+03  0.00000000000E+00 0. -1.
         -2    1    3    3    0  502 -0.23332850360E+02 -0.63196442556E+02  0.28018373727E+03  0.28816859456E+03  0.00000000000E+00 0.  1.
         13    1    5    5    0    0  0.13968260605E+02  0.22677032746E+02 -0.19493153795E+02  0.33005199035E+02  0.00000000000E+00 0.  1.
        -13    1    5    5    0    0 -0.75447540338E+02  0.56361355583E+02 -0.25947685251E+03  0.27603835011E+03  0.00000000000E+00 0. -1.
          2    1    6    6  503    0  0.10164337384E+03 -0.22802910590E+02  0.38788414591E+03  0.40162850848E+03  0.00000000000E+00 0. -1.
         -2    1    6    6    0  503  0.89440831822E+02  0.54958148596E+02  0.24921771109E+03  0.27042471784E+03  0.00000000000E+00 0.  1.
<mgrwt>
<rscale>  0 0.14389116E+04</rscale>
<asrwt>0</asrwt>
<pdfrwt beam="1">  1        1 0.24837251E+00 0.14389116E+04</pdfrwt>
<pdfrwt beam="2">  1       -2 0.49326237E-01 0.14389116E+04</pdfrwt>
<totfact> 0.18103107E+01</totfact>
</mgrwt>
</event>
<event>
12    5  0.5095719E-008  0.1954234E+04  0.7818608E-02  0.8628322E-01
          1   -1    0    0  501    0  0.00000000000E+00  0.00000000000E+00  0.11609388941E+04  0.11609388941E+04  0.00000000000E+00 0. -1.
         -2   -1    0    0    0  501 -0.00000000000E+00 -0.00000000000E+00 -0.82240169857E+03  0.82240169857E+03  0.00000000000E+00 0.  1.
        -24    2    1    2    0    0  0.63210429571E+03  0.35435998974E+03 -0.12772471122E+03  0.73957654791E+03  0.74384308624E+02 0.  0.
        254    2    1    2    0    0 -0.63210429571E+03 -0.35435998974E+03  0.46626190672E+03  0.12437640447E+04  0.89689575221E+03 0.  0.
         23    2    4    4    0    0  0.93824978170E+02 -0.32850854788E+03  0.35886998721E+03  0.50405167192E+03  0.92517175110E+02 0.  0.
         23    2    4    4    0    0 -0.72592927388E+03 -0.25851441865E+02  0.10739191951E+03  0.73971237282E+03  0.89441390850E+02 0.  0.
          3    1    3    3  502    0  0.29507174489E+02  0.30513631290E+01  0.33161744270E+01  0.29849307799E+02  0.00000000000E+00 0. -1.
         -4    1    3    3    0  502  0.60259712123E+03  0.35130862661E+03 -0.13104088565E+03  0.70972724011E+03  0.00000000000E+00 0.  1.
         13    1    5    5    0    0  0.91606252513E+02 -0.32379210016E+03  0.31844758429E+03  0.46329460775E+03  0.00000000000E+00 0. -1.
        -13    1    5    5    0    0  0.22187256568E+01 -0.47164477189E+01  0.40422402919E+02  0.40757064177E+02  0.00000000000E+00 0.  1.
          3    1    6    6  503    0 -0.65271449141E+03 -0.49306018012E+02  0.88352768474E+02  0.66051003203E+03  0.00000000000E+00 0. -1.
         -3    1    6    6    0  503 -0.73214782472E+02  0.23454576147E+02  0.19039151039E+02  0.79202340792E+02  0.00000000000E+00 0.  1.
<mgrwt>
<rscale>  0 0.19542345E+04</rscale>
<asrwt>0</asrwt>
<pdfrwt beam="1">  1        1 0.17860598E+00 0.19542345E+04</pdfrwt>
<pdfrwt beam="2">  1       -2 0.12652334E+00 0.19542345E+04</pdfrwt>
<totfact> 0.43373793E+00</totfact>
</mgrwt>
</event>
<event>
12    5  0.5095719E-008  0.2104297E+04  0.7818608E-02  0.8559353E-01
          1   -1    0    0  501    0  0.00000000000E+00  0.00000000000E+00  0.49543377371E+03  0.49543377371E+03  0.00000000000E+00 0. -1.
         -2   -1    0    0    0  501 -0.00000000000E+00 -0.00000000000E+00 -0.22344381068E+04  0.22344381068E+04  0.00000000000E+00 0.  1.
        -24    2    1    2    0    0  0.27218763667E+03 -0.81878267750E+02  0.33889014155E+03  0.44904496176E+03  0.77489930686E+02 0.  0.
        254    2    1    2    0    0 -0.27218763667E+03  0.81878267750E+02 -0.20778944746E+04  0.22808269187E+04  0.89651314839E+03 0.  0.
         23    2    4    4    0    0  0.30656780799E+03  0.11139150886E+03 -0.56032843379E+03  0.65364304922E+03  0.83002367031E+02 0.  0.
         23    2    4    4    0    0 -0.57875544466E+03 -0.29513241108E+02 -0.15175660408E+04  0.16271838695E+04  0.94296133445E+02 0.  0.
          3    1    3    3  502    0  0.26995405713E+03 -0.68503824201E+02  0.33338160638E+03  0.43440909562E+03  0.00000000000E+00 0. -1.
         -4    1    3    3    0  502  0.22335795443E+01 -0.13374443549E+02  0.55085351664E+01  0.14635866134E+02  0.00000000000E+00 0.  1.
         13    1    5    5    0    0  0.23839488581E+03  0.67592740754E+02 -0.35520848697E+03  0.43309810598E+03  0.00000000000E+00 0. -1.
        -13    1    5    5    0    0  0.68172922182E+02  0.43798768104E+02 -0.20511994682E+03  0.22054494324E+03  0.00000000000E+00 0.  1.
          3    1    6    6  503    0 -0.35685924315E+03  0.27076756318E+02 -0.90232574082E+03  0.97070768654E+03  0.00000000000E+00 0. -1.
         -3    1    6    6    0  503 -0.22189620152E+03 -0.56589997426E+02 -0.61524030000E+03  0.65647618297E+03  0.00000000000E+00 0.  1.
<mgrwt>
<rscale>  0 0.21042967E+04</rscale>
<asrwt>0</asrwt>
<pdfrwt beam="1">  1        1 0.76220581E-01 0.21042967E+04</pdfrwt>
<pdfrwt beam="2">  1       -2 0.34375971E+00 0.21042967E+04</pdfrwt>
<totfact> 0.61639227E-01</totfact>
</mgrwt>
</event>
<event>
12    5  0.5095719E-008  0.1848943E+04  0.7818608E-02  0.8680697E-01
          1   -1    0    0  501    0  0.00000000000E+00  0.00000000000E+00  0.24832147784E+04  0.24832147784E+04  0.00000000000E+00 0. -1.
         -2   -1    0    0    0  501 -0.00000000000E+00 -0.00000000000E+00 -0.34416967986E+03  0.34416967986E+03  0.00000000000E+00 0.  1.
        -24    2    1    2    0    0  0.58915242319E+02 -0.37159622524E+03  0.17103261462E+04  0.17531203801E+04  0.81613603570E+02 0.  0.
        254    2    1    2    0    0 -0.58915242319E+02  0.37159622524E+03  0.42871895236E+03  0.10742640782E+04  0.91032335421E+03 0.  0.
         23    2    4    4    0    0 -0.56665180127E+02  0.52620568041E+03 -0.72275355735E+02  0.54197439534E+03  0.91701458121E+02 0.  0.
         23    2    4    4    0    0 -0.22500621924E+01 -0.15460945517E+03  0.50099430810E+03  0.53228968287E+03  0.91803395009E+02 0.  0.
          1    1    3    3  502    0  0.48928235972E+02 -0.35133067728E+03  0.14901408767E+04  0.15317790472E+04  0.00000000000E+00 0. -1.
         -2    1    3    3    0  502  0.99870063473E+01 -0.20265547959E+02  0.22018526951E+03  0.22134133287E+03  0.00000000000E+00 0.  1.
         13    1    5    5    0    0 -0.33071219866E+02  0.65143731364E+02 -0.27814229055E+02  0.78173158164E+02  0.00000000000E+00 0. -1.
        -13    1    5    5    0    0 -0.23593960261E+02  0.46106194905E+03 -0.44461126681E+02  0.46380123717E+03  0.00000000000E+00 0.  1.
          3    1    6    6  503    0  0.15452516073E+02 -0.72555497887E+02  0.36510040530E+03  0.37256058095E+03  0.00000000000E+00 0. -1.
         -3    1    6    6    0  503 -0.17702578266E+02 -0.82053957279E+02  0.13589390280E+03  0.15972910192E+03  0.00000000000E+00 0.  1.
<mgrwt>
<rscale>  0 0.18489427E+04</rscale>
<asrwt>0</asrwt>
<pdfrwt beam="1">  1        1 0.38203303E+00 0.18489427E+04</pdfrwt>
<pdfrwt beam="2">  1       -2 0.52949183E-01 0.18489427E+04</pdfrwt>
<totfact> 0.38667902E+00</totfact>
</mgrwt>
</event>
<event>
12    5  0.5095719E-008  0.1777159E+04  0.7818608E-02  0.8718541E-01
          1   -1    0    0  501    0  0.00000000000E+00  0.00000000000E+00  0.17571537304E+04  0.17571537304E+04  0.00000000000E+00 0. -1.
         -2   -1    0    0    0  501 -0.00000000000E+00 -0.00000000000E+00 -0.44934825160E+03  0.44934825160E+03  0.00000000000E+00 0.  1.
        -24    2    1    2    0    0 -0.42820005421E+03 -0.32203374986E+03  0.95634763036E+03  0.10991132723E+04  0.79926045478E+02 0.  0.
        254    2    1    2    0    0  0.42820005421E+03  0.32203374986E+03  0.35145784841E+03  0.11073887097E+04  0.90317557134E+03 0.  0.
         23    2    4    4    0    0 -0.65101386286E+02  0.25349786070E+03  0.50706955591E+03  0.57793581557E+03  0.91601945991E+02 0.  0.
         23    2    4    4    0    0  0.49330144050E+03  0.68535889157E+02 -0.15561170750E+03  0.52945289412E+03  0.89787996321E+02 0.  0.
          3    1    3    3  502    0 -0.62635953529E+02 -0.48200437037E+02  0.20649862645E+03  0.22110682380E+03  0.00000000000E+00 0. -1.
         -4    1    3    3    0  502 -0.36556410068E+03 -0.27383331282E+03  0.74984900390E+03  0.87800644848E+03  0.00000000000E+00 0.  1.
         13    1    5    5    0    0 -0.29867042707E+02  0.19216690205E+03  0.28623217531E+03  0.34604770866E+03  0.00000000000E+00 0. -1.
        -13    1    5    5    0    0 -0.35234343579E+02  0.61330958645E+02  0.22083738059E+03  0.23188810690E+03  0.00000000000E+00 0.  1.
          2    1    6    6  503    0  0.15717660253E+03  0.61773255154E+02 -0.67798163259E+02  0.18198079672E+03  0.00000000000E+00 0. -1.
         -2    1    6    6    0  503  0.33612483797E+03  0.67626340026E+01 -0.87813544241E+02  0.34747209740E+03  0.00000000000E+00 0.  1.
<mgrwt>
<rscale>  0 0.17771595E+04</rscale>
<asrwt>0</asrwt>
<pdfrwt beam="1">  1        1 0.27033134E+00 0.17771595E+04</pdfrwt>
<pdfrwt beam="2">  1       -2 0.69130501E-01 0.17771595E+04</pdfrwt>
<totfact> 0.69079141E+00</totfact>
</mgrwt>
</event>
<event>
12    5  0.5095719E-008  0.1743709E+04  0.7818608E-02  0.8736821E-01
          1   -1    0    0  501    0  0.00000000000E+00  0.00000000000E+00  0.22685776876E+04  0.22685776876E+04  0.00000000000E+00 0. -1.
         -2   -1    0    0    0  501 -0.00000000000E+00 -0.00000000000E+00 -0.33506905200E+03  0.33506905200E+03  0.00000000000E+00 0.  1.
        -24    2    1    2    0    0  0.47466972107E+03 -0.39579490292E+03  0.90975104387E+03  0.11027534509E+04  0.80332200610E+02 0.  0.
        254    2    1    2    0    0 -0.47466972107E+03  0.39579490292E+03  0.10237575918E+04  0.15008932887E+04  0.90699289307E+03 0.  0.
         23    2    4    4    0    0  0.46541403531E+02  0.44976075354E+03  0.16285761005E+03  0.48877566815E+03  0.89040524270E+02 0.  0.
         23    2    4    4    0    0 -0.52121112460E+03 -0.53965850616E+02  0.86089998172E+03  0.10121176205E+04  0.93058851549E+02 0.  0.
          1    1    3    3  502    0  0.39391287334E+03 -0.35959414608E+03  0.80444462455E+03  0.96519762518E+03  0.00000000000E+00 0. -1.
         -2    1    3    3    0  502  0.80756847728E+02 -0.36200756838E+02  0.10530641932E+03  0.13755582576E+03  0.00000000000E+00 0.  1.
         13    1    5    5    0    0  0.15129859920E+02  0.13714569865E+02 -0.40556624716E+01  0.20819473717E+02  0.00000000000E+00 0. -1.
        -13    1    5    5    0    0  0.31411543611E+02  0.43604618367E+03  0.16691327252E+03  0.46795619443E+03  0.00000000000E+00 0.  1.
          3    1    6    6  503    0 -0.99364567463E+02 -0.16538805186E+02  0.24262856357E+03  0.26270795421E+03  0.00000000000E+00 0. -1.
         -3    1    6    6    0  503 -0.42184655714E+03 -0.37427045430E+02  0.61827141816E+03  0.74940966634E+03  0.00000000000E+00 0.  1.
<mgrwt>
<rscale>  0 0.17437089E+04</rscale>
<asrwt>0</asrwt>
<pdfrwt beam="1">  1        1 0.34901194E+00 0.17437089E+04</pdfrwt>
<pdfrwt beam="2">  1       -2 0.51549086E-01 0.17437089E+04</pdfrwt>
<totfact> 0.57924436E+00</totfact>
</mgrwt>
</event>
<event>
12    5  0.5095719E-008  0.1911789E+04  0.7818608E-02  0.8649010E-01
         -2   -1    0    0    0  501 -0.00000000000E+00  0.00000000000E+00  0.36892235920E+03  0.36892235920E+03  0.00000000000E+00 0.  1.
          1   -1    0    0  501    0  0.00000000000E+00 -0.00000000000E+00 -0.24767661080E+04  0.24767661080E+04  0.00000000000E+00 0. -1.
        -24    2    1    2    0    0 -0.16862112018E+03  0.24254983943E+03  0.17733209262E+03  0.35418893091E+03  0.82095194314E+02 0.  0.
        254    2    1    2    0    0  0.16862112018E+03 -0.24254983943E+03 -0.22851758414E+04  0.24914995363E+04  0.94777518764E+03 0.  0.
         23    2    4    4    0    0  0.14894018480E+03 -0.59632064431E+03 -0.15637255119E+04  0.16828543995E+04  0.94762670766E+02 0.  0.
         23    2    4    4    0    0  0.19680935385E+02  0.35377080488E+03 -0.72145032947E+03  0.80864513677E+03  0.88742648813E+02 0.  0.
          3    1    3    3  502    0 -0.54310999297E+02  0.74029930905E+02  0.13436567500E+02  0.92793624030E+02  0.00000000000E+00 0. -1.
         -4    1    3    3    0  502 -0.11431012089E+03  0.16851990852E+03  0.16389552512E+03  0.26139530688E+03  0.00000000000E+00 0.  1.
         13    1    5    5    0    0  0.22035477091E+02 -0.36496802111E+02 -0.62786523078E+02  0.75892860633E+02  0.00000000000E+00 0.  1.
        -13    1    5    5    0    0  0.12690470771E+03 -0.55982384220E+03 -0.15009389888E+04  0.16069615389E+04  0.00000000000E+00 0. -1.
          2    1    6    6  503    0  0.36688103058E+02  0.30791987507E+03 -0.66635934757E+03  0.73497989528E+03  0.00000000000E+00 0. -1.
         -2    1    6    6    0  503 -0.17007167673E+02  0.45850929813E+02 -0.55090981907E+02  0.73665241494E+02  0.00000000000E+00 0.  1.
<mgrwt>
<rscale>  0 0.19117891E+04</rscale>
<asrwt>0</asrwt>
<pdfrwt beam="1">  1        1 0.38104094E+00 0.19117891E+04</pdfrwt>
<pdfrwt beam="2">  1       -2 0.56757286E-01 0.19117891E+04</pdfrwt>
<totfact> 0.33628138E+00</totfact>
</mgrwt>
</event>
<event>
12    5  0.5095719E-008  0.1426286E+04  0.7818608E-02  0.8935008E-01
          1   -1    0    0  501    0  0.00000000000E+00  0.00000000000E+00  0.13103397749E+04  0.13103397749E+04  0.00000000000E+00 0. -1.
         -2   -1    0    0    0  501 -0.00000000000E+00 -0.00000000000E+00 -0.38812278184E+03  0.38812278184E+03  0.00000000000E+00 0.  1.
        -24    2    1    2    0    0  0.36595248220E+03  0.18777740383E+03  0.39734729711E+03  0.57970129544E+03  0.94800552733E+02 0.  0.
        254    2    1    2    0    0 -0.36595248220E+03 -0.18777740383E+03  0.52486969596E+03  0.11187612613E+04  0.89830784782E+03 0.  0.
         23    2    4    4    0    0 -0.29416790715E+03 -0.92487359452E+02  0.76730995596E+03  0.83292955560E+03  0.99591198533E+02 0.  0.
         23    2    4    4    0    0 -0.71784575046E+02 -0.95290044379E+02 -0.24244026000E+03  0.28583170570E+03  0.93216235408E+02 0.  0.
          3    1    3    3  502    0  0.27625108061E+03  0.13219685216E+03  0.23479636889E+03  0.38590154457E+03  0.00000000000E+00 0. -1.
         -4    1    3    3    0  502  0.89701401586E+02  0.55580551668E+02  0.16255092823E+03  0.19379975087E+03  0.00000000000E+00 0.  1.
         13    1    5    5    0    0 -0.27918139095E+03 -0.67778853581E+02  0.62714649274E+03  0.68981805239E+03  0.00000000000E+00 0.  1.
        -13    1    5    5    0    0 -0.14986516200E+02 -0.24708505871E+02  0.14016346322E+03  0.14311150321E+03  0.00000000000E+00 0. -1.
          1    1    6    6  503    0 -0.60435069697E+02 -0.85208684282E+01 -0.73198704658E+02  0.95305053443E+02  0.00000000000E+00 0. -1.
         -1    1    6    6    0  503 -0.11349505349E+02 -0.86769175950E+02 -0.16924155534E+03  0.19052665226E+03  0.00000000000E+00 0.  1.
<mgrwt>
<rscale>  0 0.14262857E+04</rscale>
<asrwt>0</asrwt>
<pdfrwt beam="1">  1        1 0.20159073E+00 0.14262857E+04</pdfrwt>
<pdfrwt beam="2">  1       -2 0.59711198E-01 0.14262857E+04</pdfrwt>
<totfact> 0.19860960E+01</totfact>
</mgrwt>
</event>
<event>
12    5  0.5095719E-008  0.1254774E+04  0.7818608E-02  0.9066219E-01
          1   -1    0    0  501    0  0.00000000000E+00  0.00000000000E+00  0.10696750968E+04  0.10696750968E+04  0.00000000000E+00 0. -1.
         -2   -1    0    0    0  501 -0.00000000000E+00 -0.00000000000E+00 -0.36797582048E+03  0.36797582048E+03  0.00000000000E+00 0.  1.
        -24    2    1    2    0    0  0.98996070250E+02 -0.82121657317E+02  0.49621656856E+03  0.51878437663E+03  0.79763136814E+02 0.  0.
        254    2    1    2    0    0 -0.98996070250E+02  0.82121657317E+02  0.20548270779E+03  0.91886654069E+03  0.88631167649E+03 0.  0.
         23    2    4    4    0    0 -0.28086834826E+03  0.34371945455E+03 -0.10144458937E+03  0.46511068012E+03  0.94904412747E+02 0.  0.
         23    2    4    4    0    0  0.18187227801E+03 -0.26159779723E+03  0.30692729716E+03  0.45375586057E+03  0.10089143786E+03 0.  0.
          3    1    3    3  502    0  0.10442586999E+03 -0.74525310798E+02  0.49215591374E+03  0.50860222935E+03  0.00000000000E+00 0. -1.
         -4    1    3    3    0  502 -0.54297997363E+01 -0.75963465189E+01  0.40606548214E+01  0.10182147278E+02  0.00000000000E+00 0.  1.
         13    1    5    5    0    0  0.19652591480E+01  0.15333295696E+02 -0.18048099272E+02  0.23763545353E+02  0.00000000000E+00 0.  1.
        -13    1    5    5    0    0 -0.28283360741E+03  0.32838615885E+03 -0.83396490095E+02  0.44134713477E+03  0.00000000000E+00 0. -1.
          3    1    6    6  503    0  0.11953821731E+03 -0.13689216860E+03  0.23440369345E+03  0.29660401670E+03  0.00000000000E+00 0. -1.
         -3    1    6    6    0  503  0.62334060707E+02 -0.12470562863E+03  0.72523603712E+02  0.15715184387E+03  0.00000000000E+00 0.  1.
<mgrwt>
<rscale>  0 0.12547742E+04</rscale>
<asrwt>0</asrwt>
<pdfrwt beam="1">  1        1 0.16456540E+00 0.12547742E+04</pdfrwt>
<pdfrwt beam="2">  1       -2 0.56611665E-01 0.12547742E+04</pdfrwt>
<totfact> 0.33821332E+01</totfact>
</mgrwt>
</event>
<event>
12    5  0.5095719E-008  0.1763900E+04  0.7818608E-02  0.8725736E-01
         -4   -1    0    0    0  501 -0.00000000000E+00  0.00000000000E+00  0.21035110037E+03  0.21035110037E+03  0.00000000000E+00 0.  1.
          1   -1    0    0  501    0  0.00000000000E+00 -0.00000000000E+00 -0.36977958444E+04  0.36977958444E+04  0.00000000000E+00 0. -1.
        -24    2    1    2    0    0 -0.15043051122E+03  0.12640880799E+03 -0.26597276169E+04  0.26683306988E+04  0.85024681915E+02 0.  0.
        254    2    1    2    0    0  0.15043051122E+03 -0.12640880799E+03 -0.82771712714E+03  0.12398162460E+04  0.90189808506E+03 0.  0.
         23    2    4    4    0    0 -0.12978342749E+03 -0.17820412351E+03  0.10453933195E+03  0.26066023601E+03  0.91732431715E+02 0.  0.
         23    2    4    4    0    0  0.28021393870E+03  0.51795315513E+02 -0.93225645909E+03  0.97915600999E+03  0.91879161007E+02 0.  0.
          1    1    3    3  502    0 -0.87882651619E+02  0.60443584739E+02 -0.19328533109E+04  0.19357940771E+04  0.00000000000E+00 0. -1.
         -2    1    3    3    0  502 -0.62547859599E+02  0.65965223255E+02 -0.72687430597E+03  0.73253662168E+03  0.00000000000E+00 0.  1.
         13    1    5    5    0    0 -0.12940481382E+03 -0.10809322428E+03  0.76387960708E+02  0.18510772949E+03  0.00000000000E+00 0.  1.
        -13    1    5    5    0    0 -0.37861366158E+00 -0.70110899228E+02  0.28151371237E+02  0.75552506520E+02  0.00000000000E+00 0. -1.
          3    1    6    6  503    0  0.26788671319E+02  0.18009652969E+01 -0.21759028839E+03  0.21924052999E+03  0.00000000000E+00 0. -1.
         -3    1    6    6    0  503  0.25342526739E+03  0.49994350216E+02 -0.71466617069E+03  0.75991548000E+03  0.00000000000E+00 0.  1.
<mgrwt>
<rscale>  0 0.17638996E+04</rscale>
<asrwt>0</asrwt>
<pdfrwt beam="1">  1        1 0.56889165E+00 0.17638996E+04</pdfrwt>
<pdfrwt beam="2">  1       -4 0.32361709E-01 0.17638996E+04</pdfrwt>
<totfact> 0.77023260E-01</totfact>
</mgrwt>
</event>
<event>
12    5  0.5095719E-008  0.1814706E+04  0.7818608E-02  0.8698518E-01
         -2   -1    0    0    0  501 -0.00000000000E+00  0.00000000000E+00  0.69602846509E+03  0.69602846509E+03  0.00000000000E+00 0.  1.
          1   -1    0    0  501    0  0.00000000000E+00 -0.00000000000E+00 -0.11828386304E+04  0.11828386304E+04  0.00000000000E+00 0. -1.
        -24    2    1    2    0    0  0.39678755890E+02 -0.47467772643E+03 -0.69642521816E+03  0.84794931813E+03  0.84360026076E+02 0.  0.
        254    2    1    2    0    0 -0.39678755890E+02  0.47467772643E+03  0.20961505285E+03  0.10309177774E+04  0.88992114576E+03 0.  0.
         23    2    4    4    0    0  0.34361892037E+03  0.29192259451E+03 -0.12947507999E+03  0.48032968851E+03  0.10324751668E+03 0.  0.
         23    2    4    4    0    0 -0.38329767626E+03  0.18275513192E+03  0.33909013284E+03  0.55058808886E+03  0.88592203579E+02 0.  0.
          3    1    3    3  502    0  0.59118394744E+02 -0.42879261425E+03 -0.60614556579E+03  0.74482920026E+03  0.00000000000E+00 0. -1.
         -4    1    3    3    0  502 -0.19439638854E+02 -0.45885112175E+02 -0.90279652371E+02  0.10312011787E+03  0.00000000000E+00 0.  1.
         13    1    5    5    0    0  0.23746225175E+03  0.14923907037E+03 -0.11061562240E+03  0.30149035980E+03  0.00000000000E+00 0. -1.
        -13    1    5    5    0    0  0.10615666862E+03  0.14268352413E+03 -0.18859457592E+02  0.17883932871E+03  0.00000000000E+00 0.  1.
          2    1    6    6  503    0 -0.25184835308E+03  0.15973702038E+03  0.20863324299E+03  0.36396612303E+03  0.00000000000E+00 0. -1.
         -2    1    6    6    0  503 -0.13144932318E+03  0.23018111542E+02  0.13045688984E+03  0.18662196583E+03  0.00000000000E+00 0.  1.
<mgrwt>
<rscale>  0 0.18147059E+04</rscale>
<asrwt>0</asrwt>
<pdfrwt beam="1">  1        1 0.18197517E+00 0.18147059E+04</pdfrwt>
<pdfrwt beam="2">  1       -2 0.10708130E+00 0.18147059E+04</pdfrwt>
<totfact> 0.63755919E+00</totfact>
</mgrwt>
</event>
<event>
12    5  0.6181626E-008  0.1903484E+04  0.7818608E-02  0.8653124E-01
          1   -1    0    0  501    0  0.00000000000E+00  0.00000000000E+00  0.80723686694E+03  0.80723686694E+03  0.00000000000E+00 0. -1.
         -2   -1    0    0    0  501 -0.00000000000E+00 -0.00000000000E+00 -0.11221149571E+04  0.11221149571E+04  0.00000000000E+00 0.  1.
        -24    2    1    2    0    0  0.11570108997E+03 -0.40985910733E+03 -0.73149794418E+03  0.85020038519E+03  0.79876295410E+02 0.  0.
        254    2    1    2    0    0 -0.11570108997E+03  0.40985910733E+03  0.41661985406E+03  0.10791514388E+04  0.89979136192E+03 0.  0.
         23    2    4    4    0    0 -0.32531776365E+03 -0.11290002571E+03 -0.25887947788E+02  0.35728921228E+03  0.91691505707E+02 0.  0.
         23    2    4    4    0    0  0.20961667368E+03  0.52275913304E+03  0.44250780185E+03  0.72186222652E+03  0.89753319277E+02 0.  0.
          3    1    3    3  502    0  0.43577680862E+02 -0.10266435245E+03 -0.25935440423E+03  0.28231842045E+03  0.00000000000E+00 0. -1.
         -4    1    3    3    0  502  0.72123409105E+02 -0.30719475487E+03 -0.47214353995E+03  0.56788196474E+03  0.00000000000E+00 0.  1.
         13    1    5    5    0    0 -0.17429986729E+02 -0.26892716186E+02  0.14309453528E+02  0.35096767394E+02  0.00000000000E+00 0. -1.
        -13    1    5    5    0    0 -0.30788777692E+03 -0.86007309527E+02 -0.40197401316E+02  0.32219244488E+03  0.00000000000E+00 0.  1.
          4    1    6    6  503    0 -0.91525121194E+01  0.24303631013E+02  0.19497579736E+02  0.32474460336E+02  0.00000000000E+00 0. -1.
         -4    1    6    6    0  503  0.21876918580E+03  0.49845550203E+03  0.42301022211E+03  0.68938776619E+03  0.00000000000E+00 0.  1.
<mgrwt>
<rscale>  0 0.19034837E+04</rscale>
<asrwt>0</asrwt>
<pdfrwt beam="1">  1        1 0.12419029E+00 0.19034837E+04</pdfrwt>
<pdfrwt beam="2">  1       -2 0.17263307E+00 0.19034837E+04</pdfrwt>
<totfact> 0.36441635E+00</totfact>
</mgrwt>
</event>
<event>
12    5  0.5095719E-008  0.1849548E+04  0.7818608E-02  0.8680385E-01
         -2   -1    0    0    0  501 -0.00000000000E+00  0.00000000000E+00  0.49504360099E+03  0.49504360099E+03  0.00000000000E+00 0.  1.
          1   -1    0    0  501    0  0.00000000000E+00 -0.00000000000E+00 -0.17275388720E+04  0.17275388720E+04  0.00000000000E+00 0. -1.
        -24    2    1    2    0    0  0.80102680730E+02  0.66188077547E+03 -0.19900253944E+03  0.70037854402E+03  0.80159178056E+02 0.  0.
        254    2    1    2    0    0 -0.80102680730E+02 -0.66188077547E+03 -0.10334927316E+04  0.15222039290E+04  0.89693643854E+03 0.  0.
         23    2    4    4    0    0 -0.45429917240E+03 -0.31516992415E+03 -0.73547687347E+03  0.92476628052E+03  0.92447947740E+02 0.  0.
         23    2    4    4    0    0  0.37419649167E+03 -0.34671085131E+03 -0.29801585811E+03  0.59743764846E+03  0.88808013796E+02 0.  0.
          3    1    3    3  502    0  0.26805534543E+02  0.23654458507E+03 -0.31421287839E+02  0.24012324906E+03  0.00000000000E+00 0. -1.
         -4    1    3    3    0  502  0.53297146187E+02  0.42533619040E+03 -0.16758125160E+03  0.46025529496E+03  0.00000000000E+00 0.  1.
         13    1    5    5    0    0 -0.32044748694E+03 -0.26122710304E+03 -0.50252915277E+03  0.65073937996E+03  0.00000000000E+00 0. -1.
        -13    1    5    5    0    0 -0.13385168547E+03 -0.53942821117E+02 -0.23294772070E+03  0.27402690056E+03  0.00000000000E+00 0.  1.
          3    1    6    6  503    0  0.14773322246E+02  0.22527972173E+01 -0.18473659914E+02  0.23761360569E+02  0.00000000000E+00 0. -1.
         -3    1    6    6    0  503  0.35942316943E+03 -0.34896364853E+03 -0.27954219820E+03  0.57367628789E+03  0.00000000000E+00 0.  1.
<mgrwt>
<rscale>  0 0.18495481E+04</rscale>
<asrwt>0</asrwt>
<pdfrwt beam="1">  1        1 0.26577521E+00 0.18495481E+04</pdfrwt>
<pdfrwt beam="2">  1       -2 0.76160555E-01 0.18495481E+04</pdfrwt>
<totfact> 0.58097827E+00</totfact>
</mgrwt>
</event>
<event>
12    5  0.5095719E-008  0.1729349E+04  0.7818608E-02  0.8744800E-01
         -2   -1    0    0    0  501 -0.00000000000E+00  0.00000000000E+00  0.45256251708E+03  0.45256251708E+03  0.00000000000E+00 0.  1.
          1   -1    0    0  501    0  0.00000000000E+00 -0.00000000000E+00 -0.16520638713E+04  0.16520638713E+04  0.00000000000E+00 0. -1.
        -24    2    1    2    0    0 -0.18690759949E+03 -0.41585482240E+03 -0.10825691599E+04  0.11773665323E+04  0.79788979612E+02 0.  0.
        254    2    1    2    0    0  0.18690759949E+03  0.41585482240E+03 -0.11693219428E+03  0.92725985609E+03  0.79891677826E+03 0.  0.
         23    2    4    4    0    0 -0.43486263928E+02  0.53512871969E+03 -0.27429249626E+03  0.61020786823E+03  0.94145988567E+02 0.  0.
         23    2    4    4    0    0  0.23039386342E+03 -0.11927389729E+03  0.15736030197E+03  0.31705198785E+03  0.91935322315E+02 0.  0.
          1    1    3    3  502    0 -0.10431567773E+03 -0.24142744709E+03 -0.72177818169E+03  0.76820096094E+03  0.00000000000E+00 0. -1.
         -2    1    3    3    0  502 -0.82591921753E+02 -0.17442737531E+03 -0.36079097820E+03  0.40916557131E+03  0.00000000000E+00 0.  1.
         13    1    5    5    0    0 -0.62954915880E+02  0.50226706878E+03 -0.24687063773E+03  0.56318792741E+03  0.00000000000E+00 0. -1.
        -13    1    5    5    0    0  0.19468651952E+02  0.32861650914E+02 -0.27421858529E+02  0.47019940821E+02  0.00000000000E+00 0.  1.
          2    1    6    6  503    0  0.16738295972E+03 -0.10518327185E+03  0.15705939080E+03  0.25248411459E+03  0.00000000000E+00 0. -1.
         -2    1    6    6    0  503  0.63010903697E+02 -0.14090625440E+02  0.30091117198E+00  0.64567873262E+02  0.00000000000E+00 0.  1.
<mgrwt>
<rscale>  0 0.17293492E+04</rscale>
<asrwt>0</asrwt>
<pdfrwt beam="1">  1        1 0.25416367E+00 0.17293492E+04</pdfrwt>
<pdfrwt beam="2">  1       -2 0.69625004E-01 0.17293492E+04</pdfrwt>
<totfact> 0.80542247E+00</totfact>
</mgrwt>
</event>
<event>
12    5  0.5095719E-008  0.1726252E+04  0.7818608E-02  0.8746532E-01
          1   -1    0    0  501    0  0.00000000000E+00  0.00000000000E+00  0.80412269064E+03  0.80412269064E+03  0.00000000000E+00 0. -1.
         -2   -1    0    0    0  501 -0.00000000000E+00 -0.00000000000E+00 -0.92645852607E+03  0.92645852607E+03  0.00000000000E+00 0.  1.
        -24    2    1    2    0    0 -0.81255076450E+02 -0.15606465994E+03  0.54114659180E+03  0.57399108625E+03  0.75283250144E+02 0.  0.
        254    2    1    2    0    0  0.81255076450E+02  0.15606465994E+03 -0.66348242722E+03  0.11565901305E+04  0.93087766818E+03 0.  0.
         23    2    4    4    0    0 -0.55198055899E+02 -0.36605520986E+03 -0.38660048770E+03  0.54297728395E+03  0.91220347248E+02 0.  0.
         23    2    4    4    0    0  0.13645313235E+03  0.52211986980E+03 -0.27688193951E+03  0.61361284651E+03  0.92889726071E+02 0.  0.
          1    1    3    3  502    0 -0.29225217199E+02 -0.12029547248E+03  0.41266674886E+03  0.43083518848E+03  0.00000000000E+00 0. -1.
         -2    1    3    3    0  502 -0.52029859251E+02 -0.35769187460E+02  0.12847984293E+03  0.14315589777E+03  0.00000000000E+00 0.  1.
         13    1    5    5    0    0 -0.31656740001E+01 -0.26620048874E+03 -0.24256495674E+03  0.36015341167E+03  0.00000000000E+00 0.  1.
        -13    1    5    5    0    0 -0.52032381899E+02 -0.99854721115E+02 -0.14403553096E+03  0.18282387228E+03  0.00000000000E+00 0. -1.
          3    1    6    6  503    0  0.11845410245E+03  0.27562276891E+03 -0.13955206383E+03  0.33086865014E+03  0.00000000000E+00 0. -1.
         -3    1    6    6    0  503  0.17999029894E+02  0.24649710089E+03 -0.13732987569E+03  0.28274419637E+03  0.00000000000E+00 0.  1.
<mgrwt>
<rscale>  0 0.17262518E+04</rscale>
<asrwt>0</asrwt>
<pdfrwt beam="1">  1        1 0.12371118E+00 0.17262518E+04</pdfrwt>
<pdfrwt beam="2">  1       -2 0.14253208E+00 0.17262518E+04</pdfrwt>
<totfact> 0.62494992E+00</totfact>
</mgrwt>
</event>
<event>
12    5  0.5095719E-008  0.2395031E+04  0.7818608E-02  0.8441366E-01
         -2   -1    0    0    0  501 -0.00000000000E+00  0.00000000000E+00  0.13979945524E+04  0.13979945524E+04  0.00000000000E+00 0.  1.
          1   -1    0    0  501    0  0.00000000000E+00 -0.00000000000E+00 -0.10257861068E+04  0.10257861068E+04  0.00000000000E+00 0. -1.
        -24    2    1    2    0    0 -0.34440011823E+02  0.33277031592E+03 -0.81213714261E+03  0.88189280903E+03  0.79031580036E+02 0.  0.
        254    2    1    2    0    0  0.34440011823E+02 -0.33277031592E+03  0.11843455882E+04  0.15418878502E+04  0.92888184004E+03 0.  0.
         23    2    4    4    0    0  0.74475958448E+02 -0.14853243688E+03 -0.11660074528E+03  0.22400128579E+03  0.94722167649E+02 0.  0.
         23    2    4    4    0    0 -0.40035946625E+02 -0.18423787904E+03  0.13009463335E+04  0.13178865644E+04  0.93899738902E+02 0.  0.
          1    1    3    3  502    0 -0.59428243648E+02  0.26324982190E+03 -0.63984489041E+03  0.69443046352E+03  0.00000000000E+00 0. -1.
         -4    1    3    3    0  502  0.24988231825E+02  0.69520494022E+02 -0.17229225220E+03  0.18746234551E+03  0.00000000000E+00 0.  1.
         13    1    5    5    0    0  0.28605539630E+02 -0.45448634777E+02 -0.94993510966E+02  0.10912205289E+03  0.00000000000E+00 0. -1.
        -13    1    5    5    0    0  0.45870418818E+02 -0.10308380210E+03 -0.21607234319E+02  0.11487923291E+03  0.00000000000E+00 0.  1.
          1    1    6    6  503    0 -0.15027743652E+02 -0.18099331595E+03  0.10413942834E+04  0.10571123247E+04  0.00000000000E+00 0. -1.
         -1    1    6    6    0  503 -0.25008202973E+02 -0.32445630943E+01  0.25955205010E+03  0.26077423975E+03  0.00000000000E+00 0.  1.
<mgrwt>
<rscale>  0 0.23950310E+04</rscale>
<asrwt>0</asrwt>
<pdfrwt beam="1">  1        1 0.15781325E+00 0.23950310E+04</pdfrwt>
<pdfrwt beam="2">  1       -2 0.21507608E+00 0.23950310E+04</pdfrwt>
<totfact> 0.12065434E+00</totfact>
</mgrwt>
</event>
<event>
12    5  0.5095719E-008  0.4163422E+04  0.7818608E-02  0.7972367E-01
          1   -1    0    0  501    0  0.00000000000E+00  0.00000000000E+00  0.97843966661E+03  0.97843966661E+03  0.00000000000E+00 0. -1.
         -2   -1    0    0    0  501 -0.00000000000E+00 -0.00000000000E+00 -0.44290108613E+04  0.44290108613E+04  0.00000000000E+00 0.  1.
        -24    2    1    2    0    0  0.52749554386E+03  0.10907179038E+04  0.40257900159E+03  0.12791672036E+04  0.79257730222E+02 0.  0.
        254    2    1    2    0    0 -0.52749554386E+03 -0.10907179038E+04 -0.38531501963E+04  0.41282833243E+04  0.85325241051E+03 0.  0.
         23    2    4    4    0    0 -0.60747302106E+03 -0.52755784219E+03 -0.29290384522E+04  0.30388545232E+04  0.89609210491E+02 0.  0.
         23    2    4    4    0    0  0.79977477200E+02 -0.56316006163E+03 -0.92411174412E+03  0.10894288011E+04  0.96576111004E+02 0.  0.
          3    1    3    3  502    0  0.29558075008E+03  0.68312735145E+03  0.22315920874E+03  0.77706562822E+03  0.00000000000E+00 0. -1.
         -4    1    3    3    0  502  0.23191479378E+03  0.40759055237E+03  0.17941979286E+03  0.50210157540E+03  0.00000000000E+00 0.  1.
         13    1    5    5    0    0 -0.11457178972E+03 -0.12293022839E+03 -0.49914954719E+03  0.52667713688E+03  0.00000000000E+00 0. -1.
        -13    1    5    5    0    0 -0.49290123134E+03 -0.40462761380E+03 -0.24298889050E+04  0.25121773863E+04  0.00000000000E+00 0.  1.
          3    1    6    6  503    0  0.67574035421E+01 -0.21460998012E+03 -0.42642048720E+03  0.47742804481E+03  0.00000000000E+00 0. -1.
         -3    1    6    6    0  503  0.73220073658E+02 -0.34855008151E+03 -0.49769125692E+03  0.61200075631E+03  0.00000000000E+00 0.  1.
<mgrwt>
<rscale>  0 0.41634216E+04</rscale>
<asrwt>0</asrwt>
<pdfrwt beam="1">  1        1 0.15052918E+00 0.41634216E+04</pdfrwt>
<pdfrwt beam="2">  1       -2 0.68138630E+00 0.41634216E+04</pdfrwt>
<totfact> 0.28153837E-03</totfact>
</mgrwt>
</event>
<event>
12    5  0.5095719E-008  0.1519186E+04  0.7818608E-02  0.8871794E-01
          1   -1    0    0  501    0  0.00000000000E+00  0.00000000000E+00  0.49064178999E+03  0.49064178999E+03  0.00000000000E+00 0. -1.
         -2   -1    0    0    0  501 -0.00000000000E+00 -0.00000000000E+00 -0.11759725602E+04  0.11759725602E+04  0.00000000000E+00 0.  1.
        -24    2    1    2    0    0  0.22192223931E+02 -0.37912718502E+03 -0.52283923562E+03  0.65102864757E+03  0.79041232457E+02 0.  0.
        254    2    1    2    0    0 -0.22192223931E+02  0.37912718502E+03 -0.16249153460E+03  0.10155857026E+04  0.92778278889E+03 0.  0.
         23    2    4    4    0    0 -0.26143215515E+03 -0.21792353032E+03 -0.40249700844E+02  0.35451564414E+03  0.90685537500E+02 0.  0.
         23    2    4    4    0    0  0.23923993122E+03  0.59705071534E+03 -0.12224183375E+03  0.66107005849E+03  0.91461767648E+02 0.  0.
          3    1    3    3  502    0  0.26723000482E+01 -0.71364081347E+02 -0.52616534426E+02  0.88704413583E+02  0.00000000000E+00 0. -1.
         -4    1    3    3    0  502  0.19519923883E+02 -0.30776310367E+03 -0.47022270119E+03  0.56232423398E+03  0.00000000000E+00 0.  1.
         13    1    5    5    0    0 -0.52588873577E+02 -0.23977915571E+02 -0.38599341491E+02  0.69501361301E+02  0.00000000000E+00 0.  1.
        -13    1    5    5    0    0 -0.20884328157E+03 -0.19394561475E+03 -0.16503593531E+01  0.28501428284E+03  0.00000000000E+00 0. -1.
          2    1    6    6  503    0  0.22498502811E+03  0.48049592468E+03 -0.81523885269E+02  0.53678742569E+03  0.00000000000E+00 0. -1.
         -2    1    6    6    0  503  0.14254903106E+02  0.11655479066E+03 -0.40717948482E+02  0.12428263280E+03  0.00000000000E+00 0.  1.
<mgrwt>
<rscale>  0 0.15191857E+04</rscale>
<asrwt>0</asrwt>
<pdfrwt beam="1">  1        1 0.75483354E-01 0.15191857E+04</pdfrwt>
<pdfrwt beam="2">  1       -2 0.18091885E+00 0.15191857E+04</pdfrwt>
<totfact> 0.68602450E+00</totfact>
</mgrwt>
</event>
<event>
12    5  0.5095719E-008  0.1068992E+04  0.7818608E-02  0.9235952E-01
          1   -1    0    0  501    0  0.00000000000E+00  0.00000000000E+00  0.59867054417E+03  0.59867054417E+03  0.00000000000E+00 0. -1.
         -2   -1    0    0    0  501 -0.00000000000E+00 -0.00000000000E+00 -0.47720089824E+03  0.47720089824E+03  0.00000000000E+00 0.  1.
        -24    2    1    2    0    0  0.47294273284E+02 -0.47529084050E+02 -0.10643025958E+03  0.14866786934E+03  0.79239971618E+02 0.  0.
        254    2    1    2    0    0 -0.47294273284E+02  0.47529084050E+02  0.22789990551E+03  0.92720357308E+03  0.89625461610E+03 0.  0.
         23    2    4    4    0    0 -0.42055836715E+03  0.21069027360E+03  0.15290304756E+03  0.50292305011E+03  0.91063279155E+02 0.  0.
         23    2    4    4    0    0  0.37326409387E+03 -0.16316118955E+03  0.74996857954E+02  0.42428052297E+03  0.91879137572E+02 0.  0.
          3    1    3    3  502    0  0.16073423127E+02 -0.65198529048E+02 -0.60474732726E+02  0.90368116165E+02  0.00000000000E+00 0. -1.
         -4    1    3    3    0  502  0.31220850156E+02  0.17669444998E+02 -0.45955526857E+02  0.58299753171E+02  0.00000000000E+00 0.  1.
         13    1    5    5    0    0 -0.33237876519E+03  0.12394686940E+03  0.12504597152E+03  0.37613157934E+03  0.00000000000E+00 0.  1.
        -13    1    5    5    0    0 -0.88179601961E+02  0.86743404209E+02  0.27857076035E+02  0.12679147077E+03  0.00000000000E+00 0. -1.
          2    1    6    6  503    0  0.87504336353E+02 -0.37297797572E+02  0.58338186050E+02  0.11158619330E+03  0.00000000000E+00 0. -1.
         -2    1    6    6    0  503  0.28575975751E+03 -0.12586339198E+03  0.16658671904E+02  0.31269432967E+03  0.00000000000E+00 0.  1.
<mgrwt>
<rscale>  0 0.10689923E+04</rscale>
<asrwt>0</asrwt>
<pdfrwt beam="1">  1        1 0.92103160E-01 0.10689923E+04</pdfrwt>
<pdfrwt beam="2">  1       -2 0.73415523E-01 0.10689923E+04</pdfrwt>
<totfact> 0.50291548E+01</totfact>
</mgrwt>
</event>
<event>
12    5  0.5095719E-008  0.1478104E+04  0.7818608E-02  0.8899145E-01
          1   -1    0    0  501    0  0.00000000000E+00  0.00000000000E+00  0.29147396505E+04  0.29147396505E+04  0.00000000000E+00 0. -1.
         -2   -1    0    0    0  501 -0.00000000000E+00 -0.00000000000E+00 -0.18739171374E+03  0.18739171374E+03  0.00000000000E+00 0.  1.
        -24    2    1    2    0    0  0.23364187115E+03  0.40519647948E+03  0.75282033185E+03  0.88984991276E+03  0.79509145692E+02 0.  0.
        254    2    1    2    0    0 -0.23364187115E+03 -0.40519647948E+03  0.19745276049E+04  0.22122814515E+04  0.88128159351E+03 0.  0.
         23    2    4    4    0    0  0.94527484845E+02 -0.37114882367E+03  0.17714000929E+04  0.18146445548E+04  0.91595177483E+02 0.  0.
         23    2    4    4    0    0 -0.32816935599E+03 -0.34047655812E+02  0.20312751202E+03  0.39763689666E+03  0.89442419280E+02 0.  0.
          1    1    3    3  502    0  0.20929433003E+03  0.34606242364E+03  0.59371688047E+03  0.71837528618E+03  0.00000000000E+00 0. -1.
         -2    1    3    3    0  502  0.24347541119E+02  0.59134055842E+02  0.15910345138E+03  0.17147462658E+03  0.00000000000E+00 0.  1.
         13    1    5    5    0    0  0.39290228303E+02 -0.28482339792E+03  0.11869833804E+04  0.12213098032E+04  0.00000000000E+00 0. -1.
        -13    1    5    5    0    0  0.55237256542E+02 -0.86325425745E+02  0.58441671252E+03  0.59333475165E+03  0.00000000000E+00 0.  1.
          2    1    6    6  503    0 -0.28832984698E+03 -0.11418600612E+02  0.14301057274E+03  0.32205047588E+03  0.00000000000E+00 0. -1.
         -2    1    6    6    0  503 -0.39839509012E+02 -0.22629055200E+02  0.60116939282E+02  0.75586420779E+02  0.00000000000E+00 0.  1.
<mgrwt>
<rscale>  0 0.14781043E+04</rscale>
<asrwt>0</asrwt>
<pdfrwt beam="1">  1        1 0.44842145E+00 0.14781043E+04</pdfrwt>
<pdfrwt beam="2">  1       -2 0.28829497E-01 0.14781043E+04</pdfrwt>
<totfact> 0.65161627E+00</totfact>
</mgrwt>
</event>
<event>
12    5  0.5095719E-008  0.1212608E+04  0.7818608E-02  0.9101892E-01
         -2   -1    0    0    0  501 -0.00000000000E+00  0.00000000000E+00  0.30205586506E+03  0.30205586506E+03  0.00000000000E+00 0.  1.
          1   -1    0    0  501    0  0.00000000000E+00 -0.00000000000E+00 -0.12170084473E+04  0.12170084473E+04  0.00000000000E+00 0. -1.
        -24    2    1    2    0    0 -0.11185952914E+03 -0.12801916308E+03 -0.45360776920E+03  0.49089976497E+03  0.79505412332E+02 0.  0.
        254    2    1    2    0    0  0.11185952914E+03  0.12801916308E+03 -0.46134481301E+03  0.10281645474E+04  0.90298496088E+03 0.  0.
         23    2    4    4    0    0  0.39766044298E+03 -0.17783341851E+03 -0.76419599934E+02  0.45225109923E+03  0.94512162444E+02 0.  0.
         23    2    4    4    0    0 -0.28580091384E+03  0.30585258159E+03 -0.38492521307E+03  0.57591344812E+03  0.90999538736E+02 0.  0.
          1    1    3    3  502    0 -0.56334039611E+02 -0.57095478899E+02 -0.31904368897E+03  0.32897156899E+03  0.00000000000E+00 0. -1.
         -2    1    3    3    0  502 -0.55525489530E+02 -0.70923684180E+02 -0.13456408023E+03  0.16192819598E+03  0.00000000000E+00 0.  1.
         13    1    5    5    0    0  0.33320480647E+03 -0.18335530326E+03 -0.56059639893E+02  0.38443112974E+03  0.00000000000E+00 0. -1.
        -13    1    5    5    0    0  0.64455636511E+02  0.55218847429E+01 -0.20359960041E+02  0.67819969493E+02  0.00000000000E+00 0.  1.
          1    1    6    6  503    0 -0.25185683332E+03  0.21487184067E+03 -0.28994930094E+03  0.44008223041E+03  0.00000000000E+00 0. -1.
         -1    1    6    6    0  503 -0.33944080522E+02  0.90980740921E+02 -0.94975912133E+02  0.13583121772E+03  0.00000000000E+00 0.  1.
<mgrwt>
<rscale>  0 0.12126080E+04</rscale>
<asrwt>0</asrwt>
<pdfrwt beam="1">  1        1 0.18723207E+00 0.12126080E+04</pdfrwt>
<pdfrwt beam="2">  1       -2 0.46470133E-01 0.12126080E+04</pdfrwt>
<totfact> 0.39531119E+01</totfact>
</mgrwt>
</event>
<event>
12    5  0.5095719E-008  0.2096732E+04  0.7818608E-02  0.8562684E-01
          1   -1    0    0  501    0  0.00000000000E+00  0.00000000000E+00  0.19531961279E+04  0.19531961279E+04  0.00000000000E+00 0. -1.
         -2   -1    0    0    0  501 -0.00000000000E+00 -0.00000000000E+00 -0.56270424702E+03  0.56270424702E+03  0.00000000000E+00 0.  1.
        -24    2    1    2    0    0 -0.17683435923E+03 -0.71684195513E+03  0.10906549120E+04  0.13196129870E+04  0.81960473139E+02 0.  0.
        254    2    1    2    0    0  0.17683435923E+03  0.71684195513E+03  0.29983696885E+03  0.11962873879E+04  0.89222672414E+03 0.  0.
         23    2    4    4    0    0  0.27753048719E+03  0.86687816522E+03  0.36352133067E+03  0.98434814391E+03  0.91063636551E+02 0.  0.
         23    2    4    4    0    0 -0.10069612796E+03 -0.15003621009E+03 -0.63684361816E+02  0.21193924398E+03  0.90619924263E+02 0.  0.
          1    1    3    3  502    0 -0.17818637264E+03 -0.71337832849E+03  0.10679264229E+04  0.12965823798E+04  0.00000000000E+00 0. -1.
         -2    1    3    3    0  502  0.13520134110E+01 -0.34636266455E+01  0.22728489149E+02  0.23030607217E+02  0.00000000000E+00 0.  1.
         13    1    5    5    0    0  0.15525255335E+03  0.58406014242E+03  0.20745724980E+03  0.63895861821E+03  0.00000000000E+00 0. -1.
        -13    1    5    5    0    0  0.12227793384E+03  0.28281802280E+03  0.15606408087E+03  0.34538952570E+03  0.00000000000E+00 0.  1.
          1    1    6    6  503    0  0.81136563023E+00 -0.71878483805E+02 -0.82701547089E+01  0.72357240185E+02  0.00000000000E+00 0. -1.
         -1    1    6    6    0  503 -0.10150749359E+03 -0.78157726283E+02 -0.55414207107E+02  0.13958200379E+03  0.00000000000E+00 0.  1.
<mgrwt>
<rscale>  0 0.20967325E+04</rscale>
<asrwt>0</asrwt>
<pdfrwt beam="1">  1        1 0.30049171E+00 0.20967325E+04</pdfrwt>
<pdfrwt beam="2">  1       -2 0.86569885E-01 0.20967325E+04</pdfrwt>
<totfact> 0.29933534E+00</totfact>
</mgrwt>
</event>
<event>
12    5  0.5095719E-008  0.1875868E+04  0.7818608E-02  0.8666962E-01
          1   -1    0    0  501    0  0.00000000000E+00  0.00000000000E+00  0.24164693608E+04  0.24164693608E+04  0.00000000000E+00 0. -1.
         -2   -1    0    0    0  501 -0.00000000000E+00 -0.00000000000E+00 -0.36405193745E+03  0.36405193745E+03  0.00000000000E+00 0.  1.
        -24    2    1    2    0    0 -0.22894154714E+03  0.66818408006E+03  0.54624120164E+03  0.89625359273E+03  0.77503904754E+02 0.  0.
        254    2    1    2    0    0  0.22894154714E+03 -0.66818408006E+03  0.15061762217E+04  0.18842677055E+04  0.88488065767E+03 0.  0.
         23    2    4    4    0    0 -0.19621566238E+02 -0.72873447938E+03  0.14204306302E+04  0.15990285154E+04  0.88487685831E+02 0.  0.
         23    2    4    4    0    0  0.24856311338E+03  0.60550399321E+02  0.85745591445E+02  0.28523919005E+03  0.92515495447E+02 0.  0.
          3    1    3    3  502    0 -0.44784670217E+02  0.19132305585E+03  0.18877045420E+03  0.27247837119E+03  0.00000000000E+00 0. -1.
         -4    1    3    3    0  502 -0.18415687693E+03  0.47686102422E+03  0.35747074744E+03  0.62377522154E+03  0.00000000000E+00 0.  1.
         13    1    5    5    0    0  0.71319606761E+01 -0.62662787796E+03  0.11698945885E+04  0.13271649146E+04  0.00000000000E+00 0. -1.
        -13    1    5    5    0    0 -0.26753526914E+02 -0.10210660143E+03  0.25053604175E+03  0.27186360087E+03  0.00000000000E+00 0.  1.
          1    1    6    6  503    0  0.22116148343E+03  0.36905678372E+02  0.41418132524E+02  0.22801292190E+03  0.00000000000E+00 0. -1.
         -1    1    6    6    0  503  0.27401629948E+02  0.23644720950E+02  0.44327458920E+02  0.57226268155E+02  0.00000000000E+00 0.  1.
<mgrwt>
<rscale>  0 0.18758682E+04</rscale>
<asrwt>0</asrwt>
<pdfrwt beam="1">  1        1 0.37176451E+00 0.18758682E+04</pdfrwt>
<pdfrwt beam="2">  1       -2 0.56007992E-01 0.18758682E+04</pdfrwt>
<totfact> 0.38173791E+00</totfact>
</mgrwt>
</event>
<event>
12    5  0.5095719E-008  0.2022660E+04  0.7818608E-02  0.8596099E-01
          1   -1    0    0  501    0  0.00000000000E+00  0.00000000000E+00  0.16347332361E+04  0.16347332361E+04  0.00000000000E+00 0. -1.
         -2   -1    0    0    0  501 -0.00000000000E+00 -0.00000000000E+00 -0.62566069539E+03  0.62566069539E+03  0.00000000000E+00 0.  1.
        -24    2    1    2    0    0 -0.18626853107E+03  0.69216262046E+03  0.86913945044E+03  0.11297729782E+04  0.84844204890E+02 0.  0.
        254    2    1    2    0    0  0.18626853107E+03 -0.69216262046E+03  0.13993309027E+03  0.11306209533E+04  0.86309756776E+03 0.  0.
         23    2    4    4    0    0 -0.13526186525E+03 -0.53652591477E+02 -0.25608658208E+03  0.30830383269E+03  0.91085360877E+02 0.  0.
         23    2    4    4    0    0  0.32153039632E+03 -0.63851002898E+03  0.39601967235E+03  0.82231712062E+03  0.91087941587E+02 0.  0.
          1    1    3    3  502    0 -0.10246975693E+03  0.52366352846E+03  0.64519719546E+03  0.83725919712E+03  0.00000000000E+00 0. -1.
         -2    1    3    3    0  502 -0.83798774138E+02  0.16849909200E+03  0.22394225498E+03  0.29251378107E+03  0.00000000000E+00 0.  1.
         13    1    5    5    0    0  0.65261951952E+01 -0.10292483605E+01  0.37946653475E+01  0.76190590635E+01  0.00000000000E+00 0. -1.
        -13    1    5    5    0    0 -0.14178806044E+03 -0.52623343116E+02 -0.25988124743E+03  0.30068477363E+03  0.00000000000E+00 0.  1.
          1    1    6    6  503    0  0.35902332487E+02 -0.12715416300E+03  0.10215943651E+03  0.16701409854E+03  0.00000000000E+00 0. -1.
         -1    1    6    6    0  503  0.28562806383E+03 -0.51135586599E+03  0.29386023585E+03  0.65530302207E+03  0.00000000000E+00 0.  1.
<mgrwt>
<rscale>  0 0.20226600E+04</rscale>
<asrwt>0</asrwt>
<pdfrwt beam="1">  1        1 0.25149742E+00 0.20226600E+04</pdfrwt>
<pdfrwt beam="2">  1       -2 0.96255492E-01 0.20226600E+04</pdfrwt>
<totfact> 0.38801282E+00</totfact>
</mgrwt>
</event>
<event>
12    5  0.5095719E-008  0.1577960E+04  0.7818608E-02  0.8834203E-01
         -2   -1    0    0    0  501 -0.00000000000E+00  0.00000000000E+00  0.10600653308E+04  0.10600653308E+04  0.00000000000E+00 0.  1.
          1   -1    0    0  501    0  0.00000000000E+00 -0.00000000000E+00 -0.58721832927E+03  0.58721832927E+03  0.00000000000E+00 0. -1.
        -24    2    1    2    0    0 -0.59699292779E+02  0.42121168368E+03 -0.18229924159E+03  0.46949557497E+03  0.78802242423E+02 0.  0.
        254    2    1    2    0    0  0.59699292779E+02 -0.42121168368E+03  0.65514624314E+03  0.11777880851E+04  0.88146746140E+03 0.  0.
         23    2    4    4    0    0 -0.17180772601E+03 -0.32833491113E+03 -0.85111330396E+02  0.39082730494E+03  0.90445205207E+02 0.  0.
         23    2    4    4    0    0  0.23150701879E+03 -0.92876772550E+02  0.74025757354E+03  0.78696078017E+03  0.95416978125E+02 0.  0.
          1    1    3    3  502    0 -0.24504661066E+02  0.34846677824E+03 -0.16722479208E+03  0.38729020777E+03  0.00000000000E+00 0. -1.
         -2    1    3    3    0  502 -0.35194631712E+02  0.72744905442E+02 -0.15074449509E+02  0.82205367204E+02  0.00000000000E+00 0.  1.
         13    1    5    5    0    0 -0.16675161718E+03 -0.23599442715E+03 -0.65395171975E+02  0.29627014699E+03  0.00000000000E+00 0.  1.
        -13    1    5    5    0    0 -0.50561088287E+01 -0.92340483976E+02 -0.19716158421E+02  0.94557157953E+02  0.00000000000E+00 0. -1.
          2    1    6    6  503    0  0.44214699085E+02  0.70870091181E+01  0.22968169513E+03  0.23400608196E+03  0.00000000000E+00 0. -1.
         -2    1    6    6    0  503  0.18729231970E+03 -0.99963781668E+02  0.51057587841E+03  0.55295469821E+03  0.00000000000E+00 0.  1.
<mgrwt>
<rscale>  0 0.15779604E+04</rscale>
<asrwt>0</asrwt>
<pdfrwt beam="1">  1        1 0.90341281E-01 0.15779604E+04</pdfrwt>
<pdfrwt beam="2">  1       -2 0.16308697E+00 0.15779604E+04</pdfrwt>
<totfact> 0.70991502E+00</totfact>
</mgrwt>
</event>
<event>
12    5  0.5095719E-008  0.2519178E+04  0.7818608E-02  0.8396185E-01
         -2   -1    0    0    0  501 -0.00000000000E+00  0.00000000000E+00  0.37863696264E+04  0.37863696264E+04  0.00000000000E+00 0.  1.
          1   -1    0    0  501    0  0.00000000000E+00 -0.00000000000E+00 -0.41901995859E+03  0.41901995859E+03  0.00000000000E+00 0. -1.
        -24    2    1    2    0    0 -0.12126155708E+02 -0.10571560652E+04  0.98222869262E+03  0.14458813245E+04  0.89853270288E+02 0.  0.
        254    2    1    2    0    0  0.12126155708E+02  0.10571560652E+04  0.23851209752E+04  0.27595082605E+04  0.89908719453E+03 0.  0.
         23    2    4    4    0    0 -0.42698894375E+03  0.60089721669E+03  0.11617275290E+04  0.13788556394E+04  0.90746898219E+02 0.  0.
         23    2    4    4    0    0  0.43911509946E+03  0.45625884852E+03  0.12233934462E+04  0.13806526210E+04  0.92281788231E+02 0.  0.
          3    1    3    3  502    0 -0.32035550579E+02 -0.27838088962E+03  0.22358211127E+03  0.35848452782E+03  0.00000000000E+00 0. -1.
         -4    1    3    3    0  502  0.19909394871E+02 -0.77877517558E+03  0.75864658135E+03  0.10873967967E+04  0.00000000000E+00 0.  1.
         13    1    5    5    0    0 -0.22327185558E+03  0.38872498106E+03  0.68227614539E+03  0.81636889392E+03  0.00000000000E+00 0. -1.
        -13    1    5    5    0    0 -0.20371708817E+03  0.21217223563E+03  0.47945138363E+03  0.56248674549E+03  0.00000000000E+00 0.  1.
          4    1    6    6  503    0  0.37993152945E+03  0.35344060428E+03  0.94643783847E+03  0.10793575913E+04  0.00000000000E+00 0. -1.
         -4    1    6    6    0  503  0.59183570007E+02  0.10281824424E+03  0.27695560771E+03  0.30129502974E+03  0.00000000000E+00 0.  1.
<mgrwt>
<rscale>  0 0.25191780E+04</rscale>
<asrwt>0</asrwt>
<pdfrwt beam="1">  1        1 0.64464611E-01 0.25191780E+04</pdfrwt>
<pdfrwt beam="2">  1       -2 0.58251838E+00 0.25191780E+04</pdfrwt>
<totfact> 0.25839204E-02</totfact>
</mgrwt>
</event>
<event>
12    5  0.5095719E-008  0.1792928E+04  0.7818608E-02  0.8710069E-01
         -2   -1    0    0    0  501 -0.00000000000E+00  0.00000000000E+00  0.56162473456E+03  0.56162473456E+03  0.00000000000E+00 0.  1.
          1   -1    0    0  501    0  0.00000000000E+00 -0.00000000000E+00 -0.14309335603E+04  0.14309335603E+04  0.00000000000E+00 0. -1.
        -24    2    1    2    0    0 -0.21374395526E+03  0.57122449749E+03 -0.35501852968E+02  0.61605147283E+03  0.79215722374E+02 0.  0.
        254    2    1    2    0    0  0.21374395526E+03 -0.57122449749E+03 -0.83380697274E+03  0.13765068220E+04  0.90969943292E+03 0.  0.
         23    2    4    4    0    0 -0.53816482911E+01 -0.55474222081E+03 -0.95612610603E+03  0.11090550738E+04  0.89767100528E+02 0.  0.
         23    2    4    4    0    0  0.21912560355E+03 -0.16482276680E+02  0.12231913329E+03  0.26745174822E+03  0.90998745482E+02 0.  0.
          1    1    3    3  502    0 -0.62319571520E+02  0.19671517836E+03 -0.48134764346E+02  0.21189041019E+03  0.00000000000E+00 0. -1.
         -2    1    3    3    0  502 -0.15142438374E+03  0.37450931913E+03  0.12632911378E+02  0.40416106264E+03  0.00000000000E+00 0.  1.
         13    1    5    5    0    0 -0.27634547272E+02 -0.46689400642E+03 -0.74997217745E+03  0.88386195097E+03  0.00000000000E+00 0.  1.
        -13    1    5    5    0    0  0.22252898981E+02 -0.87848214384E+02 -0.20615392859E+03  0.22519312280E+03  0.00000000000E+00 0. -1.
          2    1    6    6  503    0  0.62297244587E+01 -0.90345209719E+01 -0.11488317073E+02  0.15887525458E+02  0.00000000000E+00 0. -1.
         -2    1    6    6    0  503  0.21289587909E+03 -0.74477557079E+01  0.13380745037E+03  0.25156422276E+03  0.00000000000E+00 0.  1.
<mgrwt>
<rscale>  0 0.17929280E+04</rscale>
<asrwt>0</asrwt>
<pdfrwt beam="1">  1        1 0.22014362E+00 0.17929280E+04</pdfrwt>
<pdfrwt beam="2">  1       -2 0.86403806E-01 0.17929280E+04</pdfrwt>
<totfact> 0.70278582E+00</totfact>
</mgrwt>
</event>
<event>
12    5  0.5095719E-008  0.3145344E+04  0.7818608E-02  0.8203403E-01
         -2   -1    0    0    0  501 -0.00000000000E+00  0.00000000000E+00  0.18642908568E+04  0.18642908568E+04  0.00000000000E+00 0.  1.
          1   -1    0    0  501    0  0.00000000000E+00 -0.00000000000E+00 -0.13266687904E+04  0.13266687904E+04  0.00000000000E+00 0. -1.
        -24    2    1    2    0    0 -0.59136480423E+03  0.43851817065E+03 -0.10124515040E+04  0.12540991425E+04  0.75472468549E+02 0.  0.
        254    2    1    2    0    0  0.59136480423E+03 -0.43851817065E+03  0.15500735704E+04  0.19368605048E+04  0.89815924181E+03 0.  0.
         23    2    4    4    0    0  0.17394586030E+03 -0.15954269755E+03  0.13747844247E+04  0.13979930392E+04  0.92958531062E+02 0.  0.
         23    2    4    4    0    0  0.41741894393E+03 -0.27897547311E+03  0.17528914568E+03  0.53886746560E+03  0.87097482951E+02 0.  0.
          3    1    3    3  502    0 -0.43312408163E+03  0.31050935159E+03 -0.67505266532E+03  0.86006315377E+03  0.00000000000E+00 0. -1.
         -4    1    3    3    0  502 -0.15824072260E+03  0.12800881906E+03 -0.33739883871E+03  0.39403598872E+03  0.00000000000E+00 0.  1.
         13    1    5    5    0    0  0.14893010138E+03 -0.17044664372E+03  0.12186786892E+04  0.12395200607E+04  0.00000000000E+00 0. -1.
        -13    1    5    5    0    0  0.25015758919E+02  0.10903946172E+02  0.15610573554E+03  0.15847297847E+03  0.00000000000E+00 0.  1.
          2    1    6    6  503    0  0.37777961440E+03 -0.27683523261E+03  0.14994968131E+03  0.49177239654E+03  0.00000000000E+00 0. -1.
         -2    1    6    6    0  503  0.39639329528E+02 -0.21402404979E+01  0.25339464375E+02  0.47095069059E+02  0.00000000000E+00 0.  1.
<mgrwt>
<rscale>  0 0.31453435E+04</rscale>
<asrwt>0</asrwt>
<pdfrwt beam="1">  1        1 0.20410289E+00 0.31453435E+04</pdfrwt>
<pdfrwt beam="2">  1       -2 0.28681398E+00 0.31453435E+04</pdfrwt>
<totfact> 0.24449393E-01</totfact>
</mgrwt>
</event>
<event>
12    5  0.5095719E-008  0.1878184E+04  0.7818608E-02  0.8665792E-01
         -2   -1    0    0    0  501 -0.00000000000E+00  0.00000000000E+00  0.14209212197E+04  0.14209212197E+04  0.00000000000E+00 0.  1.
          1   -1    0    0  501    0  0.00000000000E+00 -0.00000000000E+00 -0.62064943104E+03  0.62064943104E+03  0.00000000000E+00 0. -1.
        -24    2    1    2    0    0  0.43967427465E+03  0.38158106875E+03 -0.41741318354E+02  0.58922898389E+03  0.80813847658E+02 0.  0.
        254    2    1    2    0    0 -0.43967427465E+03 -0.38158106875E+03  0.84201310699E+03  0.14523416668E+04  0.10302391300E+04 0.  0.
         23    2    4    4    0    0  0.29160441830E+03 -0.32128380302E+03  0.34646029279E+03  0.56228392446E+03  0.88724621005E+02 0.  0.
         23    2    4    4    0    0 -0.73127869296E+03 -0.60297265733E+02  0.49555281420E+03  0.89005774237E+03  0.90696780909E+02 0.  0.
          3    1    3    3  502    0  0.19473940764E+03  0.14998742552E+03  0.19678418415E+02  0.24659056116E+03  0.00000000000E+00 0. -1.
         -4    1    3    3    0  502  0.24493486702E+03  0.23159364323E+03 -0.61419736769E+02  0.34263842273E+03  0.00000000000E+00 0.  1.
         13    1    5    5    0    0  0.24878304385E+02 -0.67437115457E+02  0.34706350772E+02  0.79819955864E+02  0.00000000000E+00 0. -1.
        -13    1    5    5    0    0  0.26672611392E+03 -0.25384668756E+03  0.31175394201E+03  0.48246396860E+03  0.00000000000E+00 0.  1.
          4    1    6    6  503    0 -0.22133928953E+03  0.22654821283E+02  0.13957765594E+03  0.26265232543E+03  0.00000000000E+00 0. -1.
         -4    1    6    6    0  503 -0.50993940343E+03 -0.82952087016E+02  0.35597515826E+03  0.62740541694E+03  0.00000000000E+00 0.  1.
<mgrwt>
<rscale>  0 0.18781842E+04</rscale>
<asrwt>0</asrwt>
<pdfrwt beam="1">  1        1 0.95484528E-01 0.18781842E+04</pdfrwt>
<pdfrwt beam="2">  1       -2 0.21860326E+00 0.18781842E+04</pdfrwt>
<totfact> 0.26974903E+00</totfact>
</mgrwt>
</event>
<event>
12    5  0.5095719E-008  0.2077017E+04  0.7818608E-02  0.8571435E-01
          1   -1    0    0  501    0  0.00000000000E+00  0.00000000000E+00  0.53886503059E+03  0.53886503059E+03  0.00000000000E+00 0. -1.
         -2   -1    0    0    0  501 -0.00000000000E+00 -0.00000000000E+00 -0.20014294524E+04  0.20014294524E+04  0.00000000000E+00 0.  1.
        -24    2    1    2    0    0 -0.69004666760E+03  0.18492563728E+02 -0.19782358148E+01  0.69448298005E+03  0.76133552288E+02 0.  0.
        254    2    1    2    0    0  0.69004666760E+03 -0.18492563728E+02 -0.14605861860E+04  0.18458115029E+04  0.89286153421E+03 0.  0.
         23    2    4    4    0    0  0.76960507518E+03 -0.23333580942E+02 -0.60911327546E+03  0.98614581195E+03  0.92887848179E+02 0.  0.
         23    2    4    4    0    0 -0.79558407586E+02  0.48410172140E+01 -0.85147291050E+03  0.85966569095E+03  0.87555737832E+02 0.  0.
          1    1    3    3  502    0 -0.63181452021E+03  0.22349191808E+02  0.18924384182E+02  0.63249285105E+03  0.00000000000E+00 0. -1.
         -2    1    3    3    0  502 -0.58232147390E+02 -0.38566280795E+01 -0.20902619997E+02  0.61990128993E+02  0.00000000000E+00 0.  1.
         13    1    5    5    0    0  0.61905044361E+03  0.88713355779E+01 -0.45519848224E+03  0.76844506021E+03  0.00000000000E+00 0.  1.
        -13    1    5    5    0    0  0.15055463157E+03 -0.32204916520E+02 -0.15391479322E+03  0.21770075173E+03  0.00000000000E+00 0. -1.
          2    1    6    6  503    0  0.18158545343E+02 -0.10196436931E+01 -0.82119524929E+02  0.84109386021E+02  0.00000000000E+00 0. -1.
         -2    1    6    6    0  503 -0.97716952929E+02  0.58606609071E+01 -0.76935338557E+03  0.77555630493E+03  0.00000000000E+00 0.  1.
<mgrwt>
<rscale>  0 0.20770174E+04</rscale>
<asrwt>0</asrwt>
<pdfrwt beam="1">  1        1 0.82902314E-01 0.20770174E+04</pdfrwt>
<pdfrwt beam="2">  1       -2 0.30791222E+00 0.20770174E+04</pdfrwt>
<totfact> 0.91663864E-01</totfact>
</mgrwt>
</event>
<event>
12    5  0.5095719E-008  0.1955067E+04  0.7818608E-02  0.8627921E-01
          1   -1    0    0  501    0  0.00000000000E+00  0.00000000000E+00  0.12620162573E+04  0.12620162573E+04  0.00000000000E+00 0. -1.
         -2   -1    0    0    0  501 -0.00000000000E+00 -0.00000000000E+00 -0.75717865130E+03  0.75717865130E+03  0.00000000000E+00 0.  1.
        -24    2    1    2    0    0  0.45658517972E+03  0.41686549219E+03 -0.27895098614E+03  0.68283714788E+03  0.78778505574E+02 0.  0.
        254    2    1    2    0    0 -0.45658517972E+03 -0.41686549219E+03  0.78378859215E+03  0.13363577607E+04  0.88841467939E+03 0.  0.
         23    2    4    4    0    0 -0.27073318331E+03 -0.66197306122E+03  0.36345682622E+03  0.80742815451E+03  0.91293865288E+02 0.  0.
         23    2    4    4    0    0 -0.18585199641E+03  0.24510756903E+03  0.42033176594E+03  0.52892960622E+03  0.92027441126E+02 0.  0.
          3    1    3    3  502    0  0.29424200430E+02  0.28033853378E+02  0.16167004692E+01  0.40673015951E+02  0.00000000000E+00 0. -1.
         -4    1    3    3    0  502  0.42716097929E+03  0.38883163881E+03 -0.28056768661E+03  0.64216413193E+03  0.00000000000E+00 0.  1.
         13    1    5    5    0    0 -0.11106817256E+03 -0.31136573272E+03  0.11994859891E+03  0.35167090418E+03  0.00000000000E+00 0. -1.
        -13    1    5    5    0    0 -0.15966501075E+03 -0.35060732851E+03  0.24350822731E+03  0.45575725033E+03  0.00000000000E+00 0.  1.
          3    1    6    6  503    0 -0.16134272913E+03  0.15477602851E+03  0.33177928645E+03  0.40008072955E+03  0.00000000000E+00 0. -1.
         -3    1    6    6    0  503 -0.24509267279E+02  0.90331540525E+02  0.88552479487E+02  0.12884887667E+03  0.00000000000E+00 0.  1.
<mgrwt>
<rscale>  0 0.19550670E+04</rscale>
<asrwt>0</asrwt>
<pdfrwt beam="1">  1        1 0.19415635E+00 0.19550670E+04</pdfrwt>
<pdfrwt beam="2">  1       -2 0.11648902E+00 0.19550670E+04</pdfrwt>
<totfact> 0.44964924E+00</totfact>
</mgrwt>
</event>
<event>
12    5  0.5095719E-008  0.1453183E+04  0.7818608E-02  0.8916196E-01
         -2   -1    0    0    0  501 -0.00000000000E+00  0.00000000000E+00  0.21070475402E+03  0.21070475402E+03  0.00000000000E+00 0.  1.
          1   -1    0    0  501    0  0.00000000000E+00 -0.00000000000E+00 -0.25055701442E+04  0.25055701442E+04  0.00000000000E+00 0. -1.
        -24    2    1    2    0    0  0.27368792597E+03 -0.33217160743E+03 -0.12157712399E+04  0.12922674749E+04  0.81317041570E+02 0.  0.
        254    2    1    2    0    0 -0.27368792597E+03  0.33217160743E+03 -0.10790941502E+04  0.14240074233E+04  0.82347428553E+03 0.  0.
         23    2    4    4    0    0  0.22685029466E+03 -0.56701830795E+02 -0.50017993624E+03  0.56074768231E+03  0.97886877567E+02 0.  0.
         23    2    4    4    0    0 -0.50053822063E+03  0.38887343823E+03 -0.57891421396E+03  0.86325974096E+03  0.91184713419E+02 0.  0.
          1    1    3    3  502    0  0.27152916816E+03 -0.33615798809E+03 -0.12104873022E+04  0.12853053299E+04  0.00000000000E+00 0. -1.
         -2    1    3    3    0  502  0.21587578093E+01  0.39863806548E+01 -0.52839377211E+01  0.69621450606E+01  0.00000000000E+00 0.  1.
         13    1    5    5    0    0  0.17617374911E+03 -0.46253598956E+02 -0.27607925763E+03  0.33075117806E+03  0.00000000000E+00 0.  1.
        -13    1    5    5    0    0  0.50676545553E+02 -0.10448231839E+02 -0.22410067861E+03  0.22999650426E+03  0.00000000000E+00 0. -1.
          3    1    6    6  503    0 -0.11920710895E+03  0.10162637500E+03 -0.93578369042E+02  0.18246963055E+03  0.00000000000E+00 0. -1.
         -3    1    6    6    0  503 -0.38133111168E+03  0.28724706323E+03 -0.48533584492E+03  0.68079011041E+03  0.00000000000E+00 0.  1.
<mgrwt>
<rscale>  0 0.14531835E+04</rscale>
<asrwt>0</asrwt>
<pdfrwt beam="1">  1        1 0.38547229E+00 0.14531835E+04</pdfrwt>
<pdfrwt beam="2">  1       -2 0.32416120E-01 0.14531835E+04</pdfrwt>
<totfact> 0.10179570E+01</totfact>
</mgrwt>
</event>
<event>
12    5  0.5095719E-008  0.1386225E+04  0.7818608E-02  0.8963851E-01
          3   -1    0    0  501    0  0.00000000000E+00  0.00000000000E+00  0.15873551197E+04  0.15873551197E+04  0.00000000000E+00 0. -1.
         -4   -1    0    0    0  501 -0.00000000000E+00 -0.00000000000E+00 -0.30264476106E+03  0.30264476106E+03  0.00000000000E+00 0.  1.
        -24    2    1    2    0    0  0.21066561250E+03  0.14513463201E+03 -0.33407956012E+02  0.26999541611E+03  0.79607609530E+02 0.  0.
        254    2    1    2    0    0 -0.21066561250E+03 -0.14513463201E+03  0.13181183146E+04  0.16200044646E+04  0.90638541050E+03 0.  0.
         23    2    4    4    0    0 -0.36800727835E+03  0.12740455228E+03  0.18974376728E+03  0.44516678113E+03  0.10251579850E+03 0.  0.
         23    2    4    4    0    0  0.15734166586E+03 -0.27253918429E+03  0.11283745473E+04  0.11748376835E+04  0.89333401814E+02 0.  0.
          3    1    3    3  502    0  0.86464013617E+02  0.27034508688E+02 -0.38733968372E+02  0.98525177577E+02  0.00000000000E+00 0. -1.
         -4    1    3    3    0  502  0.12420159888E+03  0.11810012332E+03  0.53260123591E+01  0.17147023853E+03  0.00000000000E+00 0.  1.
         13    1    5    5    0    0 -0.53157824409E+02  0.59895720660E+02  0.47802900547E+02  0.93265046776E+02  0.00000000000E+00 0.  1.
        -13    1    5    5    0    0 -0.31484945395E+03  0.67508831619E+02  0.14194086673E+03  0.35190173436E+03  0.00000000000E+00 0. -1.
          3    1    6    6  503    0  0.12521744985E+03 -0.19527396512E+03  0.94846556864E+03  0.97642115202E+03  0.00000000000E+00 0. -1.
         -3    1    6    6    0  503  0.32124216005E+02 -0.77265219166E+02  0.17990897868E+03  0.19841653146E+03  0.00000000000E+00 0.  1.
<mgrwt>
<rscale>  0 0.13862247E+04</rscale>
<asrwt>0</asrwt>
<pdfrwt beam="1">  1        3 0.24420848E+00 0.13862247E+04</pdfrwt>
<pdfrwt beam="2">  1       -4 0.46560733E-01 0.13862247E+04</pdfrwt>
<totfact> 0.79936807E-01</totfact>
</mgrwt>
</event>
<event>
12    5  0.5095719E-008  0.1033895E+04  0.7818608E-02  0.9272131E-01
          1   -1    0    0  501    0  0.00000000000E+00  0.00000000000E+00  0.27072487986E+03  0.27072487986E+03  0.00000000000E+00 0. -1.
         -2   -1    0    0    0  501 -0.00000000000E+00 -0.00000000000E+00 -0.98710836973E+03  0.98710836973E+03  0.00000000000E+00 0.  1.
        -24    2    1    2    0    0 -0.14655044487E+02 -0.83339894676E+02 -0.17969274310E+03  0.21487000770E+03  0.81971518904E+02 0.  0.
        254    2    1    2    0    0  0.14655044487E+02  0.83339894676E+02 -0.53669074677E+03  0.10429632419E+04  0.89026684645E+03 0.  0.
         23    2    4    4    0    0 -0.10828794675E+03  0.19880534340E+03 -0.73186070418E+03  0.77199915944E+03  0.95460818568E+02 0.  0.
         23    2    4    4    0    0  0.12294299124E+03 -0.11546544872E+03  0.19516995741E+03  0.27096408244E+03  0.82963683357E+02 0.  0.
          1    1    3    3  502    0  0.10646206248E+01  0.13358217337E+02 -0.44819251975E+01  0.14130217301E+02  0.00000000000E+00 0. -1.
         -2    1    3    3    0  502 -0.15719665112E+02 -0.96698112013E+02 -0.17521081790E+03  0.20073979039E+03  0.00000000000E+00 0.  1.
         13    1    5    5    0    0  0.11800521729E+02 -0.15273935610E+01 -0.43113548833E+02  0.44725421599E+02  0.00000000000E+00 0.  1.
        -13    1    5    5    0    0 -0.12008846848E+03  0.20033273696E+03 -0.68874715535E+03  0.72727373785E+03  0.00000000000E+00 0. -1.
          4    1    6    6  503    0  0.59333084485E+02 -0.51028475435E+01  0.75768588448E+02  0.96370809704E+02  0.00000000000E+00 0. -1.
         -4    1    6    6    0  503  0.63609906753E+02 -0.11036260118E+03  0.11940136896E+03  0.17459327274E+03  0.00000000000E+00 0.  1.
<mgrwt>
<rscale>  0 0.10338951E+04</rscale>
<asrwt>0</asrwt>
<pdfrwt beam="1">  1        1 0.41649982E-01 0.10338951E+04</pdfrwt>
<pdfrwt beam="2">  1       -2 0.15186282E+00 0.10338951E+04</pdfrwt>
<totfact> 0.25340815E+01</totfact>
</mgrwt>
</event>
<event>
12    5  0.5095719E-008  0.1993405E+04  0.7818608E-02  0.8609710E-01
         -2   -1    0    0    0  501 -0.00000000000E+00  0.00000000000E+00  0.51545593029E+03  0.51545593029E+03  0.00000000000E+00 0.  1.
          1   -1    0    0  501    0  0.00000000000E+00 -0.00000000000E+00 -0.19272562005E+04  0.19272562005E+04  0.00000000000E+00 0. -1.
        -24    2    1    2    0    0 -0.46667150843E+03  0.71552835090E+02 -0.13282104870E+04  0.14118752201E+04  0.79664510163E+02 0.  0.
        254    2    1    2    0    0  0.46667150843E+03 -0.71552835090E+02 -0.83589783154E+02  0.10308369107E+04  0.91254335766E+03 0.  0.
         23    2    4    4    0    0  0.50815822483E+03 -0.74557198627E+02  0.32168236281E+03  0.61285263336E+03  0.91242809893E+02 0.  0.
         23    2    4    4    0    0 -0.41486716395E+02  0.30043635362E+01 -0.40527214596E+03  0.41798427733E+03  0.93462131183E+02 0.  0.
          1    1    3    3  502    0 -0.43338614272E+03  0.84273622277E+02 -0.12562789382E+04  0.13316014279E+04  0.00000000000E+00 0. -1.
         -2    1    3    3    0  502 -0.33285365708E+02 -0.12720787186E+02 -0.71931548775E+02  0.80273792150E+02  0.00000000000E+00 0.  1.
         13    1    5    5    0    0  0.17646546710E+03  0.15654323420E+02  0.12501800510E+03  0.21682855098E+03  0.00000000000E+00 0. -1.
        -13    1    5    5    0    0  0.33169275772E+03 -0.90211522047E+02  0.19666435770E+03  0.39602408238E+03  0.00000000000E+00 0.  1.
          4    1    6    6  503    0  0.97767927063E+01 -0.36317057732E+02 -0.14109455780E+03  0.14602119230E+03  0.00000000000E+00 0. -1.
         -4    1    6    6    0  503 -0.51263509101E+02  0.39321421268E+02 -0.26417758816E+03  0.27196308503E+03  0.00000000000E+00 0.  1.
<mgrwt>
<rscale>  0 0.19934048E+04</rscale>
<asrwt>0</asrwt>
<pdfrwt beam="1">  1        1 0.29650095E+00 0.19934048E+04</pdfrwt>
<pdfrwt beam="2">  1       -2 0.79300914E-01 0.19934048E+04</pdfrwt>
<totfact> 0.38366870E+00</totfact>
</mgrwt>
</event>
<event>
12    5  0.5095719E-008  0.1693539E+04  0.7818608E-02  0.8765058E-01
          1   -1    0    0  501    0  0.00000000000E+00  0.00000000000E+00  0.62435692558E+03  0.62435692558E+03  0.00000000000E+00 0. -1.
         -2   -1    0    0    0  501 -0.00000000000E+00 -0.00000000000E+00 -0.11484108915E+04  0.11484108915E+04  0.00000000000E+00 0.  1.
        -24    2    1    2    0    0  0.16461718709E+03 -0.58077589077E+03 -0.27611230782E+03  0.66838074614E+03  0.78072797447E+02 0.  0.
        254    2    1    2    0    0 -0.16461718709E+03  0.58077589077E+03 -0.24794165811E+03  0.11043870710E+04  0.89095245837E+03 0.  0.
         23    2    4    4    0    0 -0.10441590856E+01  0.34652525055E+03 -0.56488227977E+03  0.66817541336E+03  0.85355453753E+02 0.  0.
         23    2    4    4    0    0 -0.16357302800E+03  0.23425064022E+03  0.31694062166E+03  0.43621165759E+03  0.90552496530E+02 0.  0.
          1    1    3    3  502    0  0.11710851793E+03 -0.43677125423E+03 -0.16908933411E+03  0.48277814408E+03  0.00000000000E+00 0. -1.
         -2    1    3    3    0  502  0.47508669152E+02 -0.14400463654E+03 -0.10702297371E+03  0.18560260206E+03  0.00000000000E+00 0.  1.
         13    1    5    5    0    0 -0.11559929860E+02  0.33292683590E+03 -0.49820617993E+03  0.59931903671E+03  0.00000000000E+00 0.  1.
        -13    1    5    5    0    0  0.10515770774E+02  0.13598414652E+02 -0.66676099842E+02  0.68856376656E+02  0.00000000000E+00 0. -1.
          3    1    6    6  503    0 -0.14911099676E+02  0.24403225407E+02  0.70442030116E+00  0.28606896227E+02  0.00000000000E+00 0. -1.
         -3    1    6    6    0  503 -0.14866192832E+03  0.20984741482E+03  0.31623620136E+03  0.40760476137E+03  0.00000000000E+00 0.  1.
<mgrwt>
<rscale>  0 0.16935387E+04</rscale>
<asrwt>0</asrwt>
<pdfrwt beam="1">  1        1 0.96054912E-01 0.16935387E+04</pdfrwt>
<pdfrwt beam="2">  1       -2 0.17667860E+00 0.16935387E+04</pdfrwt>
<totfact> 0.51469310E+00</totfact>
</mgrwt>
</event>
<event>
12    5  0.5095719E-008  0.1486528E+04  0.7818608E-02  0.8893461E-01
         -4   -1    0    0    0  501 -0.00000000000E+00  0.00000000000E+00  0.60317744655E+03  0.60317744655E+03  0.00000000000E+00 0.  1.
          1   -1    0    0  501    0  0.00000000000E+00 -0.00000000000E+00 -0.91588575551E+03  0.91588575551E+03  0.00000000000E+00 0. -1.
        -24    2    1    2    0    0 -0.21972860128E+03 -0.25136836174E+03  0.23612857940E+03  0.41652335069E+03  0.79172496219E+02 0.  0.
        254    2    1    2    0    0  0.21972860128E+03  0.25136836174E+03 -0.54883688836E+03  0.11025398514E+04  0.89604993293E+03 0.  0.
         23    2    4    4    0    0 -0.16368748370E+03  0.40641692984E+03 -0.56197227352E+02  0.45280206103E+03  0.99515149260E+02 0.  0.
         23    2    4    4    0    0  0.38341608499E+03 -0.15504856810E+03 -0.49263966101E+03  0.64973779033E+03  0.91746432543E+02 0.  0.
          3    1    3    3  502    0 -0.21901815963E+02 -0.72624589881E+02  0.41877668840E+02  0.86647329707E+02  0.00000000000E+00 0. -1.
         -4    1    3    3    0  502 -0.19782678532E+03 -0.17874377186E+03  0.19425091056E+03  0.32987602099E+03  0.00000000000E+00 0.  1.
         13    1    5    5    0    0 -0.12520798185E+02  0.28830847260E+02  0.22345854742E+02  0.38565857505E+02  0.00000000000E+00 0.  1.
        -13    1    5    5    0    0 -0.15116668552E+03  0.37758608258E+03 -0.78543082095E+02  0.41423620353E+03  0.00000000000E+00 0. -1.
          2    1    6    6  503    0  0.22359818230E+03 -0.57658515517E+02 -0.21921606679E+03  0.31839650670E+03  0.00000000000E+00 0. -1.
         -2    1    6    6    0  503  0.15981790269E+03 -0.97390052580E+02 -0.27342359422E+03  0.33134128363E+03  0.00000000000E+00 0.  1.
<mgrwt>
<rscale>  0 0.14865283E+04</rscale>
<asrwt>0</asrwt>
<pdfrwt beam="1">  1        1 0.14090550E+00 0.14865283E+04</pdfrwt>
<pdfrwt beam="2">  1       -4 0.92796531E-01 0.14865283E+04</pdfrwt>
<totfact> 0.81827482E+00</totfact>
</mgrwt>
</event>
<event>
12    5  0.5095719E-008  0.1429283E+04  0.7818608E-02  0.8932891E-01
          1   -1    0    0  501    0  0.00000000000E+00  0.00000000000E+00  0.33885698617E+04  0.33885698617E+04  0.00000000000E+00 0. -1.
         -2   -1    0    0    0  501 -0.00000000000E+00 -0.00000000000E+00 -0.15071615952E+03  0.15071615952E+03  0.00000000000E+00 0.  1.
        -24    2    1    2    0    0  0.42107458095E+03 -0.14019330294E+02  0.96239575400E+03  0.10536178545E+04  0.80029067196E+02 0.  0.
        254    2    1    2    0    0 -0.42107458095E+03  0.14019330294E+02  0.22754579482E+04  0.24856681667E+04  0.90737920236E+03 0.  0.
         23    2    4    4    0    0 -0.62159683392E+03 -0.22642895081E+03  0.14175016897E+04  0.15672335457E+04  0.96214619291E+02 0.  0.
         23    2    4    4    0    0  0.20052225297E+03  0.24044828110E+03  0.85795625849E+03  0.91843462099E+03  0.96998256292E+02 0.  0.
          3    1    3    3  502    0  0.33612241032E+03  0.36485522579E+01  0.82816919816E+03  0.89378733905E+03  0.00000000000E+00 0. -1.
         -4    1    3    3    0  502  0.84952170631E+02 -0.17667882552E+02  0.13422655583E+03  0.15983051542E+03  0.00000000000E+00 0.  1.
         13    1    5    5    0    0 -0.54477241968E+03 -0.16933585074E+03  0.11644981201E+04  0.12967295367E+04  0.00000000000E+00 0.  1.
        -13    1    5    5    0    0 -0.76824414239E+02 -0.57093100067E+02  0.25300356961E+03  0.27050400909E+03  0.00000000000E+00 0. -1.
          1    1    6    6  503    0  0.27874323998E+02  0.63745117421E+02  0.10475838434E+03  0.12575665796E+03  0.00000000000E+00 0. -1.
         -1    1    6    6    0  503  0.17264792897E+03  0.17670316368E+03  0.75319787416E+03  0.79267796303E+03  0.00000000000E+00 0.  1.
<mgrwt>
<rscale>  0 0.14292827E+04</rscale>
<asrwt>0</asrwt>
<pdfrwt beam="1">  1        1 0.52131838E+00 0.14292827E+04</pdfrwt>
<pdfrwt beam="2">  1       -2 0.23187104E-01 0.14292827E+04</pdfrwt>
<totfact> 0.43390749E+00</totfact>
</mgrwt>
</event>
<event>
12    5  0.5095719E-008  0.1290410E+04  0.7818608E-02  0.9037205E-01
          1   -1    0    0  501    0  0.00000000000E+00  0.00000000000E+00  0.86085510249E+03  0.86085510249E+03  0.00000000000E+00 0. -1.
         -2   -1    0    0    0  501 -0.00000000000E+00 -0.00000000000E+00 -0.48357661817E+03  0.48357661817E+03  0.00000000000E+00 0.  1.
        -24    2    1    2    0    0  0.17556617516E+03 -0.13272351301E+02  0.38603591503E+03  0.43417775015E+03  0.92124664789E+02 0.  0.
        254    2    1    2    0    0 -0.17556617516E+03  0.13272351301E+02 -0.87574307121E+01  0.91025397051E+03  0.89302069464E+03 0.  0.
         23    2    4    4    0    0  0.30877418963E+03  0.20101436799E+03 -0.41032845326E+02  0.38199585209E+03  0.92135011257E+02 0.  0.
         23    2    4    4    0    0 -0.48434036479E+03 -0.18774201669E+03  0.32275414613E+02  0.52825811842E+03  0.90455975412E+02 0.  0.
          3    1    3    3  502    0  0.16943501425E+03 -0.11576597868E+02  0.39088130097E+03  0.42618122098E+03  0.00000000000E+00 0. -1.
         -4    1    3    3    0  502  0.61311609134E+01 -0.16957534334E+01 -0.48453859377E+01  0.79965291682E+01  0.00000000000E+00 0.  1.
         13    1    5    5    0    0  0.99047493839E+01 -0.75871503642E+01  0.71112127278E+01  0.14360997788E+02  0.00000000000E+00 0. -1.
        -13    1    5    5    0    0  0.29886944024E+03  0.20860151835E+03 -0.48144058053E+02  0.36763485430E+03  0.00000000000E+00 0.  1.
          2    1    6    6  503    0 -0.21701082923E+02 -0.24066138987E+02 -0.14084664357E+02  0.35334031978E+02  0.00000000000E+00 0. -1.
         -2    1    6    6    0  503 -0.46263928187E+03 -0.16367587770E+03  0.46360078970E+02  0.49292408644E+03  0.00000000000E+00 0.  1.
<mgrwt>
<rscale>  0 0.12904099E+04</rscale>
<asrwt>0</asrwt>
<pdfrwt beam="1">  1        1 0.13243925E+00 0.12904099E+04</pdfrwt>
<pdfrwt beam="2">  1       -2 0.74396402E-01 0.12904099E+04</pdfrwt>
<totfact> 0.27472934E+01</totfact>
</mgrwt>
</event>
<event>
12    5  0.5095719E-008  0.2334138E+04  0.7818608E-02  0.8464581E-01
         -4   -1    0    0    0  501 -0.00000000000E+00  0.00000000000E+00  0.97312580382E+03  0.97312580382E+03  0.00000000000E+00 0.  1.
          3   -1    0    0  501    0  0.00000000000E+00 -0.00000000000E+00 -0.13996645450E+04  0.13996645450E+04  0.00000000000E+00 0. -1.
        -24    2    1    2    0    0  0.62722762686E+03 -0.26952290749E+03  0.54807272836E+03  0.87884616686E+03  0.77005038012E+02 0.  0.
        254    2    1    2    0    0 -0.62722762686E+03  0.26952290749E+03 -0.97461146956E+03  0.14939441820E+04  0.90329652312E+03 0.  0.
         23    2    4    4    0    0  0.18732070372E+03  0.10093131340E+03 -0.44819853887E+03  0.50429794384E+03  0.90323362690E+02 0.  0.
         23    2    4    4    0    0 -0.81454833058E+03  0.16859159410E+03 -0.52641293069E+03  0.98964623813E+03  0.10186753455E+03 0.  0.
          3    1    3    3  502    0  0.24580587971E+02 -0.27319256390E+02  0.20511820357E+02  0.42086599400E+02  0.00000000000E+00 0. -1.
         -4    1    3    3    0  502  0.60264703889E+03 -0.24220365110E+03  0.52756090800E+03  0.83675956746E+03  0.00000000000E+00 0.  1.
         13    1    5    5    0    0  0.13161534070E+03  0.98078099687E+02 -0.39265265128E+03  0.42557962369E+03  0.00000000000E+00 0.  1.
        -13    1    5    5    0    0  0.55705363029E+02  0.28532137091E+01 -0.55545887589E+02  0.78718320146E+02  0.00000000000E+00 0. -1.
          2    1    6    6  503    0 -0.37921536770E+03  0.34301080377E+02 -0.27102467123E+03  0.46737055067E+03  0.00000000000E+00 0. -1.
         -2    1    6    6    0  503 -0.43533296288E+03  0.13429051372E+03 -0.25538825946E+03  0.52227568746E+03  0.00000000000E+00 0.  1.
<mgrwt>
<rscale>  0 0.23341377E+04</rscale>
<asrwt>0</asrwt>
<pdfrwt beam="1">  1        3 0.21533301E+00 0.23341377E+04</pdfrwt>
<pdfrwt beam="2">  1       -4 0.14971166E+00 0.23341377E+04</pdfrwt>
<totfact> 0.73216035E-02</totfact>
</mgrwt>
</event>
<event>
12    5  0.5095719E-008  0.1614794E+04  0.7818608E-02  0.8811511E-01
          1   -1    0    0  501    0  0.00000000000E+00  0.00000000000E+00  0.10580095603E+04  0.10580095603E+04  0.00000000000E+00 0. -1.
         -2   -1    0    0    0  501 -0.00000000000E+00 -0.00000000000E+00 -0.61614754677E+03  0.61614754677E+03  0.00000000000E+00 0.  1.
        -24    2    1    2    0    0 -0.13030490169E+03  0.29538691746E+03 -0.30422129150E+03  0.45032640844E+03  0.77527295342E+02 0.  0.
        254    2    1    2    0    0  0.13030490169E+03 -0.29538691746E+03  0.74608330505E+03  0.12238306987E+04  0.91481609217E+03 0.  0.
         23    2    4    4    0    0 -0.13391823294E+03 -0.33150412902E+01 -0.16271056584E+03  0.22982476412E+03  0.91649393638E+02 0.  0.
         23    2    4    4    0    0  0.26422313464E+03 -0.29207187617E+03  0.90879387089E+03  0.99400593454E+03  0.83795300539E+02 0.  0.
          3    1    3    3  502    0 -0.32914323560E+02  0.33166775899E+02 -0.76450854184E+02  0.89599781386E+02  0.00000000000E+00 0. -1.
         -4    1    3    3    0  502 -0.97390578133E+02  0.26222014156E+03 -0.22777043732E+03  0.36072662705E+03  0.00000000000E+00 0.  1.
         13    1    5    5    0    0 -0.62027598478E+02  0.36046846004E+02 -0.11335684022E+03  0.13415130005E+03  0.00000000000E+00 0. -1.
        -13    1    5    5    0    0 -0.71890634466E+02 -0.39361887294E+02 -0.49353725617E+02  0.95673464072E+02  0.00000000000E+00 0.  1.
          4    1    6    6  503    0  0.19246066991E+03 -0.26050096819E+03  0.74831919886E+03  0.81540387985E+03  0.00000000000E+00 0. -1.
         -4    1    6    6    0  503  0.71762464727E+02 -0.31570907984E+02  0.16047467204E+03  0.17860205469E+03  0.00000000000E+00 0.  1.
<mgrwt>
<rscale>  0 0.16147941E+04</rscale>
<asrwt>0</asrwt>
<pdfrwt beam="1">  1        1 0.16277070E+00 0.16147941E+04</pdfrwt>
<pdfrwt beam="2">  1       -2 0.94791931E-01 0.16147941E+04</pdfrwt>
<totfact> 0.10741327E+01</totfact>
</mgrwt>
</event>
<event>
12    5  0.5095719E-008  0.1266270E+04  0.7818608E-02  0.9056750E-01
          1   -1    0    0  501    0  0.00000000000E+00  0.00000000000E+00  0.55242768067E+03  0.55242768067E+03  0.00000000000E+00 0. -1.
         -2   -1    0    0    0  501 -0.00000000000E+00 -0.00000000000E+00 -0.72563308323E+03  0.72563308323E+03  0.00000000000E+00 0.  1.
        -24    2    1    2    0    0  0.19236959636E+03  0.45784797855E+02 -0.27314138747E+03  0.34642874912E+03  0.79399945501E+02 0.  0.
        254    2    1    2    0    0 -0.19236959636E+03 -0.45784797855E+02  0.99935984917E+02  0.93163201478E+03  0.90490259175E+03 0.  0.
         23    2    4    4    0    0 -0.43678603270E+03 -0.31783279421E+03  0.66999623403E+02  0.55136513859E+03  0.87834179513E+02 0.  0.
         23    2    4    4    0    0  0.24441643633E+03  0.27204799635E+03  0.32936361514E+02  0.38026687619E+03  0.98836160110E+02 0.  0.
          1    1    3    3  502    0  0.16548558200E+02 -0.17539606940E+02 -0.17634561480E+02  0.29874242228E+02  0.00000000000E+00 0. -1.
         -2    1    3    3    0  502  0.17582103816E+03  0.63324404795E+02 -0.25550682599E+03  0.31655450689E+03  0.00000000000E+00 0.  1.
         13    1    5    5    0    0 -0.14026529719E+03 -0.53762888532E+02  0.17667642677E+02  0.15125127231E+03  0.00000000000E+00 0.  1.
        -13    1    5    5    0    0 -0.29652073551E+03 -0.26406990567E+03  0.49331980727E+02  0.40011386628E+03  0.00000000000E+00 0. -1.
          4    1    6    6  503    0  0.65471412304E+02  0.14554880958E+03  0.95829258133E+01  0.15988368981E+03  0.00000000000E+00 0. -1.
         -4    1    6    6    0  503  0.17894502403E+03  0.12649918677E+03  0.23353435700E+02  0.22038318638E+03  0.00000000000E+00 0.  1.
<mgrwt>
<rscale>  0 0.12662698E+04</rscale>
<asrwt>0</asrwt>
<pdfrwt beam="1">  1        1 0.84988874E-01 0.12662698E+04</pdfrwt>
<pdfrwt beam="2">  1       -2 0.11163586E+00 0.12662698E+04</pdfrwt>
<totfact> 0.21054500E+01</totfact>
</mgrwt>
</event>
<event>
12    5  0.5095719E-008  0.1216972E+04  0.7818608E-02  0.9098130E-01
          3   -1    0    0  501    0  0.00000000000E+00  0.00000000000E+00  0.15978808659E+03  0.15978808659E+03  0.00000000000E+00 0. -1.
         -4   -1    0    0    0  501 -0.00000000000E+00 -0.00000000000E+00 -0.23171630122E+04  0.23171630122E+04  0.00000000000E+00 0.  1.
        -24    2    1    2    0    0  0.81619759369E+02  0.19395541659E+03 -0.82944920028E+03  0.85920471656E+03  0.77241700916E+02 0.  0.
        254    2    1    2    0    0 -0.81619759369E+02 -0.19395541659E+03 -0.13279257253E+04  0.16177463822E+04  0.89968668795E+03 0.  0.
         23    2    4    4    0    0 -0.43566318885E+03  0.86734520385E+02 -0.76289794039E+03  0.88860622299E+03  0.10140247001E+03 0.  0.
         23    2    4    4    0    0  0.35404342949E+03 -0.28068993697E+03 -0.56502778493E+03  0.72914015924E+03  0.90859140372E+02 0.  0.
          3    1    3    3  502    0  0.35393316435E+02  0.95824437568E+02 -0.55068104898E+03  0.56007555508E+03  0.00000000000E+00 0. -1.
         -4    1    3    3    0  502  0.46226442934E+02  0.98130979019E+02 -0.27876815130E+03  0.29912916148E+03  0.00000000000E+00 0.  1.
         13    1    5    5    0    0 -0.80931239195E+02  0.57735831974E+02 -0.18040170968E+03  0.20598074820E+03  0.00000000000E+00 0. -1.
        -13    1    5    5    0    0 -0.35473194966E+03  0.28998688411E+02 -0.58249623071E+03  0.68262547479E+03  0.00000000000E+00 0.  1.
          4    1    6    6  503    0  0.62868923074E+02 -0.95438027966E+02 -0.16658100643E+03  0.20201522313E+03  0.00000000000E+00 0. -1.
         -4    1    6    6    0  503  0.29117450641E+03 -0.18525190901E+03 -0.39844677850E+03  0.52712493611E+03  0.00000000000E+00 0.  1.
<mgrwt>
<rscale>  0 0.12169717E+04</rscale>
<asrwt>0</asrwt>
<pdfrwt beam="1">  1        3 0.24582784E-01 0.12169717E+04</pdfrwt>
<pdfrwt beam="2">  1       -4 0.35648660E+00 0.12169717E+04</pdfrwt>
<totfact> 0.48667853E-01</totfact>
</mgrwt>
</event>
<event>
12    5  0.5095719E-008  0.2763946E+04  0.7818608E-02  0.8314550E-01
         -2   -1    0    0    0  501 -0.00000000000E+00  0.00000000000E+00  0.16225517460E+04  0.16225517460E+04  0.00000000000E+00 0.  1.
          1   -1    0    0  501    0  0.00000000000E+00 -0.00000000000E+00 -0.11770656710E+04  0.11770656710E+04  0.00000000000E+00 0. -1.
        -24    2    1    2    0    0 -0.88969223673E+02  0.11722542510E+04 -0.21390496246E+03  0.11975855414E+04  0.79751139353E+02 0.  0.
        254    2    1    2    0    0  0.88969223673E+02 -0.11722542510E+04  0.65939103747E+03  0.16020318755E+04  0.86580253984E+03 0.  0.
         23    2    4    4    0    0 -0.36256865653E+03 -0.68716488635E+03  0.43925891410E+03  0.89708379531E+03  0.90329012319E+02 0.  0.
         23    2    4    4    0    0  0.45153788020E+03 -0.48508936469E+03  0.22013212337E+03  0.70494808019E+03  0.96413147608E+02 0.  0.
          1    1    3    3  502    0 -0.74367825622E+02  0.85566429655E+03 -0.12134634745E+03  0.86741967807E+03  0.00000000000E+00 0. -1.
         -2    1    3    3    0  502 -0.14601398051E+02  0.31658995449E+03 -0.92558615001E+02  0.33016586335E+03  0.00000000000E+00 0.  1.
         13    1    5    5    0    0 -0.18052308590E+03 -0.36983981880E+03  0.28192529760E+03  0.49885062848E+03  0.00000000000E+00 0.  1.
        -13    1    5    5    0    0 -0.18204557063E+03 -0.31732506755E+03  0.15733361650E+03  0.39823316683E+03  0.00000000000E+00 0. -1.
          1    1    6    6  503    0  0.22491736389E+03 -0.24756574809E+03  0.16163580512E+03  0.37148721876E+03  0.00000000000E+00 0. -1.
         -1    1    6    6    0  503  0.22662051631E+03 -0.23752361660E+03  0.58496318252E+02  0.33346086143E+03  0.00000000000E+00 0.  1.
<mgrwt>
<rscale>  0 0.27639464E+04</rscale>
<asrwt>0</asrwt>
<pdfrwt beam="1">  1        1 0.18108703E+00 0.27639464E+04</pdfrwt>
<pdfrwt beam="2">  1       -2 0.24962334E+00 0.27639464E+04</pdfrwt>
<totfact> 0.54690961E-01</totfact>
</mgrwt>
</event>
<event>
12    5  0.5095719E-008  0.2328055E+04  0.7818608E-02  0.8466941E-01
          1   -1    0    0  501    0  0.00000000000E+00  0.00000000000E+00  0.38568434536E+04  0.38568434536E+04  0.00000000000E+00 0. -1.
         -2   -1    0    0    0  501 -0.00000000000E+00 -0.00000000000E+00 -0.35131334204E+03  0.35131334204E+03  0.00000000000E+00 0.  1.
        -24    2    1    2    0    0 -0.95868730115E+03  0.15411124112E+03  0.11279766572E+04  0.14905951212E+04  0.81919840003E+02 0.  0.
        254    2    1    2    0    0  0.95868730115E+03 -0.15411124112E+03  0.23775534544E+04  0.27175616744E+04  0.88856592887E+03 0.  0.
         23    2    4    4    0    0  0.29180213777E+03  0.32993165421E+03  0.11629811127E+04  0.12469550867E+04  0.91479701640E+02 0.  0.
         23    2    4    4    0    0  0.66688516337E+03 -0.48404289532E+03  0.12145723417E+04  0.14706065877E+04  0.92002266040E+02 0.  0.
          3    1    3    3  502    0 -0.12761212048E+03 -0.75295877521E+00  0.12169445508E+03  0.17633763251E+03  0.00000000000E+00 0. -1.
         -4    1    3    3    0  502 -0.83107518067E+03  0.15486419989E+03  0.10062822022E+04  0.13142574887E+04  0.00000000000E+00 0.  1.
         13    1    5    5    0    0  0.14516879885E+02  0.23839539109E+02  0.29684978325E+02  0.40746304921E+02  0.00000000000E+00 0. -1.
        -13    1    5    5    0    0  0.27728525789E+03  0.30609211510E+03  0.11332961344E+04  0.12062087818E+04  0.00000000000E+00 0.  1.
          4    1    6    6  503    0  0.35761626458E+03 -0.20393613846E+03  0.58646287823E+03  0.71653195937E+03  0.00000000000E+00 0. -1.
         -4    1    6    6    0  503  0.30926889879E+03 -0.28010675687E+03  0.62810946343E+03  0.75407462830E+03  0.00000000000E+00 0.  1.
<mgrwt>
<rscale>  0 0.23280555E+04</rscale>
<asrwt>0</asrwt>
<pdfrwt beam="1">  1        1 0.59336050E+00 0.23280555E+04</pdfrwt>
<pdfrwt beam="2">  1       -2 0.54048209E-01 0.23280555E+04</pdfrwt>
<totfact> 0.32720580E-01</totfact>
</mgrwt>
</event>
<event>
12    5  0.5095719E-008  0.1146573E+04  0.7818608E-02  0.9160951E-01
         -2   -1    0    0    0  501 -0.00000000000E+00  0.00000000000E+00  0.39792506068E+03  0.39792506068E+03  0.00000000000E+00 0.  1.
          1   -1    0    0  501    0  0.00000000000E+00 -0.00000000000E+00 -0.82592756875E+03  0.82592756875E+03  0.00000000000E+00 0. -1.
        -24    2    1    2    0    0 -0.17482592982E+02 -0.17376816759E+03 -0.13436979172E+03  0.23308103220E+03  0.75963869847E+02 0.  0.
        254    2    1    2    0    0  0.17482592982E+02  0.17376816759E+03 -0.29363271635E+03  0.99077159723E+03  0.93000385410E+03 0.  0.
         23    2    4    4    0    0 -0.14561569892E+02  0.29073409587E+03  0.26936731453E+03  0.40755957442E+03  0.93849361961E+02 0.  0.
         23    2    4    4    0    0  0.32044162873E+02 -0.11696592828E+03 -0.56300003089E+03  0.58321202282E+03  0.91974844523E+02 0.  0.
          1    1    3    3  502    0 -0.56538620359E+00 -0.16754288906E+03 -0.10234069409E+03  0.19632767763E+03  0.00000000000E+00 0. -1.
         -2    1    3    3    0  502 -0.16917206778E+02 -0.62252785312E+01 -0.32029097621E+02  0.36753354573E+02  0.00000000000E+00 0.  1.
         13    1    5    5    0    0  0.44783171119E+01  0.11174107210E+02  0.50751169949E+02  0.52159344775E+02  0.00000000000E+00 0. -1.
        -13    1    5    5    0    0 -0.19039887003E+02  0.27955998866E+03  0.21861614458E+03  0.35540022964E+03  0.00000000000E+00 0.  1.
          1    1    6    6  503    0 -0.13755637725E+02 -0.44626524971E+02 -0.35825938125E+03  0.36129008920E+03  0.00000000000E+00 0. -1.
         -1    1    6    6    0  503  0.45799800598E+02 -0.72339403309E+02 -0.20474064964E+03  0.22192193362E+03  0.00000000000E+00 0.  1.
<mgrwt>
<rscale>  0 0.11465728E+04</rscale>
<asrwt>0</asrwt>
<pdfrwt beam="1">  1        1 0.12706578E+00 0.11465728E+04</pdfrwt>
<pdfrwt beam="2">  1       -2 0.61219240E-01 0.11465728E+04</pdfrwt>
<totfact> 0.45363430E+01</totfact>
</mgrwt>
</event>
<event>
12    5  0.5095719E-008  0.1699826E+04  0.7818608E-02  0.8761464E-01
         -2   -1    0    0    0  501 -0.00000000000E+00  0.00000000000E+00  0.46083217134E+03  0.46083217134E+03  0.00000000000E+00 0.  1.
          1   -1    0    0  501    0  0.00000000000E+00 -0.00000000000E+00 -0.15674945578E+04  0.15674945578E+04  0.00000000000E+00 0. -1.
        -24    2    1    2    0    0 -0.22424730511E+03  0.47995012631E+03 -0.73784543698E+03  0.91192251675E+03  0.80918539851E+02 0.  0.
        254    2    1    2    0    0  0.22424730511E+03 -0.47995012631E+03 -0.36881694952E+03  0.11164042124E+04  0.91087509885E+03 0.  0.
         23    2    4    4    0    0 -0.12197612016E+03 -0.95152275275E+02  0.24610764137E+03  0.30782060027E+03  0.10125424153E+03 0.  0.
         23    2    4    4    0    0  0.34622342527E+03 -0.38479785103E+03 -0.61492459089E+03  0.80858361217E+03  0.87949752841E+02 0.  0.
          3    1    3    3  502    0 -0.94815881652E+02  0.19327825751E+03 -0.36866798991E+03  0.42692226813E+03  0.00000000000E+00 0. -1.
         -4    1    3    3    0  502 -0.12943142346E+03  0.28667186880E+03 -0.36917744707E+03  0.48500024862E+03  0.00000000000E+00 0.  1.
         13    1    5    5    0    0 -0.47623859555E+02 -0.57315294123E+02  0.38073305606E+02  0.83681847130E+02  0.00000000000E+00 0. -1.
        -13    1    5    5    0    0 -0.74352260607E+02 -0.37836981152E+02  0.20803433576E+03  0.22413875313E+03  0.00000000000E+00 0.  1.
          3    1    6    6  503    0 -0.21131034398E+01 -0.21016221996E+02 -0.30083350063E+02  0.36758056860E+02  0.00000000000E+00 0. -1.
         -3    1    6    6    0  503  0.34833652871E+03 -0.36378162904E+03 -0.58484124082E+03  0.77182555531E+03  0.00000000000E+00 0.  1.
<mgrwt>
<rscale>  0 0.16998258E+04</rscale>
<asrwt>0</asrwt>
<pdfrwt beam="1">  1        1 0.24115301E+00 0.16998258E+04</pdfrwt>
<pdfrwt beam="2">  1       -2 0.70897257E-01 0.16998258E+04</pdfrwt>
<totfact> 0.88699739E+00</totfact>
</mgrwt>
</event>
<event>
12    5  0.5095719E-008  0.3494359E+04  0.7818608E-02  0.8115128E-01
         -2   -1    0    0    0  501 -0.00000000000E+00  0.00000000000E+00  0.15431682099E+04  0.15431682099E+04  0.00000000000E+00 0.  1.
          1   -1    0    0  501    0  0.00000000000E+00 -0.00000000000E+00 -0.19781611475E+04  0.19781611475E+04  0.00000000000E+00 0. -1.
        -24    2    1    2    0    0 -0.11351830497E+04 -0.11707793661E+04 -0.29520547145E+03  0.16591861135E+04  0.79921262924E+02 0.  0.
        254    2    1    2    0    0  0.11351830497E+04  0.11707793661E+04 -0.13978746618E+03  0.18621432440E+04  0.88807209453E+03 0.  0.
         23    2    4    4    0    0 -0.30968604770E+02 -0.76784206227E+02 -0.85977692639E+02  0.15108352168E+03  0.92623960630E+02 0.  0.
         23    2    4    4    0    0  0.11661516545E+04  0.12475635723E+04 -0.53809773540E+02  0.17110597223E+04  0.92224364608E+02 0.  0.
          1    1    3    3  502    0 -0.37008820537E+02 -0.44885441691E+02  0.35636263991E+01  0.58284261224E+02  0.00000000000E+00 0. -1.
         -2    1    3    3    0  502 -0.10981742292E+04 -0.11258939244E+04 -0.29876909785E+03  0.16009018522E+04  0.00000000000E+00 0.  1.
         13    1    5    5    0    0 -0.33660172787E+02 -0.58723060272E+02 -0.10486506053E+03  0.12481220276E+03  0.00000000000E+00 0. -1.
        -13    1    5    5    0    0  0.26915680169E+01 -0.18061145955E+02  0.18887367887E+02  0.26271318910E+02  0.00000000000E+00 0.  1.
          3    1    6    6  503    0  0.96555866332E+03  0.10814220837E+04 -0.45156225024E+02  0.14504538394E+04  0.00000000000E+00 0. -1.
         -3    1    6    6    0  503  0.20059299115E+03  0.16614148863E+03 -0.86535485159E+01  0.26060588298E+03  0.00000000000E+00 0.  1.
<mgrwt>
<rscale>  0 0.34943585E+04</rscale>
<asrwt>0</asrwt>
<pdfrwt beam="1">  1        1 0.30433248E+00 0.34943585E+04</pdfrwt>
<pdfrwt beam="2">  1       -2 0.23741049E+00 0.34943585E+04</pdfrwt>
<totfact> 0.17009137E-01</totfact>
</mgrwt>
</event>
<event>
12    5  0.5095719E-008  0.2186449E+04  0.7818608E-02  0.8524090E-01
          1   -1    0    0  501    0  0.00000000000E+00  0.00000000000E+00  0.51863364167E+03  0.51863364167E+03  0.00000000000E+00 0. -1.
         -2   -1    0    0    0  501 -0.00000000000E+00 -0.00000000000E+00 -0.23044011251E+04  0.23044011251E+04  0.00000000000E+00 0.  1.
        -24    2    1    2    0    0  0.68183362334E+03 -0.34746933535E+03 -0.13287128797E+04  0.15354117760E+04  0.79870998476E+02 0.  0.
        254    2    1    2    0    0 -0.68183362334E+03  0.34746933535E+03 -0.45705460377E+03  0.12876229908E+04  0.92921581272E+03 0.  0.
         23    2    4    4    0    0 -0.31636585325E+03  0.55937447564E+03  0.13438375157E+02  0.64853175748E+03  0.86172463281E+02 0.  0.
         23    2    4    4    0    0 -0.36546777009E+03 -0.21190514029E+03 -0.47049297893E+03  0.63909123329E+03  0.92754955630E+02 0.  0.
          3    1    3    3  502    0  0.28775632313E+03 -0.17580636876E+03 -0.52487096567E+03  0.62385984917E+03  0.00000000000E+00 0. -1.
         -4    1    3    3    0  502  0.39407730020E+03 -0.17166296659E+03 -0.80384191398E+03  0.91155192683E+03  0.00000000000E+00 0.  1.
         13    1    5    5    0    0 -0.12770963462E+02  0.54410174163E+02 -0.17367445588E+02  0.58525146103E+02  0.00000000000E+00 0.  1.
        -13    1    5    5    0    0 -0.30359488978E+03  0.50496430148E+03  0.30805820745E+02  0.59000661137E+03  0.00000000000E+00 0. -1.
          3    1    6    6  503    0 -0.17480293312E+03 -0.12981753521E+03 -0.29872338702E+03  0.36965432478E+03  0.00000000000E+00 0. -1.
         -3    1    6    6    0  503 -0.19066483697E+03 -0.82087605081E+02 -0.17176959191E+03  0.26943690851E+03  0.00000000000E+00 0.  1.
<mgrwt>
<rscale>  0 0.21864491E+04</rscale>
<asrwt>0</asrwt>
<pdfrwt beam="1">  1        1 0.79789793E-01 0.21864491E+04</pdfrwt>
<pdfrwt beam="2">  1       -2 0.35452324E+00 0.21864491E+04</pdfrwt>
<totfact> 0.49129680E-01</totfact>
</mgrwt>
</event>
<event>
12    5  0.5095719E-008  0.1603561E+04  0.7818608E-02  0.8818363E-01
          1   -1    0    0  501    0  0.00000000000E+00  0.00000000000E+00  0.11794000175E+04  0.11794000175E+04  0.00000000000E+00 0. -1.
         -2   -1    0    0    0  501 -0.00000000000E+00 -0.00000000000E+00 -0.54506722748E+03  0.54506722748E+03  0.00000000000E+00 0.  1.
        -24    2    1    2    0    0 -0.49724935991E+03 -0.56932660394E+02  0.23534650160E+02  0.50743651717E+03  0.80247650776E+02 0.  0.
        254    2    1    2    0    0  0.49724935991E+03  0.56932660394E+02  0.61079813981E+03  0.12170307278E+04  0.92606218526E+03 0.  0.
         23    2    4    4    0    0  0.70418386349E+03  0.23241237288E+03  0.33163933872E+03  0.81736160444E+03  0.90580995543E+02 0.  0.
         23    2    4    4    0    0 -0.20693450358E+03 -0.17547971249E+03  0.27915880109E+03  0.39966912332E+03  0.90502782534E+02 0.  0.
          3    1    3    3  502    0 -0.41543027138E+02  0.94831525253E+01  0.19589659319E+02  0.46898912971E+02  0.00000000000E+00 0. -1.
         -4    1    3    3    0  502 -0.45570633277E+03 -0.66415812919E+02  0.39449908410E+01  0.46053760420E+03  0.00000000000E+00 0.  1.
         13    1    5    5    0    0  0.62615557594E+03  0.21531527294E+03  0.26450697089E+03  0.71301851988E+03  0.00000000000E+00 0. -1.
        -13    1    5    5    0    0  0.78028287547E+02  0.17097099944E+02  0.67132367832E+02  0.10434308456E+03  0.00000000000E+00 0.  1.
          4    1    6    6  503    0 -0.19196663526E+03 -0.16110741845E+03  0.20843239718E+03  0.32596142951E+03  0.00000000000E+00 0. -1.
         -4    1    6    6    0  503 -0.14967868321E+02 -0.14372294039E+02  0.70726403908E+02  0.73707693817E+02  0.00000000000E+00 0.  1.
<mgrwt>
<rscale>  0 0.16035614E+04</rscale>
<asrwt>0</asrwt>
<pdfrwt beam="1">  1        1 0.18144616E+00 0.16035614E+04</pdfrwt>
<pdfrwt beam="2">  1       -2 0.83856497E-01 0.16035614E+04</pdfrwt>
<totfact> 0.11567219E+01</totfact>
</mgrwt>
</event>
<event>
12    5  0.5095719E-008  0.2017251E+04  0.7818608E-02  0.8598598E-01
         -4   -1    0    0    0  501 -0.00000000000E+00  0.00000000000E+00  0.92647683863E+03  0.92647683863E+03  0.00000000000E+00 0.  1.
          3   -1    0    0  501    0  0.00000000000E+00 -0.00000000000E+00 -0.10980579295E+04  0.10980579295E+04  0.00000000000E+00 0. -1.
        -24    2    1    2    0    0 -0.46003060637E+03 -0.47631698520E+02  0.56569525320E+03  0.73514699536E+03  0.80827271408E+02 0.  0.
        254    2    1    2    0    0  0.46003060637E+03  0.47631698520E+02 -0.73727634403E+03  0.12893877727E+04  0.95133983595E+03 0.  0.
         23    2    4    4    0    0  0.12224260491E+03 -0.26553628952E+03 -0.76006646926E+03  0.81927515922E+03  0.89766214814E+02 0.  0.
         23    2    4    4    0    0  0.33778800146E+03  0.31316798804E+03  0.22790125229E+02  0.47011261350E+03  0.91167740463E+02 0.  0.
          3    1    3    3  502    0 -0.19313851545E+03 -0.37264517740E+02  0.18446975729E+03  0.26966687187E+03  0.00000000000E+00 0. -1.
         -4    1    3    3    0  502 -0.26689209092E+03 -0.10367180780E+02  0.38122549591E+03  0.46548012349E+03  0.00000000000E+00 0.  1.
         13    1    5    5    0    0 -0.24997631515E-01 -0.84911565220E+02 -0.26548500395E+03  0.27873331673E+03  0.00000000000E+00 0.  1.
        -13    1    5    5    0    0  0.12226760254E+03 -0.18062472430E+03 -0.49458146531E+03  0.54054184249E+03  0.00000000000E+00 0. -1.
          3    1    6    6  503    0 -0.48910230325E+01  0.54952537197E+01 -0.47486623079E+01  0.87561243403E+01  0.00000000000E+00 0. -1.
         -3    1    6    6    0  503  0.34267902450E+03  0.30767273432E+03  0.27538787537E+02  0.46135648916E+03  0.00000000000E+00 0.  1.
<mgrwt>
<rscale>  0 0.20172508E+04</rscale>
<asrwt>0</asrwt>
<pdfrwt beam="1">  1        3 0.16893199E+00 0.20172508E+04</pdfrwt>
<pdfrwt beam="2">  1       -4 0.14253490E+00 0.20172508E+04</pdfrwt>
<totfact> 0.17098230E-01</totfact>
</mgrwt>
</event>
<event>
12    5  0.5095719E-008  0.1375848E+04  0.7818608E-02  0.8971489E-01
         -2   -1    0    0    0  501 -0.00000000000E+00  0.00000000000E+00  0.34735446758E+03  0.34735446758E+03  0.00000000000E+00 0.  1.
          1   -1    0    0  501    0  0.00000000000E+00 -0.00000000000E+00 -0.13624115236E+04  0.13624115236E+04  0.00000000000E+00 0. -1.
        -24    2    1    2    0    0 -0.83375777873E+02  0.25050534411E+03 -0.64249806030E+03  0.70001540822E+03  0.86679677499E+02 0.  0.
        254    2    1    2    0    0  0.83375777873E+02 -0.25050534411E+03 -0.37255899570E+03  0.10097505829E+04  0.90060623289E+03 0.  0.
         23    2    4    4    0    0 -0.54527191787E+02 -0.38904526853E+03 -0.58304486139E+03  0.70984518548E+03  0.98027758017E+02 0.  0.
         23    2    4    4    0    0  0.13790296966E+03  0.13853992441E+03  0.21048586569E+03  0.29990539747E+03  0.86188213120E+02 0.  0.
          1    1    3    3  502    0 -0.82063674369E+02  0.22290365881E+03 -0.62139492520E+03  0.66524592507E+03  0.00000000000E+00 0. -1.
         -2    1    3    3    0  502 -0.13121035046E+01  0.27601685304E+02 -0.21103135097E+02  0.34769483145E+02  0.00000000000E+00 0.  1.
         13    1    5    5    0    0 -0.46427472380E+02 -0.15314486064E+03 -0.16559317374E+03  0.23028234349E+03  0.00000000000E+00 0. -1.
        -13    1    5    5    0    0 -0.80997194077E+01 -0.23590040789E+03 -0.41745168765E+03  0.47956284199E+03  0.00000000000E+00 0.  1.
          3    1    6    6  503    0  0.34463557011E+02  0.70593004754E+02  0.37086811305E+02  0.86870827410E+02  0.00000000000E+00 0. -1.
         -3    1    6    6    0  503  0.10343941265E+03  0.67946919656E+02  0.17339905438E+03  0.21303457006E+03  0.00000000000E+00 0.  1.
<mgrwt>
<rscale>  0 0.13758484E+04</rscale>
<asrwt>0</asrwt>
<pdfrwt beam="1">  1        1 0.20960177E+00 0.13758484E+04</pdfrwt>
<pdfrwt beam="2">  1       -2 0.53439149E-01 0.13758484E+04</pdfrwt>
<totfact> 0.23097414E+01</totfact>
</mgrwt>
</event>
<event>
12    5  0.5095719E-008  0.1998594E+04  0.7818608E-02  0.8607278E-01
          1   -1    0    0  501    0  0.00000000000E+00  0.00000000000E+00  0.15923009156E+04  0.15923009156E+04  0.00000000000E+00 0. -1.
         -2   -1    0    0    0  501 -0.00000000000E+00 -0.00000000000E+00 -0.62713911000E+03  0.62713911000E+03  0.00000000000E+00 0.  1.
        -24    2    1    2    0    0 -0.22773848769E+03  0.39953251962E+03  0.11082660770E+04  0.12023533556E+04  0.76868988470E+02 0.  0.
        254    2    1    2    0    0  0.22773848769E+03 -0.39953251962E+03 -0.14310427139E+03  0.10170866700E+04  0.89582108076E+03 0.  0.
         23    2    4    4    0    0 -0.29398400753E+03  0.49491449336E+02 -0.43743554176E+02  0.31554353808E+03  0.93692185644E+02 0.  0.
         23    2    4    4    0    0  0.52172249522E+03 -0.44902396895E+03 -0.99360717211E+02  0.70154313189E+03  0.92050676648E+02 0.  0.
          3    1    3    3  502    0 -0.88494992517E+02  0.19790681405E+03  0.43830647152E+03  0.48898980943E+03  0.00000000000E+00 0. -1.
         -4    1    3    3    0  502 -0.13924349517E+03  0.20162570556E+03  0.66995960544E+03  0.71336354618E+03  0.00000000000E+00 0.  1.
         13    1    5    5    0    0 -0.26151623135E+03  0.54417294783E+02 -0.66891253884E+02  0.27536597662E+03  0.00000000000E+00 0. -1.
        -13    1    5    5    0    0 -0.32467776179E+02 -0.49258454479E+01  0.23147699707E+02  0.40177561464E+02  0.00000000000E+00 0.  1.
          4    1    6    6  503    0  0.46209246281E+03 -0.35707243168E+03 -0.70538722843E+02  0.58822264244E+03  0.00000000000E+00 0. -1.
         -4    1    6    6    0  503  0.59630032403E+02 -0.91951537270E+02 -0.28821994368E+02  0.11332048945E+03  0.00000000000E+00 0.  1.
<mgrwt>
<rscale>  0 0.19985937E+04</rscale>
<asrwt>0</asrwt>
<pdfrwt beam="1">  1        1 0.24496937E+00 0.19985937E+04</pdfrwt>
<pdfrwt beam="2">  1       -2 0.96482941E-01 0.19985937E+04</pdfrwt>
<totfact> 0.41346728E+00</totfact>
</mgrwt>
</event>
<event>
12    5  0.5095719E-008  0.1525024E+04  0.7818608E-02  0.8867980E-01
         -2   -1    0    0    0  501 -0.00000000000E+00  0.00000000000E+00  0.20565424803E+03  0.20565424803E+03  0.00000000000E+00 0.  1.
          1   -1    0    0  501    0  0.00000000000E+00 -0.00000000000E+00 -0.28271958639E+04  0.28271958639E+04  0.00000000000E+00 0. -1.
        -24    2    1    2    0    0 -0.36957428532E+03 -0.32486955121E+03 -0.92295750431E+03  0.10489712001E+04  0.79778732770E+02 0.  0.
        254    2    1    2    0    0  0.36957428532E+03  0.32486955121E+03 -0.16985841115E+04  0.19838789118E+04  0.89914524693E+03 0.  0.
         23    2    4    4    0    0 -0.89187991005E+02  0.50496027451E+03 -0.92991052740E+03  0.10655840512E+04  0.88297251900E+02 0.  0.
         23    2    4    4    0    0  0.45876227633E+03 -0.18009072330E+03 -0.76867358414E+03  0.91829486058E+03  0.97523726420E+02 0.  0.
          1    1    3    3  502    0 -0.58671214807E+02 -0.63427131170E+02 -0.10734421517E+03  0.13779728933E+03  0.00000000000E+00 0. -1.
         -2    1    3    3    0  502 -0.31090307051E+03 -0.26144242004E+03 -0.81561328914E+03  0.91117391077E+03  0.00000000000E+00 0.  1.
         13    1    5    5    0    0  0.16398950845E+02  0.51140070862E+02 -0.11363382652E+03  0.12568563548E+03  0.00000000000E+00 0. -1.
        -13    1    5    5    0    0 -0.10558694185E+03  0.45382020365E+03 -0.81627670088E+03  0.93989841575E+03  0.00000000000E+00 0.  1.
          2    1    6    6  503    0  0.10357775056E+03 -0.24308992926E+02 -0.24080635047E+03  0.26326218106E+03  0.00000000000E+00 0. -1.
         -2    1    6    6    0  503  0.35518452576E+03 -0.15578173038E+03 -0.52786723367E+03  0.65503267952E+03  0.00000000000E+00 0.  1.
<mgrwt>
<rscale>  0 0.15250244E+04</rscale>
<asrwt>0</asrwt>
<pdfrwt beam="1">  1        1 0.43495324E+00 0.15250244E+04</pdfrwt>
<pdfrwt beam="2">  1       -2 0.31639113E-01 0.15250244E+04</pdfrwt>
<totfact> 0.62980698E+00</totfact>
</mgrwt>
</event>
<event>
12    5  0.5095719E-008  0.1225830E+04  0.7818608E-02  0.9090544E-01
         -2   -1    0    0    0  501 -0.00000000000E+00  0.00000000000E+00  0.38022364554E+03  0.38022364554E+03  0.00000000000E+00 0.  1.
          1   -1    0    0  501    0  0.00000000000E+00 -0.00000000000E+00 -0.98800945132E+03  0.98800945132E+03  0.00000000000E+00 0. -1.
        -24    2    1    2    0    0  0.87906045982E+02 -0.21426666115E+03 -0.37047095302E+02  0.24671083116E+03  0.76524975926E+02 0.  0.
        254    2    1    2    0    0 -0.87906045982E+02  0.21426666115E+03 -0.57073871048E+03  0.11215222657E+04  0.93724694814E+03 0.  0.
         23    2    4    4    0    0 -0.39779978897E+03 -0.12993209392E+03 -0.47548595422E+03  0.63992075253E+03  0.91020084192E+02 0.  0.
         23    2    4    4    0    0  0.30989374298E+03  0.34419875507E+03 -0.95252756259E+02  0.48160151316E+03  0.91433117458E+02 0.  0.
          1    1    3    3  502    0  0.57272299166E+02 -0.67043915787E+02  0.10967206893E+02  0.88855402328E+02  0.00000000000E+00 0. -1.
         -2    1    3    3    0  502  0.30633746816E+02 -0.14722274537E+03 -0.48014302195E+02  0.15785542884E+03  0.00000000000E+00 0.  1.
         13    1    5    5    0    0 -0.28293382150E+02 -0.29974002233E+02 -0.22859222792E+02  0.47132794846E+02  0.00000000000E+00 0.  1.
        -13    1    5    5    0    0 -0.36950640682E+03 -0.99958091685E+02 -0.45262673143E+03  0.59278795769E+03  0.00000000000E+00 0. -1.
          1    1    6    6  503    0  0.30593064127E+03  0.31463401662E+03 -0.74165856436E+02  0.44507156272E+03  0.00000000000E+00 0. -1.
         -1    1    6    6    0  503  0.39631017172E+01  0.29564738456E+02 -0.21086899822E+02  0.36529950442E+02  0.00000000000E+00 0.  1.
<mgrwt>
<rscale>  0 0.12258296E+04</rscale>
<asrwt>0</asrwt>
<pdfrwt beam="1">  1        1 0.15200145E+00 0.12258296E+04</pdfrwt>
<pdfrwt beam="2">  1       -2 0.58495945E-01 0.12258296E+04</pdfrwt>
<totfact> 0.36593376E+01</totfact>
</mgrwt>
</event>
<event>
12    5  0.5095719E-008  0.1580474E+04  0.7818608E-02  0.8832634E-01
         -2   -1    0    0    0  501 -0.00000000000E+00  0.00000000000E+00  0.29791680484E+03  0.29791680484E+03  0.00000000000E+00 0.  1.
          1   -1    0    0  501    0  0.00000000000E+00 -0.00000000000E+00 -0.20961364483E+04  0.20961364483E+04  0.00000000000E+00 0. -1.
        -24    2    1    2    0    0 -0.47111008252E+03  0.42583066818E+02 -0.99806408850E+03  0.11074502263E+04  0.80969448846E+02 0.  0.
        254    2    1    2    0    0  0.47111008252E+03 -0.42583066818E+02 -0.80015555500E+03  0.12866030268E+04  0.88957316114E+03 0.  0.
         23    2    4    4    0    0  0.26464021574E+03  0.21798801478E+03 -0.86571910523E+03  0.93569637668E+03  0.92222132925E+02 0.  0.
         23    2    4    4    0    0  0.20646986678E+03 -0.26057108160E+03  0.65563550224E+02  0.35090665015E+03  0.91158123864E+02 0.  0.
          3    1    3    3  502    0 -0.32912277510E+03  0.15896024536E+02 -0.76913235927E+03  0.83674313309E+03  0.00000000000E+00 0. -1.
         -4    1    3    3    0  502 -0.14198730741E+03  0.26687042282E+02 -0.22893172923E+03  0.27070709326E+03  0.00000000000E+00 0.  1.
         13    1    5    5    0    0  0.22123670810E+02  0.62569633857E+02 -0.18496901135E+03  0.19651450595E+03  0.00000000000E+00 0.  1.
        -13    1    5    5    0    0  0.24251654493E+03  0.15541838093E+03 -0.68075009388E+03  0.73918187073E+03  0.00000000000E+00 0. -1.
          2    1    6    6  503    0  0.74588621605E+02 -0.12649168368E+03  0.70239368248E+02  0.16277953607E+03  0.00000000000E+00 0. -1.
         -2    1    6    6    0  503  0.13188124517E+03 -0.13407939792E+03 -0.46758180238E+01  0.18812711408E+03  0.00000000000E+00 0.  1.
<mgrwt>
<rscale>  0 0.15804737E+04</rscale>
<asrwt>0</asrwt>
<pdfrwt beam="1">  1        1 0.32248252E+00 0.15804737E+04</pdfrwt>
<pdfrwt beam="2">  1       -2 0.45833356E-01 0.15804737E+04</pdfrwt>
<totfact> 0.97721403E+00</totfact>
</mgrwt>
</event>
<event>
12    5  0.5095719E-008  0.1393025E+04  0.7818608E-02  0.8958883E-01
          1   -1    0    0  501    0  0.00000000000E+00  0.00000000000E+00  0.18984263479E+04  0.18984263479E+04  0.00000000000E+00 0. -1.
         -2   -1    0    0    0  501 -0.00000000000E+00 -0.00000000000E+00 -0.25554300371E+03  0.25554300371E+03  0.00000000000E+00 0.  1.
        -24    2    1    2    0    0 -0.44332728641E+02 -0.12920301320E+03 -0.10181316590E+03  0.18820450335E+03  0.79976276999E+02 0.  0.
        254    2    1    2    0    0  0.44332728641E+02  0.12920301320E+03  0.17446965101E+04  0.19657648482E+04  0.89532492250E+03 0.  0.
         23    2    4    4    0    0 -0.22126401133E+03  0.15215180470E+03  0.10788425979E+03  0.30460843920E+03  0.95075513871E+02 0.  0.
         23    2    4    4    0    0  0.26559673997E+03 -0.22948791504E+02  0.16368122503E+04  0.16611564090E+04  0.96010402020E+02 0.  0.
          3    1    3    3  502    0 -0.16195305981E+02 -0.89410846762E+02 -0.20101141125E+02  0.93062577490E+02  0.00000000000E+00 0. -1.
         -4    1    3    3    0  502 -0.28137422660E+02 -0.39792166435E+02 -0.81712024775E+02  0.95141925860E+02  0.00000000000E+00 0.  1.
         13    1    5    5    0    0 -0.29322899743E+02  0.24923112093E+02 -0.17646463922E+02  0.42336646710E+02  0.00000000000E+00 0.  1.
        -13    1    5    5    0    0 -0.19194111159E+03  0.12722869261E+03  0.12553072371E+03  0.26227179249E+03  0.00000000000E+00 0. -1.
          4    1    6    6  503    0  0.93555696005E+02 -0.42128453579E+02  0.43473386934E+03  0.44667774962E+03  0.00000000000E+00 0. -1.
         -4    1    6    6    0  503  0.17204104397E+03  0.19179662076E+02  0.12020783809E+04  0.12144786594E+04  0.00000000000E+00 0.  1.
<mgrwt>
<rscale>  0 0.13930249E+04</rscale>
<asrwt>0</asrwt>
<pdfrwt beam="1">  1        1 0.29206558E+00 0.13930249E+04</pdfrwt>
<pdfrwt beam="2">  1       -2 0.39314309E-01 0.13930249E+04</pdfrwt>
<totfact> 0.18310293E+01</totfact>
</mgrwt>
</event>
<event>
12    5  0.5095719E-008  0.1488645E+04  0.7818608E-02  0.8892039E-01
         -2   -1    0    0    0  501 -0.00000000000E+00  0.00000000000E+00  0.55889708419E+03  0.55889708419E+03  0.00000000000E+00 0.  1.
          1   -1    0    0  501    0  0.00000000000E+00 -0.00000000000E+00 -0.99126610078E+03  0.99126610078E+03  0.00000000000E+00 0. -1.
        -24    2    1    2    0    0  0.41275412835E+02 -0.37296549850E+03 -0.41664193187E+03  0.56641398571E+03  0.80170948845E+02 0.  0.
        254    2    1    2    0    0 -0.41275412835E+02  0.37296549850E+03 -0.15727084721E+02  0.98374919926E+03  0.90923496582E+03 0.  0.
         23    2    4    4    0    0 -0.31118434641E+03  0.57265025931E+02 -0.32211511023E+03  0.45995061315E+03  0.87643834045E+02 0.  0.
         23    2    4    4    0    0  0.26990893358E+03  0.31570047256E+03  0.30638802551E+03  0.52379858611E+03  0.89295665240E+02 0.  0.
          3    1    3    3  502    0 -0.16047924249E+02 -0.14332623469E+03 -0.19165376485E+03  0.23985643832E+03  0.00000000000E+00 0. -1.
         -4    1    3    3    0  502  0.57323337083E+02 -0.22963926380E+03 -0.22498816702E+03  0.32655754739E+03  0.00000000000E+00 0.  1.
         13    1    5    5    0    0 -0.19034046596E+03  0.30986976424E+01 -0.23037041562E+03  0.29884715709E+03  0.00000000000E+00 0. -1.
        -13    1    5    5    0    0 -0.12084388046E+03  0.54166328288E+02 -0.91744694615E+02  0.16110345606E+03  0.00000000000E+00 0.  1.
          1    1    6    6  503    0  0.73058127998E+02  0.14707475699E+03  0.13992429280E+03  0.21574819101E+03  0.00000000000E+00 0. -1.
         -1    1    6    6    0  503  0.19685080558E+03  0.16862571558E+03  0.16646373271E+03  0.30805039510E+03  0.00000000000E+00 0.  1.
<mgrwt>
<rscale>  0 0.14886447E+04</rscale>
<asrwt>0</asrwt>
<pdfrwt beam="1">  1        1 0.15250248E+00 0.14886447E+04</pdfrwt>
<pdfrwt beam="2">  1       -2 0.85984168E-01 0.14886447E+04</pdfrwt>
<totfact> 0.15313870E+01</totfact>
</mgrwt>
</event>
<event>
12    5  0.5095719E-008  0.2028000E+04  0.7818608E-02  0.8593640E-01
         -2   -1    0    0    0  501 -0.00000000000E+00  0.00000000000E+00  0.73473923789E+03  0.73473923789E+03  0.00000000000E+00 0.  1.
          1   -1    0    0  501    0  0.00000000000E+00 -0.00000000000E+00 -0.13994031939E+04  0.13994031939E+04  0.00000000000E+00 0. -1.
        -24    2    1    2    0    0 -0.40976688027E+03 -0.65322230911E+03 -0.15039149220E+02  0.77511831823E+03  0.77291331732E+02 0.  0.
        254    2    1    2    0    0  0.40976688027E+03  0.65322230911E+03 -0.64962480679E+03  0.13590241136E+04  0.91122218495E+03 0.  0.
         23    2    4    4    0    0  0.24891741921E+03  0.75221055684E+03 -0.14304902551E+03  0.81009978118E+03  0.89543444013E+02 0.  0.
         23    2    4    4    0    0  0.16084946107E+03 -0.98988247732E+02 -0.50657578128E+03  0.54892433238E+03  0.95014094655E+02 0.  0.
          1    1    3    3  502    0 -0.40494897896E+03 -0.65158705223E+03 -0.90011429749E+01  0.76722251190E+03  0.00000000000E+00 0. -1.
         -4    1    3    3    0  502 -0.48179013189E+01 -0.16352568761E+01 -0.60380062452E+01  0.78958063290E+01  0.00000000000E+00 0.  1.
         13    1    5    5    0    0  0.21967486798E+03  0.69700840672E+03 -0.15352533210E+03  0.74675818995E+03  0.00000000000E+00 0. -1.
        -13    1    5    5    0    0  0.29242551226E+02  0.55202150123E+02  0.10476306590E+02  0.63341591235E+02  0.00000000000E+00 0.  1.
          1    1    6    6  503    0  0.12502289304E+03 -0.69698939403E+02 -0.46563075099E+03  0.48713515805E+03  0.00000000000E+00 0. -1.
         -1    1    6    6    0  503  0.35826568026E+02 -0.29289308328E+02 -0.40945030284E+02  0.61789174326E+02  0.00000000000E+00 0.  1.
<mgrwt>
<rscale>  0 0.20280004E+04</rscale>
<asrwt>0</asrwt>
<pdfrwt beam="1">  1        1 0.21529280E+00 0.20280004E+04</pdfrwt>
<pdfrwt beam="2">  1       -2 0.11303681E+00 0.20280004E+04</pdfrwt>
<totfact> 0.38408301E+00</totfact>
</mgrwt>
</event>
<event>
12    5  0.5095719E-008  0.3433478E+04  0.7818608E-02  0.8129738E-01
         -2   -1    0    0    0  501 -0.00000000000E+00  0.00000000000E+00  0.14729660722E+04  0.14729660722E+04  0.00000000000E+00 0.  1.
          1   -1    0    0  501    0  0.00000000000E+00 -0.00000000000E+00 -0.20008562292E+04  0.20008562292E+04  0.00000000000E+00 0. -1.
        -24    2    1    2    0    0 -0.14658019561E+04  0.55432416962E+03  0.76257327635E+02  0.15709261697E+04  0.78378512478E+02 0.  0.
        254    2    1    2    0    0  0.14658019561E+04 -0.55432416962E+03 -0.60414748465E+03  0.19028961316E+04  0.89452157325E+03 0.  0.
         23    2    4    4    0    0  0.47726063604E+03  0.14116611196E+02 -0.58125930000E+03  0.75893292575E+03  0.10069666598E+03 0.  0.
         23    2    4    4    0    0  0.98854132004E+03 -0.56844078081E+03 -0.22888184652E+02  0.11439632058E+04  0.88255790907E+02 0.  0.
          3    1    3    3  502    0 -0.62361102590E+03  0.25532225411E+03  0.67085431370E+02  0.67718580919E+03  0.00000000000E+00 0. -1.
         -4    1    3    3    0  502 -0.84219093018E+03  0.29900191551E+03  0.91718962647E+01  0.89374036053E+03  0.00000000000E+00 0.  1.
         13    1    5    5    0    0  0.43513179503E+01  0.26852858812E+01  0.39355750343E+01  0.64524010274E+01  0.00000000000E+00 0.  1.
        -13    1    5    5    0    0  0.47290931809E+03  0.11431325315E+02 -0.58519487503E+03  0.75248052473E+03  0.00000000000E+00 0. -1.
          2    1    6    6  503    0  0.66385166917E+03 -0.42862794471E+03 -0.12788176063E+02  0.79030658044E+03  0.00000000000E+00 0. -1.
         -2    1    6    6    0  503  0.32468965087E+03 -0.13981283610E+03 -0.10100008590E+02  0.35365662540E+03  0.00000000000E+00 0.  1.
<mgrwt>
<rscale>  0 0.34334783E+04</rscale>
<asrwt>0</asrwt>
<pdfrwt beam="1">  1        1 0.30782403E+00 0.34334783E+04</pdfrwt>
<pdfrwt beam="2">  1       -2 0.22661017E+00 0.34334783E+04</pdfrwt>
<totfact> 0.19274636E-01</totfact>
</mgrwt>
</event>
<event>
12    5  0.5095719E-008  0.3338157E+04  0.7818608E-02  0.8153254E-01
          3   -1    0    0  501    0  0.00000000000E+00  0.00000000000E+00  0.17673374719E+04  0.17673374719E+04  0.00000000000E+00 0. -1.
         -4   -1    0    0    0  501 -0.00000000000E+00 -0.00000000000E+00 -0.15762826289E+04  0.15762826289E+04  0.00000000000E+00 0.  1.
        -24    2    1    2    0    0  0.15131418869E+04  0.27266338020E+03  0.21413921261E+03  0.15544395651E+04  0.80517514603E+02 0.  0.
        254    2    1    2    0    0 -0.15131418869E+04 -0.27266338020E+03 -0.23084369630E+02  0.17891805358E+04  0.91470782914E+03 0.  0.
         23    2    4    4    0    0 -0.40459112993E+03  0.32195567915E+03  0.30262389505E+02  0.52676260246E+03  0.95987423020E+02 0.  0.
         23    2    4    4    0    0 -0.11085507570E+04 -0.59461905935E+03 -0.53346759136E+02  0.12624179333E+04  0.91632718607E+02 0.  0.
          3    1    3    3  502    0  0.58212504791E+03  0.82105296672E+02  0.49521178309E+02  0.58996881125E+03  0.00000000000E+00 0. -1.
         -4    1    3    3    0  502  0.93101683903E+03  0.19055808353E+03  0.16461803430E+03  0.96447075381E+03  0.00000000000E+00 0.  1.
         13    1    5    5    0    0 -0.42732326621E+01  0.79176053830E+01 -0.13351224418E+02  0.16099819435E+02  0.00000000000E+00 0. -1.
        -13    1    5    5    0    0 -0.40031789727E+03  0.31403807377E+03  0.43613613923E+02  0.51066278303E+03  0.00000000000E+00 0.  1.
          4    1    6    6  503    0 -0.52432031945E+03 -0.23964393293E+03  0.28205976628E+01  0.57649715329E+03  0.00000000000E+00 0. -1.
         -4    1    6    6    0  503 -0.58423043755E+03 -0.35497512642E+03 -0.56167356798E+02  0.68592078006E+03  0.00000000000E+00 0.  1.
<mgrwt>
<rscale>  0 0.33381572E+04</rscale>
<asrwt>0</asrwt>
<pdfrwt beam="1">  1        3 0.27189807E+00 0.33381572E+04</pdfrwt>
<pdfrwt beam="2">  1       -4 0.24250502E+00 0.33381572E+04</pdfrwt>
<totfact> 0.73498884E-03</totfact>
</mgrwt>
</event>
<event>
12    5  0.5095719E-008  0.1651222E+04  0.7818608E-02  0.8789684E-01
          1   -1    0    0  501    0  0.00000000000E+00  0.00000000000E+00  0.37765781937E+03  0.37765781937E+03  0.00000000000E+00 0. -1.
         -2   -1    0    0    0  501 -0.00000000000E+00 -0.00000000000E+00 -0.18048969722E+04  0.18048969722E+04  0.00000000000E+00 0.  1.
        -24    2    1    2    0    0  0.78260834907E+02  0.52904774615E+02 -0.12586583783E+04  0.12647463680E+04  0.80242063223E+02 0.  0.
        254    2    1    2    0    0 -0.78260834907E+02 -0.52904774615E+02 -0.16858077455E+03  0.91780842356E+03  0.89723416751E+03 0.  0.
         23    2    4    4    0    0  0.24285312483E+03 -0.31155362967E+03  0.98588696767E+02  0.41811489334E+03  0.95168421773E+02 0.  0.
         23    2    4    4    0    0 -0.32111395974E+03  0.25864885506E+03 -0.26716947132E+03  0.49969353022E+03  0.91108135626E+02 0.  0.
          3    1    3    3  502    0  0.83827971890E+02  0.19676362944E+02 -0.73955570848E+03  0.74455149860E+03  0.00000000000E+00 0. -1.
         -4    1    3    3    0  502 -0.55671369835E+01  0.33228411671E+02 -0.51910266982E+03  0.52019486942E+03  0.00000000000E+00 0.  1.
         13    1    5    5    0    0  0.80942462530E+02 -0.69271241383E+02 -0.10295518420E+02  0.10703356867E+03  0.00000000000E+00 0.  1.
        -13    1    5    5    0    0  0.16191066230E+03 -0.24228238829E+03  0.10888421519E+03  0.31108132467E+03  0.00000000000E+00 0. -1.
          2    1    6    6  503    0 -0.25254671322E+03  0.21672757469E+03 -0.25310239693E+03  0.41810466072E+03  0.00000000000E+00 0. -1.
         -2    1    6    6    0  503 -0.68567246522E+02  0.41921280369E+02 -0.14067074382E+02  0.81588869492E+02  0.00000000000E+00 0.  1.
<mgrwt>
<rscale>  0 0.16512219E+04</rscale>
<asrwt>0</asrwt>
<pdfrwt beam="1">  1        1 0.58101203E-01 0.16512219E+04</pdfrwt>
<pdfrwt beam="2">  1       -2 0.27767646E+00 0.16512219E+04</pdfrwt>
<totfact> 0.23570184E+00</totfact>
</mgrwt>
</event>
<event>
12    5  0.5095719E-008  0.1596654E+04  0.7818608E-02  0.8822606E-01
         -2   -1    0    0    0  501 -0.00000000000E+00  0.00000000000E+00  0.34410766862E+03  0.34410766862E+03  0.00000000000E+00 0.  1.
          1   -1    0    0  501    0  0.00000000000E+00 -0.00000000000E+00 -0.18521114995E+04  0.18521114995E+04  0.00000000000E+00 0. -1.
        -24    2    1    2    0    0 -0.26030417293E+03 -0.42998310079E+03 -0.25345870939E+03  0.57092304245E+03  0.95226433448E+02 0.  0.
        254    2    1    2    0    0  0.26030417293E+03  0.42998310079E+03 -0.12545451215E+04  0.16252961257E+04  0.90280690342E+03 0.  0.
         23    2    4    4    0    0 -0.95672208553E+02 -0.15929186797E+03 -0.71821989015E+03  0.74788292724E+03  0.94667795815E+02 0.  0.
         23    2    4    4    0    0  0.35597638148E+03  0.58927496876E+03 -0.53632523137E+03  0.87741319845E+03  0.90801949502E+02 0.  0.
          3    1    3    3  502    0 -0.11626826704E+03 -0.27239811054E+03 -0.17145827923E+03  0.34222358491E+03  0.00000000000E+00 0. -1.
         -4    1    3    3    0  502 -0.14403590589E+03 -0.15758499024E+03 -0.82000430158E+02  0.22869945754E+03  0.00000000000E+00 0.  1.
         13    1    5    5    0    0 -0.19387380363E+02 -0.85184890936E+02 -0.46661869032E+03  0.47472659323E+03  0.00000000000E+00 0. -1.
        -13    1    5    5    0    0 -0.76284828190E+02 -0.74106977036E+02 -0.25160119982E+03  0.27315633401E+03  0.00000000000E+00 0.  1.
          3    1    6    6  503    0 -0.40131559650E+01  0.97904683957E+00 -0.77824348229E+00  0.42035242870E+01  0.00000000000E+00 0. -1.
         -3    1    6    6    0  503  0.35998953745E+03  0.58829592192E+03 -0.53554698789E+03  0.87320967416E+03  0.00000000000E+00 0.  1.
<mgrwt>
<rscale>  0 0.15966537E+04</rscale>
<asrwt>0</asrwt>
<pdfrwt beam="1">  1        1 0.28494022E+00 0.15966537E+04</pdfrwt>
<pdfrwt beam="2">  1       -2 0.52939643E-01 0.15966537E+04</pdfrwt>
<totfact> 0.10648475E+01</totfact>
</mgrwt>
</event>
<event>
12    5  0.5095719E-008  0.1320125E+04  0.7818608E-02  0.9013756E-01
         -4   -1    0    0    0  501 -0.00000000000E+00  0.00000000000E+00  0.77934361686E+03  0.77934361686E+03  0.00000000000E+00 0.  1.
          3   -1    0    0  501    0  0.00000000000E+00 -0.00000000000E+00 -0.55903769042E+03  0.55903769042E+03  0.00000000000E+00 0. -1.
        -24    2    1    2    0    0  0.52346526819E+02  0.14081205918E+02  0.41639721313E+03  0.42842783614E+03  0.85001955531E+02 0.  0.
        254    2    1    2    0    0 -0.52346526819E+02 -0.14081205918E+02 -0.19609128669E+03  0.90995347114E+03  0.88691887323E+03 0.  0.
         23    2    4    4    0    0  0.23818345799E+03  0.33657412369E+03 -0.68686731308E+02  0.42878679698E+03  0.95534024363E+02 0.  0.
         23    2    4    4    0    0 -0.29052998481E+03 -0.35065532960E+03 -0.12740455538E+03  0.48116667416E+03  0.89009074457E+02 0.  0.
          1    1    3    3  502    0 -0.14935332911E+02 -0.16654753423E+02  0.52148324152E+02  0.56744098307E+02  0.00000000000E+00 0. -1.
         -2    1    3    3    0  502  0.67281859731E+02  0.30735959341E+02  0.36424888898E+03  0.37168373783E+03  0.00000000000E+00 0.  1.
         13    1    5    5    0    0  0.82146977471E+02  0.92959357675E+02  0.21177463074E+02  0.12584932669E+03  0.00000000000E+00 0. -1.
        -13    1    5    5    0    0  0.15603648052E+03  0.24361476601E+03 -0.89864194382E+02  0.30293747029E+03  0.00000000000E+00 0.  1.
          1    1    6    6  503    0 -0.35185748246E+01 -0.38479637671E+02 -0.95257717743E+00  0.38651911820E+02  0.00000000000E+00 0. -1.
         -1    1    6    6    0  503 -0.28701140999E+03 -0.31217569193E+03 -0.12645197821E+03  0.44251476234E+03  0.00000000000E+00 0.  1.
<mgrwt>
<rscale>  0 0.13201249E+04</rscale>
<asrwt>0</asrwt>
<pdfrwt beam="1">  1        3 0.86005798E-01 0.13201249E+04</pdfrwt>
<pdfrwt beam="2">  1       -4 0.11989902E+00 0.13201249E+04</pdfrwt>
<totfact> 0.14694984E+00</totfact>
</mgrwt>
</event>
<event>
12    5  0.5095719E-008  0.2738584E+04  0.7818608E-02  0.8322593E-01
          1   -1    0    0  501    0  0.00000000000E+00  0.00000000000E+00  0.31144152908E+04  0.31144152908E+04  0.00000000000E+00 0. -1.
         -2   -1    0    0    0  501 -0.00000000000E+00 -0.00000000000E+00 -0.60202664688E+03  0.60202664688E+03  0.00000000000E+00 0.  1.
        -24    2    1    2    0    0  0.54880787816E+03  0.85890307018E+03  0.20408598961E+04  0.22826660213E+04  0.80935023285E+02 0.  0.
        254    2    1    2    0    0 -0.54880787816E+03 -0.85890307018E+03  0.47152874783E+03  0.14337759164E+04  0.89133015625E+03 0.  0.
         23    2    4    4    0    0 -0.67731093451E+03 -0.77049265752E+03  0.61851917242E+03  0.12009265668E+04  0.85144669935E+02 0.  0.
         23    2    4    4    0    0  0.12850305636E+03 -0.88410412657E+02 -0.14699042459E+03  0.23284934967E+03  0.91012077011E+02 0.  0.
          3    1    3    3  502    0  0.50658939413E+03  0.82353002881E+03  0.19133307252E+04  0.21437511485E+04  0.00000000000E+00 0. -1.
         -4    1    3    3    0  502  0.42218484025E+02  0.35373041373E+02  0.12752917088E+03  0.13891487276E+03  0.00000000000E+00 0.  1.
         13    1    5    5    0    0 -0.42940478002E+03 -0.49048217296E+03  0.44026206915E+03  0.78663327963E+03  0.00000000000E+00 0.  1.
        -13    1    5    5    0    0 -0.24790615449E+03 -0.28001048456E+03  0.17825710327E+03  0.41429328714E+03  0.00000000000E+00 0. -1.
          1    1    6    6  503    0  0.69659250160E+02 -0.21712828622E+02 -0.16299703551E+02  0.74763215524E+02  0.00000000000E+00 0. -1.
         -1    1    6    6    0  503  0.58843806196E+02 -0.66697584035E+02 -0.13069072104E+03  0.15808613415E+03  0.00000000000E+00 0.  1.
<mgrwt>
<rscale>  0 0.27385843E+04</rscale>
<asrwt>0</asrwt>
<pdfrwt beam="1">  1        1 0.47914081E+00 0.27385843E+04</pdfrwt>
<pdfrwt beam="2">  1       -2 0.92619486E-01 0.27385843E+04</pdfrwt>
<totfact> 0.37261862E-01</totfact>
</mgrwt>
</event>
<event>
12    5  0.5095719E-008  0.3906508E+04  0.7818608E-02  0.8023677E-01
          1   -1    0    0  501    0  0.00000000000E+00  0.00000000000E+00  0.32178900439E+04  0.32178900439E+04  0.00000000000E+00 0. -1.
         -2   -1    0    0    0  501 -0.00000000000E+00 -0.00000000000E+00 -0.11856220650E+04  0.11856220650E+04  0.00000000000E+00 0.  1.
        -24    2    1    2    0    0 -0.27029197073E+03  0.59938504646E+03 -0.98739897049E+03  0.11890764440E+04  0.81399505472E+02 0.  0.
        254    2    1    2    0    0  0.27029197073E+03 -0.59938504646E+03  0.30196669495E+04  0.32144356649E+04  0.88424429565E+03 0.  0.
         23    2    4    4    0    0  0.66728662617E+02 -0.26668951399E+03  0.16758231832E+03  0.33440165700E+03  0.90358306216E+02 0.  0.
         23    2    4    4    0    0  0.20356330811E+03 -0.33269553247E+03  0.28520846312E+04  0.28800340079E+04  0.89915546087E+02 0.  0.
          3    1    3    3  502    0 -0.37268219310E+01  0.67108906542E+02 -0.97158022944E+02  0.11814049247E+03  0.00000000000E+00 0. -1.
         -4    1    3    3    0  502 -0.26656514880E+03  0.53227613992E+03 -0.89024094755E+03  0.10709359516E+04  0.00000000000E+00 0.  1.
         13    1    5    5    0    0 -0.11541698857E+02 -0.19241579553E+02  0.38452694230E+02  0.44520319965E+02  0.00000000000E+00 0. -1.
        -13    1    5    5    0    0  0.78270361474E+02 -0.24744793444E+03  0.12912962409E+03  0.28988133703E+03  0.00000000000E+00 0.  1.
          4    1    6    6  503    0  0.55409682686E+02 -0.15522331062E+03  0.98544737672E+03  0.99913514671E+03  0.00000000000E+00 0. -1.
         -4    1    6    6    0  503  0.14815362542E+03 -0.17747222185E+03  0.18666372544E+04  0.18808988612E+04  0.00000000000E+00 0.  1.
<mgrwt>
<rscale>  0 0.39065081E+04</rscale>
<asrwt>0</asrwt>
<pdfrwt beam="1">  1        1 0.49506000E+00 0.39065081E+04</pdfrwt>
<pdfrwt beam="2">  1       -2 0.18240340E+00 0.39065081E+04</pdfrwt>
<totfact> 0.49921813E-02</totfact>
</mgrwt>
</event>
<event>
12    5  0.5095719E-008  0.1160486E+04  0.7818608E-02  0.9148164E-01
         -2   -1    0    0    0  501 -0.00000000000E+00  0.00000000000E+00  0.72439349465E+03  0.72439349465E+03  0.00000000000E+00 0.  1.
          1   -1    0    0  501    0  0.00000000000E+00 -0.00000000000E+00 -0.46477767849E+03  0.46477767849E+03  0.00000000000E+00 0. -1.
        -24    2    1    2    0    0  0.17591317840E+03 -0.12307095740E+03  0.33073802677E+01  0.22895472698E+03  0.79482207763E+02 0.  0.
        254    2    1    2    0    0 -0.17591317840E+03  0.12307095740E+03  0.25630843590E+03  0.96021644616E+03  0.90012760333E+03 0.  0.
         23    2    4    4    0    0  0.34395134156E+03 -0.69612686408E+02  0.12017885839E+03  0.38202380610E+03  0.91382596556E+02 0.  0.
         23    2    4    4    0    0 -0.51986451996E+03  0.19268364381E+03  0.13612957751E+03  0.57819264006E+03  0.91593457449E+02 0.  0.
          1    1    3    3  502    0  0.10140535591E+03 -0.64394866944E+02 -0.37309940487E+02  0.12578464435E+03  0.00000000000E+00 0. -1.
         -2    1    3    3    0  502  0.74507822493E+02 -0.58676090455E+02  0.40617320755E+02  0.10317008263E+03  0.00000000000E+00 0.  1.
         13    1    5    5    0    0  0.33674730682E+03 -0.62021773713E+02  0.95902596931E+02  0.35558790357E+03  0.00000000000E+00 0. -1.
        -13    1    5    5    0    0  0.72040347328E+01 -0.75909126957E+01  0.24276261458E+02  0.26435902526E+02  0.00000000000E+00 0.  1.
          2    1    6    6  503    0 -0.47687010072E+03  0.20079461719E+03  0.13347895136E+03  0.53435961834E+03  0.00000000000E+00 0. -1.
         -2    1    6    6    0  503 -0.42994419239E+02 -0.81109733787E+01  0.26506261525E+01  0.43833021729E+02  0.00000000000E+00 0.  1.
<mgrwt>
<rscale>  0 0.11604860E+04</rscale>
<asrwt>0</asrwt>
<pdfrwt beam="1">  1        1 0.71504258E-01 0.11604860E+04</pdfrwt>
<pdfrwt beam="2">  1       -2 0.11144515E+00 0.11604860E+04</pdfrwt>
<totfact> 0.27058489E+01</totfact>
</mgrwt>
</event>
<event>
12    5  0.5095719E-008  0.1206285E+04  0.7818608E-02  0.9107373E-01
         -2   -1    0    0    0  501 -0.00000000000E+00  0.00000000000E+00  0.55060253982E+03  0.55060253982E+03  0.00000000000E+00 0.  1.
          1   -1    0    0  501    0  0.00000000000E+00 -0.00000000000E+00 -0.66069637666E+03  0.66069637666E+03  0.00000000000E+00 0. -1.
        -24    2    1    2    0    0 -0.25415106187E+03 -0.70426727592E+02 -0.32307629996E+02  0.27806952865E+03  0.82013374504E+02 0.  0.
        254    2    1    2    0    0  0.25415106187E+03  0.70426727592E+02 -0.77786206841E+02  0.93322938783E+03  0.89180362756E+03 0.  0.
         23    2    4    4    0    0 -0.18178154198E+03 -0.43683737573E+02  0.28154282373E+03  0.34980746860E+03  0.90255778560E+02 0.  0.
         23    2    4    4    0    0  0.43593260385E+03  0.11411046516E+03 -0.35932903057E+03  0.58342191923E+03  0.90583388485E+02 0.  0.
          1    1    3    3  502    0 -0.16803801693E+02 -0.14471059920E+02 -0.25947189379E+02  0.34132623152E+02  0.00000000000E+00 0. -1.
         -2    1    3    3    0  502 -0.23734726018E+03 -0.55955667672E+02 -0.63604406167E+01  0.24393690550E+03  0.00000000000E+00 0.  1.
         13    1    5    5    0    0 -0.76067776911E+02 -0.57839369541E+02  0.17296515019E+03  0.19760729373E+03  0.00000000000E+00 0.  1.
        -13    1    5    5    0    0 -0.10571376507E+03  0.14155631969E+02  0.10857767354E+03  0.15220017487E+03  0.00000000000E+00 0. -1.
          1    1    6    6  503    0  0.39574070071E+03  0.74066225434E+02 -0.32156267764E+03  0.51526601247E+03  0.00000000000E+00 0. -1.
         -1    1    6    6    0  503  0.40191903133E+02  0.40044239730E+02 -0.37766352930E+02  0.68155906762E+02  0.00000000000E+00 0.  1.
<mgrwt>
<rscale>  0 0.12062854E+04</rscale>
<asrwt>0</asrwt>
<pdfrwt beam="1">  1        1 0.10164560E+00 0.12062854E+04</pdfrwt>
<pdfrwt beam="2">  1       -2 0.84708083E-01 0.12062854E+04</pdfrwt>
<totfact> 0.31273825E+01</totfact>
</mgrwt>
</event>
<event>
12    5  0.5095719E-008  0.1983978E+04  0.7818608E-02  0.8614148E-01
          1   -1    0    0  501    0  0.00000000000E+00  0.00000000000E+00  0.73435592279E+03  0.73435592279E+03  0.00000000000E+00 0. -1.
         -2   -1    0    0    0  501 -0.00000000000E+00 -0.00000000000E+00 -0.13400068129E+04  0.13400068129E+04  0.00000000000E+00 0.  1.
        -24    2    1    2    0    0  0.16322437921E+01 -0.55773592255E+03  0.33396804082E+03  0.65502840110E+03  0.80346315638E+02 0.  0.
        254    2    1    2    0    0 -0.16322437921E+01  0.55773592255E+03 -0.93961893088E+03  0.14193343345E+04  0.90584446482E+03 0.  0.
         23    2    4    4    0    0 -0.24642634061E+03  0.52694076197E+03 -0.98951942323E+03  0.11513862574E+04  0.90272459147E+02 0.  0.
         23    2    4    4    0    0  0.24479409682E+03  0.30795160582E+02  0.49900492355E+02  0.26794807711E+03  0.91834749089E+02 0.  0.
          3    1    3    3  502    0 -0.38803026730E+02 -0.27273745491E+03  0.15553515527E+03  0.31635830749E+03  0.00000000000E+00 0. -1.
         -4    1    3    3    0  502  0.40435270522E+02 -0.28499846764E+03  0.17843288554E+03  0.33867009361E+03  0.00000000000E+00 0.  1.
         13    1    5    5    0    0 -0.19051077046E+02  0.18979264943E+02 -0.20087661433E+02  0.33565907946E+02  0.00000000000E+00 0. -1.
        -13    1    5    5    0    0 -0.22737526356E+03  0.50796149703E+03 -0.96943176180E+03  0.11178203495E+04  0.00000000000E+00 0.  1.
          3    1    6    6  503    0  0.72888637687E+02  0.52719096860E+02  0.16136436286E+02  0.91391691382E+02  0.00000000000E+00 0. -1.
         -3    1    6    6    0  503  0.17190545913E+03 -0.21923936279E+02  0.33764056069E+02  0.17655638573E+03  0.00000000000E+00 0.  1.
<mgrwt>
<rscale>  0 0.19839778E+04</rscale>
<asrwt>0</asrwt>
<pdfrwt beam="1">  1        1 0.11297783E+00 0.19839778E+04</pdfrwt>
<pdfrwt beam="2">  1       -2 0.20615489E+00 0.19839778E+04</pdfrwt>
<totfact> 0.24958509E+00</totfact>
</mgrwt>
</event>
<event>
12    5  0.5095719E-008  0.1490618E+04  0.7818608E-02  0.8890716E-01
          1   -1    0    0  501    0  0.00000000000E+00  0.00000000000E+00  0.11687487104E+04  0.11687487104E+04  0.00000000000E+00 0. -1.
         -2   -1    0    0    0  501 -0.00000000000E+00 -0.00000000000E+00 -0.47528209481E+03  0.47528209481E+03  0.00000000000E+00 0.  1.
        -24    2    1    2    0    0 -0.24624446155E+03  0.25247038743E+03  0.56809785451E+03  0.67335468353E+03  0.79333007978E+02 0.  0.
        254    2    1    2    0    0  0.24624446155E+03 -0.25247038743E+03  0.12536876108E+03  0.97067612169E+03  0.89560994612E+03 0.  0.
         23    2    4    4    0    0  0.18902015203E+03  0.22539940812E+03  0.31943044748E+03  0.44390282881E+03  0.92089085089E+02 0.  0.
         23    2    4    4    0    0  0.57224309516E+02 -0.47786979556E+03 -0.19406168640E+03  0.52677329288E+03  0.90531767127E+02 0.  0.
          1    1    3    3  502    0 -0.16285866231E+03  0.16725783293E+03  0.30151448683E+03  0.38132546772E+03  0.00000000000E+00 0. -1.
         -2    1    3    3    0  502 -0.83385799236E+02  0.85212554508E+02  0.26658336768E+03  0.29202921581E+03  0.00000000000E+00 0.  1.
         13    1    5    5    0    0 -0.69495992245E+01  0.11738815835E+02  0.16506307659E+01  0.13741226602E+02  0.00000000000E+00 0.  1.
        -13    1    5    5    0    0  0.19596975126E+03  0.21366059229E+03  0.31777981671E+03  0.43016160221E+03  0.00000000000E+00 0. -1.
          4    1    6    6  503    0  0.74601438104E+01 -0.27254745946E+03 -0.68923221223E+02  0.28122621113E+03  0.00000000000E+00 0.  1.
         -4    1    6    6    0  503  0.49764165706E+02 -0.20532233610E+03 -0.12513846518E+03  0.24554708175E+03  0.00000000000E+00 0. -1.
<mgrwt>
<rscale>  0 0.14906178E+04</rscale>
<asrwt>0</asrwt>
<pdfrwt beam="1">  1        1 0.17980749E+00 0.14906178E+04</pdfrwt>
<pdfrwt beam="2">  1       -2 0.73120323E-01 0.14906178E+04</pdfrwt>
<totfact> 0.16156817E+01</totfact>
</mgrwt>
</event>
<event>
12    5  0.5095719E-008  0.1891176E+04  0.7818608E-02  0.8659261E-01
          1   -1    0    0  501    0  0.00000000000E+00  0.00000000000E+00  0.16449439126E+04  0.16449439126E+04  0.00000000000E+00 0. -1.
         -2   -1    0    0    0  501 -0.00000000000E+00 -0.00000000000E+00 -0.54356650897E+03  0.54356650897E+03  0.00000000000E+00 0.  1.
        -24    2    1    2    0    0  0.11580136067E+03 -0.67592889154E+03  0.42264710628E+03  0.80958849220E+03  0.80703957179E+02 0.  0.
        254    2    1    2    0    0 -0.11580136067E+03  0.67592889154E+03  0.67873029739E+03  0.13789219294E+04  0.98511981467E+03 0.  0.
         23    2    4    4    0    0  0.23746242590E+03  0.77297084861E+03  0.39060962228E+03  0.90319930299E+03  0.96544121534E+02 0.  0.
         23    2    4    4    0    0 -0.35326378658E+03 -0.97041957061E+02  0.28812067511E+03  0.47572262642E+03  0.95320771720E+02 0.  0.
          1    1    3    3  502    0  0.10574061496E+03 -0.43720771747E+03  0.30322457525E+03  0.54247286467E+03  0.00000000000E+00 0. -1.
         -2    1    3    3    0  502  0.10060745715E+02 -0.23872117407E+03  0.11942253103E+03  0.26711562753E+03  0.00000000000E+00 0.  1.
         13    1    5    5    0    0  0.25344989418E+02  0.12738783063E+03  0.27621279087E+02  0.13278916726E+03  0.00000000000E+00 0. -1.
        -13    1    5    5    0    0  0.21211743649E+03  0.64558301797E+03  0.36298834319E+03  0.77041013574E+03  0.00000000000E+00 0.  1.
          1    1    6    6  503    0 -0.52597884025E+02  0.19458327073E+02  0.44379424724E+02  0.71517111486E+02  0.00000000000E+00 0. -1.
         -1    1    6    6    0  503 -0.30066590255E+03 -0.11650028413E+03  0.24374125038E+03  0.40420551493E+03  0.00000000000E+00 0.  1.
<mgrwt>
<rscale>  0 0.18911757E+04</rscale>
<asrwt>0</asrwt>
<pdfrwt beam="1">  1        1 0.25306829E+00 0.18911757E+04</pdfrwt>
<pdfrwt beam="2">  1       -2 0.83625617E-01 0.18911757E+04</pdfrwt>
<totfact> 0.53417253E+00</totfact>
</mgrwt>
</event>
<event>
12    5  0.5095719E-008  0.2422229E+04  0.7818608E-02  0.8431228E-01
          1   -1    0    0  501    0  0.00000000000E+00  0.00000000000E+00  0.20136992363E+04  0.20136992363E+04  0.00000000000E+00 0. -1.
         -2   -1    0    0    0  501 -0.00000000000E+00 -0.00000000000E+00 -0.72840970855E+03  0.72840970855E+03  0.00000000000E+00 0.  1.
        -24    2    1    2    0    0  0.20597128040E+03  0.21296401994E+03  0.16836834112E+04  0.17114000494E+04  0.79513884200E+02 0.  0.
        254    2    1    2    0    0 -0.20597128040E+03 -0.21296401994E+03 -0.39839388346E+03  0.10307088954E+04  0.90325262170E+03 0.  0.
         23    2    4    4    0    0  0.27138109379E+03 -0.21287770654E+03 -0.40978155840E+03  0.54460847582E+03  0.98553794043E+02 0.  0.
         23    2    4    4    0    0 -0.47735237419E+03 -0.86313404515E-01  0.11387674938E+02  0.48610041961E+03  0.91096883652E+02 0.  0.
          1    1    3    3  502    0  0.21227227652E+03  0.21122345858E+03  0.16616225024E+04  0.16883910120E+04  0.00000000000E+00 0. -1.
         -4    1    3    3    0  502 -0.63009961200E+01  0.17405613600E+01  0.22060908805E+02  0.23009037425E+02  0.00000000000E+00 0.  1.
         13    1    5    5    0    0  0.25114204826E+03 -0.16918132286E+03 -0.30755410334E+03  0.43160650469E+03  0.00000000000E+00 0.  1.
        -13    1    5    5    0    0  0.20239045529E+02 -0.43696383677E+02 -0.10222745507E+03  0.11300197113E+03  0.00000000000E+00 0. -1.
          4    1    6    6  503    0 -0.18881054635E+03 -0.28630968790E+02  0.38753848917E+02  0.19486152928E+03  0.00000000000E+00 0. -1.
         -4    1    6    6    0  503 -0.28854182784E+03  0.28544655385E+02 -0.27366173979E+02  0.29123889033E+03  0.00000000000E+00 0.  1.
<mgrwt>
<rscale>  0 0.24222288E+04</rscale>
<asrwt>0</asrwt>
<pdfrwt beam="1">  1        1 0.30979988E+00 0.24222288E+04</pdfrwt>
<pdfrwt beam="2">  1       -2 0.11206303E+00 0.24222288E+04</pdfrwt>
<totfact> 0.14395987E+00</totfact>
</mgrwt>
</event>
<event>
12    5  0.5095719E-008  0.1162170E+04  0.7818608E-02  0.9146629E-01
          1   -1    0    0  501    0  0.00000000000E+00  0.00000000000E+00  0.22318137512E+03  0.22318137512E+03  0.00000000000E+00 0. -1.
         -2   -1    0    0    0  501 -0.00000000000E+00 -0.00000000000E+00 -0.15129395399E+04  0.15129395399E+04  0.00000000000E+00 0.  1.
        -24    2    1    2    0    0 -0.20262128860E+01  0.19801044675E+03 -0.11186431884E+03  0.24190579467E+03  0.82416898177E+02 0.  0.
        254    2    1    2    0    0  0.20262128860E+01 -0.19801044675E+03 -0.11778938460E+04  0.14942151204E+04  0.89779322288E+03 0.  0.
         23    2    4    4    0    0  0.28055663368E+03 -0.42426587351E+03 -0.48541977298E+03  0.70928426566E+03  0.93478646712E+02 0.  0.
         23    2    4    4    0    0 -0.27853042079E+03  0.22625542676E+03 -0.69247407300E+03  0.78493085473E+03  0.88461242858E+02 0.  0.
          3    1    3    3  502    0  0.11880076790E+02 -0.44062442776E+00  0.29022605667E+01  0.12237380881E+02  0.00000000000E+00 0. -1.
         -4    1    3    3    0  502 -0.13906289676E+02  0.19845107118E+03 -0.11476657940E+03  0.22966841379E+03  0.00000000000E+00 0.  1.
         13    1    5    5    0    0  0.22337783361E+03 -0.26601357864E+03 -0.30094675474E+03  0.45959746492E+03  0.00000000000E+00 0. -1.
        -13    1    5    5    0    0  0.57178800070E+02 -0.15825229487E+03 -0.18447301824E+03  0.24968680074E+03  0.00000000000E+00 0.  1.
          1    1    6    6  503    0 -0.27992118498E+03  0.22836394582E+03 -0.66034614732E+03  0.75270379024E+03  0.00000000000E+00 0. -1.
         -1    1    6    6    0  503  0.13907641860E+01 -0.21085190661E+01 -0.32127925675E+02  0.32227064493E+02  0.00000000000E+00 0.  1.
<mgrwt>
<rscale>  0 0.11621703E+04</rscale>
<asrwt>0</asrwt>
<pdfrwt beam="1">  1        1 0.34335596E-01 0.11621703E+04</pdfrwt>
<pdfrwt beam="2">  1       -2 0.23275993E+00 0.11621703E+04</pdfrwt>
<totfact> 0.91811587E+00</totfact>
</mgrwt>
</event>
<event>
12    5  0.5095719E-008  0.1417475E+04  0.7818608E-02  0.8941265E-01
          3   -1    0    0  501    0  0.00000000000E+00  0.00000000000E+00  0.72700416898E+03  0.72700416898E+03  0.00000000000E+00 0. -1.
         -4   -1    0    0    0  501 -0.00000000000E+00 -0.00000000000E+00 -0.69092990030E+03  0.69092990030E+03  0.00000000000E+00 0.  1.
        -24    2    1    2    0    0 -0.36144891632E+03 -0.20590610608E+03  0.50321535565E+02  0.42670609303E+03  0.80642353966E+02 0.  0.
        254    2    1    2    0    0  0.36144891632E+03  0.20590610608E+03 -0.14247266881E+02  0.99122797625E+03  0.89960395323E+03 0.  0.
         23    2    4    4    0    0  0.30217960307E+03  0.36021514188E+03 -0.35893007504E+03  0.59852566164E+03  0.91294621567E+02 0.  0.
         23    2    4    4    0    0  0.59269313252E+02 -0.15430903580E+03  0.34468280815E+03  0.39270231461E+03  0.89915180236E+02 0.  0.
          1    1    3    3  502    0 -0.14992554638E+03 -0.66308345887E+02  0.55917346459E+02  0.17320859051E+03  0.00000000000E+00 0. -1.
         -2    1    3    3    0  502 -0.21152336995E+03 -0.13959776019E+03 -0.55958108938E+01  0.25349750252E+03  0.00000000000E+00 0.  1.
         13    1    5    5    0    0  0.30574031405E+03  0.34259062411E+03 -0.35424705990E+03  0.57994521708E+03  0.00000000000E+00 0. -1.
        -13    1    5    5    0    0 -0.35607109794E+01  0.17624517777E+02 -0.46830151322E+01  0.18580444566E+02  0.00000000000E+00 0.  1.
          2    1    6    6  503    0  0.22652371544E+02  0.42045978533E+01  0.24956270074E+02  0.33965040787E+02  0.00000000000E+00 0.  1.
         -2    1    6    6    0  503  0.36616941708E+02 -0.15851363366E+03  0.31972653808E+03  0.35873727382E+03  0.00000000000E+00 0. -1.
<mgrwt>
<rscale>  0 0.14174751E+04</rscale>
<asrwt>0</asrwt>
<pdfrwt beam="1">  1        3 0.11184680E+00 0.14174751E+04</pdfrwt>
<pdfrwt beam="2">  1       -4 0.10629691E+00 0.14174751E+04</pdfrwt>
<totfact> 0.10645116E+00</totfact>
</mgrwt>
</event>
<event>
12    5  0.5095719E-008  0.1418802E+04  0.7818608E-02  0.8940320E-01
          1   -1    0    0  501    0  0.00000000000E+00  0.00000000000E+00  0.54994777845E+03  0.54994777845E+03  0.00000000000E+00 0. -1.
         -2   -1    0    0    0  501 -0.00000000000E+00 -0.00000000000E+00 -0.91508686301E+03  0.91508686301E+03  0.00000000000E+00 0.  1.
        -24    2    1    2    0    0 -0.37699047348E+03  0.46340166547E+02 -0.30932667710E+03  0.49468066980E+03  0.68969150888E+02 0.  0.
        254    2    1    2    0    0  0.37699047348E+03 -0.46340166547E+02 -0.55812407455E+02  0.97035397165E+03  0.89118044039E+03 0.  0.
         23    2    4    4    0    0  0.11729592490E+03 -0.25325610866E+03  0.33772065590E+03  0.44748670013E+03  0.91061049837E+02 0.  0.
         23    2    4    4    0    0  0.25969454858E+03  0.20691594211E+03 -0.39353306336E+03  0.52286727152E+03  0.90919997883E+02 0.  0.
          1    1    3    3  502    0 -0.27978664665E+03  0.91207496950E+01 -0.20226488890E+03  0.34536189859E+03  0.00000000000E+00 0. -1.
         -2    1    3    3    0  502 -0.97203826838E+02  0.37219416852E+02 -0.10706178820E+03  0.14931877121E+03  0.00000000000E+00 0.  1.
         13    1    5    5    0    0  0.80277281531E+02 -0.24171890475E+03  0.29705115005E+03  0.39129510167E+03  0.00000000000E+00 0. -1.
        -13    1    5    5    0    0  0.37018643372E+02 -0.11537203905E+02  0.40669505848E+02  0.56191598456E+02  0.00000000000E+00 0.  1.
          2    1    6    6  503    0  0.24571017533E+03  0.20902761773E+03 -0.39336164671E+03  0.50872332396E+03  0.00000000000E+00 0. -1.
         -2    1    6    6    0  503  0.13984373252E+02 -0.21116756204E+01 -0.17141664676E+00  0.14143947569E+02  0.00000000000E+00 0.  1.
<mgrwt>
<rscale>  0 0.14188023E+04</rscale>
<asrwt>0</asrwt>
<pdfrwt beam="1">  1        1 0.84607352E-01 0.14188023E+04</pdfrwt>
<pdfrwt beam="2">  1       -2 0.14078259E+00 0.14188023E+04</pdfrwt>
<totfact> 0.11689668E+01</totfact>
</mgrwt>
</event>
<event>
12    5  0.5095719E-008  0.2301477E+04  0.7818608E-02  0.8477339E-01
          1   -1    0    0  501    0  0.00000000000E+00  0.00000000000E+00  0.32381595268E+04  0.32381595268E+04  0.00000000000E+00 0. -1.
         -2   -1    0    0    0  501 -0.00000000000E+00 -0.00000000000E+00 -0.40893580302E+03  0.40893580302E+03  0.00000000000E+00 0.  1.
        -24    2    1    2    0    0  0.43659707466E+03 -0.50442837245E+03  0.22559972764E+04  0.23539192822E+04  0.79669864425E+02 0.  0.
        254    2    1    2    0    0 -0.43659707466E+03  0.50442837245E+03  0.57322644738E+03  0.12931760477E+04  0.94797190978E+03 0.  0.
         23    2    4    4    0    0 -0.26260377017E+03  0.24837770721E+03  0.81077914357E+03  0.89244381972E+03  0.91874513136E+02 0.  0.
         23    2    4    4    0    0 -0.17399330449E+03  0.25605066524E+03 -0.23755269619E+03  0.40073222794E+03  0.91210864824E+02 0.  0.
          3    1    3    3  502    0  0.35271648596E+03 -0.36279839907E+03  0.17623926201E+04  0.18335919244E+04  0.00000000000E+00 0. -1.
         -4    1    3    3    0  502  0.83880588696E+02 -0.14162997339E+03  0.49360465629E+03  0.52032735776E+03  0.00000000000E+00 0.  1.
         13    1    5    5    0    0 -0.46548510466E+02  0.96016133298E+02  0.27534133969E+03  0.29529428545E+03  0.00000000000E+00 0.  1.
        -13    1    5    5    0    0 -0.21605525970E+03  0.15236157391E+03  0.53543780388E+03  0.59714953427E+03  0.00000000000E+00 0. -1.
          4    1    6    6  503    0 -0.17650165331E+03  0.24090565507E+03 -0.19803666535E+03  0.35833907000E+03  0.00000000000E+00 0. -1.
         -4    1    6    6    0  503  0.25083488113E+01  0.15145010176E+02 -0.39516030842E+02  0.42393157944E+02  0.00000000000E+00 0.  1.
<mgrwt>
<rscale>  0 0.23014772E+04</rscale>
<asrwt>0</asrwt>
<pdfrwt beam="1">  1        1 0.49817837E+00 0.23014772E+04</pdfrwt>
<pdfrwt beam="2">  1       -2 0.62913203E-01 0.23014772E+04</pdfrwt>
<totfact> 0.74091678E-01</totfact>
</mgrwt>
</event>
<event>
12    5  0.5095719E-008  0.1192420E+04  0.7818608E-02  0.9119518E-01
         -2   -1    0    0    0  501 -0.00000000000E+00  0.00000000000E+00  0.15785110651E+03  0.15785110651E+03  0.00000000000E+00 0.  1.
          1   -1    0    0  501    0  0.00000000000E+00 -0.00000000000E+00 -0.22519079170E+04  0.22519079170E+04  0.00000000000E+00 0. -1.
        -24    2    1    2    0    0  0.16892178513E+03 -0.10476390221E+03 -0.85761723946E+03  0.88398789510E+03  0.80107581173E+02 0.  0.
        254    2    1    2    0    0 -0.16892178513E+03  0.10476390221E+03 -0.12364395710E+04  0.15257711284E+04  0.87159892082E+03 0.  0.
         23    2    4    4    0    0 -0.40799488030E+03 -0.15412574468E+03 -0.98979562195E+03  0.10863234140E+04  0.10093868947E+03 0.  0.
         23    2    4    4    0    0  0.23907309516E+03  0.25888964689E+03 -0.24664394909E+03  0.43944771443E+03  0.90007010794E+02 0.  0.
          3    1    3    3  502    0  0.13510437372E+03 -0.10596900201E+03 -0.78916153773E+03  0.80762525581E+03  0.00000000000E+00 0. -1.
         -4    1    3    3    0  502  0.33817411414E+02  0.12050997929E+01 -0.68455701732E+02  0.76362639294E+02  0.00000000000E+00 0.  1.
         13    1    5    5    0    0 -0.19838068372E+02  0.13655018504E+02 -0.68677944177E+02  0.72778214484E+02  0.00000000000E+00 0.  1.
        -13    1    5    5    0    0 -0.38815681192E+03 -0.16778076318E+03 -0.92111767777E+03  0.10135451995E+04  0.00000000000E+00 0. -1.
          2    1    6    6  503    0  0.50267666560E+02  0.84855659348E+02 -0.11294700698E+03  0.14994781629E+03  0.00000000000E+00 0.  1.
         -2    1    6    6    0  503  0.18880542860E+03  0.17403398754E+03 -0.13369694212E+03  0.28949989814E+03  0.00000000000E+00 0. -1.
<mgrwt>
<rscale>  0 0.11924197E+04</rscale>
<asrwt>0</asrwt>
<pdfrwt beam="1">  1        1 0.34644736E+00 0.11924197E+04</pdfrwt>
<pdfrwt beam="2">  1       -2 0.24284787E-01 0.11924197E+04</pdfrwt>
<totfact> 0.26497267E+01</totfact>
</mgrwt>
</event>
<event>
12    5  0.5095719E-008  0.2919972E+04  0.7818608E-02  0.8266960E-01
         -2   -1    0    0    0  501 -0.00000000000E+00  0.00000000000E+00  0.95699956471E+03  0.95699956471E+03  0.00000000000E+00 0.  1.
          1   -1    0    0  501    0  0.00000000000E+00 -0.00000000000E+00 -0.22273352994E+04  0.22273352994E+04  0.00000000000E+00 0. -1.
        -24    2    1    2    0    0 -0.22279384238E+03  0.87709540169E+03  0.47177390354E+03  0.10235891869E+04  0.78935211308E+02 0.  0.
        254    2    1    2    0    0  0.22279384238E+03 -0.87709540169E+03 -0.17421096382E+04  0.21607456772E+04  0.90274162979E+03 0.  0.
         23    2    4    4    0    0  0.10580105855E+03 -0.96745641293E+03 -0.99662278838E+03  0.13953496558E+04  0.81104283512E+02 0.  0.
         23    2    4    4    0    0  0.11699278383E+03  0.90361011241E+02 -0.74548684981E+03  0.76539602136E+03  0.90708337288E+02 0.  0.
          1    1    3    3  502    0 -0.14262029131E+02  0.80657778218E+02  0.19276727616E+02  0.84146746162E+02  0.00000000000E+00 0. -1.
         -2    1    3    3    0  502 -0.20853181325E+03  0.79643762347E+03  0.45249717593E+03  0.93944244072E+03  0.00000000000E+00 0.  1.
         13    1    5    5    0    0  0.49057325355E+00 -0.23889778998E+03 -0.27903297726E+03  0.36733063732E+03  0.00000000000E+00 0. -1.
        -13    1    5    5    0    0  0.10531048530E+03 -0.72855862295E+03 -0.71758981112E+03  0.10280190185E+04  0.00000000000E+00 0.  1.
          2    1    6    6  503    0 -0.46068512262E+01 -0.10785265459E+02 -0.10567329339E+03  0.10632210478E+03  0.00000000000E+00 0. -1.
         -2    1    6    6    0  503  0.12159963505E+03  0.10114627670E+03 -0.63981355643E+03  0.65907391658E+03  0.00000000000E+00 0.  1.
<mgrwt>
<rscale>  0 0.29199719E+04</rscale>
<asrwt>0</asrwt>
<pdfrwt beam="1">  1        1 0.34266697E+00 0.29199719E+04</pdfrwt>
<pdfrwt beam="2">  1       -2 0.14723070E+00 0.29199719E+04</pdfrwt>
<totfact> 0.49493176E-01</totfact>
</mgrwt>
</event>
<event>
12    5  0.5095719E-008  0.1142106E+04  0.7818608E-02  0.9165097E-01
         -2   -1    0    0    0  501 -0.00000000000E+00  0.00000000000E+00  0.27775786937E+03  0.27775786937E+03  0.00000000000E+00 0.  1.
          1   -1    0    0  501    0  0.00000000000E+00 -0.00000000000E+00 -0.11740498281E+04  0.11740498281E+04  0.00000000000E+00 0. -1.
        -24    2    1    2    0    0 -0.15038060758E+03 -0.63119925051E+02 -0.34330362264E+03  0.38858270827E+03  0.80874543450E+02 0.  0.
        254    2    1    2    0    0  0.15038060758E+03  0.63119925051E+02 -0.55298833609E+03  0.10632249892E+04  0.89333802434E+03 0.  0.
         23    2    4    4    0    0 -0.12869775397E+03  0.41584302290E+03 -0.21373129797E+03  0.49310676531E+03  0.89357051685E+02 0.  0.
         23    2    4    4    0    0  0.27907836155E+03 -0.35272309785E+03 -0.33925703812E+03  0.57011822390E+03  0.87413589662E+02 0.  0.
          3    1    3    3  502    0 -0.10993360535E+03 -0.51652808540E+02 -0.16205496351E+03  0.20252215043E+03  0.00000000000E+00 0. -1.
         -4    1    3    3    0  502 -0.40447002228E+02 -0.11467116511E+02 -0.18124865912E+03  0.18606055784E+03  0.00000000000E+00 0.  1.
         13    1    5    5    0    0 -0.64596938613E+02  0.84976623101E+02 -0.62694434725E+02  0.12379169236E+03  0.00000000000E+00 0. -1.
        -13    1    5    5    0    0 -0.64100815357E+02  0.33086639980E+03 -0.15103686324E+03  0.36931507295E+03  0.00000000000E+00 0.  1.
          2    1    6    6  503    0  0.11919735474E+03 -0.13214724529E+03 -0.18651112730E+03  0.25779314270E+03  0.00000000000E+00 0. -1.
         -2    1    6    6    0  503  0.15988100681E+03 -0.22057585256E+03 -0.15274591082E+03  0.31232508120E+03  0.00000000000E+00 0.  1.
<mgrwt>
<rscale>  0 0.11421061E+04</rscale>
<asrwt>0</asrwt>
<pdfrwt beam="1">  1        1 0.18062305E+00 0.11421061E+04</pdfrwt>
<pdfrwt beam="2">  1       -2 0.42731980E-01 0.11421061E+04</pdfrwt>
<totfact> 0.50501320E+01</totfact>
</mgrwt>
</event>
<event>
12    5  0.5095719E-008  0.1974874E+04  0.7818608E-02  0.8618459E-01
          1   -1    0    0  501    0  0.00000000000E+00  0.00000000000E+00  0.92876294824E+03  0.92876294824E+03  0.00000000000E+00 0. -1.
         -2   -1    0    0    0  501 -0.00000000000E+00 -0.00000000000E+00 -0.10498174091E+04  0.10498174091E+04  0.00000000000E+00 0.  1.
        -24    2    1    2    0    0  0.35811175735E+03 -0.15331722949E+02 -0.78642295100E+03  0.86778884327E+03  0.78213337495E+02 0.  0.
        254    2    1    2    0    0 -0.35811175735E+03  0.15331722949E+02  0.66536849017E+03  0.11107915140E+04  0.81404144088E+03 0.  0.
         23    2    4    4    0    0 -0.31428931641E+03  0.44098984755E+02 -0.94451146308E+02  0.34339359442E+03  0.90970581961E+02 0.  0.
         23    2    4    4    0    0 -0.43822440933E+02 -0.28767261806E+02  0.75981963648E+03  0.76739791962E+03  0.93945331829E+02 0.  0.
          1    1    3    3  502    0  0.39243785803E+01 -0.12651022055E+00  0.11608039634E+01  0.40944130127E+01  0.00000000000E+00 0. -1.
         -2    1    3    3    0  502  0.35418737877E+03 -0.15205212729E+02 -0.78758375496E+03  0.86369443025E+03  0.00000000000E+00 0.  1.
         13    1    5    5    0    0 -0.28915224160E+03  0.22635512497E+02 -0.10536819904E+03  0.30858360718E+03  0.00000000000E+00 0. -1.
        -13    1    5    5    0    0 -0.25137074812E+02  0.21463472259E+02  0.10917052734E+02  0.34809987243E+02  0.00000000000E+00 0.  1.
          1    1    6    6  503    0 -0.67446989621E+02 -0.42411205159E+02  0.59996224709E+03  0.60522929924E+03  0.00000000000E+00 0. -1.
         -1    1    6    6    0  503  0.23624548688E+02  0.13643943353E+02  0.15985738939E+03  0.16216862037E+03  0.00000000000E+00 0.  1.
<mgrwt>
<rscale>  0 0.19748737E+04</rscale>
<asrwt>0</asrwt>
<pdfrwt beam="1">  1        1 0.14288661E+00 0.19748737E+04</pdfrwt>
<pdfrwt beam="2">  1       -2 0.16151037E+00 0.19748737E+04</pdfrwt>
<totfact> 0.34480709E+00</totfact>
</mgrwt>
</event>
<event>
12    5  0.5095719E-008  0.1808791E+04  0.7818608E-02  0.8701639E-01
          1   -1    0    0  501    0  0.00000000000E+00  0.00000000000E+00  0.16074692840E+04  0.16074692840E+04  0.00000000000E+00 0. -1.
         -2   -1    0    0    0  501 -0.00000000000E+00 -0.00000000000E+00 -0.50883148518E+03  0.50883148518E+03  0.00000000000E+00 0.  1.
        -24    2    1    2    0    0 -0.37938537087E+03  0.12889319671E+03 -0.22292318167E+03  0.46525011987E+03  0.78842966208E+02 0.  0.
        254    2    1    2    0    0  0.37938537087E+03 -0.12889319671E+03  0.13215609804E+04  0.16510506493E+04  0.90492988990E+03 0.  0.
         23    2    4    4    0    0  0.14718795075E+03 -0.43300214738E+03  0.11076018175E+04  0.12018384891E+04  0.92080482228E+02 0.  0.
         23    2    4    4    0    0  0.23219742013E+03  0.30410895067E+03  0.21395916290E+03  0.44921216016E+03  0.98056849096E+02 0.  0.
          3    1    3    3  502    0 -0.11201323612E+03  0.55955924527E+01 -0.81348557016E+02  0.13854913731E+03  0.00000000000E+00 0. -1.
         -4    1    3    3    0  502 -0.26737213476E+03  0.12329760425E+03 -0.14157462465E+03  0.32670098256E+03  0.00000000000E+00 0.  1.
         13    1    5    5    0    0  0.15253049421E+03 -0.42980638565E+03  0.11043452636E+04  0.11948127644E+04  0.00000000000E+00 0.  1.
        -13    1    5    5    0    0 -0.53425434636E+01 -0.31957617207E+01  0.32565539357E+01  0.70257246724E+01  0.00000000000E+00 0. -1.
          2    1    6    6  503    0  0.11573103957E+02  0.65759922240E+02  0.60065356773E+02  0.89811754200E+02  0.00000000000E+00 0. -1.
         -2    1    6    6    0  503  0.22062431617E+03  0.23834902843E+03  0.15389380612E+03  0.35940040596E+03  0.00000000000E+00 0.  1.
<mgrwt>
<rscale>  0 0.18087907E+04</rscale>
<asrwt>0</asrwt>
<pdfrwt beam="1">  1        1 0.24730297E+00 0.18087907E+04</pdfrwt>
<pdfrwt beam="2">  1       -2 0.78281767E-01 0.18087907E+04</pdfrwt>
<totfact> 0.66236340E+00</totfact>
</mgrwt>
</event>
<event>
12    5  0.5095719E-008  0.1402471E+04  0.7818608E-02  0.8952032E-01
          1   -1    0    0  501    0  0.00000000000E+00  0.00000000000E+00  0.90658225223E+03  0.90658225223E+03  0.00000000000E+00 0. -1.
         -2   -1    0    0    0  501 -0.00000000000E+00 -0.00000000000E+00 -0.54240120248E+03  0.54240120248E+03  0.00000000000E+00 0.  1.
        -24    2    1    2    0    0 -0.14249853310E+03 -0.27452236689E+03  0.37527814652E+03  0.49286911427E+03  0.80111888619E+02 0.  0.
        254    2    1    2    0    0  0.14249853310E+03  0.27452236689E+03 -0.11097096759E+02  0.95611434043E+03  0.90463424906E+03 0.  0.
         23    2    4    4    0    0  0.43301134082E+03  0.40085359055E+03 -0.11688401218E+03  0.60831843893E+03  0.90592651461E+02 0.  0.
         23    2    4    4    0    0 -0.29051280773E+03 -0.12633122367E+03  0.10578691542E+03  0.34779590150E+03  0.97024986997E+02 0.  0.
          1    1    3    3  502    0 -0.13410068141E+03 -0.27360129238E+03  0.33982244732E+03  0.45642080983E+03  0.00000000000E+00 0. -1.
         -2    1    3    3    0  502 -0.83978516862E+01 -0.92107450809E+00  0.35455699199E+02  0.36448304444E+02  0.00000000000E+00 0.  1.
         13    1    5    5    0    0  0.39777088272E+03  0.37918395506E+03 -0.13038194962E+03  0.56480226602E+03  0.00000000000E+00 0. -1.
        -13    1    5    5    0    0  0.35240458106E+02  0.21669635492E+02  0.13497937437E+02  0.43516172912E+02  0.00000000000E+00 0.  1.
          1    1    6    6  503    0 -0.26579204517E+03 -0.10493932846E+03  0.12270171181E+03  0.31098775541E+03  0.00000000000E+00 0. -1.
         -1    1    6    6    0  503 -0.24720762558E+02 -0.21391895204E+02 -0.16914796391E+02  0.36808146094E+02  0.00000000000E+00 0.  1.
<mgrwt>
<rscale>  0 0.14024711E+04</rscale>
<asrwt>0</asrwt>
<pdfrwt beam="1">  1        1 0.13947419E+00 0.14024711E+04</pdfrwt>
<pdfrwt beam="2">  1       -2 0.83446339E-01 0.14024711E+04</pdfrwt>
<totfact> 0.19296159E+01</totfact>
</mgrwt>
</event>
<event>
12    5  0.5095719E-008  0.1908944E+04  0.7818608E-02  0.8650417E-01
          1   -1    0    0  501    0  0.00000000000E+00  0.00000000000E+00  0.73092717347E+03  0.73092717347E+03  0.00000000000E+00 0. -1.
         -2   -1    0    0    0  501 -0.00000000000E+00 -0.00000000000E+00 -0.12463848372E+04  0.12463848372E+04  0.00000000000E+00 0.  1.
        -24    2    1    2    0    0  0.46934881984E+03  0.93783510323E+02  0.39335844348E+03  0.62460012606E+03  0.79440486710E+02 0.  0.
        254    2    1    2    0    0 -0.46934881984E+03 -0.93783510323E+02 -0.90881610717E+03  0.13527118846E+04  0.88022671199E+03 0.  0.
         23    2    4    4    0    0 -0.47424985176E+02  0.35548922452E+03 -0.42538382976E+03  0.56393407486E+03  0.91915832157E+02 0.  0.
         23    2    4    4    0    0 -0.42192383466E+03 -0.44927273485E+03 -0.48343227741E+03  0.78877780971E+03  0.92725151425E+02 0.  0.
          1    1    3    3  502    0  0.41366905835E+03  0.10834337225E+03  0.34629593729E+03  0.55025562453E+03  0.00000000000E+00 0. -1.
         -2    1    3    3    0  502  0.55679761493E+02 -0.14559861929E+02  0.47062506186E+02  0.74344501531E+02  0.00000000000E+00 0.  1.
         13    1    5    5    0    0 -0.93760914621E+01 -0.25056325654E+01 -0.16530621415E+02  0.19169004409E+02  0.00000000000E+00 0. -1.
        -13    1    5    5    0    0 -0.38048893714E+02  0.35799485709E+03 -0.40885320834E+03  0.54476507045E+03  0.00000000000E+00 0.  1.
          3    1    6    6  503    0 -0.22019143344E+03 -0.18220607382E+03 -0.25987196697E+03  0.38628585260E+03  0.00000000000E+00 0. -1.
         -3    1    6    6    0  503 -0.20173240123E+03 -0.26706666102E+03 -0.22356031044E+03  0.40249195711E+03  0.00000000000E+00 0.  1.
<mgrwt>
<rscale>  0 0.19089437E+04</rscale>
<asrwt>0</asrwt>
<pdfrwt beam="1">  1        1 0.11245034E+00 0.19089437E+04</pdfrwt>
<pdfrwt beam="2">  1       -2 0.19175151E+00 0.19089437E+04</pdfrwt>
<totfact> 0.31477950E+00</totfact>
</mgrwt>
</event>
<event>
12    5  0.5095719E-008  0.1624041E+04  0.7818608E-02  0.8805913E-01
         -2   -1    0    0    0  501 -0.00000000000E+00  0.00000000000E+00  0.88363273284E+03  0.88363273284E+03  0.00000000000E+00 0.  1.
          1   -1    0    0  501    0  0.00000000000E+00 -0.00000000000E+00 -0.74621177359E+03  0.74621177359E+03  0.00000000000E+00 0. -1.
        -24    2    1    2    0    0 -0.23994093339E+03 -0.55416051785E+02 -0.40806518342E+03  0.48310084027E+03  0.78909046625E+02 0.  0.
        254    2    1    2    0    0  0.23994093339E+03  0.55416051785E+02  0.54548614267E+03  0.11467436662E+04  0.97817345790E+03 0.  0.
         23    2    4    4    0    0 -0.17583524049E+03  0.40874889837E+03  0.23719766095E+03  0.51339044891E+03  0.96505590249E+02 0.  0.
         23    2    4    4    0    0  0.41577617388E+03 -0.35333284658E+03  0.30828848172E+03  0.63335321726E+03  0.91545522060E+02 0.  0.
          3    1    3    3  502    0 -0.60236031739E+02 -0.77212675102E+01 -0.17327872189E+03  0.18361239869E+03  0.00000000000E+00 0. -1.
         -4    1    3    3    0  502 -0.17970490165E+03 -0.47694784275E+02 -0.23478646153E+03  0.29948844158E+03  0.00000000000E+00 0.  1.
         13    1    5    5    0    0 -0.39100106189E+02  0.10496685568E+03  0.15146522380E+02  0.11303219115E+03  0.00000000000E+00 0.  1.
        -13    1    5    5    0    0 -0.13673513430E+03  0.30378204269E+03  0.22205113857E+03  0.40035825776E+03  0.00000000000E+00 0. -1.
          3    1    6    6  503    0  0.32964017803E+03 -0.31245646844E+03  0.28136132584E+03  0.53428071958E+03  0.00000000000E+00 0. -1.
         -3    1    6    6    0  503  0.86135995852E+02 -0.40876378145E+02  0.26927155875E+02  0.99072497673E+02  0.00000000000E+00 0.  1.
<mgrwt>
<rscale>  0 0.16240408E+04</rscale>
<asrwt>0</asrwt>
<pdfrwt beam="1">  1        1 0.11480181E+00 0.16240408E+04</pdfrwt>
<pdfrwt beam="2">  1       -2 0.13594350E+00 0.16240408E+04</pdfrwt>
<totfact> 0.80211592E+00</totfact>
</mgrwt>
</event>
<event>
12    5  0.5095719E-008  0.1567270E+04  0.7818608E-02  0.8840911E-01
         -2   -1    0    0    0  501 -0.00000000000E+00  0.00000000000E+00  0.36154396620E+03  0.36154396620E+03  0.00000000000E+00 0.  1.
          1   -1    0    0  501    0  0.00000000000E+00 -0.00000000000E+00 -0.16985038514E+04  0.16985038514E+04  0.00000000000E+00 0. -1.
        -24    2    1    2    0    0  0.28038951831E+03  0.40511036234E+03 -0.24768411648E+03  0.55722247826E+03  0.80104812992E+02 0.  0.
        254    2    1    2    0    0 -0.28038951831E+03 -0.40511036234E+03 -0.10892757688E+04  0.15028253394E+04  0.91062045476E+03 0.  0.
         23    2    4    4    0    0 -0.62351451636E+02  0.27357521052E+03 -0.18509836839E+03  0.34787882953E+03  0.89594501633E+02 0.  0.
         23    2    4    4    0    0 -0.21803806667E+03 -0.67868557286E+03 -0.90417740038E+03  0.11549465099E+04  0.90608851299E+02 0.  0.
          1    1    3    3  502    0  0.26218088198E+03  0.34422710538E+03 -0.23508086939E+03  0.49243693008E+03  0.00000000000E+00 0. -1.
         -2    1    3    3    0  502  0.18208636329E+02  0.60883256961E+02 -0.12603247086E+02  0.64785548174E+02  0.00000000000E+00 0.  1.
         13    1    5    5    0    0 -0.60769194668E+02  0.86918660009E+02 -0.48764261926E+02  0.11672918110E+03  0.00000000000E+00 0.  1.
        -13    1    5    5    0    0 -0.15822569681E+01  0.18665655051E+03 -0.13633410646E+03  0.23114964843E+03  0.00000000000E+00 0. -1.
          1    1    6    6  503    0 -0.14645029395E+03 -0.31476202122E+03 -0.45919330676E+03  0.57565728657E+03  0.00000000000E+00 0. -1.
         -1    1    6    6    0  503 -0.71587772720E+02 -0.36392355165E+03 -0.44498409361E+03  0.57928922329E+03  0.00000000000E+00 0.  1.
<mgrwt>
<rscale>  0 0.15672700E+04</rscale>
<asrwt>0</asrwt>
<pdfrwt beam="1">  1        1 0.26130829E+00 0.15672700E+04</pdfrwt>
<pdfrwt beam="2">  1       -2 0.55622148E-01 0.15672700E+04</pdfrwt>
<totfact> 0.12251770E+01</totfact>
</mgrwt>
</event>
<event>
12    5  0.5095719E-008  0.1198638E+04  0.7818608E-02  0.9114050E-01
         -2   -1    0    0    0  501 -0.00000000000E+00  0.00000000000E+00  0.23546603037E+03  0.23546603037E+03  0.00000000000E+00 0.  1.
          1   -1    0    0  501    0  0.00000000000E+00 -0.00000000000E+00 -0.15254141359E+04  0.15254141359E+04  0.00000000000E+00 0. -1.
        -24    2    1    2    0    0  0.12584791591E+03 -0.18337197336E+03 -0.42595538248E+03  0.48728892543E+03  0.80929169218E+02 0.  0.
        254    2    1    2    0    0 -0.12584791591E+03  0.18337197336E+03 -0.86399272306E+03  0.12735912408E+04  0.90889396780E+03 0.  0.
         23    2    4    4    0    0 -0.17604275511E+03  0.50962690305E+03 -0.71599715242E+03  0.90094108462E+03  0.91281343838E+02 0.  0.
         23    2    4    4    0    0  0.50194839205E+02 -0.32625492969E+03 -0.14799557063E+03  0.37265015622E+03  0.89463115158E+02 0.  0.
          3    1    3    3  502    0  0.40363628183E+01  0.24562807347E+01 -0.52650032661E+02  0.52861625770E+02  0.00000000000E+00 0. -1.
         -2    1    3    3    0  502  0.12181155309E+03 -0.18582825410E+03 -0.37330534982E+03  0.43442729966E+03  0.00000000000E+00 0.  1.
         13    1    5    5    0    0 -0.14641713714E+03  0.33948567948E+03 -0.53932637666E+03  0.65388182815E+03  0.00000000000E+00 0. -1.
        -13    1    5    5    0    0 -0.29625617975E+02  0.17014122358E+03 -0.17667077576E+03  0.24705925647E+03  0.00000000000E+00 0.  1.
          3    1    6    6  503    0  0.23575904252E+02 -0.12589993529E+03 -0.11165552878E+02  0.12857405080E+03  0.00000000000E+00 0. -1.
         -3    1    6    6    0  503  0.26618934953E+02 -0.20035499440E+03 -0.13683001776E+03  0.24407610542E+03  0.00000000000E+00 0.  1.
<mgrwt>
<rscale>  0 0.11986379E+04</rscale>
<asrwt>0</asrwt>
<pdfrwt beam="1">  1        1 0.23467909E+00 0.11986379E+04</pdfrwt>
<pdfrwt beam="2">  1       -2 0.36225544E-01 0.11986379E+04</pdfrwt>
<totfact> 0.39120634E+01</totfact>
</mgrwt>
</event>
<event>
12    5  0.5095719E-008  0.1580573E+04  0.7818608E-02  0.8832572E-01
          1   -1    0    0  501    0  0.00000000000E+00  0.00000000000E+00  0.20855893879E+04  0.20855893879E+04  0.00000000000E+00 0. -1.
         -2   -1    0    0    0  501 -0.00000000000E+00 -0.00000000000E+00 -0.29946114657E+03  0.29946114657E+03  0.00000000000E+00 0.  1.
        -24    2    1    2    0    0 -0.35602953912E+03 -0.21009583155E+03  0.11062310962E+04  0.11837551936E+04  0.81436041349E+02 0.  0.
        254    2    1    2    0    0  0.35602953912E+03  0.21009583155E+03  0.67989714510E+03  0.12012953409E+04  0.89997393133E+03 0.  0.
         23    2    4    4    0    0 -0.29075226995E+03  0.41002208154E+02  0.14630799194E+03  0.34096031716E+03  0.92896963442E+02 0.  0.
         23    2    4    4    0    0  0.64678180907E+03  0.16909362340E+03  0.53358915316E+03  0.86033502377E+03  0.92409992584E+02 0.  0.
          3    1    3    3  502    0 -0.21131830148E+03 -0.15171267645E+03  0.77756406643E+03  0.81992562964E+03  0.00000000000E+00 0. -1.
         -4    1    3    3    0  502 -0.14471123763E+03 -0.58383155102E+02  0.32866702980E+03  0.36382956391E+03  0.00000000000E+00 0.  1.
         13    1    5    5    0    0 -0.26132699009E+03  0.61120867328E+01  0.11478235975E+03  0.28548930534E+03  0.00000000000E+00 0.  1.
        -13    1    5    5    0    0 -0.29425279869E+02  0.34890121421E+02  0.31525632187E+02  0.55471011825E+02  0.00000000000E+00 0. -1.
          4    1    6    6  503    0  0.17049695966E+03  0.54259477287E+01  0.11856997234E+03  0.20774381460E+03  0.00000000000E+00 0. -1.
         -4    1    6    6    0  503  0.47628484941E+03  0.16366767567E+03  0.41501918082E+03  0.65259120917E+03  0.00000000000E+00 0.  1.
<mgrwt>
<rscale>  0 0.15805733E+04</rscale>
<asrwt>0</asrwt>
<pdfrwt beam="1">  1        1 0.32085990E+00 0.15805733E+04</pdfrwt>
<pdfrwt beam="2">  1       -2 0.46070947E-01 0.15805733E+04</pdfrwt>
<totfact> 0.98316900E+00</totfact>
</mgrwt>
</event>
<event>
12    5  0.5095719E-008  0.2041607E+04  0.7818608E-02  0.8587411E-01
          1   -1    0    0  501    0  0.00000000000E+00  0.00000000000E+00  0.16363534932E+04  0.16363534932E+04  0.00000000000E+00 0. -1.
         -2   -1    0    0    0  501 -0.00000000000E+00 -0.00000000000E+00 -0.63680600423E+03  0.63680600423E+03  0.00000000000E+00 0.  1.
        -24    2    1    2    0    0 -0.38409667073E+03 -0.32083286989E+03  0.11292106289E+04  0.12375115906E+04  0.76513459986E+02 0.  0.
        254    2    1    2    0    0  0.38409667073E+03  0.32083286989E+03 -0.12966313998E+03  0.10356479068E+04  0.89737955965E+03 0.  0.
         23    2    4    4    0    0  0.41807518058E+02  0.81512576878E+01 -0.45214594030E+03  0.46335530064E+03  0.91912304577E+02 0.  0.
         23    2    4    4    0    0  0.34228915267E+03  0.31268161220E+03  0.32248280032E+03  0.57229260614E+03  0.92693127561E+02 0.  0.
          3    1    3    3  502    0 -0.13449044142E+03 -0.66921004149E+02  0.33264475429E+03  0.36499127687E+03  0.00000000000E+00 0. -1.
         -2    1    3    3    0  502 -0.24960622931E+03 -0.25391186574E+03  0.79656587465E+03  0.87252031376E+03  0.00000000000E+00 0.  1.
         13    1    5    5    0    0  0.54868634410E+01  0.23499633245E+02 -0.38297916070E+03  0.38373868187E+03  0.00000000000E+00 0.  1.
        -13    1    5    5    0    0  0.36320654617E+02 -0.15348375557E+02 -0.69166779602E+02  0.79616618771E+02  0.00000000000E+00 0. -1.
          1    1    6    6  503    0 -0.44291327645E+01  0.10268446690E+01 -0.12487345940E+01  0.47149724396E+01  0.00000000000E+00 0. -1.
         -1    1    6    6    0  503  0.34671828544E+03  0.31165476753E+03  0.32373153491E+03  0.56757763370E+03  0.00000000000E+00 0.  1.
<mgrwt>
<rscale>  0 0.20416069E+04</rscale>
<asrwt>0</asrwt>
<pdfrwt beam="1">  1        1 0.25174669E+00 0.20416069E+04</pdfrwt>
<pdfrwt beam="2">  1       -2 0.97970155E-01 0.20416069E+04</pdfrwt>
<totfact> 0.37068488E+00</totfact>
</mgrwt>
</event>
<event>
12    5  0.5095719E-008  0.1759372E+04  0.7818608E-02  0.8728208E-01
         -2   -1    0    0    0  501 -0.00000000000E+00  0.00000000000E+00  0.43785986491E+03  0.43785986491E+03  0.00000000000E+00 0.  1.
          1   -1    0    0  501    0  0.00000000000E+00 -0.00000000000E+00 -0.17673412419E+04  0.17673412419E+04  0.00000000000E+00 0. -1.
        -24    2    1    2    0    0  0.17604208152E+03  0.16127842013E+03 -0.12513870823E+04  0.12764749062E+04  0.80106260501E+02 0.  0.
        254    2    1    2    0    0 -0.17604208152E+03 -0.16127842013E+03 -0.78094294610E+02  0.92872620059E+03  0.89410966528E+03 0.  0.
         23    2    4    4    0    0  0.24493157813E+03  0.56781432010E+02  0.23248093957E+03  0.35446364820E+03  0.91550432270E+02 0.  0.
         23    2    4    4    0    0 -0.42097365965E+03 -0.21805985214E+03 -0.31057523418E+03  0.57426255239E+03  0.92474762840E+02 0.  0.
          1    1    3    3  502    0  0.14649106341E+03  0.10724404804E+03 -0.76730698329E+03  0.78849281804E+03  0.00000000000E+00 0. -1.
         -2    1    3    3    0  502  0.29551018111E+02  0.54034372098E+02 -0.48408009905E+03  0.48798208813E+03  0.00000000000E+00 0.  1.
         13    1    5    5    0    0  0.42358575288E+02  0.39056982564E+02  0.21656203387E+02  0.61552318661E+02  0.00000000000E+00 0. -1.
        -13    1    5    5    0    0  0.20257300284E+03  0.17724449446E+02  0.21082473618E+03  0.29291132954E+03  0.00000000000E+00 0.  1.
          1    1    6    6  503    0 -0.23292723106E+03 -0.12379617368E+03 -0.11761644326E+03  0.28881519231E+03  0.00000000000E+00 0. -1.
         -1    1    6    6    0  503 -0.18804642859E+03 -0.94263678463E+02 -0.19295879092E+03  0.28544736008E+03  0.00000000000E+00 0.  1.
<mgrwt>
<rscale>  0 0.17593724E+04</rscale>
<asrwt>0</asrwt>
<pdfrwt beam="1">  1        1 0.27189865E+00 0.17593724E+04</pdfrwt>
<pdfrwt beam="2">  1       -2 0.67363056E-01 0.17593724E+04</pdfrwt>
<totfact> 0.72032837E+00</totfact>
</mgrwt>
</event>
<event>
12    5  0.5095719E-008  0.1600035E+04  0.7818608E-02  0.8820527E-01
         -2   -1    0    0    0  501 -0.00000000000E+00  0.00000000000E+00  0.63527934852E+03  0.63527934852E+03  0.00000000000E+00 0.  1.
          1   -1    0    0  501    0  0.00000000000E+00 -0.00000000000E+00 -0.10074745662E+04  0.10074745662E+04  0.00000000000E+00 0. -1.
        -24    2    1    2    0    0  0.60525342991E+02 -0.99179909164E+02 -0.68279824687E+03  0.69712276566E+03  0.79162699263E+02 0.  0.
        254    2    1    2    0    0 -0.60525342991E+02  0.99179909164E+02  0.31060302915E+03  0.94563114910E+03  0.88557555121E+03 0.  0.
         23    2    4    4    0    0  0.20597484223E+03 -0.14719925220E+03 -0.18315008118E+03  0.32569011135E+03  0.91852277675E+02 0.  0.
         23    2    4    4    0    0 -0.26650018522E+03  0.24637916136E+03  0.49375311033E+03  0.61994103775E+03  0.93860089803E+02 0.  0.
          3    1    3    3  502    0  0.54454836049E+02 -0.60579378316E+02 -0.60072430992E+03  0.60622181318E+03  0.00000000000E+00 0. -1.
         -4    1    3    3    0  502  0.60705069419E+01 -0.38600530848E+02 -0.82073936947E+02  0.90900952482E+02  0.00000000000E+00 0.  1.
         13    1    5    5    0    0  0.14307026957E+02 -0.96978039863E+01 -0.54131640392E+02  0.56824052249E+02  0.00000000000E+00 0.  1.
        -13    1    5    5    0    0  0.19166781527E+03 -0.13750144821E+03 -0.12901844079E+03  0.26886605910E+03  0.00000000000E+00 0. -1.
          4    1    6    6  503    0 -0.10173863934E+03  0.47865877108E+02  0.10822235651E+03  0.15605758993E+03  0.00000000000E+00 0. -1.
         -4    1    6    6    0  503 -0.16476154588E+03  0.19851328425E+03  0.38553075382E+03  0.46388344782E+03  0.00000000000E+00 0.  1.
<mgrwt>
<rscale>  0 0.16000347E+04</rscale>
<asrwt>0</asrwt>
<pdfrwt beam="1">  1        1 0.15499609E+00 0.16000347E+04</pdfrwt>
<pdfrwt beam="2">  1       -2 0.97735285E-01 0.16000347E+04</pdfrwt>
<totfact> 0.10949956E+01</totfact>
</mgrwt>
</event>
<event>
12    5  0.5095719E-008  0.3000705E+04  0.7818608E-02  0.8243529E-01
          1   -1    0    0  501    0  0.00000000000E+00  0.00000000000E+00  0.24171260473E+04  0.24171260473E+04  0.00000000000E+00 0. -1.
         -2   -1    0    0    0  501 -0.00000000000E+00 -0.00000000000E+00 -0.93129540046E+03  0.93129540046E+03  0.00000000000E+00 0.  1.
        -24    2    1    2    0    0 -0.60541199620E+03 -0.24310188934E+03 -0.65862749109E+03  0.93052433447E+03  0.80393726658E+02 0.  0.
        254    2    1    2    0    0  0.60541199620E+03  0.24310188934E+03  0.21444581379E+04  0.24178971133E+04  0.90658895393E+03 0.  0.
         23    2    4    4    0    0  0.63772131194E+03 -0.17695632456E+03  0.15050109488E+04  0.16466397477E+04  0.91446652411E+02 0.  0.
         23    2    4    4    0    0 -0.32309315741E+02  0.42005821390E+03  0.63944718906E+03  0.77125736551E+03  0.91937050845E+02 0.  0.
          3    1    3    3  502    0 -0.18915397876E+03 -0.11320342674E+03 -0.19927757154E+03  0.29716290822E+03  0.00000000000E+00 0. -1.
         -4    1    3    3    0  502 -0.41625801744E+03 -0.12989846260E+03 -0.45934991955E+03  0.63336142625E+03  0.00000000000E+00 0.  1.
         13    1    5    5    0    0  0.40190722724E+03 -0.14926463585E+03  0.10274252836E+04  0.11132888503E+04  0.00000000000E+00 0.  1.
        -13    1    5    5    0    0  0.23581408469E+03 -0.27691688703E+02  0.47758566522E+03  0.53335089743E+03  0.00000000000E+00 0. -1.
          3    1    6    6  503    0  0.28696852164E+02  0.85937684902E+02  0.15655570156E+03  0.18088251077E+03  0.00000000000E+00 0. -1.
         -3    1    6    6    0  503 -0.61006167905E+02  0.33412052899E+03  0.48289148750E+03  0.59037485474E+03  0.00000000000E+00 0.  1.
<mgrwt>
<rscale>  0 0.30007055E+04</rscale>
<asrwt>0</asrwt>
<pdfrwt beam="1">  1        1 0.37186554E+00 0.30007055E+04</pdfrwt>
<pdfrwt beam="2">  1       -2 0.14327622E+00 0.30007055E+04</pdfrwt>
<totfact> 0.39123433E-01</totfact>
</mgrwt>
</event>
<event>
12    5  0.5095719E-008  0.1820065E+04  0.7818608E-02  0.8695701E-01
         -2   -1    0    0    0  501 -0.00000000000E+00  0.00000000000E+00  0.38536935798E+03  0.38536935798E+03  0.00000000000E+00 0.  1.
          1   -1    0    0  501    0  0.00000000000E+00 -0.00000000000E+00 -0.21490014703E+04  0.21490014703E+04  0.00000000000E+00 0. -1.
        -24    2    1    2    0    0 -0.62100843503E+03  0.27214938521E+02 -0.59275337290E+03  0.86264123445E+03  0.80007556054E+02 0.  0.
        254    2    1    2    0    0  0.62100843503E+03 -0.27214938521E+02 -0.11708787394E+04  0.16717295938E+04  0.10184943216E+04 0.  0.
         23    2    4    4    0    0  0.82013014485E+03 -0.39744547423E+02 -0.11944223162E+04  0.14522782089E+04  0.90962867094E+02 0.  0.
         23    2    4    4    0    0 -0.19912170982E+03  0.12529608902E+02  0.23543576816E+02  0.21945138486E+03  0.88307213113E+02 0.  0.
          1    1    3    3  502    0 -0.86664284632E+02  0.57426328099E+01 -0.12470054775E+03  0.15196678147E+03  0.00000000000E+00 0. -1.
         -2    1    3    3    0  502 -0.53434415040E+03  0.21472305711E+02 -0.46805282515E+03  0.71067445297E+03  0.00000000000E+00 0.  1.
         13    1    5    5    0    0  0.67826657969E+03 -0.12705875728E+02 -0.10312474799E+04  0.12343736700E+04  0.00000000000E+00 0.  1.
        -13    1    5    5    0    0  0.14186356516E+03 -0.27038671695E+02 -0.16317483628E+03  0.21790453892E+03  0.00000000000E+00 0. -1.
          1    1    6    6  503    0 -0.87057482056E+02 -0.77146123464E+01 -0.31585407880E+02  0.92930933583E+02  0.00000000000E+00 0. -1.
         -1    1    6    6    0  503 -0.11206422776E+03  0.20244221249E+02  0.55128984696E+02  0.12652045128E+03  0.00000000000E+00 0.  1.
<mgrwt>
<rscale>  0 0.18200652E+04</rscale>
<asrwt>0</asrwt>
<pdfrwt beam="1">  1        1 0.33061562E+00 0.18200652E+04</pdfrwt>
<pdfrwt beam="2">  1       -2 0.59287592E-01 0.18200652E+04</pdfrwt>
<totfact> 0.51871916E+00</totfact>
</mgrwt>
</event>
<event>
12    5  0.5095719E-008  0.1297128E+04  0.7818608E-02  0.9031846E-01
          3   -1    0    0  501    0  0.00000000000E+00  0.00000000000E+00  0.13240201019E+04  0.13240201019E+04  0.00000000000E+00 0. -1.
         -4   -1    0    0    0  501 -0.00000000000E+00 -0.00000000000E+00 -0.31769566634E+03  0.31769566634E+03  0.00000000000E+00 0.  1.
        -24    2    1    2    0    0  0.65469316110E+02  0.25586961214E+03  0.47777248297E+03  0.55142667952E+03  0.77777552228E+02 0.  0.
        254    2    1    2    0    0 -0.65469316110E+02 -0.25586961214E+03  0.52855195258E+03  0.10902890887E+04  0.91630106441E+03 0.  0.
         23    2    4    4    0    0  0.86673118278E+02 -0.57463179197E+03  0.33941738209E+03  0.67934413911E+03  0.92684272185E+02 0.  0.
         23    2    4    4    0    0 -0.15214243439E+03  0.31876217983E+03  0.18913457049E+03  0.41094494961E+03  0.91363111943E+02 0.  0.
          3    1    3    3  502    0  0.78466696351E+02  0.16875944421E+03  0.30014361365E+03  0.35316138133E+03  0.00000000000E+00 0. -1.
         -4    1    3    3    0  502 -0.12997380241E+02  0.87110167927E+02  0.17762886932E+03  0.19826529819E+03  0.00000000000E+00 0.  1.
         13    1    5    5    0    0  0.47503429374E+02 -0.11150917244E+03  0.96411072336E+02  0.15487403336E+03  0.00000000000E+00 0. -1.
        -13    1    5    5    0    0  0.39169688904E+02 -0.46312261953E+03  0.24300630975E+03  0.52447010575E+03  0.00000000000E+00 0.  1.
          1    1    6    6  503    0 -0.76706336249E+02  0.86691231956E+02  0.93690627315E+02  0.14891999653E+03  0.00000000000E+00 0. -1.
         -1    1    6    6    0  503 -0.75436098138E+02  0.23207094787E+03  0.95443943177E+02  0.26202495308E+03  0.00000000000E+00 0.  1.
<mgrwt>
<rscale>  0 0.12971283E+04</rscale>
<asrwt>0</asrwt>
<pdfrwt beam="1">  1        3 0.20369540E+00 0.12971283E+04</pdfrwt>
<pdfrwt beam="2">  1       -4 0.48876257E-01 0.12971283E+04</pdfrwt>
<totfact> 0.12704280E+00</totfact>
</mgrwt>
</event>
<event>
12    5  0.5095719E-008  0.1623514E+04  0.7818608E-02  0.8806232E-01
          1   -1    0    0  501    0  0.00000000000E+00  0.00000000000E+00  0.25855714265E+03  0.25855714265E+03  0.00000000000E+00 0. -1.
         -2   -1    0    0    0  501 -0.00000000000E+00 -0.00000000000E+00 -0.25485625500E+04  0.25485625500E+04  0.00000000000E+00 0.  1.
        -24    2    1    2    0    0 -0.50245163424E+02  0.94335964449E+02  0.15288854015E+03  0.20220102600E+03  0.78016014847E+02 0.  0.
        254    2    1    2    0    0  0.50245163424E+02 -0.94335964449E+02 -0.24428939475E+04  0.26049186667E+04  0.89802370264E+03 0.  0.
         23    2    4    4    0    0  0.14174325443E+03 -0.46715999977E+03 -0.11464723872E+04  0.12499324795E+04  0.97993127803E+02 0.  0.
         23    2    4    4    0    0 -0.91498091005E+02  0.37282403532E+03 -0.12964215603E+04  0.13549861872E+04  0.88932802941E+02 0.  0.
          3    1    3    3  502    0 -0.63542777427E+02  0.88509391288E+02  0.10188536697E+03  0.14917179663E+03  0.00000000000E+00 0. -1.
         -4    1    3    3    0  502  0.13297614003E+02  0.58265731612E+01  0.51003173181E+02  0.53029229369E+02  0.00000000000E+00 0.  1.
         13    1    5    5    0    0  0.14600586917E+03 -0.44115198316E+03 -0.10217398365E+04  0.11224460253E+04  0.00000000000E+00 0.  1.
        -13    1    5    5    0    0 -0.42626147371E+01 -0.26008016608E+02 -0.12473255072E+03  0.12748645426E+03  0.00000000000E+00 0. -1.
          2    1    6    6  503    0  0.83433256343E+01  0.89510495352E+02 -0.38424052147E+03  0.39461692589E+03  0.00000000000E+00 0. -1.
         -2    1    6    6    0  503 -0.99841416639E+02  0.28331353996E+03 -0.91218103883E+03  0.96036926128E+03  0.00000000000E+00 0.  1.
<mgrwt>
<rscale>  0 0.16235135E+04</rscale>
<asrwt>0</asrwt>
<pdfrwt beam="1">  1        1 0.39778023E-01 0.16235135E+04</pdfrwt>
<pdfrwt beam="2">  1       -2 0.39208654E+00 0.16235135E+04</pdfrwt>
<totfact> 0.74935352E-01</totfact>
</mgrwt>
</event>
<event>
12    5  0.5095719E-008  0.3088030E+04  0.7818608E-02  0.8219031E-01
         -2   -1    0    0    0  501 -0.00000000000E+00  0.00000000000E+00  0.13614311270E+04  0.13614311270E+04  0.00000000000E+00 0.  1.
          1   -1    0    0  501    0  0.00000000000E+00 -0.00000000000E+00 -0.17510856207E+04  0.17510856207E+04  0.00000000000E+00 0. -1.
        -24    2    1    2    0    0  0.89196808521E+03  0.72176165951E+03  0.65160749761E+03  0.13219949905E+04  0.80817483705E+02 0.  0.
        254    2    1    2    0    0 -0.89196808521E+03 -0.72176165951E+03 -0.10412619913E+04  0.17905217573E+04  0.89732640134E+03 0.  0.
         23    2    4    4    0    0 -0.59930694071E+03 -0.39603093730E+03 -0.77701851964E+02  0.72820124571E+03  0.90720251177E+02 0.  0.
         23    2    4    4    0    0 -0.29266114450E+03 -0.32573072221E+03 -0.96356013938E+03  0.10623205116E+04  0.91245154554E+02 0.  0.
          3    1    3    3  502    0  0.45117123642E+03  0.33312148264E+03  0.35482790401E+03  0.66364768381E+03  0.00000000000E+00 0. -1.
         -4    1    3    3    0  502  0.44079684879E+03  0.38864017687E+03  0.29677959360E+03  0.65834730664E+03  0.00000000000E+00 0.  1.
         13    1    5    5    0    0 -0.38350839572E+03 -0.30231677360E+03 -0.40571198983E+02  0.49002055403E+03  0.00000000000E+00 0.  1.
        -13    1    5    5    0    0 -0.21579854499E+03 -0.93714163707E+02 -0.37130652981E+02  0.23818069168E+03  0.00000000000E+00 0. -1.
          3    1    6    6  503    0 -0.26173249182E+03 -0.31924799550E+03 -0.92120289672E+03  0.10094740991E+04  0.00000000000E+00 0. -1.
         -3    1    6    6    0  503 -0.30928652680E+02 -0.64827267079E+01 -0.42357242664E+02  0.52846412445E+02  0.00000000000E+00 0.  1.
<mgrwt>
<rscale>  0 0.30880301E+04</rscale>
<asrwt>0</asrwt>
<pdfrwt beam="1">  1        1 0.26939779E+00 0.30880301E+04</pdfrwt>
<pdfrwt beam="2">  1       -2 0.20945094E+00 0.30880301E+04</pdfrwt>
<totfact> 0.37694639E-01</totfact>
</mgrwt>
</event>
<event>
12    5  0.5095719E-008  0.2272709E+04  0.7818608E-02  0.8488760E-01
          1   -1    0    0  501    0  0.00000000000E+00  0.00000000000E+00  0.68042725064E+03  0.68042725064E+03  0.00000000000E+00 0. -1.
         -2   -1    0    0    0  501 -0.00000000000E+00 -0.00000000000E+00 -0.18977808217E+04  0.18977808217E+04  0.00000000000E+00 0.  1.
        -24    2    1    2    0    0 -0.24127739175E+03 -0.80695530731E+03 -0.10259173143E+04  0.13297799331E+04  0.80104226022E+02 0.  0.
        254    2    1    2    0    0  0.24127739175E+03  0.80695530731E+03 -0.19143625679E+03  0.12484281392E+04  0.90140630721E+03 0.  0.
         23    2    4    4    0    0  0.54062466700E+02 -0.16692171326E+03 -0.15632595826E+03  0.25208615487E+03  0.91236043259E+02 0.  0.
         23    2    4    4    0    0  0.18721492505E+03  0.97387702056E+03 -0.35110298529E+02  0.99634198437E+03  0.89323778542E+02 0.  0.
          3    1    3    3  502    0 -0.44049219811E+02 -0.69350642741E+02 -0.88238374484E+02  0.12056473840E+03  0.00000000000E+00 0. -1.
         -4    1    3    3    0  502 -0.19722817194E+03 -0.73760466456E+03 -0.93767893983E+03  0.12092151947E+04  0.00000000000E+00 0.  1.
         13    1    5    5    0    0  0.34770457060E+01 -0.42773836254E+02 -0.95849553149E+02  0.10501822582E+03  0.00000000000E+00 0. -1.
        -13    1    5    5    0    0  0.50585420994E+02 -0.12414787700E+03 -0.60476405112E+02  0.14706792905E+03  0.00000000000E+00 0.  1.
          4    1    6    6  503    0  0.90687056157E+02  0.45257159636E+03  0.28085516393E+02  0.46242187256E+03  0.00000000000E+00 0. -1.
         -4    1    6    6    0  503  0.96527868889E+02  0.52130542420E+03 -0.63195814922E+02  0.53392011181E+03  0.00000000000E+00 0.  1.
<mgrwt>
<rscale>  0 0.22727092E+04</rscale>
<asrwt>0</asrwt>
<pdfrwt beam="1">  1        1 0.10468112E+00 0.22727092E+04</pdfrwt>
<pdfrwt beam="2">  1       -2 0.29196627E+00 0.22727092E+04</pdfrwt>
<totfact> 0.80389221E-01</totfact>
</mgrwt>
</event>
<event>
12    5  0.5095719E-008  0.1092020E+04  0.7818608E-02  0.9213005E-01
          1   -1    0    0  501    0  0.00000000000E+00  0.00000000000E+00  0.24161477336E+04  0.24161477336E+04  0.00000000000E+00 0. -1.
         -2   -1    0    0    0  501 -0.00000000000E+00 -0.00000000000E+00 -0.12338932524E+03  0.12338932524E+03  0.00000000000E+00 0.  1.
        -24    2    1    2    0    0  0.56900665589E+02 -0.66771008114E+02  0.73113683729E+03  0.74092129794E+03  0.81897751071E+02 0.  0.
        254    2    1    2    0    0 -0.56900665589E+02  0.66771008114E+02  0.15616215710E+04  0.17986157609E+04  0.88806569060E+03 0.  0.
         23    2    4    4    0    0 -0.43851337663E+03  0.18028434523E+03  0.81454333222E+03  0.94689702052E+03  0.91305535358E+02 0.  0.
         23    2    4    4    0    0  0.38161271105E+03 -0.11351333712E+03  0.74707823882E+03  0.85171874034E+03  0.93730351515E+02 0.  0.
          1    1    3    3  502    0  0.47886100357E+02 -0.68723278761E+02  0.72504576588E+03  0.72986802250E+03  0.00000000000E+00 0. -1.
         -2    1    3    3    0  502  0.90145652326E+01  0.19522706472E+01  0.60910714122E+01  0.11053275440E+02  0.00000000000E+00 0.  1.
         13    1    5    5    0    0 -0.44624336558E+02  0.51115716612E+02  0.12946838638E+03  0.14617185424E+03  0.00000000000E+00 0. -1.
        -13    1    5    5    0    0 -0.39388904008E+03  0.12916862862E+03  0.68507494584E+03  0.80072516629E+03  0.00000000000E+00 0.  1.
          1    1    6    6  503    0  0.32957640947E+03 -0.11603223749E+03  0.69588587575E+03  0.77867916492E+03  0.00000000000E+00 0. -1.
         -1    1    6    6    0  503  0.52036301577E+02  0.25189003711E+01  0.51192363075E+02  0.73039575424E+02  0.00000000000E+00 0.  1.
<mgrwt>
<rscale>  0 0.10920199E+04</rscale>
<asrwt>0</asrwt>
<pdfrwt beam="1">  1        1 0.37171500E+00 0.10920199E+04</pdfrwt>
<pdfrwt beam="2">  1       -2 0.18982975E-01 0.10920199E+04</pdfrwt>
<totfact> 0.31997434E+01</totfact>
</mgrwt>
</event>
<event>
12    5  0.5095719E-008  0.1313985E+04  0.7818608E-02  0.9018548E-01
          1   -1    0    0  501    0  0.00000000000E+00  0.00000000000E+00  0.96096534748E+03  0.96096534748E+03  0.00000000000E+00 0. -1.
         -4   -1    0    0    0  501 -0.00000000000E+00 -0.00000000000E+00 -0.44917220494E+03  0.44917220494E+03  0.00000000000E+00 0.  1.
        -24    2    1    2    0    0  0.43130194060E+02 -0.66833929408E+02 -0.21906713848E+03  0.24611509724E+03  0.79090088946E+02 0.  0.
        254    2    1    2    0    0 -0.43130194060E+02  0.66833929408E+02  0.73086028101E+03  0.11640224552E+04  0.90247689059E+03 0.  0.
         23    2    4    4    0    0 -0.51786260280E+02  0.42293755555E+03  0.12160043427E+03  0.45242778842E+03  0.91357788240E+02 0.  0.
         23    2    4    4    0    0  0.86560662197E+01 -0.35610362614E+03  0.60925984673E+03  0.71159466676E+03  0.91020266313E+02 0.  0.
          1    1    3    3  502    0 -0.94658251163E+01  0.11666815846E+02 -0.14987124922E+02  0.21220988444E+02  0.00000000000E+00 0. -1.
         -2    1    3    3    0  502  0.52596019176E+02 -0.78500745255E+02 -0.20408001355E+03  0.22489410880E+03  0.00000000000E+00 0.  1.
         13    1    5    5    0    0 -0.58011465626E+02  0.12680270615E+03  0.33642133372E+02  0.14344354139E+03  0.00000000000E+00 0.  1.
        -13    1    5    5    0    0  0.62252053464E+01  0.29613484941E+03  0.87958300901E+02  0.30898424703E+03  0.00000000000E+00 0. -1.
          3    1    6    6  503    0 -0.23091734458E+01  0.50887578678E+01  0.48513303395E+01  0.74002124769E+01  0.00000000000E+00 0. -1.
         -3    1    6    6    0  503  0.10965239666E+02 -0.36119238401E+03  0.60440851640E+03  0.70419445428E+03  0.00000000000E+00 0.  1.
<mgrwt>
<rscale>  0 0.13139847E+04</rscale>
<asrwt>0</asrwt>
<pdfrwt beam="1">  1        1 0.14784082E+00 0.13139847E+04</pdfrwt>
<pdfrwt beam="2">  1       -4 0.69103416E-01 0.13139847E+04</pdfrwt>
<totfact> 0.14949587E+01</totfact>
</mgrwt>
</event>
<event>
12    5  0.5095719E-008  0.1295751E+04  0.7818608E-02  0.9032942E-01
          1   -1    0    0  501    0  0.00000000000E+00  0.00000000000E+00  0.71438673270E+03  0.71438673270E+03  0.00000000000E+00 0. -1.
         -2   -1    0    0    0  501 -0.00000000000E+00 -0.00000000000E+00 -0.58755621348E+03  0.58755621348E+03  0.00000000000E+00 0.  1.
        -24    2    1    2    0    0  0.30049976529E+03  0.16306267057E+03  0.29786090152E+02  0.34941919393E+03  0.65704021558E+02 0.  0.
        254    2    1    2    0    0 -0.30049976529E+03 -0.16306267057E+03  0.97044429066E+02  0.95252375225E+03  0.88373883807E+03 0.  0.
         23    2    4    4    0    0 -0.20707101491E+03 -0.49791444774E+03  0.19278062795E+03  0.58019405383E+03  0.93078284819E+02 0.  0.
         23    2    4    4    0    0 -0.93428750382E+02  0.33485177717E+03 -0.95736198881E+02  0.37232969842E+03  0.92786531739E+02 0.  0.
          1    1    3    3  502    0  0.20953156828E+03  0.10421003076E+03  0.49760525280E+02  0.23924740018E+03  0.00000000000E+00 0. -1.
         -2    1    3    3    0  502  0.90968197012E+02  0.58852639810E+02 -0.19974435128E+02  0.11017179375E+03  0.00000000000E+00 0.  1.
         13    1    5    5    0    0 -0.95743462523E+02 -0.34162332743E+03  0.13754116034E+03  0.38051396722E+03  0.00000000000E+00 0.  1.
        -13    1    5    5    0    0 -0.11132755239E+03 -0.15629112031E+03  0.55239467606E+02  0.19968008662E+03  0.00000000000E+00 0. -1.
          2    1    6    6  503    0  0.51489437338E+01  0.15167127013E+03 -0.37947683583E+02  0.15643117494E+03  0.00000000000E+00 0. -1.
         -2    1    6    6    0  503 -0.98577694116E+02  0.18318050704E+03 -0.57788515298E+02  0.21589852347E+03  0.00000000000E+00 0.  1.
<mgrwt>
<rscale>  0 0.12957505E+04</rscale>
<asrwt>0</asrwt>
<pdfrwt beam="1">  1        1 0.10990565E+00 0.12957505E+04</pdfrwt>
<pdfrwt beam="2">  1       -2 0.90393264E-01 0.12957505E+04</pdfrwt>
<totfact> 0.23785465E+01</totfact>
</mgrwt>
</event>
<event>
12    5  0.5095719E-008  0.1633669E+04  0.7818608E-02  0.8800127E-01
         -2   -1    0    0    0  501 -0.00000000000E+00  0.00000000000E+00  0.97701167103E+03  0.97701167103E+03  0.00000000000E+00 0.  1.
          1   -1    0    0  501    0  0.00000000000E+00 -0.00000000000E+00 -0.68291741731E+03  0.68291741731E+03  0.00000000000E+00 0. -1.
        -24    2    1    2    0    0  0.52061247810E+03 -0.11710412313E+03 -0.74330376802E+02  0.54461868293E+03  0.79585029233E+02 0.  0.
        254    2    1    2    0    0 -0.52061247810E+03  0.11710412313E+03  0.36842463052E+03  0.11153104054E+04  0.90743036319E+03 0.  0.
         23    2    4    4    0    0  0.24752802755E+03 -0.27755705772E+02  0.10843922177E+03  0.28653846781E+03  0.91130264405E+02 0.  0.
         23    2    4    4    0    0 -0.76814050565E+03  0.14485982890E+03  0.25998540875E+03  0.82877193760E+03  0.90809169951E+02 0.  0.
          3    1    3    3  502    0  0.43046763501E+03 -0.71567859314E+02 -0.41139934187E+02  0.43831134763E+03  0.00000000000E+00 0. -1.
         -4    1    3    3    0  502  0.90144843083E+02 -0.45536263813E+02 -0.33190442616E+02  0.10630733529E+03  0.00000000000E+00 0.  1.
         13    1    5    5    0    0  0.62602265319E+02  0.29555429768E+02  0.45992139159E+02  0.83113440046E+02  0.00000000000E+00 0. -1.
        -13    1    5    5    0    0  0.18492576223E+03 -0.57311135541E+02  0.62447082608E+02  0.20342502776E+03  0.00000000000E+00 0.  1.
          3    1    6    6  503    0 -0.18853611421E+03  0.68893979034E+02  0.90111201968E+02  0.22002789693E+03  0.00000000000E+00 0. -1.
         -3    1    6    6    0  503 -0.57960439144E+03  0.75965849866E+02  0.16987420678E+03  0.60874404067E+03  0.00000000000E+00 0.  1.
<mgrwt>
<rscale>  0 0.16336686E+04</rscale>
<asrwt>0</asrwt>
<pdfrwt beam="1">  1        1 0.10506422E+00 0.16336686E+04</pdfrwt>
<pdfrwt beam="2">  1       -2 0.15030949E+00 0.16336686E+04</pdfrwt>
<totfact> 0.70571340E+00</totfact>
</mgrwt>
</event>
<event>
12    5  0.5095719E-008  0.1351550E+04  0.7818608E-02  0.8989656E-01
         -2   -1    0    0    0  501 -0.00000000000E+00  0.00000000000E+00  0.31871650221E+03  0.31871650221E+03  0.00000000000E+00 0.  1.
          1   -1    0    0  501    0  0.00000000000E+00 -0.00000000000E+00 -0.14328461538E+04  0.14328461538E+04  0.00000000000E+00 0. -1.
        -24    2    1    2    0    0 -0.17925602944E+03  0.19600434569E+03  0.25892734015E+02  0.27894050813E+03  0.81160001122E+02 0.  0.
        254    2    1    2    0    0  0.17925602944E+03 -0.19600434569E+03 -0.11400223856E+04  0.14726221479E+04  0.89354044291E+03 0.  0.
         23    2    4    4    0    0  0.47127643011E+03  0.83442533758E+02 -0.80007799726E+03  0.93639907869E+03  0.87488872753E+02 0.  0.
         23    2    4    4    0    0 -0.29202040067E+03 -0.27944687945E+03 -0.33994438836E+03  0.53622306920E+03  0.92771331354E+02 0.  0.
          1    1    3    3  502    0 -0.18311714229E+02  0.44243199230E+02 -0.21854703951E+02  0.52634661972E+02  0.00000000000E+00 0. -1.
         -2    1    3    3    0  502 -0.16094431521E+03  0.15176114646E+03  0.47747437967E+02  0.22630584616E+03  0.00000000000E+00 0.  1.
         13    1    5    5    0    0  0.10739099559E+03 -0.47868840626E+01 -0.12888160194E+03  0.16782791041E+03  0.00000000000E+00 0.  1.
        -13    1    5    5    0    0  0.36388543451E+03  0.88229417821E+02 -0.67119639532E+03  0.76857116828E+03  0.00000000000E+00 0. -1.
          1    1    6    6  503    0 -0.24970840269E+03 -0.21467412770E+03 -0.22953507057E+03  0.40140455416E+03  0.00000000000E+00 0. -1.
         -1    1    6    6    0  503 -0.42311997977E+02 -0.64772751752E+02 -0.11040931779E+03  0.13481851504E+03  0.00000000000E+00 0.  1.
<mgrwt>
<rscale>  0 0.13515498E+04</rscale>
<asrwt>0</asrwt>
<pdfrwt beam="1">  1        1 0.22043787E+00 0.13515498E+04</pdfrwt>
<pdfrwt beam="2">  1       -2 0.49033309E-01 0.13515498E+04</pdfrwt>
<totfact> 0.24635573E+01</totfact>
</mgrwt>
</event>
<event>
12    5  0.5095719E-008  0.2159413E+04  0.7818608E-02  0.8535514E-01
         -2   -1    0    0    0  501 -0.00000000000E+00  0.00000000000E+00  0.94101783172E+03  0.94101783172E+03  0.00000000000E+00 0.  1.
          1   -1    0    0  501    0  0.00000000000E+00 -0.00000000000E+00 -0.12388358273E+04  0.12388358273E+04  0.00000000000E+00 0. -1.
        -24    2    1    2    0    0  0.38410628131E+03  0.65632031956E+03  0.33619605860E+03  0.83544638160E+03  0.81540600316E+02 0.  0.
        254    2    1    2    0    0 -0.38410628131E+03 -0.65632031956E+03 -0.63401405419E+03  0.13444072774E+04  0.90948507932E+03 0.  0.
         23    2    4    4    0    0 -0.19957687285E+03 -0.61234408839E+03  0.26880500584E+02  0.65083978791E+03  0.89853533371E+02 0.  0.
         23    2    4    4    0    0 -0.18452940846E+03 -0.43976231176E+02 -0.66089455478E+03  0.69356748952E+03  0.90935353387E+02 0.  0.
          1    1    3    3  502    0  0.12193087882E+03  0.26778665518E+03  0.10149205313E+03  0.31125145582E+03  0.00000000000E+00 0. -1.
         -2    1    3    3    0  502  0.26217540249E+03  0.38853366438E+03  0.23470400547E+03  0.52419492578E+03  0.00000000000E+00 0.  1.
         13    1    5    5    0    0 -0.50143984346E+02 -0.72223719338E+02  0.21003701651E+02  0.90398231643E+02  0.00000000000E+00 0.  1.
        -13    1    5    5    0    0 -0.14943288850E+03 -0.54012036905E+03  0.58767989331E+01  0.56044155627E+03  0.00000000000E+00 0. -1.
          3    1    6    6  503    0 -0.14875732498E+03 -0.71350670256E+02 -0.53470620568E+03  0.55958054494E+03  0.00000000000E+00 0. -1.
         -3    1    6    6    0  503 -0.35772083473E+02  0.27374439080E+02 -0.12618834909E+03  0.13398694458E+03  0.00000000000E+00 0.  1.
<mgrwt>
<rscale>  0 0.21594134E+04</rscale>
<asrwt>0</asrwt>
<pdfrwt beam="1">  1        1 0.19059013E+00 0.21594134E+04</pdfrwt>
<pdfrwt beam="2">  1       -2 0.14477197E+00 0.21594134E+04</pdfrwt>
<totfact> 0.26443617E+00</totfact>
</mgrwt>
</event>
<event>
12    5  0.5095719E-008  0.1701212E+04  0.7818608E-02  0.8760673E-01
          1   -1    0    0  501    0  0.00000000000E+00  0.00000000000E+00  0.13152545181E+04  0.13152545181E+04  0.00000000000E+00 0. -1.
         -2   -1    0    0    0  501 -0.00000000000E+00 -0.00000000000E+00 -0.55010688454E+03  0.55010688454E+03  0.00000000000E+00 0.  1.
        -24    2    1    2    0    0 -0.19029067610E+03  0.49349416631E+03  0.62459646254E+03  0.82227457244E+03  0.79168793509E+02 0.  0.
        254    2    1    2    0    0  0.19029067610E+03 -0.49349416631E+03  0.14055117097E+03  0.10430868302E+04  0.88799125559E+03 0.  0.
         23    2    4    4    0    0 -0.12132325954E+03  0.11405677490E+03  0.28148894644E+03  0.33949514659E+03  0.91063968636E+02 0.  0.
         23    2    4    4    0    0  0.31161393563E+03 -0.60755094121E+03 -0.14093777547E+03  0.70359168357E+03  0.94638309348E+02 0.  0.
          1    1    3    3  502    0 -0.14609558927E+03  0.32748835084E+03  0.37107285601E+03  0.51603062468E+03  0.00000000000E+00 0. -1.
         -2    1    3    3    0  502 -0.44195086828E+02  0.16600581547E+03  0.25352360653E+03  0.30624394776E+03  0.00000000000E+00 0.  1.
         13    1    5    5    0    0  0.90982829193E+00 -0.12111108149E+02  0.33153612009E+02  0.35308196178E+02  0.00000000000E+00 0.  1.
        -13    1    5    5    0    0 -0.12223308783E+03  0.12616788304E+03  0.24833533443E+03  0.30418695041E+03  0.00000000000E+00 0. -1.
          2    1    6    6  503    0  0.27659382115E+03 -0.52732687432E+03 -0.89752815129E+02  0.60219045335E+03  0.00000000000E+00 0. -1.
         -2    1    6    6    0  503  0.35020114487E+02 -0.80224066884E+02 -0.51184960341E+02  0.10140123023E+03  0.00000000000E+00 0.  1.
<mgrwt>
<rscale>  0 0.17012120E+04</rscale>
<asrwt>0</asrwt>
<pdfrwt beam="1">  1        1 0.20234685E+00 0.17012120E+04</pdfrwt>
<pdfrwt beam="2">  1       -2 0.84631829E-01 0.17012120E+04</pdfrwt>
<totfact> 0.89607864E+00</totfact>
</mgrwt>
</event>
<event>
12    5  0.5095719E-008  0.1397939E+04  0.7818608E-02  0.8955312E-01
          1   -1    0    0  501    0  0.00000000000E+00  0.00000000000E+00  0.70263477621E+03  0.70263477621E+03  0.00000000000E+00 0. -1.
         -2   -1    0    0    0  501 -0.00000000000E+00 -0.00000000000E+00 -0.69532341479E+03  0.69532341479E+03  0.00000000000E+00 0.  1.
        -24    2    1    2    0    0  0.35370687026E+03  0.49416417486E+02  0.19232687739E+03  0.41347124949E+03  0.80114380741E+02 0.  0.
        254    2    1    2    0    0 -0.35370687026E+03 -0.49416417486E+02 -0.18501551597E+03  0.98448694151E+03  0.89857290437E+03 0.  0.
         23    2    4    4    0    0 -0.21417426655E+03 -0.63053017847E+02  0.34959910610E+03  0.42311960816E+03  0.83452790913E+02 0.  0.
         23    2    4    4    0    0 -0.13953260371E+03  0.13636600361E+02 -0.53461462206E+03  0.56136733335E+03  0.98311670034E+02 0.  0.
          1    1    3    3  502    0  0.31071598079E+03  0.68954114162E+02  0.17467962817E+03  0.36305931069E+03  0.00000000000E+00 0. -1.
         -2    1    3    3    0  502  0.42990889473E+02 -0.19537696677E+02  0.17647249219E+02  0.50411938806E+02  0.00000000000E+00 0.  1.
         13    1    5    5    0    0 -0.68162546634E+02  0.12748168143E+02  0.14379090295E+03  0.15963856779E+03  0.00000000000E+00 0. -1.
        -13    1    5    5    0    0 -0.14601171992E+03 -0.75801185990E+02  0.20580820314E+03  0.26348104037E+03  0.00000000000E+00 0.  1.
          3    1    6    6  503    0 -0.12614321069E+03 -0.16937231652E+02 -0.32360673771E+03  0.34773596321E+03  0.00000000000E+00 0. -1.
         -3    1    6    6    0  503 -0.13389393020E+02  0.30573832014E+02 -0.21100788435E+03  0.21363137014E+03  0.00000000000E+00 0.  1.
<mgrwt>
<rscale>  0 0.13979391E+04</rscale>
<asrwt>0</asrwt>
<pdfrwt beam="1">  1        1 0.10809766E+00 0.13979391E+04</pdfrwt>
<pdfrwt beam="2">  1       -2 0.10697283E+00 0.13979391E+04</pdfrwt>
<totfact> 0.16258268E+01</totfact>
</mgrwt>
</event>
<event>
12    5  0.5095719E-008  0.1514465E+04  0.7818608E-02  0.8874891E-01
          1   -1    0    0  501    0  0.00000000000E+00  0.00000000000E+00  0.74522721271E+03  0.74522721271E+03  0.00000000000E+00 0. -1.
         -2   -1    0    0    0  501 -0.00000000000E+00 -0.00000000000E+00 -0.76943078332E+03  0.76943078332E+03  0.00000000000E+00 0.  1.
        -24    2    1    2    0    0  0.19558604423E+03 -0.22913862359E+02 -0.45059349917E+03  0.49795946971E+03  0.78423122849E+02 0.  0.
        254    2    1    2    0    0 -0.19558604423E+03  0.22913862359E+02  0.42638992857E+03  0.10166985263E+04  0.90171424323E+03 0.  0.
         23    2    4    4    0    0  0.30307360343E+03 -0.19418500730E+03  0.18773698532E+03  0.41626758455E+03  0.92044011951E+02 0.  0.
         23    2    4    4    0    0 -0.49865964766E+03  0.21709886965E+03  0.23865294325E+03  0.60043094176E+03  0.88140371539E+02 0.  0.
          3    1    3    3  502    0  0.11478675707E+02  0.21270748119E+01 -0.12797014426E+01  0.11744023119E+02  0.00000000000E+00 0. -1.
         -4    1    3    3    0  502  0.18410736852E+03 -0.25040937171E+02 -0.44931379773E+03  0.48621544660E+03  0.00000000000E+00 0.  1.
         13    1    5    5    0    0  0.99434005449E+02 -0.11327888852E+03  0.96080006373E+02  0.17874729550E+03  0.00000000000E+00 0.  1.
        -13    1    5    5    0    0  0.20363959798E+03 -0.80906118780E+02  0.91656978946E+02  0.23752028906E+03  0.00000000000E+00 0. -1.
          3    1    6    6  503    0 -0.23240729368E+03  0.61930871675E+02  0.77661103024E+02  0.25274459429E+03  0.00000000000E+00 0. -1.
         -3    1    6    6    0  503 -0.26625235398E+03  0.15516799798E+03  0.16099184023E+03  0.34768634747E+03  0.00000000000E+00 0.  1.
<mgrwt>
<rscale>  0 0.15144646E+04</rscale>
<asrwt>0</asrwt>
<pdfrwt beam="1">  1        1 0.11465034E+00 0.15144646E+04</pdfrwt>
<pdfrwt beam="2">  1       -2 0.11837397E+00 0.15144646E+04</pdfrwt>
<totfact> 0.11496937E+01</totfact>
</mgrwt>
</event>
<event>
12    5  0.5095719E-008  0.1559866E+04  0.7818608E-02  0.8845590E-01
         -2   -1    0    0    0  501 -0.00000000000E+00  0.00000000000E+00  0.93632587276E+03  0.93632587276E+03  0.00000000000E+00 0.  1.
          1   -1    0    0  501    0  0.00000000000E+00 -0.00000000000E+00 -0.64966243467E+03  0.64966243467E+03  0.00000000000E+00 0. -1.
        -24    2    1    2    0    0 -0.27094944260E+03 -0.36365688538E+03 -0.98718589101E+02  0.47127247603E+03  0.81807433039E+02 0.  0.
        254    2    1    2    0    0  0.27094944260E+03  0.36365688538E+03  0.38538202719E+03  0.11147158314E+04  0.94255617720E+03 0.  0.
         23    2    4    4    0    0  0.58880783960E+03  0.22701547179E+03  0.76431379262E+02  0.64189656466E+03  0.89211813007E+02 0.  0.
         23    2    4    4    0    0 -0.31785839700E+03  0.13664141359E+03  0.30895064793E+03  0.47281926674E+03  0.91666349855E+02 0.  0.
          3    1    3    3  502    0 -0.10617102086E+03 -0.14628970922E+03 -0.80584017933E+02  0.19790590855E+03  0.00000000000E+00 0. -1.
         -4    1    3    3    0  502 -0.16477842174E+03 -0.21736717616E+03 -0.18134571168E+02  0.27336656748E+03  0.00000000000E+00 0.  1.
         13    1    5    5    0    0  0.75442462462E+02  0.33721710032E+02  0.40883766646E+02  0.92196535971E+02  0.00000000000E+00 0.  1.
        -13    1    5    5    0    0  0.51336537714E+03  0.19329376176E+03  0.35547612616E+02  0.54970002869E+03  0.00000000000E+00 0. -1.
          3    1    6    6  503    0 -0.27178140812E+03  0.12900310131E+03  0.30076495666E+03  0.42540156687E+03  0.00000000000E+00 0. -1.
         -3    1    6    6    0  503 -0.46076988886E+02  0.76383122774E+01  0.81856912699E+01  0.47417699869E+02  0.00000000000E+00 0.  1.
<mgrwt>
<rscale>  0 0.15598663E+04</rscale>
<asrwt>0</asrwt>
<pdfrwt beam="1">  1        1 0.99948067E-01 0.15598663E+04</pdfrwt>
<pdfrwt beam="2">  1       -2 0.14405013E+00 0.15598663E+04</pdfrwt>
<totfact> 0.85583577E+00</totfact>
</mgrwt>
</event>
<event>
12    5  0.5095719E-008  0.1273497E+04  0.7818608E-02  0.9050851E-01
         -2   -1    0    0    0  501 -0.00000000000E+00  0.00000000000E+00  0.12288261165E+04  0.12288261165E+04  0.00000000000E+00 0.  1.
          1   -1    0    0  501    0  0.00000000000E+00 -0.00000000000E+00 -0.32994773491E+03  0.32994773491E+03  0.00000000000E+00 0. -1.
        -24    2    1    2    0    0  0.23306409148E+03 -0.17575156924E+03  0.32087772308E+03  0.44096128986E+03  0.79226644250E+02 0.  0.
        254    2    1    2    0    0 -0.23306409148E+03  0.17575156924E+03  0.57800065846E+03  0.11178125615E+04  0.91116007191E+03 0.  0.
         23    2    4    4    0    0 -0.14418620533E+02 -0.14669806005E+03 -0.18760808431E+03  0.25412290711E+03  0.87483948139E+02 0.  0.
         23    2    4    4    0    0 -0.21864547094E+03  0.32244962929E+03  0.76560874277E+03  0.86368965439E+03  0.89573805889E+02 0.  0.
          3    1    3    3  502    0  0.47054870062E+02 -0.18888651302E+02  0.10098942224E+03  0.11300356344E+03  0.00000000000E+00 0. -1.
         -4    1    3    3    0  502  0.18600922141E+03 -0.15686291794E+03  0.21988830084E+03  0.32795772642E+03  0.00000000000E+00 0.  1.
         13    1    5    5    0    0  0.26802398279E+02 -0.11843673065E+03 -0.13317559971E+03  0.18022588071E+03  0.00000000000E+00 0.  1.
        -13    1    5    5    0    0 -0.41221018812E+02 -0.28261329397E+02 -0.54432484600E+02  0.73897026401E+02  0.00000000000E+00 0. -1.
          1    1    6    6  503    0  0.11640788239E+01  0.17531139854E+01  0.43624090881E+02  0.43674818756E+02  0.00000000000E+00 0. -1.
         -1    1    6    6    0  503 -0.21980954977E+03  0.32069651530E+03  0.72198465189E+03  0.82001483564E+03  0.00000000000E+00 0.  1.
<mgrwt>
<rscale>  0 0.12734966E+04</rscale>
<asrwt>0</asrwt>
<pdfrwt beam="1">  1        1 0.50761191E-01 0.12734966E+04</pdfrwt>
<pdfrwt beam="2">  1       -2 0.18905017E+00 0.12734966E+04</pdfrwt>
<totfact> 0.10454628E+01</totfact>
</mgrwt>
</event>
<event>
12    5  0.5095719E-008  0.2645112E+04  0.7818608E-02  0.8353037E-01
          1   -1    0    0  501    0  0.00000000000E+00  0.00000000000E+00  0.29535021103E+04  0.29535021103E+04  0.00000000000E+00 0. -1.
         -2   -1    0    0    0  501 -0.00000000000E+00 -0.00000000000E+00 -0.59223051285E+03  0.59223051285E+03  0.00000000000E+00 0.  1.
        -24    2    1    2    0    0 -0.44751240988E+03 -0.49778564856E+03  0.23323138301E+04  0.24278306124E+04  0.81337392871E+02 0.  0.
        254    2    1    2    0    0  0.44751240988E+03  0.49778564856E+03  0.28957767306E+02  0.11179020107E+04  0.89487901103E+03 0.  0.
         23    2    4    4    0    0  0.29666851582E+03  0.56771587277E+03 -0.31905536568E+03  0.72160742228E+03  0.92776209439E+02 0.  0.
         23    2    4    4    0    0  0.15084389405E+03 -0.69930224209E+02  0.34801313299E+03  0.39629458844E+03  0.91061207242E+02 0.  0.
          1    1    3    3  502    0 -0.43187118635E+03 -0.45000974757E+03  0.21767446331E+04  0.22643406750E+04  0.00000000000E+00 0. -1.
         -2    1    3    3    0  502 -0.15641223527E+02 -0.47775900993E+02  0.15556919703E+03  0.16348993747E+03  0.00000000000E+00 0.  1.
         13    1    5    5    0    0  0.76336696005E+02  0.24318260551E+03 -0.13182403117E+03  0.28695408339E+03  0.00000000000E+00 0. -1.
        -13    1    5    5    0    0  0.22033181982E+03  0.32453326726E+03 -0.18723133452E+03  0.43465333889E+03  0.00000000000E+00 0.  1.
          1    1    6    6  503    0  0.83106113238E+02 -0.69268741060E+02  0.13636227945E+03  0.17406738868E+03  0.00000000000E+00 0. -1.
         -1    1    6    6    0  503  0.67737780815E+02 -0.66148314865E+00  0.21165085354E+03  0.22222719976E+03  0.00000000000E+00 0.  1.
<mgrwt>
<rscale>  0 0.26451118E+04</rscale>
<asrwt>0</asrwt>
<pdfrwt beam="1">  1        1 0.45438493E+00 0.26451118E+04</pdfrwt>
<pdfrwt beam="2">  1       -2 0.91112388E-01 0.26451118E+04</pdfrwt>
<totfact> 0.51202589E-01</totfact>
</mgrwt>
</event>
<event>
12    5  0.5095719E-008  0.1390585E+04  0.7818608E-02  0.8960662E-01
          1   -1    0    0  501    0  0.00000000000E+00  0.00000000000E+00  0.28753266819E+03  0.28753266819E+03  0.00000000000E+00 0. -1.
         -2   -1    0    0    0  501 -0.00000000000E+00 -0.00000000000E+00 -0.16813112710E+04  0.16813112710E+04  0.00000000000E+00 0.  1.
        -24    2    1    2    0    0 -0.21523668725E+03 -0.28722953717E+03 -0.16766431593E+03  0.40444616523E+03  0.81472321483E+02 0.  0.
        254    2    1    2    0    0  0.21523668725E+03  0.28722953717E+03 -0.12261142869E+04  0.15643977740E+04  0.90286018415E+03 0.  0.
         23    2    4    4    0    0  0.91419500108E+02 -0.63303274570E+02  0.10588221939E+03  0.17833652794E+03  0.90708562138E+02 0.  0.
         23    2    4    4    0    0  0.12381718714E+03  0.35053281174E+03 -0.13319965063E+04  0.13860612461E+04  0.93526130307E+02 0.  0.
          1    1    3    3  502    0 -0.11718983761E+03 -0.20210439523E+03 -0.76631878147E+02  0.24587006601E+03  0.00000000000E+00 0. -1.
         -2    1    3    3    0  502 -0.98046849643E+02 -0.85125141943E+02 -0.91032437779E+02  0.15857609922E+03  0.00000000000E+00 0.  1.
         13    1    5    5    0    0  0.10136141680E+03 -0.42806642186E+02  0.55916798135E+02  0.12342298710E+03  0.00000000000E+00 0.  1.
        -13    1    5    5    0    0 -0.99419166960E+01 -0.20496632384E+02  0.49965421252E+02  0.54913540840E+02  0.00000000000E+00 0. -1.
          2    1    6    6  503    0  0.94926849544E+02  0.14544647275E+03 -0.68777256146E+03  0.70936371454E+03  0.00000000000E+00 0. -1.
         -2    1    6    6    0  503  0.28890337599E+02  0.20508633899E+03 -0.64422394485E+03  0.67669753152E+03  0.00000000000E+00 0.  1.
<mgrwt>
<rscale>  0 0.13905854E+04</rscale>
<asrwt>0</asrwt>
<pdfrwt beam="1">  1        1 0.44235794E-01 0.13905854E+04</pdfrwt>
<pdfrwt beam="2">  1       -2 0.25866328E+00 0.13905854E+04</pdfrwt>
<totfact> 0.44959320E+00</totfact>
</mgrwt>
</event>
<event>
12    5  0.6452688E-008  0.2102022E+04  0.7818608E-02  0.8560353E-01
          1   -1    0    0  501    0  0.00000000000E+00  0.00000000000E+00  0.17090999011E+04  0.17090999011E+04  0.00000000000E+00 0. -1.
         -2   -1    0    0    0  501 -0.00000000000E+00 -0.00000000000E+00 -0.64631893351E+03  0.64631893351E+03  0.00000000000E+00 0.  1.
        -24    2    1    2    0    0  0.70988676528E+03 -0.17163130981E+03  0.76272550385E+03  0.10588621576E+04  0.77732544965E+02 0.  0.
        254    2    1    2    0    0 -0.70988676528E+03  0.17163130981E+03  0.30005546372E+03  0.12965566770E+04  0.10284111091E+04 0.  0.
         23    2    4    4    0    0 -0.83332309135E+03  0.21521424299E+03 -0.94723390060E+02  0.87063932634E+03  0.91081123059E+02 0.  0.
         23    2    4    4    0    0  0.12343632607E+03 -0.43582933183E+02  0.39477885378E+03  0.42591735066E+03  0.91756457790E+02 0.  0.
          1    1    3    3  502    0  0.55377426723E+03 -0.15005058814E+03  0.55632342667E+03  0.79917261784E+03  0.00000000000E+00 0. -1.
         -2    1    3    3    0  502  0.15611249805E+03 -0.21580721670E+02  0.20640207718E+03  0.25968953976E+03  0.00000000000E+00 0.  1.
         13    1    5    5    0    0 -0.82486824159E+03  0.20284644146E+03 -0.87295084195E+02  0.85391728318E+03  0.00000000000E+00 0. -1.
        -13    1    5    5    0    0 -0.84548497621E+01  0.12367801534E+02 -0.74283058645E+01  0.16722043155E+02  0.00000000000E+00 0.  1.
          3    1    6    6  503    0  0.10738351645E+03  0.61660608794E+01  0.26916855923E+03  0.28986368036E+03  0.00000000000E+00 0. -1.
         -3    1    6    6    0  503  0.16052809617E+02 -0.49748994063E+02  0.12561029454E+03  0.13605367030E+03  0.00000000000E+00 0.  1.
<mgrwt>
<rscale>  0 0.21020215E+04</rscale>
<asrwt>0</asrwt>
<pdfrwt beam="1">  1        1 0.26293845E+00 0.21020215E+04</pdfrwt>
<pdfrwt beam="2">  1       -2 0.99433682E-01 0.21020215E+04</pdfrwt>
<totfact> 0.31757691E+00</totfact>
</mgrwt>
</event>
<event>
12    5  0.5095719E-008  0.2004693E+04  0.7818608E-02  0.8604429E-01
          1   -1    0    0  501    0  0.00000000000E+00  0.00000000000E+00  0.88404422218E+03  0.88404422218E+03  0.00000000000E+00 0. -1.
         -4   -1    0    0    0  501 -0.00000000000E+00 -0.00000000000E+00 -0.11364803699E+04  0.11364803699E+04  0.00000000000E+00 0.  1.
        -24    2    1    2    0    0 -0.28639111164E+03 -0.16993477734E+03  0.62879281805E+03  0.71600399642E+03  0.79897543672E+02 0.  0.
        254    2    1    2    0    0  0.28639111164E+03  0.16993477734E+03 -0.88122896580E+03  0.13045205957E+04  0.90239226341E+03 0.  0.
         23    2    4    4    0    0  0.56177044685E+02 -0.35957971667E+03 -0.38226559382E+03  0.53573181313E+03  0.91805001956E+02 0.  0.
         23    2    4    4    0    0  0.23021406695E+03  0.52951449402E+03 -0.49896337198E+03  0.76878878257E+03  0.93207454826E+02 0.  0.
          3    1    3    3  502    0 -0.20958245996E+03 -0.84189105542E+02  0.44715698729E+03  0.50096106066E+03  0.00000000000E+00 0. -1.
         -4    1    3    3    0  502 -0.76808651677E+02 -0.85745671802E+02  0.18163583075E+03  0.21504293576E+03  0.00000000000E+00 0.  1.
         13    1    5    5    0    0  0.80063582155E+02 -0.23619230255E+03 -0.24448641262E+03  0.34924287670E+03  0.00000000000E+00 0. -1.
        -13    1    5    5    0    0 -0.23886537470E+02 -0.12338741412E+03 -0.13777918120E+03  0.18648893643E+03  0.00000000000E+00 0.  1.
          1    1    6    6  503    0  0.65234092132E+02  0.23020035860E+03 -0.16278631339E+03  0.28939087011E+03  0.00000000000E+00 0. -1.
         -1    1    6    6    0  503  0.16497997482E+03  0.29931413542E+03 -0.33617705859E+03  0.47939791246E+03  0.00000000000E+00 0.  1.
<mgrwt>
<rscale>  0 0.20046934E+04</rscale>
<asrwt>0</asrwt>
<pdfrwt beam="1">  1        1 0.13600680E+00 0.20046934E+04</pdfrwt>
<pdfrwt beam="2">  1       -4 0.17484313E+00 0.20046934E+04</pdfrwt>
<totfact> 0.16409229E+00</totfact>
</mgrwt>
</event>
<event>
12    5  0.5095719E-008  0.1692724E+04  0.7818608E-02  0.8765525E-01
         -2   -1    0    0    0  501 -0.00000000000E+00  0.00000000000E+00  0.34821728809E+03  0.34821728809E+03  0.00000000000E+00 0.  1.
          1   -1    0    0  501    0  0.00000000000E+00 -0.00000000000E+00 -0.20571313438E+04  0.20571313438E+04  0.00000000000E+00 0. -1.
        -24    2    1    2    0    0 -0.51874911127E+03 -0.97104552344E+02 -0.20945164435E+03  0.57337029846E+03  0.79709305017E+02 0.  0.
        254    2    1    2    0    0  0.51874911127E+03  0.97104552344E+02 -0.14994624114E+04  0.18319783335E+04  0.91061910617E+03 0.  0.
         23    2    4    4    0    0  0.44095371436E+03 -0.31596200543E+03 -0.49952633776E+03  0.74331801834E+03  0.93396719357E+02 0.  0.
         23    2    4    4    0    0  0.77795396910E+02  0.41306655778E+03 -0.99993607364E+03  0.10886603151E+04  0.92914075348E+02 0.  0.
          1    1    3    3  502    0 -0.65546504548E+02  0.38166149378E+01 -0.44032713880E+01  0.65805012020E+02  0.00000000000E+00 0. -1.
         -2    1    3    3    0  502 -0.45320260673E+03 -0.10092116728E+03 -0.20504837296E+03  0.50756528644E+03  0.00000000000E+00 0.  1.
         13    1    5    5    0    0  0.39508264580E+03 -0.27252391186E+03 -0.39690783200E+03  0.62281249719E+03  0.00000000000E+00 0.  1.
        -13    1    5    5    0    0  0.45871068561E+02 -0.43438093579E+02 -0.10261850576E+03  0.12050552116E+03  0.00000000000E+00 0. -1.
          4    1    6    6  503    0  0.63561482538E+02  0.19564733675E+03 -0.58293118773E+03  0.61816398477E+03  0.00000000000E+00 0. -1.
         -4    1    6    6    0  503  0.14233914372E+02  0.21741922103E+03 -0.41700488591E+03  0.47049633034E+03  0.00000000000E+00 0.  1.
<mgrwt>
<rscale>  0 0.16927241E+04</rscale>
<asrwt>0</asrwt>
<pdfrwt beam="1">  1        1 0.31648174E+00 0.16927241E+04</pdfrwt>
<pdfrwt beam="2">  1       -2 0.53571891E-01 0.16927241E+04</pdfrwt>
<totfact> 0.74842310E+00</totfact>
</mgrwt>
</event>
<event>
12    5  0.5095719E-008  0.1527839E+04  0.7818608E-02  0.8866149E-01
         -2   -1    0    0    0  501 -0.00000000000E+00  0.00000000000E+00  0.74036326595E+03  0.74036326595E+03  0.00000000000E+00 0.  1.
          1   -1    0    0  501    0  0.00000000000E+00 -0.00000000000E+00 -0.78822493516E+03  0.78822493516E+03  0.00000000000E+00 0. -1.
        -24    2    1    2    0    0  0.39743948458E+03  0.29700557533E+03  0.41357163261E+02  0.50470767333E+03  0.82758473191E+02 0.  0.
        254    2    1    2    0    0 -0.39743948458E+03 -0.29700557533E+03 -0.89218832474E+02  0.10238805278E+04  0.89117948777E+03 0.  0.
         23    2    4    4    0    0  0.49496116840E+02 -0.27900682945E+03 -0.37965114806E+03  0.48264458715E+03  0.92282863105E+02 0.  0.
         23    2    4    4    0    0 -0.44693560142E+03 -0.17998745880E+02  0.29043231558E+03  0.54123594063E+03  0.92249806664E+02 0.  0.
          3    1    3    3  502    0  0.22646141536E+03  0.13128524382E+03 -0.64555205789E+01  0.26184396429E+03  0.00000000000E+00 0. -1.
         -4    1    3    3    0  502  0.17097806922E+03  0.16572033151E+03  0.47812683840E+02  0.24286370904E+03  0.00000000000E+00 0.  1.
         13    1    5    5    0    0  0.20314279895E+02 -0.26259665070E+03 -0.34918244491E+03  0.43737632624E+03  0.00000000000E+00 0.  1.
        -13    1    5    5    0    0  0.29181836945E+02 -0.16410178755E+02 -0.30468703150E+02  0.45268260911E+02  0.00000000000E+00 0. -1.
          2    1    6    6  503    0 -0.47899271119E+02 -0.40168505980E+01  0.70681923769E+02  0.85477538629E+02  0.00000000000E+00 0. -1.
         -2    1    6    6    0  503 -0.39903633030E+03 -0.13981895282E+02  0.21975039181E+03  0.45575840200E+03  0.00000000000E+00 0.  1.
<mgrwt>
<rscale>  0 0.15278387E+04</rscale>
<asrwt>0</asrwt>
<pdfrwt beam="1">  1        1 0.12126537E+00 0.15278387E+04</pdfrwt>
<pdfrwt beam="2">  1       -2 0.11390204E+00 0.15278387E+04</pdfrwt>
<totfact> 0.11553801E+01</totfact>
</mgrwt>
</event>
<event>
12    5  0.5095719E-008  0.2512501E+04  0.7818608E-02  0.8398545E-01
          3   -1    0    0  501    0  0.00000000000E+00  0.00000000000E+00  0.80954682737E+03  0.80954682737E+03  0.00000000000E+00 0. -1.
         -4   -1    0    0    0  501 -0.00000000000E+00 -0.00000000000E+00 -0.19494435420E+04  0.19494435420E+04  0.00000000000E+00 0.  1.
        -24    2    1    2    0    0 -0.85097801592E+02 -0.77743691600E+03 -0.13346441938E+04  0.15489652082E+04  0.79801618001E+02 0.  0.
        254    2    1    2    0    0  0.85097801592E+02  0.77743691600E+03  0.19474747912E+03  0.12100251611E+04  0.90254335948E+03 0.  0.
         23    2    4    4    0    0  0.18587952204E+03  0.34887164923E+03 -0.32692619505E+03  0.52109242131E+03  0.91618503551E+02 0.  0.
         23    2    4    4    0    0 -0.10078172045E+03  0.42856526677E+03  0.52167367417E+03  0.68893273981E+03  0.93057802516E+02 0.  0.
          3    1    3    3  502    0 -0.50016029969E+02 -0.25311739851E+03 -0.38142229754E+03  0.46049211692E+03  0.00000000000E+00 0. -1.
         -4    1    3    3    0  502 -0.35081771623E+02 -0.52431951748E+03 -0.95322189622E+03  0.10884730913E+04  0.00000000000E+00 0.  1.
         13    1    5    5    0    0  0.18994720611E+03  0.33913943545E+03 -0.29648371217E+03  0.48887430835E+03  0.00000000000E+00 0.  1.
        -13    1    5    5    0    0 -0.40676840746E+01  0.97322137797E+01 -0.30442482882E+02  0.32218112961E+02  0.00000000000E+00 0. -1.
          4    1    6    6  503    0  0.12571069362E+02  0.13026524132E+03  0.15263521968E+03  0.20105863614E+03  0.00000000000E+00 0. -1.
         -4    1    6    6    0  503 -0.11335278981E+03  0.29830002545E+03  0.36903845449E+03  0.48787410367E+03  0.00000000000E+00 0.  1.
<mgrwt>
<rscale>  0 0.25125014E+04</rscale>
<asrwt>0</asrwt>
<pdfrwt beam="1">  1        3 0.12454567E+00 0.25125014E+04</pdfrwt>
<pdfrwt beam="2">  1       -4 0.29991439E+00 0.25125014E+04</pdfrwt>
<totfact> 0.32424759E-02</totfact>
</mgrwt>
</event>
<event>
12    5  0.5095719E-008  0.4123549E+04  0.7818608E-02  0.7980076E-01
          1   -1    0    0  501    0  0.00000000000E+00  0.00000000000E+00  0.14669894818E+04  0.14669894818E+04  0.00000000000E+00 0. -1.
         -2   -1    0    0    0  501 -0.00000000000E+00 -0.00000000000E+00 -0.28977126260E+04  0.28977126260E+04  0.00000000000E+00 0.  1.
        -24    2    1    2    0    0  0.13817946844E+04 -0.79906969388E+03 -0.18923794714E+04  0.24769327096E+04  0.78909181946E+02 0.  0.
        254    2    1    2    0    0 -0.13817946844E+04  0.79906969388E+03  0.46165632723E+03  0.18877693982E+04  0.89592288223E+03 0.  0.
         23    2    4    4    0    0 -0.34162627434E+03  0.67538223930E+03  0.64664155967E+02  0.76455550166E+03  0.86683225431E+02 0.  0.
         23    2    4    4    0    0 -0.10401684100E+04  0.12368745458E+03  0.39699217126E+03  0.11232138965E+04  0.82205630654E+02 0.  0.
          1    1    3    3  502    0  0.13559569468E+03 -0.79566196107E+02 -0.15174604500E+03  0.21850362503E+03  0.00000000000E+00 0. -1.
         -2    1    3    3    0  502  0.12461989897E+04 -0.71950349777E+03 -0.17406334264E+04  0.22584290846E+04  0.00000000000E+00 0.  1.
         13    1    5    5    0    0 -0.20385946975E+02  0.97558978287E+01 -0.43460095377E+00  0.22604275138E+02  0.00000000000E+00 0.  1.
        -13    1    5    5    0    0 -0.32124032737E+03  0.66562634147E+03  0.65098756921E+02  0.74195122652E+03  0.00000000000E+00 0. -1.
          4    1    6    6  503    0 -0.96879088783E+03  0.10202853601E+03  0.35032036377E+03  0.10352245958E+04  0.00000000000E+00 0. -1.
         -4    1    6    6    0  503 -0.71377522180E+02  0.21658918568E+02  0.46671807494E+02  0.87989300718E+02  0.00000000000E+00 0.  1.
<mgrwt>
<rscale>  0 0.41235489E+04</rscale>
<asrwt>0</asrwt>
<pdfrwt beam="1">  1        1 0.22569069E+00 0.41235489E+04</pdfrwt>
<pdfrwt beam="2">  1       -2 0.44580194E+00 0.41235489E+04</pdfrwt>
<totfact> 0.17359088E-02</totfact>
</mgrwt>
</event>
<event>
12    5  0.5095719E-008  0.1174313E+04  0.7818608E-02  0.9135642E-01
         -4   -1    0    0    0  501 -0.00000000000E+00  0.00000000000E+00  0.36226503886E+03  0.36226503886E+03  0.00000000000E+00 0.  1.
          3   -1    0    0  501    0  0.00000000000E+00 -0.00000000000E+00 -0.95165900456E+03  0.95165900456E+03  0.00000000000E+00 0. -1.
        -24    2    1    2    0    0 -0.12578960269E+03 -0.10890504509E+03  0.58218305547E+02  0.19140573999E+03  0.74588559497E+02 0.  0.
        254    2    1    2    0    0  0.12578960269E+03  0.10890504509E+03 -0.64761227125E+03  0.11225183034E+04  0.90164425061E+03 0.  0.
         23    2    4    4    0    0  0.26685825625E+03 -0.59190630898E+01 -0.81252908998E+03  0.86027449610E+03  0.92845691028E+02 0.  0.
         23    2    4    4    0    0 -0.14106865356E+03  0.11482410818E+03  0.16491681873E+03  0.26224380733E+03  0.92137487179E+02 0.  0.
          1    1    3    3  502    0  0.94514864240E+01 -0.14813589121E+02  0.62801929975E+01  0.18660488803E+02  0.00000000000E+00 0. -1.
         -2    1    3    3    0  502 -0.13524108912E+03 -0.94091455970E+02  0.51938112550E+02  0.17274525119E+03  0.00000000000E+00 0.  1.
         13    1    5    5    0    0  0.18113279585E+03 -0.30914455208E+02 -0.43288590143E+03  0.47027119509E+03  0.00000000000E+00 0. -1.
        -13    1    5    5    0    0  0.85725460395E+02  0.24995392118E+02 -0.37964318856E+03  0.39000330102E+03  0.00000000000E+00 0.  1.
          1    1    6    6  503    0 -0.33283015866E+02  0.46067873827E+02  0.43555095038E+01  0.56999812343E+02  0.00000000000E+00 0. -1.
         -1    1    6    6    0  503 -0.10778563769E+03  0.68756234354E+02  0.16056130923E+03  0.20524399498E+03  0.00000000000E+00 0.  1.
<mgrwt>
<rscale>  0 0.11743131E+04</rscale>
<asrwt>0</asrwt>
<pdfrwt beam="1">  1        3 0.14640908E+00 0.11743131E+04</pdfrwt>
<pdfrwt beam="2">  1       -4 0.55733083E-01 0.11743131E+04</pdfrwt>
<totfact> 0.23918021E+00</totfact>
</mgrwt>
</event>
<event>
12    5  0.5095719E-008  0.2509304E+04  0.7818608E-02  0.8399679E-01
         -2   -1    0    0    0  501 -0.00000000000E+00  0.00000000000E+00  0.93666249920E+03  0.93666249920E+03  0.00000000000E+00 0.  1.
          1   -1    0    0  501    0  0.00000000000E+00 -0.00000000000E+00 -0.16805958624E+04  0.16805958624E+04  0.00000000000E+00 0. -1.
        -24    2    1    2    0    0 -0.70808376574E+03  0.82376363150E+03 -0.44513704903E+03  0.11771568682E+04  0.87075599542E+02 0.  0.
        254    2    1    2    0    0  0.70808376574E+03 -0.82376363150E+03 -0.29879631413E+03  0.14401014934E+04  0.89701947247E+03 0.  0.
         23    2    4    4    0    0 -0.10816990562E+03 -0.22949327488E+03  0.17461762443E+03  0.32127628338E+03  0.91428900283E+02 0.  0.
         23    2    4    4    0    0  0.81625367136E+03 -0.59427035662E+03 -0.47341393855E+03  0.11188252100E+04  0.90674034473E+02 0.  0.
          1    1    3    3  502    0 -0.76777141844E+02  0.57425356669E+02 -0.53740265298E+02  0.10991095129E+03  0.00000000000E+00 0. -1.
         -2    1    3    3    0  502 -0.63130662389E+03  0.76633827483E+03 -0.39139678374E+03  0.10672459169E+04  0.00000000000E+00 0.  1.
         13    1    5    5    0    0 -0.67615809354E+02 -0.21534911558E+03  0.13601710057E+03  0.26352948773E+03  0.00000000000E+00 0. -1.
        -13    1    5    5    0    0 -0.40554096265E+02 -0.14144159301E+02  0.38600523859E+02  0.57746795655E+02  0.00000000000E+00 0.  1.
          4    1    6    6  503    0  0.58989367512E+03 -0.47079602104E+03 -0.32938119043E+03  0.82347763174E+03  0.00000000000E+00 0.  1.
         -4    1    6    6    0  503  0.22635999624E+03 -0.12347433559E+03 -0.14403274812E+03  0.29534757825E+03  0.00000000000E+00 0. -1.
<mgrwt>
<rscale>  0 0.25093036E+04</rscale>
<asrwt>0</asrwt>
<pdfrwt beam="1">  1        1 0.25855321E+00 0.25093036E+04</pdfrwt>
<pdfrwt beam="2">  1       -2 0.14410192E+00 0.25093036E+04</pdfrwt>
<totfact> 0.12761423E+00</totfact>
</mgrwt>
</event>
<event>
12    5  0.5095719E-008  0.1622950E+04  0.7818608E-02  0.8806572E-01
         -2   -1    0    0    0  501 -0.00000000000E+00  0.00000000000E+00  0.73160282922E+03  0.73160282922E+03  0.00000000000E+00 0.  1.
          1   -1    0    0  501    0  0.00000000000E+00 -0.00000000000E+00 -0.90006685511E+03  0.90006685511E+03  0.00000000000E+00 0. -1.
        -24    2    1    2    0    0  0.17812251383E+03  0.36083992836E+03  0.31523618108E+03  0.51745789999E+03  0.80347648155E+02 0.  0.
        254    2    1    2    0    0 -0.17812251383E+03 -0.36083992836E+03 -0.48370020697E+03  0.11142117843E+04  0.91954821858E+03 0.  0.
         23    2    4    4    0    0 -0.49586630049E+03 -0.10891917219E+03 -0.47102301709E+03  0.69851664403E+03  0.91192353418E+02 0.  0.
         23    2    4    4    0    0  0.31774378666E+03 -0.25192075617E+03 -0.12677189878E+02  0.41569514031E+03  0.90645227040E+02 0.  0.
          1    1    3    3  502    0  0.32072058104E+02  0.66372714684E+02  0.21888877238E+02  0.76896535112E+02  0.00000000000E+00 0. -1.
         -2    1    3    3    0  502  0.14605045573E+03  0.29446721367E+03  0.29334730384E+03  0.44056136487E+03  0.00000000000E+00 0.  1.
         13    1    5    5    0    0 -0.37535528753E+03 -0.10796446006E+03 -0.39786710271E+03  0.55753578175E+03  0.00000000000E+00 0. -1.
        -13    1    5    5    0    0 -0.12051101296E+03 -0.95471213390E+00 -0.73155914385E+02  0.14098086228E+03  0.00000000000E+00 0.  1.
          3    1    6    6  503    0  0.29821924192E+03 -0.25700538856E+03 -0.20103114037E+02  0.39419617095E+03  0.00000000000E+00 0. -1.
         -3    1    6    6    0  503  0.19524544742E+02  0.50846323899E+01  0.74259241595E+01  0.21498969360E+02  0.00000000000E+00 0.  1.
<mgrwt>
<rscale>  0 0.16229497E+04</rscale>
<asrwt>0</asrwt>
<pdfrwt beam="1">  1        1 0.13847182E+00 0.16229497E+04</pdfrwt>
<pdfrwt beam="2">  1       -2 0.11255428E+00 0.16229497E+04</pdfrwt>
<totfact> 0.94883948E+00</totfact>
</mgrwt>
</event>
<event>
12    5  0.5095719E-008  0.1310577E+04  0.7818608E-02  0.9021219E-01
         -2   -1    0    0    0  501 -0.00000000000E+00  0.00000000000E+00  0.69343603578E+03  0.69343603578E+03  0.00000000000E+00 0.  1.
          1   -1    0    0  501    0  0.00000000000E+00 -0.00000000000E+00 -0.61923953848E+03  0.61923953848E+03  0.00000000000E+00 0. -1.
        -24    2    1    2    0    0  0.28995376456E+02  0.17185191854E+03 -0.26516368563E+03  0.32422436446E+03  0.66602136392E+02 0.  0.
        254    2    1    2    0    0 -0.28995376456E+02 -0.17185191854E+03  0.33936018294E+03  0.98845120980E+03  0.91186437951E+03 0.  0.
         23    2    4    4    0    0  0.20145198620E+02  0.34365587240E+03  0.29045398789E+03  0.45998146671E+03  0.93350109657E+02 0.  0.
         23    2    4    4    0    0 -0.49140575076E+02 -0.51550779094E+03  0.48906195047E+02  0.52846974308E+03  0.93409714675E+02 0.  0.
          1    1    3    3  502    0  0.46226314351E+02  0.14466354654E+03 -0.23683363735E+03  0.28134424752E+03  0.00000000000E+00 0. -1.
         -2    1    3    3    0  502 -0.17230937896E+02  0.27188372006E+02 -0.28330048284E+02  0.42880116941E+02  0.00000000000E+00 0.  1.
         13    1    5    5    0    0 -0.90185232094E+01  0.23426604206E+02  0.58015185233E+02  0.63213141538E+02  0.00000000000E+00 0.  1.
        -13    1    5    5    0    0  0.29163721830E+02  0.32022926820E+03  0.23243880266E+03  0.39676832518E+03  0.00000000000E+00 0. -1.
          4    1    6    6  503    0 -0.69788980720E+02 -0.46376918438E+03  0.31245179604E+02  0.47003044525E+03  0.00000000000E+00 0. -1.
         -4    1    6    6    0  503  0.20648405644E+02 -0.51738606560E+02  0.17661015443E+02  0.58439297830E+02  0.00000000000E+00 0.  1.
<mgrwt>
<rscale>  0 0.13105770E+04</rscale>
<asrwt>0</asrwt>
<pdfrwt beam="1">  1        1 0.95267621E-01 0.13105770E+04</pdfrwt>
<pdfrwt beam="2">  1       -2 0.10668247E+00 0.13105770E+04</pdfrwt>
<totfact> 0.19885454E+01</totfact>
</mgrwt>
</event>
<event>
12    5  0.5095719E-008  0.1270737E+04  0.7818608E-02  0.9053098E-01
          1   -1    0    0  501    0  0.00000000000E+00  0.00000000000E+00  0.17247993934E+04  0.17247993934E+04  0.00000000000E+00 0. -1.
         -2   -1    0    0    0  501 -0.00000000000E+00 -0.00000000000E+00 -0.23405218074E+03  0.23405218074E+03  0.00000000000E+00 0.  1.
        -24    2    1    2    0    0 -0.25794008192E+03 -0.15269014599E+02  0.79350256344E+02  0.28217433708E+03  0.80991756723E+02 0.  0.
        254    2    1    2    0    0  0.25794008192E+03  0.15269014599E+02  0.14113969564E+04  0.16766772371E+04  0.86743239524E+03 0.  0.
         23    2    4    4    0    0 -0.49793655070E+02 -0.27636883301E+03  0.11083979133E+04  0.11476040185E+04  0.97928080919E+02 0.  0.
         23    2    4    4    0    0  0.30773373699E+03  0.29163784761E+03  0.30299904307E+03  0.52907321865E+03  0.91418617089E+02 0.  0.
          1    1    3    3  502    0 -0.33960082182E+02 -0.23250592399E+02 -0.74596083010E+01  0.41827299515E+02  0.00000000000E+00 0. -1.
         -2    1    3    3    0  502 -0.22397999974E+03  0.79815777998E+01  0.86809864645E+02  0.24034703757E+03  0.00000000000E+00 0.  1.
         13    1    5    5    0    0 -0.41843001847E+02 -0.26692996291E+03  0.10999497956E+04  0.11326482220E+04  0.00000000000E+00 0.  1.
        -13    1    5    5    0    0 -0.79506532228E+01 -0.94388700993E+01  0.84481176678E+01  0.14955796453E+02  0.00000000000E+00 0. -1.
          1    1    6    6  503    0 -0.62841200394E+01  0.24415281367E+01  0.35260715752E+01  0.76081801415E+01  0.00000000000E+00 0. -1.
         -1    1    6    6    0  503  0.31401785703E+03  0.28919631947E+03  0.29947297149E+03  0.52146503850E+03  0.00000000000E+00 0.  1.
<mgrwt>
<rscale>  0 0.12707369E+04</rscale>
<asrwt>0</asrwt>
<pdfrwt beam="1">  1        1 0.26535374E+00 0.12707369E+04</pdfrwt>
<pdfrwt beam="2">  1       -2 0.36008029E-01 0.12707369E+04</pdfrwt>
<totfact> 0.28746911E+01</totfact>
</mgrwt>
</event>
<event>
12    5  0.5095719E-008  0.1763701E+04  0.7818608E-02  0.8725845E-01
         -2   -1    0    0    0  501 -0.00000000000E+00  0.00000000000E+00  0.50744477274E+03  0.50744477274E+03  0.00000000000E+00 0.  1.
          1   -1    0    0  501    0  0.00000000000E+00 -0.00000000000E+00 -0.15325017739E+04  0.15325017739E+04  0.00000000000E+00 0. -1.
        -24    2    1    2    0    0 -0.43241998799E+03 -0.36335068287E+03 -0.70521134687E+03  0.90648171077E+03  0.73316324600E+02 0.  0.
        254    2    1    2    0    0  0.43241998799E+03  0.36335068287E+03 -0.31984565427E+03  0.11334648359E+04  0.92920962479E+03 0.  0.
         23    2    4    4    0    0  0.28191697693E+03  0.58451335365E+03 -0.47623298919E+03  0.80993888691E+03  0.89833724518E+02 0.  0.
         23    2    4    4    0    0  0.15050301105E+03 -0.22116267078E+03  0.15638733493E+03  0.32352594894E+03  0.92994396776E+02 0.  0.
          3    1    3    3  502    0 -0.25232094512E+03 -0.19853104153E+03 -0.34444371395E+03  0.47087355614E+03  0.00000000000E+00 0. -1.
         -4    1    3    3    0  502 -0.18009904287E+03 -0.16481964134E+03 -0.36076763292E+03  0.43560815462E+03  0.00000000000E+00 0.  1.
         13    1    5    5    0    0  0.73058739222E+02  0.24225887738E+03 -0.16106709918E+03  0.29994925151E+03  0.00000000000E+00 0.  1.
        -13    1    5    5    0    0  0.20885823771E+03  0.34225447627E+03 -0.31516589001E+03  0.50998963540E+03  0.00000000000E+00 0. -1.
          4    1    6    6  503    0  0.73424711084E+02 -0.18303180103E+03  0.10748102729E+03  0.22459741676E+03  0.00000000000E+00 0. -1.
         -4    1    6    6    0  503  0.77078299970E+02 -0.38130869748E+02  0.48906307634E+02  0.98928532185E+02  0.00000000000E+00 0.  1.
<mgrwt>
<rscale>  0 0.17637007E+04</rscale>
<asrwt>0</asrwt>
<pdfrwt beam="1">  1        1 0.23576950E+00 0.17637007E+04</pdfrwt>
<pdfrwt beam="2">  1       -2 0.78068429E-01 0.17637007E+04</pdfrwt>
<totfact> 0.75339723E+00</totfact>
</mgrwt>
</event>
<event>
12    5  0.5095719E-008  0.1290245E+04  0.7818608E-02  0.9037337E-01
          1   -1    0    0  501    0  0.00000000000E+00  0.00000000000E+00  0.21455304195E+04  0.21455304195E+04  0.00000000000E+00 0. -1.
         -2   -1    0    0    0  501 -0.00000000000E+00 -0.00000000000E+00 -0.19397671185E+03  0.19397671185E+03  0.00000000000E+00 0.  1.
        -24    2    1    2    0    0  0.33772447051E+02 -0.32602671226E+03  0.51331838613E+03  0.61417669321E+03  0.79266951875E+02 0.  0.
        254    2    1    2    0    0 -0.33772447051E+02  0.32602671226E+03  0.14382353216E+04  0.17253304382E+04  0.89488003968E+03 0.  0.
         23    2    4    4    0    0  0.41656742759E+03  0.15876637591E+03  0.57078285633E+03  0.72963090031E+03  0.88504224546E+02 0.  0.
         23    2    4    4    0    0 -0.45033987464E+03  0.16726033635E+03  0.86745246523E+03  0.99569953786E+03  0.90342500834E+02 0.  0.
          3    1    3    3  502    0 -0.20701726415E+02 -0.67376542493E+02  0.14017307918E+03  0.15689694733E+03  0.00000000000E+00 0. -1.
         -4    1    3    3    0  502  0.54474173466E+02 -0.25865016977E+03  0.37314530696E+03  0.45727974589E+03  0.00000000000E+00 0.  1.
         13    1    5    5    0    0  0.14329192653E+03  0.11649466089E+02  0.16710581261E+03  0.22043738085E+03  0.00000000000E+00 0.  1.
        -13    1    5    5    0    0  0.27327550106E+03  0.14711690982E+03  0.40367704372E+03  0.50919351946E+03  0.00000000000E+00 0. -1.
          3    1    6    6  503    0 -0.15746345383E+03  0.18971495053E+02  0.24222663806E+03  0.28953134736E+03  0.00000000000E+00 0. -1.
         -3    1    6    6    0  503 -0.29287642081E+03  0.14828884130E+03  0.62522582717E+03  0.70616819050E+03  0.00000000000E+00 0.  1.
<mgrwt>
<rscale>  0 0.12902448E+04</rscale>
<asrwt>0</asrwt>
<pdfrwt beam="1">  1        1 0.33008159E+00 0.12902448E+04</pdfrwt>
<pdfrwt beam="2">  1       -2 0.29842573E-01 0.12902448E+04</pdfrwt>
<totfact> 0.21257340E+01</totfact>
</mgrwt>
</event>
<event>
12    5  0.5095719E-008  0.2411925E+04  0.7818608E-02  0.8435052E-01
         -2   -1    0    0    0  501 -0.00000000000E+00  0.00000000000E+00  0.92095981842E+03  0.92095981842E+03  0.00000000000E+00 0.  1.
          1   -1    0    0  501    0  0.00000000000E+00 -0.00000000000E+00 -0.15791635008E+04  0.15791635008E+04  0.00000000000E+00 0. -1.
        -24    2    1    2    0    0  0.53073708664E+03 -0.87508011649E+03 -0.92117951879E+02  0.10305812521E+04  0.78517098170E+02 0.  0.
        254    2    1    2    0    0 -0.53073708664E+03  0.87508011649E+03 -0.56608573046E+03  0.14695420671E+04  0.88974927214E+03 0.  0.
         23    2    4    4    0    0 -0.35057668165E+03  0.65235989040E+03  0.87255859070E+02  0.75112490879E+03  0.89986706447E+02 0.  0.
         23    2    4    4    0    0 -0.18016040499E+03  0.22272022609E+03 -0.65334158953E+03  0.71841715828E+03  0.84887632086E+02 0.  0.
          1    1    3    3  502    0  0.11190657816E+03 -0.13068392317E+03 -0.24319564299E+02  0.17376078734E+03  0.00000000000E+00 0. -1.
         -2    1    3    3    0  502  0.41883050848E+03 -0.74439619332E+03 -0.67798387579E+02  0.85682046476E+03  0.00000000000E+00 0.  1.
         13    1    5    5    0    0 -0.20996888022E+03  0.29802729720E+03  0.52638112887E+02  0.36834490829E+03  0.00000000000E+00 0.  1.
        -13    1    5    5    0    0 -0.14060780143E+03  0.35433259320E+03  0.34617746183E+02  0.38278000050E+03  0.00000000000E+00 0. -1.
          2    1    6    6  503    0 -0.17461466508E+03  0.16551688689E+03 -0.54597824222E+03  0.59663922272E+03  0.00000000000E+00 0. -1.
         -2    1    6    6    0  503 -0.55457399062E+01  0.57203339197E+02 -0.10736334730E+03  0.12177793556E+03  0.00000000000E+00 0.  1.
<mgrwt>
<rscale>  0 0.24119255E+04</rscale>
<asrwt>0</asrwt>
<pdfrwt beam="1">  1        1 0.24294823E+00 0.24119255E+04</pdfrwt>
<pdfrwt beam="2">  1       -2 0.14168613E+00 0.24119255E+04</pdfrwt>
<totfact> 0.15784373E+00</totfact>
</mgrwt>
</event>
<event>
12    5  0.5095719E-008  0.1541736E+04  0.7818608E-02  0.8857164E-01
         -2   -1    0    0    0  501 -0.00000000000E+00  0.00000000000E+00  0.10849435950E+04  0.10849435950E+04  0.00000000000E+00 0.  1.
          1   -1    0    0  501    0  0.00000000000E+00 -0.00000000000E+00 -0.54771246949E+03  0.54771246949E+03  0.00000000000E+00 0. -1.
        -24    2    1    2    0    0 -0.24565672131E+03 -0.26443336569E+03 -0.18207285292E+03  0.41199169060E+03  0.79463197386E+02 0.  0.
        254    2    1    2    0    0  0.24565672131E+03  0.26443336569E+03  0.71930397840E+03  0.12206643739E+04  0.91779685696E+03 0.  0.
         23    2    4    4    0    0  0.45985425827E+02  0.57912591869E+03  0.32818173729E+03  0.67329084123E+03  0.90087818860E+02 0.  0.
         23    2    4    4    0    0  0.19967129548E+03 -0.31469255300E+03  0.39112224111E+03  0.54737353263E+03  0.87983791580E+02 0.  0.
          1    1    3    3  502    0 -0.11944060768E+03 -0.11326895446E+03 -0.40681581957E+02  0.16956092096E+03  0.00000000000E+00 0. -1.
         -2    1    3    3    0  502 -0.12621611363E+03 -0.15116441123E+03 -0.14139127097E+03  0.24243076964E+03  0.00000000000E+00 0.  1.
         13    1    5    5    0    0  0.55626127328E+02  0.56349575868E+03  0.32905882182E+03  0.65490567589E+03  0.00000000000E+00 0. -1.
        -13    1    5    5    0    0 -0.96407015009E+01  0.15630160010E+02 -0.87708453252E+00  0.18385165341E+02  0.00000000000E+00 0.  1.
          1    1    6    6  503    0  0.16086727495E+03 -0.30007791668E+03  0.33554864414E+03  0.47803548907E+03  0.00000000000E+00 0. -1.
         -1    1    6    6    0  503  0.38804020531E+02 -0.14614636317E+02  0.55573596966E+02  0.69338043553E+02  0.00000000000E+00 0.  1.
<mgrwt>
<rscale>  0 0.15417356E+04</rscale>
<asrwt>0</asrwt>
<pdfrwt beam="1">  1        1 0.84263457E-01 0.15417356E+04</pdfrwt>
<pdfrwt beam="2">  1       -2 0.16691440E+00 0.15417356E+04</pdfrwt>
<totfact> 0.73742416E+00</totfact>
</mgrwt>
</event>
<event>
12    5  0.5095719E-008  0.1903261E+04  0.7818608E-02  0.8653235E-01
         -2   -1    0    0    0  501 -0.00000000000E+00  0.00000000000E+00  0.79818900052E+03  0.79818900052E+03  0.00000000000E+00 0.  1.
          1   -1    0    0  501    0  0.00000000000E+00 -0.00000000000E+00 -0.11345695264E+04  0.11345695264E+04  0.00000000000E+00 0. -1.
        -24    2    1    2    0    0  0.55867267813E+03  0.15690813579E+03  0.33004045875E+03  0.67247234538E+03  0.80975468631E+02 0.  0.
        254    2    1    2    0    0 -0.55867267813E+03 -0.15690813579E+03 -0.66642098464E+03  0.12602861815E+04  0.89859279224E+03 0.  0.
         23    2    4    4    0    0  0.81771620122E+02 -0.33483944063E+03 -0.40779037399E+03  0.54132550983E+03  0.89085743041E+02 0.  0.
         23    2    4    4    0    0 -0.64044429825E+03  0.17793130483E+03 -0.25863061064E+03  0.71896067172E+03  0.90477656437E+02 0.  0.
          1    1    3    3  502    0  0.13678145403E+03  0.31812824857E+01  0.72784703690E+02  0.15497386817E+03  0.00000000000E+00 0. -1.
         -2    1    3    3    0  502  0.42189122410E+03  0.15372685331E+03  0.25725575506E+03  0.51749847721E+03  0.00000000000E+00 0.  1.
         13    1    5    5    0    0  0.92115562207E+02 -0.32205417760E+03 -0.36461715784E+03  0.49512608687E+03  0.00000000000E+00 0. -1.
        -13    1    5    5    0    0 -0.10343942085E+02 -0.12785263027E+02 -0.43173216152E+02  0.46199422956E+02  0.00000000000E+00 0.  1.
          2    1    6    6  503    0 -0.40002326160E+03  0.91627776392E+02 -0.20161100251E+03  0.45723216811E+03  0.00000000000E+00 0. -1.
         -2    1    6    6    0  503 -0.24042103666E+03  0.86303528442E+02 -0.57019608132E+02  0.26172850361E+03  0.00000000000E+00 0.  1.
<mgrwt>
<rscale>  0 0.19032613E+04</rscale>
<asrwt>0</asrwt>
<pdfrwt beam="1">  1        1 0.17454916E+00 0.19032613E+04</pdfrwt>
<pdfrwt beam="2">  1       -2 0.12279831E+00 0.19032613E+04</pdfrwt>
<totfact> 0.49119277E+00</totfact>
</mgrwt>
</event>
<event>
12    5  0.5095719E-008  0.1481030E+04  0.7818608E-02  0.8897167E-01
          1   -1    0    0  501    0  0.00000000000E+00  0.00000000000E+00  0.89629668079E+03  0.89629668079E+03  0.00000000000E+00 0. -1.
         -2   -1    0    0    0  501 -0.00000000000E+00 -0.00000000000E+00 -0.61180914709E+03  0.61180914709E+03  0.00000000000E+00 0.  1.
        -24    2    1    2    0    0 -0.21458235877E+03 -0.23498453248E+03  0.43917604861E+03  0.54805004875E+03  0.78866564890E+02 0.  0.
        254    2    1    2    0    0  0.21458235877E+03  0.23498453248E+03 -0.15468851491E+03  0.96005577914E+03  0.89247702671E+03 0.  0.
         23    2    4    4    0    0  0.48210840512E+03  0.29684569548E+03  0.90999205950E+02  0.58074381233E+03  0.91851177751E+02 0.  0.
         23    2    4    4    0    0 -0.26752604635E+03 -0.61861163002E+02 -0.24568772086E+03  0.37931196681E+03  0.90100627190E+02 0.  0.
          1    1    3    3  502    0 -0.16490315056E+03 -0.14362563610E+03  0.34061491865E+03  0.40477141107E+03  0.00000000000E+00 0. -1.
         -2    1    3    3    0  502 -0.49679208218E+02 -0.91358896382E+02  0.98561129955E+02  0.14327863768E+03  0.00000000000E+00 0.  1.
         13    1    5    5    0    0  0.16405359397E+03  0.55895705606E+02  0.45156178699E+02  0.17910050830E+03  0.00000000000E+00 0.  1.
        -13    1    5    5    0    0  0.31805481116E+03  0.24094998988E+03  0.45843027251E+02  0.40164330403E+03  0.00000000000E+00 0. -1.
          3    1    6    6  503    0 -0.26692620896E+03 -0.43338206488E+02 -0.23136327235E+03  0.35588869744E+03  0.00000000000E+00 0. -1.
         -3    1    6    6    0  503 -0.59983738743E+00 -0.18522956513E+02 -0.14324448516E+02  0.23423269374E+02  0.00000000000E+00 0.  1.
<mgrwt>
<rscale>  0 0.14810301E+04</rscale>
<asrwt>0</asrwt>
<pdfrwt beam="1">  1        1 0.13789180E+00 0.14810301E+04</pdfrwt>
<pdfrwt beam="2">  1       -2 0.94124483E-01 0.14810301E+04</pdfrwt>
<totfact> 0.14818590E+01</totfact>
</mgrwt>
</event>
<event>
12    5  0.5095719E-008  0.1308894E+04  0.7818608E-02  0.9022542E-01
          1   -1    0    0  501    0  0.00000000000E+00  0.00000000000E+00  0.11378832179E+04  0.11378832179E+04  0.00000000000E+00 0. -1.
         -2   -1    0    0    0  501 -0.00000000000E+00 -0.00000000000E+00 -0.37640125068E+03  0.37640125068E+03  0.00000000000E+00 0.  1.
        -24    2    1    2    0    0  0.11011917167E+03 -0.29339959870E+03  0.58928863980E+02  0.32970520182E+03  0.83805444995E+02 0.  0.
        254    2    1    2    0    0 -0.11011917167E+03  0.29339959870E+03  0.70255310325E+03  0.11845792668E+04  0.90079832366E+03 0.  0.
         23    2    4    4    0    0 -0.49318636338E+03  0.17102033105E+03  0.30479578655E+03  0.61149556843E+03  0.92442501318E+02 0.  0.
         23    2    4    4    0    0  0.38306719171E+03  0.12237926765E+03  0.39775731670E+03  0.57308369835E+03  0.92178543126E+02 0.  0.
          1    1    3    3  502    0 -0.25485526973E+01 -0.57978516323E+02 -0.11965898004E+02  0.59255262980E+02  0.00000000000E+00 0. -1.
         -2    1    3    3    0  502  0.11266772437E+03 -0.23542108237E+03  0.70894761984E+02  0.27044993884E+03  0.00000000000E+00 0.  1.
         13    1    5    5    0    0 -0.46660853588E+03  0.13615585116E+03  0.28424308097E+03  0.56307732208E+03  0.00000000000E+00 0. -1.
        -13    1    5    5    0    0 -0.26577827505E+02  0.34864479892E+02  0.20552705573E+02  0.48418246348E+02  0.00000000000E+00 0.  1.
          2    1    6    6  503    0  0.12399421682E+03  0.59137904592E+02  0.19283139762E+03  0.23676107254E+03  0.00000000000E+00 0.  1.
         -2    1    6    6    0  503  0.25907297489E+03  0.63241363056E+02  0.20492591909E+03  0.33632262581E+03  0.00000000000E+00 0. -1.
<mgrwt>
<rscale>  0 0.13088937E+04</rscale>
<asrwt>0</asrwt>
<pdfrwt beam="1">  1        1 0.17505896E+00 0.13088937E+04</pdfrwt>
<pdfrwt beam="2">  1       -2 0.57907885E-01 0.13088937E+04</pdfrwt>
<totfact> 0.28543163E+01</totfact>
</mgrwt>
</event>
<event>
12    5  0.5095719E-008  0.1102609E+04  0.7818608E-02  0.9202653E-01
          1   -1    0    0  501    0  0.00000000000E+00  0.00000000000E+00  0.19415566826E+04  0.19415566826E+04  0.00000000000E+00 0. -1.
         -2   -1    0    0    0  501 -0.00000000000E+00 -0.00000000000E+00 -0.15654281403E+03  0.15654281403E+03  0.00000000000E+00 0.  1.
        -24    2    1    2    0    0 -0.71805513444E+02  0.12400863991E+03  0.13183564731E+03  0.21071115558E+03  0.80525639700E+02 0.  0.
        254    2    1    2    0    0  0.71805513444E+02 -0.12400863991E+03  0.16531782212E+04  0.18873883410E+04  0.89927879113E+03 0.  0.
         23    2    4    4    0    0 -0.24137223796E+03 -0.40288917500E+03  0.79877491319E+03  0.93149613716E+03  0.95202137614E+02 0.  0.
         23    2    4    4    0    0  0.31317775141E+03  0.27888053509E+03  0.85440330802E+03  0.95589220386E+03  0.88714349536E+02 0.  0.
          3    1    3    3  502    0 -0.56070808694E-01 -0.10490866690E+02  0.16512077702E+02  0.19562978758E+02  0.00000000000E+00 0. -1.
         -4    1    3    3    0  502 -0.71749442635E+02  0.13449950660E+03  0.11532356961E+03  0.19114817682E+03  0.00000000000E+00 0.  1.
         13    1    5    5    0    0 -0.17513582584E+02 -0.10922937718E+02  0.10565438256E+02  0.23187596444E+02  0.00000000000E+00 0. -1.
        -13    1    5    5    0    0 -0.22385865538E+03 -0.39196623728E+03  0.78820947493E+03  0.90830854071E+03  0.00000000000E+00 0.  1.
          3    1    6    6  503    0  0.28139657004E+02  0.33940894084E+01  0.30804538689E+02  0.41860240600E+02  0.00000000000E+00 0. -1.
         -3    1    6    6    0  503  0.28503809440E+03  0.27548644568E+03  0.82359876933E+03  0.91403196326E+03  0.00000000000E+00 0.  1.
<mgrwt>
<rscale>  0 0.11026092E+04</rscale>
<asrwt>0</asrwt>
<pdfrwt beam="1">  1        1 0.29870101E+00 0.11026092E+04</pdfrwt>
<pdfrwt beam="2">  1       -2 0.24083511E-01 0.11026092E+04</pdfrwt>
<totfact> 0.43936506E+01</totfact>
</mgrwt>
</event>
<event>
12    5  0.5095719E-008  0.1334351E+04  0.7818608E-02  0.9002759E-01
          1   -1    0    0  501    0  0.00000000000E+00  0.00000000000E+00  0.14824932416E+04  0.14824932416E+04  0.00000000000E+00 0. -1.
         -2   -1    0    0    0  501 -0.00000000000E+00 -0.00000000000E+00 -0.30025328142E+03  0.30025328142E+03  0.00000000000E+00 0.  1.
        -24    2    1    2    0    0 -0.32077631481E+02  0.13779906832E+03 -0.98026605197E+02  0.18944890582E+03  0.79146161756E+02 0.  0.
        254    2    1    2    0    0  0.32077631481E+02 -0.13779906832E+03  0.12802665654E+04  0.15932976172E+04  0.93781515283E+03 0.  0.
         23    2    4    4    0    0  0.32216724302E+03 -0.41613852404E+03  0.68055356070E+03  0.86508017666E+03  0.90816074651E+02 0.  0.
         23    2    4    4    0    0 -0.29008961154E+03  0.27833945572E+03  0.59971300468E+03  0.72821744054E+03  0.94974298565E+02 0.  0.
          3    1    3    3  502    0 -0.57940378711E+02  0.80051646902E+02 -0.61282828236E+02  0.11627957126E+03  0.00000000000E+00 0. -1.
         -4    1    3    3    0  502  0.25862747230E+02  0.57747421417E+02 -0.36743776960E+02  0.73169334560E+02  0.00000000000E+00 0.  1.
         13    1    5    5    0    0  0.68794676211E+02 -0.67132665677E+02  0.76414033408E+02  0.12279497863E+03  0.00000000000E+00 0.  1.
        -13    1    5    5    0    0  0.25337256681E+03 -0.34900585836E+03  0.60413952729E+03  0.74228519803E+03  0.00000000000E+00 0. -1.
          2    1    6    6  503    0 -0.20496313060E+03  0.15296785174E+03  0.31560880076E+03  0.40622403140E+03  0.00000000000E+00 0. -1.
         -2    1    6    6    0  503 -0.85126480937E+02  0.12537160398E+03  0.28410420392E+03  0.32199340914E+03  0.00000000000E+00 0.  1.
<mgrwt>
<rscale>  0 0.13343515E+04</rscale>
<asrwt>0</asrwt>
<pdfrwt beam="1">  1        1 0.22807588E+00 0.13343515E+04</pdfrwt>
<pdfrwt beam="2">  1       -2 0.46192813E-01 0.13343515E+04</pdfrwt>
<totfact> 0.25703401E+01</totfact>
</mgrwt>
</event>
<event>
12    5  0.5095719E-008  0.1865212E+04  0.7818608E-02  0.8672369E-01
         -2   -1    0    0    0  501 -0.00000000000E+00  0.00000000000E+00  0.90660147246E+03  0.90660147246E+03  0.00000000000E+00 0.  1.
          1   -1    0    0  501    0  0.00000000000E+00 -0.00000000000E+00 -0.95935639609E+03  0.95935639609E+03  0.00000000000E+00 0. -1.
        -24    2    1    2    0    0 -0.19759939363E+03  0.57132986658E+03  0.37228784831E+03  0.71338595108E+03  0.69698897975E+02 0.  0.
        254    2    1    2    0    0  0.19759939363E+03 -0.57132986658E+03 -0.42504277195E+03  0.11525719175E+04  0.88447573745E+03 0.  0.
         23    2    4    4    0    0 -0.12990727436E+03 -0.54795387387E+03 -0.54767807947E+03  0.79061223341E+03  0.89370448417E+02 0.  0.
         23    2    4    4    0    0  0.32750666800E+03 -0.23375992712E+02  0.12263530753E+03  0.36195968406E+03  0.90378867095E+02 0.  0.
          1    1    3    3  502    0 -0.13409234700E+02  0.22461205307E+02  0.21910426597E+01  0.26250980687E+02  0.00000000000E+00 0. -1.
         -2    1    3    3    0  502 -0.18419015893E+03  0.54886866128E+03  0.37009680565E+03  0.68713497039E+03  0.00000000000E+00 0.  1.
         13    1    5    5    0    0 -0.64724470253E+02 -0.36035640386E+03 -0.40572565270E+03  0.54649730110E+03  0.00000000000E+00 0.  1.
        -13    1    5    5    0    0 -0.65182804107E+02 -0.18759747002E+03 -0.14195242677E+03  0.24411493231E+03  0.00000000000E+00 0. -1.
          3    1    6    6  503    0  0.34959302343E+02  0.60806938315E+01 -0.13475650735E+02  0.37956828378E+02  0.00000000000E+00 0. -1.
         -3    1    6    6    0  503  0.29254736565E+03 -0.29456686543E+02  0.13611095826E+03  0.32400285568E+03  0.00000000000E+00 0.  1.
<mgrwt>
<rscale>  0 0.18652120E+04</rscale>
<asrwt>0</asrwt>
<pdfrwt beam="1">  1        1 0.14759329E+00 0.18652120E+04</pdfrwt>
<pdfrwt beam="2">  1       -2 0.13947715E+00 0.18652120E+04</pdfrwt>
<totfact> 0.48593387E+00</totfact>
</mgrwt>
</event>
<event>
12    5  0.5095719E-008  0.1717223E+04  0.7818608E-02  0.8751602E-01
         -2   -1    0    0    0  501 -0.00000000000E+00  0.00000000000E+00  0.11676199334E+04  0.11676199334E+04  0.00000000000E+00 0.  1.
          1   -1    0    0  501    0  0.00000000000E+00 -0.00000000000E+00 -0.63138187440E+03  0.63138187440E+03  0.00000000000E+00 0. -1.
        -24    2    1    2    0    0 -0.16382213517E+03  0.23019971973E+03 -0.38682781685E+03  0.48557523092E+03  0.79485483347E+02 0.  0.
        254    2    1    2    0    0  0.16382213517E+03 -0.23019971973E+03  0.92306587585E+03  0.13134265769E+04  0.89062290492E+03 0.  0.
         23    2    4    4    0    0  0.73391775409E+02 -0.32195057459E+03 -0.33981860350E+02  0.34333785309E+03  0.87678899141E+02 0.  0.
         23    2    4    4    0    0  0.90430359766E+02  0.91750854860E+02  0.95704773620E+03  0.97008872379E+03  0.92389898444E+02 0.  0.
          1    1    3    3  502    0 -0.16483998576E+03  0.21759281290E+03 -0.33455392066E+03  0.43179298161E+03  0.00000000000E+00 0. -1.
         -2    1    3    3    0  502  0.10178505880E+01  0.12606906832E+02 -0.52273896182E+02  0.53782249318E+02  0.00000000000E+00 0.  1.
         13    1    5    5    0    0  0.44347138718E+02 -0.30450750099E+03 -0.28811992097E+02  0.30906571755E+03  0.00000000000E+00 0. -1.
        -13    1    5    5    0    0  0.29044636691E+02 -0.17443073600E+02 -0.51698682531E+01  0.34272135546E+02  0.00000000000E+00 0.  1.
          2    1    6    6  503    0  0.55200614575E+02  0.59334591758E+02  0.83598169948E+03  0.83990065097E+03  0.00000000000E+00 0.  1.
         -2    1    6    6    0  503  0.35229745191E+02  0.32416263103E+02  0.12106603672E+03  0.13018807283E+03  0.00000000000E+00 0. -1.
<mgrwt>
<rscale>  0 0.17172234E+04</rscale>
<asrwt>0</asrwt>
<pdfrwt beam="1">  1        1 0.97135673E-01 0.17172234E+04</pdfrwt>
<pdfrwt beam="2">  1       -2 0.17963384E+00 0.17172234E+04</pdfrwt>
<totfact> 0.48197679E+00</totfact>
</mgrwt>
</event>
<event>
12    5  0.5095719E-008  0.1376721E+04  0.7818608E-02  0.8970844E-01
         -2   -1    0    0    0  501 -0.00000000000E+00  0.00000000000E+00  0.31413795232E+03  0.31413795232E+03  0.00000000000E+00 0.  1.
          1   -1    0    0  501    0  0.00000000000E+00 -0.00000000000E+00 -0.15083814795E+04  0.15083814795E+04  0.00000000000E+00 0. -1.
        -24    2    1    2    0    0  0.26812972038E+03  0.10426269681E+03 -0.72077935059E+03  0.78033669191E+03  0.81475294430E+02 0.  0.
        254    2    1    2    0    0 -0.26812972038E+03 -0.10426269681E+03 -0.47346417660E+03  0.10421827399E+04  0.88273001535E+03 0.  0.
         23    2    4    4    0    0 -0.28601591279E+03  0.33851079265E+03 -0.35313911107E+03  0.57421730205E+03  0.92863443254E+02 0.  0.
         23    2    4    4    0    0  0.17886192411E+02 -0.44277348946E+03 -0.12032506553E+03  0.46796543788E+03  0.90251043249E+02 0.  0.
          1    1    3    3  502    0  0.18412753357E+03  0.52947139811E+02 -0.55946402078E+03  0.59135973720E+03  0.00000000000E+00 0. -1.
         -2    1    3    3    0  502  0.84002186814E+02  0.51315556996E+02 -0.16131532981E+03  0.18897695471E+03  0.00000000000E+00 0.  1.
         13    1    5    5    0    0 -0.19813513193E+03  0.22259592803E+03 -0.18025624646E+03  0.34827976121E+03  0.00000000000E+00 0.  1.
        -13    1    5    5    0    0 -0.87880780860E+02  0.11591486462E+03 -0.17288286460E+03  0.22593754084E+03  0.00000000000E+00 0. -1.
          4    1    6    6  503    0  0.27499232125E+02 -0.11144943267E+03  0.15601574053E+01  0.11480251696E+03  0.00000000000E+00 0. -1.
         -4    1    6    6    0  503 -0.96130397139E+01 -0.33132405679E+03 -0.12188522294E+03  0.35316292092E+03  0.00000000000E+00 0.  1.
<mgrwt>
<rscale>  0 0.13767206E+04</rscale>
<asrwt>0</asrwt>
<pdfrwt beam="1">  1        1 0.23205868E+00 0.13767206E+04</pdfrwt>
<pdfrwt beam="2">  1       -2 0.48328917E-01 0.13767206E+04</pdfrwt>
<totfact> 0.22436421E+01</totfact>
</mgrwt>
</event>
<event>
12    5  0.5095719E-008  0.1407283E+04  0.7818608E-02  0.8948564E-01
         -2   -1    0    0    0  501 -0.00000000000E+00  0.00000000000E+00  0.33050417601E+03  0.33050417601E+03  0.00000000000E+00 0.  1.
          1   -1    0    0  501    0  0.00000000000E+00 -0.00000000000E+00 -0.14980479934E+04  0.14980479934E+04  0.00000000000E+00 0. -1.
        -24    2    1    2    0    0 -0.16360854229E+03  0.30057283235E+03 -0.68684831350E+03  0.77127630772E+03  0.77425799491E+02 0.  0.
        254    2    1    2    0    0  0.16360854229E+03 -0.30057283235E+03 -0.48069550390E+03  0.10572758617E+04  0.87729829454E+03 0.  0.
         23    2    4    4    0    0  0.42268074476E+03  0.10319364110E+03 -0.16055451520E+03  0.47333760653E+03  0.94672054199E+02 0.  0.
         23    2    4    4    0    0 -0.25907220247E+03 -0.40376647345E+03 -0.32014098870E+03  0.58393825518E+03  0.91366635237E+02 0.  0.
          1    1    3    3  502    0 -0.16374230687E+03  0.30316264773E+03 -0.66206127068E+03  0.74635397780E+03  0.00000000000E+00 0. -1.
         -2    1    3    3    0  502  0.13376458293E+00 -0.25898153837E+01 -0.24787042822E+02  0.24922329918E+02  0.00000000000E+00 0.  1.
         13    1    5    5    0    0  0.81784385935E+01  0.12485071085E+02  0.78080559498E+01  0.16844274860E+02  0.00000000000E+00 0. -1.
        -13    1    5    5    0    0  0.41450230617E+03  0.90708570014E+02 -0.16836257115E+03  0.45649333167E+03  0.00000000000E+00 0.  1.
          3    1    6    6  503    0  0.23107393067E+01 -0.40171894420E+02 -0.32420757409E+02  0.51674230797E+02  0.00000000000E+00 0. -1.
         -3    1    6    6    0  503 -0.26138294178E+03 -0.36359457903E+03 -0.28772023129E+03  0.53226402438E+03  0.00000000000E+00 0.  1.
<mgrwt>
<rscale>  0 0.14072827E+04</rscale>
<asrwt>0</asrwt>
<pdfrwt beam="1">  1        1 0.23046892E+00 0.14072827E+04</pdfrwt>
<pdfrwt beam="2">  1       -2 0.50846796E-01 0.14072827E+04</pdfrwt>
<totfact> 0.20516088E+01</totfact>
</mgrwt>
</event>
<event>
12    5  0.5095719E-008  0.1351877E+04  0.7818608E-02  0.8989409E-01
         -2   -1    0    0    0  501 -0.00000000000E+00  0.00000000000E+00  0.38654531865E+03  0.38654531865E+03  0.00000000000E+00 0.  1.
          1   -1    0    0  501    0  0.00000000000E+00 -0.00000000000E+00 -0.11819901200E+04  0.11819901200E+04  0.00000000000E+00 0. -1.
        -24    2    1    2    0    0  0.15513934221E+03  0.20337475571E+03  0.83572922497E+02  0.28078969585E+03  0.80180503615E+02 0.  0.
        254    2    1    2    0    0 -0.15513934221E+03 -0.20337475571E+03 -0.87901772388E+03  0.12877457428E+04  0.90564200021E+03 0.  0.
         23    2    4    4    0    0  0.18143355981E+03 -0.25625328452E+03 -0.87613776258E+03  0.93520027508E+03  0.91642201214E+02 0.  0.
         23    2    4    4    0    0 -0.33657290202E+03  0.52878528808E+02 -0.28799612960E+01  0.35254546775E+03  0.90567960506E+02 0.  0.
          1    1    3    3  502    0  0.99244543149E+02  0.66731979265E+02  0.26399847290E+02  0.12247280653E+03  0.00000000000E+00 0. -1.
         -2    1    3    3    0  502  0.55894799057E+02  0.13664277644E+03  0.57173075207E+02  0.15831688932E+03  0.00000000000E+00 0.  1.
         13    1    5    5    0    0  0.54029641679E+01 -0.38447328464E+02 -0.52795106403E+02  0.65534054871E+02  0.00000000000E+00 0.  1.
        -13    1    5    5    0    0  0.17603059565E+03 -0.21780595605E+03 -0.82334265618E+03  0.86966622021E+03  0.00000000000E+00 0. -1.
          2    1    6    6  503    0 -0.24640632041E+03  0.21967168653E+01  0.17822093145E+02  0.24705976465E+03  0.00000000000E+00 0. -1.
         -2    1    6    6    0  503 -0.90166581612E+02  0.50681811943E+02 -0.20702054441E+02  0.10548570310E+03  0.00000000000E+00 0.  1.
<mgrwt>
<rscale>  0 0.13518768E+04</rscale>
<asrwt>0</asrwt>
<pdfrwt beam="1">  1        1 0.18184463E+00 0.13518768E+04</pdfrwt>
<pdfrwt beam="2">  1       -2 0.59468511E-01 0.13518768E+04</pdfrwt>
<totfact> 0.24953361E+01</totfact>
</mgrwt>
</event>
<event>
12    5  0.5095719E-008  0.1627054E+04  0.7818608E-02  0.8804098E-01
         -2   -1    0    0    0  501 -0.00000000000E+00  0.00000000000E+00  0.35312426291E+03  0.35312426291E+03  0.00000000000E+00 0.  1.
          1   -1    0    0  501    0  0.00000000000E+00 -0.00000000000E+00 -0.18742010796E+04  0.18742010796E+04  0.00000000000E+00 0. -1.
        -24    2    1    2    0    0 -0.16904703587E+03 -0.47230752341E+02 -0.12662861095E+04  0.12809310423E+04  0.80598882933E+02 0.  0.
        254    2    1    2    0    0  0.16904703587E+03  0.47230752341E+02 -0.25479070720E+03  0.94639430013E+03  0.89439153761E+03 0.  0.
         23    2    4    4    0    0  0.31858593877E+03 -0.29825097679E+03  0.57388219873E+02  0.44871668347E+03  0.87192939519E+02 0.  0.
         23    2    4    4    0    0 -0.14953890291E+03  0.34548172913E+03 -0.31217892707E+03  0.49767761667E+03  0.92237839185E+02 0.  0.
          3    1    3    3  502    0 -0.16923398103E+03 -0.36464575442E+02 -0.10337249160E+04  0.10481207027E+04  0.00000000000E+00 0. -1.
         -4    1    3    3    0  502  0.18694516292E+00 -0.10766176899E+02 -0.23256119349E+03  0.23281033961E+03  0.00000000000E+00 0.  1.
         13    1    5    5    0    0  0.85132627641E+02 -0.35314509540E+02  0.25643293130E+02  0.95667431008E+02  0.00000000000E+00 0. -1.
        -13    1    5    5    0    0  0.23345331113E+03 -0.26293646725E+03  0.31744926743E+02  0.35304925246E+03  0.00000000000E+00 0.  1.
          3    1    6    6  503    0  0.81909748823E+01  0.65012236797E+02 -0.45793927675E+02  0.79942271764E+02  0.00000000000E+00 0. -1.
         -3    1    6    6    0  503 -0.15772987779E+03  0.28046949233E+03 -0.26638499940E+03  0.41773534490E+03  0.00000000000E+00 0.  1.
<mgrwt>
<rscale>  0 0.16270536E+04</rscale>
<asrwt>0</asrwt>
<pdfrwt beam="1">  1        1 0.28833863E+00 0.16270536E+04</pdfrwt>
<pdfrwt beam="2">  1       -2 0.54326810E-01 0.16270536E+04</pdfrwt>
<totfact> 0.97263033E+00</totfact>
</mgrwt>
</event>
<event>
12    5  0.5095719E-008  0.2918743E+04  0.7818608E-02  0.8267323E-01
          1   -1    0    0  501    0  0.00000000000E+00  0.00000000000E+00  0.17446011583E+04  0.17446011583E+04  0.00000000000E+00 0. -1.
         -2   -1    0    0    0  501 -0.00000000000E+00 -0.00000000000E+00 -0.12207752347E+04  0.12207752347E+04  0.00000000000E+00 0.  1.
        -24    2    1    2    0    0  0.11277880237E+04  0.19862921654E+03 -0.42503924781E+03  0.12242014592E+04  0.81556474171E+02 0.  0.
        254    2    1    2    0    0 -0.11277880237E+04 -0.19862921654E+03  0.94886517141E+03  0.17411749339E+04  0.90553058749E+03 0.  0.
         23    2    4    4    0    0 -0.68370471148E+01  0.22418114774E+03  0.26146081976E+03  0.35638662334E+03  0.91354982405E+02 0.  0.
         23    2    4    4    0    0 -0.11209509765E+04 -0.42281036428E+03  0.68740435165E+03  0.13847883105E+04  0.99066777413E+02 0.  0.
          1    1    3    3  502    0  0.33618243615E+03  0.79658933573E+02 -0.94795419306E+02  0.35826016747E+03  0.00000000000E+00 0. -1.
         -2    1    3    3    0  502  0.79160558751E+03  0.11897028296E+03 -0.33024382850E+03  0.86594129170E+03  0.00000000000E+00 0.  1.
         13    1    5    5    0    0 -0.48563125348E+02  0.99908345135E+02  0.12022969033E+03  0.16369249527E+03  0.00000000000E+00 0. -1.
        -13    1    5    5    0    0  0.41726078233E+02  0.12427280260E+03  0.14123112943E+03  0.19269412807E+03  0.00000000000E+00 0.  1.
          3    1    6    6  503    0 -0.75771658078E+03 -0.33165535011E+03  0.49173947068E+03  0.96225640817E+03  0.00000000000E+00 0.  1.
         -3    1    6    6    0  503 -0.36323439576E+03 -0.91155014170E+02  0.19566488098E+03  0.42253190237E+03  0.00000000000E+00 0. -1.
<mgrwt>
<rscale>  0 0.29187435E+04</rscale>
<asrwt>0</asrwt>
<pdfrwt beam="1">  1        1 0.26840018E+00 0.29187435E+04</pdfrwt>
<pdfrwt beam="2">  1       -2 0.18781157E+00 0.29187435E+04</pdfrwt>
<totfact> 0.53659347E-01</totfact>
</mgrwt>
</event>
<event>
12    5  0.5095719E-008  0.1586307E+04  0.7818608E-02  0.8829005E-01
         -2   -1    0    0    0  501 -0.00000000000E+00  0.00000000000E+00  0.23716192062E+03  0.23716192062E+03  0.00000000000E+00 0.  1.
          1   -1    0    0  501    0  0.00000000000E+00 -0.00000000000E+00 -0.26525865472E+04  0.26525865472E+04  0.00000000000E+00 0. -1.
        -24    2    1    2    0    0 -0.43026499735E+03  0.27082273835E+03 -0.11060523639E+04  0.12200321605E+04  0.81570321621E+02 0.  0.
        254    2    1    2    0    0  0.43026499735E+03 -0.27082273835E+03 -0.13093722627E+04  0.16697163074E+04  0.90278674181E+03 0.  0.
         23    2    4    4    0    0 -0.20846131862E+03  0.12018578751E+03 -0.19116703926E+03  0.32081368152E+03  0.92064306145E+02 0.  0.
         23    2    4    4    0    0  0.63872631597E+03 -0.39100852586E+03 -0.11182052234E+04  0.13489026258E+04  0.91084566536E+02 0.  0.
          3    1    3    3  502    0 -0.46037147947E+01  0.16612927794E+02 -0.21726378387E+02  0.27734799037E+02  0.00000000000E+00 0. -1.
         -2    1    3    3    0  502 -0.42566128255E+03  0.25420981056E+03 -0.10843259855E+04  0.11922973614E+04  0.00000000000E+00 0.  1.
         13    1    5    5    0    0 -0.17336736746E+03  0.13261978730E+03 -0.14755347205E+03  0.26346969313E+03  0.00000000000E+00 0.  1.
        -13    1    5    5    0    0 -0.35093951163E+02 -0.12433999790E+02 -0.43613567215E+02  0.57343988387E+02  0.00000000000E+00 0. -1.
          1    1    6    6  503    0  0.63340938011E+03 -0.37579379733E+03 -0.10778294929E+04  0.13054289857E+04  0.00000000000E+00 0. -1.
         -1    1    6    6    0  503  0.53169358641E+01 -0.15214728539E+02 -0.40375730523E+02  0.43473640137E+02  0.00000000000E+00 0.  1.
<mgrwt>
<rscale>  0 0.15863071E+04</rscale>
<asrwt>0</asrwt>
<pdfrwt beam="1">  1        1 0.40809021E+00 0.15863071E+04</pdfrwt>
<pdfrwt beam="2">  1       -2 0.36486452E-01 0.15863071E+04</pdfrwt>
<totfact> 0.63410699E+00</totfact>
</mgrwt>
</event>
<event>
12    5  0.5095719E-008  0.2698230E+04  0.7818608E-02  0.8335580E-01
          1   -1    0    0  501    0  0.00000000000E+00  0.00000000000E+00  0.82925471529E+03  0.82925471529E+03  0.00000000000E+00 0. -1.
         -2   -1    0    0    0  501 -0.00000000000E+00 -0.00000000000E+00 -0.21948759741E+04  0.21948759741E+04  0.00000000000E+00 0.  1.
        -24    2    1    2    0    0 -0.31511129145E+03  0.36487983081E+03  0.61851946383E+03  0.78830531366E+03  0.80165600320E+02 0.  0.
        254    2    1    2    0    0  0.31511129145E+03 -0.36487983081E+03 -0.19841407227E+04  0.22358253758E+04  0.91086128835E+03 0.  0.
         23    2    4    4    0    0  0.56149715490E+03 -0.47012229215E+01 -0.90994745823E+03  0.10726874433E+04  0.85748573274E+02 0.  0.
         23    2    4    4    0    0 -0.24638586344E+03 -0.36017860788E+03 -0.10741932644E+04  0.11631379325E+04  0.92542191881E+02 0.  0.
          3    1    3    3  502    0 -0.26002843456E+03  0.24804639240E+03  0.44487488359E+03  0.57188763023E+03  0.00000000000E+00 0. -1.
         -4    1    3    3    0  502 -0.55082856895E+02  0.11683343840E+03  0.17364458024E+03  0.21641768343E+03  0.00000000000E+00 0.  1.
         13    1    5    5    0    0  0.28764949633E+03  0.24719181284E+01 -0.54625342962E+03  0.61736630334E+03  0.00000000000E+00 0.  1.
        -13    1    5    5    0    0  0.27384765856E+03 -0.71731410500E+01 -0.36369402861E+03  0.45532113997E+03  0.00000000000E+00 0. -1.
          3    1    6    6  503    0 -0.18915643359E+03 -0.33144902930E+03 -0.93704522345E+03  0.10117768362E+04  0.00000000000E+00 0. -1.
         -3    1    6    6    0  503 -0.57229429852E+02 -0.28729578581E+02 -0.13714804099E+03  0.15136109630E+03  0.00000000000E+00 0.  1.
<mgrwt>
<rscale>  0 0.26982300E+04</rscale>
<asrwt>0</asrwt>
<pdfrwt beam="1">  1        1 0.12757765E+00 0.26982300E+04</pdfrwt>
<pdfrwt beam="2">  1       -2 0.33767322E+00 0.26982300E+04</pdfrwt>
<totfact> 0.29706382E-01</totfact>
</mgrwt>
</event>
<event>
12    5  0.5095719E-008  0.1630134E+04  0.7818608E-02  0.8802247E-01
         -2   -1    0    0    0  501 -0.00000000000E+00  0.00000000000E+00  0.52178797033E+03  0.52178797033E+03  0.00000000000E+00 0.  1.
          3   -1    0    0  501    0  0.00000000000E+00 -0.00000000000E+00 -0.12731879328E+04  0.12731879328E+04  0.00000000000E+00 0. -1.
        -24    2    1    2    0    0  0.41958114417E+03 -0.65506029953E+02 -0.66781353775E+03  0.79607342333E+03  0.86131281326E+02 0.  0.
        254    2    1    2    0    0 -0.41958114417E+03  0.65506029953E+02 -0.83586424746E+02  0.99890247982E+03  0.90026668121E+03 0.  0.
         23    2    4    4    0    0 -0.13477682367E+03  0.43314294166E+03 -0.20992440106E+03  0.50839761617E+03  0.92856242985E+02 0.  0.
         23    2    4    4    0    0 -0.28480432050E+03 -0.36763691170E+03  0.12633797631E+03  0.49050486366E+03  0.91451283158E+02 0.  0.
          1    1    3    3  502    0  0.19564200343E+03 -0.34004335988E+02 -0.23437441480E+03  0.30718635172E+03  0.00000000000E+00 0. -1.
         -2    1    3    3    0  502  0.22393914074E+03 -0.31501693966E+02 -0.43343912295E+03  0.48888707161E+03  0.00000000000E+00 0.  1.
         13    1    5    5    0    0 -0.10812701576E+03  0.41860648822E+03 -0.19125204844E+03  0.47275806661E+03  0.00000000000E+00 0. -1.
        -13    1    5    5    0    0 -0.26649807911E+02  0.14536453439E+02 -0.18672352621E+02  0.35639549558E+02  0.00000000000E+00 0.  1.
          3    1    6    6  503    0 -0.25637124137E+03 -0.35936386049E+03  0.13113831655E+03  0.46050608649E+03  0.00000000000E+00 0. -1.
         -3    1    6    6    0  503 -0.28433079131E+02 -0.82730512156E+01 -0.48003402368E+01  0.29998777169E+02  0.00000000000E+00 0.  1.
<mgrwt>
<rscale>  0 0.16301339E+04</rscale>
<asrwt>0</asrwt>
<pdfrwt beam="1">  1        3 0.19587506E+00 0.16301339E+04</pdfrwt>
<pdfrwt beam="2">  1       -2 0.80275073E-01 0.16301339E+04</pdfrwt>
<totfact> 0.84455105E-01</totfact>
</mgrwt>
</event>
<event>
12    5  0.5095719E-008  0.1722830E+04  0.7818608E-02  0.8748450E-01
          1   -1    0    0  501    0  0.00000000000E+00  0.00000000000E+00  0.13551078922E+04  0.13551078922E+04  0.00000000000E+00 0. -1.
         -2   -1    0    0    0  501 -0.00000000000E+00 -0.00000000000E+00 -0.54758444754E+03  0.54758444754E+03  0.00000000000E+00 0.  1.
        -24    2    1    2    0    0 -0.44145320780E+03  0.30260344525E+03  0.36814361980E+03  0.65393040951E+03  0.75136382216E+02 0.  0.
        254    2    1    2    0    0  0.44145320780E+03 -0.30260344525E+03  0.43937982489E+03  0.12487619302E+04  0.10391833082E+04 0.  0.
         23    2    4    4    0    0 -0.41121362587E+02 -0.58959057456E+03  0.26313065701E+03  0.65331084660E+03  0.90935733141E+02 0.  0.
         23    2    4    4    0    0  0.48257457039E+03  0.28698712930E+03  0.17624916788E+03  0.59545108364E+03  0.90875714328E+02 0.  0.
          1    1    3    3  502    0 -0.42177861970E+03  0.27171329150E+03  0.32714831396E+03  0.59895854292E+03  0.00000000000E+00 0. -1.
         -2    1    3    3    0  502 -0.19674588101E+02  0.30890153753E+02  0.40995305834E+02  0.54971866589E+02  0.00000000000E+00 0.  1.
         13    1    5    5    0    0 -0.49447935793E+02 -0.32833854493E+03  0.18693898818E+03  0.38104787591E+03  0.00000000000E+00 0. -1.
        -13    1    5    5    0    0  0.83265732058E+01 -0.26125202963E+03  0.76191668831E+02  0.27226297069E+03  0.00000000000E+00 0.  1.
          1    1    6    6  503    0  0.76226479584E+02  0.60158495888E+02 -0.19596857130E+01  0.97125491944E+02  0.00000000000E+00 0. -1.
         -1    1    6    6    0  503  0.40634809080E+03  0.22682863342E+03  0.17820885359E+03  0.49832559169E+03  0.00000000000E+00 0.  1.
<mgrwt>
<rscale>  0 0.17228302E+04</rscale>
<asrwt>0</asrwt>
<pdfrwt beam="1">  1        1 0.20847814E+00 0.17228302E+04</pdfrwt>
<pdfrwt beam="2">  1       -2 0.84243761E-01 0.17228302E+04</pdfrwt>
<totfact> 0.84683747E+00</totfact>
</mgrwt>
</event>
<event>
12    5  0.5095719E-008  0.1694993E+04  0.7818608E-02  0.8764225E-01
         -2   -1    0    0    0  501 -0.00000000000E+00  0.00000000000E+00  0.38114249539E+03  0.38114249539E+03  0.00000000000E+00 0.  1.
          1   -1    0    0  501    0  0.00000000000E+00 -0.00000000000E+00 -0.18844658371E+04  0.18844658371E+04  0.00000000000E+00 0. -1.
        -24    2    1    2    0    0  0.46888874194E+02 -0.97449187660E+02 -0.14285509053E+04  0.14349279901E+04  0.81029235073E+02 0.  0.
        254    2    1    2    0    0 -0.46888874194E+02  0.97449187660E+02 -0.74772436362E+02  0.83068034239E+03  0.82020973128E+03 0.  0.
         23    2    4    4    0    0 -0.23141700738E+03 -0.15277609830E+03 -0.31255959376E+03  0.42873730768E+03  0.96061500255E+02 0.  0.
         23    2    4    4    0    0  0.18452813318E+03  0.25022528596E+03  0.23778715740E+03  0.40194303470E+03  0.91390071968E+02 0.  0.
          3    1    3    3  502    0  0.29413094832E+02 -0.29627336379E+02 -0.98476403246E+03  0.98564857268E+03  0.00000000000E+00 0. -1.
         -4    1    3    3    0  502  0.17475779362E+02 -0.67821851281E+02 -0.44378687284E+03  0.44927941738E+03  0.00000000000E+00 0.  1.
         13    1    5    5    0    0 -0.20446502332E+03 -0.16495932618E+03 -0.29157915965E+03  0.39247411557E+03  0.00000000000E+00 0.  1.
        -13    1    5    5    0    0 -0.26951984058E+02  0.12183227882E+02 -0.20980434116E+02  0.36263192109E+02  0.00000000000E+00 0. -1.
          1    1    6    6  503    0  0.23590823911E+02  0.23124199896E+02  0.68792694699E+02  0.76313107902E+02  0.00000000000E+00 0. -1.
         -1    1    6    6    0  503  0.16093730927E+03  0.22710108606E+03  0.16899446270E+03  0.32562992680E+03  0.00000000000E+00 0.  1.
<mgrwt>
<rscale>  0 0.16949926E+04</rscale>
<asrwt>0</asrwt>
<pdfrwt beam="1">  1        1 0.28991782E+00 0.16949926E+04</pdfrwt>
<pdfrwt beam="2">  1       -2 0.58637307E-01 0.16949926E+04</pdfrwt>
<totfact> 0.81124120E+00</totfact>
</mgrwt>
</event>
<event>
12    5  0.5095719E-008  0.1192197E+04  0.7818608E-02  0.9119714E-01
          1   -1    0    0  501    0  0.00000000000E+00  0.00000000000E+00  0.95489848657E+03  0.95489848657E+03  0.00000000000E+00 0. -1.
         -2   -1    0    0    0  501 -0.00000000000E+00 -0.00000000000E+00 -0.37211626676E+03  0.37211626676E+03  0.00000000000E+00 0.  1.
        -24    2    1    2    0    0  0.11859431779E+01 -0.17389838620E+02 -0.14648465651E+03  0.16794732578E+03  0.80279117435E+02 0.  0.
        254    2    1    2    0    0 -0.11859431779E+01  0.17389838620E+02  0.72926687633E+03  0.11590674275E+04  0.90072377106E+03 0.  0.
         23    2    4    4    0    0  0.16449896572E+03  0.13465365485E+03 -0.13365282773E+03  0.26791992594E+03  0.93415693882E+02 0.  0.
         23    2    4    4    0    0 -0.16568490890E+03 -0.11726381623E+03  0.86291970406E+03  0.89114750161E+03  0.91165576525E+02 0.  0.
          3    1    3    3  502    0 -0.14466632610E+02 -0.24297802102E+02 -0.94009657818E+01  0.29800080599E+02  0.00000000000E+00 0. -1.
         -4    1    3    3    0  502  0.15652575788E+02  0.69079634820E+01 -0.13708369073E+03  0.13814724518E+03  0.00000000000E+00 0.  1.
         13    1    5    5    0    0  0.11869906134E+03  0.96711113502E+02 -0.14081196254E+03  0.20801566151E+03  0.00000000000E+00 0. -1.
        -13    1    5    5    0    0  0.45799904377E+02  0.37942541352E+02  0.71591348072E+01  0.59904264426E+02  0.00000000000E+00 0.  1.
          4    1    6    6  503    0 -0.55618139134E+02 -0.87397465854E+02  0.50429452026E+03  0.51482488052E+03  0.00000000000E+00 0. -1.
         -4    1    6    6    0  503 -0.11006676976E+03 -0.29866350381E+02  0.35862518380E+03  0.37632262110E+03  0.00000000000E+00 0.  1.
<mgrwt>
<rscale>  0 0.11921967E+04</rscale>
<asrwt>0</asrwt>
<pdfrwt beam="1">  1        1 0.14690746E+00 0.11921967E+04</pdfrwt>
<pdfrwt beam="2">  1       -2 0.57248657E-01 0.11921967E+04</pdfrwt>
<totfact> 0.40769245E+01</totfact>
</mgrwt>
</event>
<event>
12    5  0.5095719E-008  0.1295846E+04  0.7818608E-02  0.9032866E-01
          1   -1    0    0  501    0  0.00000000000E+00  0.00000000000E+00  0.95092959545E+03  0.95092959545E+03  0.00000000000E+00 0. -1.
         -2   -1    0    0    0  501 -0.00000000000E+00 -0.00000000000E+00 -0.44146693837E+03  0.44146693837E+03  0.00000000000E+00 0.  1.
        -24    2    1    2    0    0  0.14429519394E+03 -0.17578090296E+02 -0.18235976509E+03  0.24591789343E+03  0.78041233548E+02 0.  0.
        254    2    1    2    0    0 -0.14429519394E+03  0.17578090296E+02  0.69182242217E+03  0.11464786404E+04  0.90258789976E+03 0.  0.
         23    2    4    4    0    0 -0.32074002829E+03  0.36433620651E+03  0.50016139501E+03  0.70295333978E+03  0.91470977511E+02 0.  0.
         23    2    4    4    0    0  0.17644483435E+03 -0.34675811621E+03  0.19166102716E+03  0.44352530061E+03  0.92772691127E+02 0.  0.
          3    1    3    3  502    0 -0.54725984816E+01 -0.14118608774E+02 -0.18268725205E+02  0.23728269395E+02  0.00000000000E+00 0. -1.
         -4    1    3    3    0  502  0.14976779242E+03 -0.34594815219E+01 -0.16409103989E+03  0.22218962404E+03  0.00000000000E+00 0.  1.
         13    1    5    5    0    0  0.11944452883E+00  0.78769582875E+01  0.31197693683E+02  0.32176961167E+02  0.00000000000E+00 0. -1.
        -13    1    5    5    0    0 -0.32085947282E+03  0.35645924822E+03  0.46896370133E+03  0.67077637861E+03  0.00000000000E+00 0.  1.
          4    1    6    6  503    0  0.13203170402E+03 -0.16590442169E+03  0.81491661926E+02  0.22715091672E+03  0.00000000000E+00 0.  1.
         -4    1    6    6    0  503  0.44413130334E+02 -0.18085369452E+03  0.11016936523E+03  0.21637438389E+03  0.00000000000E+00 0. -1.
<mgrwt>
<rscale>  0 0.12958456E+04</rscale>
<asrwt>0</asrwt>
<pdfrwt beam="1">  1        1 0.14629686E+00 0.12958456E+04</pdfrwt>
<pdfrwt beam="2">  1       -2 0.67917991E-01 0.12958456E+04</pdfrwt>
<totfact> 0.28304096E+01</totfact>
</mgrwt>
</event>
<event>
12    5  0.5095719E-008  0.1992689E+04  0.7818608E-02  0.8610046E-01
         -2   -1    0    0    0  501 -0.00000000000E+00  0.00000000000E+00  0.13852442639E+04  0.13852442639E+04  0.00000000000E+00 0.  1.
          1   -1    0    0  501    0  0.00000000000E+00 -0.00000000000E+00 -0.71662632486E+03  0.71662632486E+03  0.00000000000E+00 0. -1.
        -24    2    1    2    0    0  0.47390719796E+03  0.60346877222E+03  0.43802265937E+03  0.88711737054E+03  0.79691829412E+02 0.  0.
        254    2    1    2    0    0 -0.47390719796E+03 -0.60346877222E+03  0.23059527968E+03  0.12147532182E+04  0.91306549977E+03 0.  0.
         23    2    4    4    0    0 -0.19206643588E+03 -0.28933590551E+03 -0.34310361919E+03  0.49661709774E+03  0.91124454791E+02 0.  0.
         23    2    4    4    0    0 -0.28184076208E+03 -0.31413286671E+03  0.57369889886E+03  0.71813612049E+03  0.92061869863E+02 0.  0.
          3    1    3    3  502    0  0.41995303881E+02  0.97691394179E+02  0.60499647961E+02  0.12234141346E+03  0.00000000000E+00 0. -1.
         -4    1    3    3    0  502  0.43191189408E+03  0.50577737804E+03  0.37752301141E+03  0.76477595708E+03  0.00000000000E+00 0.  1.
         13    1    5    5    0    0 -0.16023360142E+03 -0.20728086247E+03 -0.30100318648E+03  0.39905272990E+03  0.00000000000E+00 0. -1.
        -13    1    5    5    0    0 -0.31832834459E+02 -0.82055043043E+02 -0.42100432710E+02  0.97564367844E+02  0.00000000000E+00 0.  1.
          2    1    6    6  503    0 -0.15120734580E+02 -0.47058193530E+02  0.10731467906E+03  0.11815054183E+03  0.00000000000E+00 0.  1.
         -2    1    6    6    0  503 -0.26672002750E+03 -0.26707467318E+03  0.46638421980E+03  0.59998557866E+03  0.00000000000E+00 0. -1.
<mgrwt>
<rscale>  0 0.19926891E+04</rscale>
<asrwt>0</asrwt>
<pdfrwt beam="1">  1        1 0.11025020E+00 0.19926891E+04</pdfrwt>
<pdfrwt beam="2">  1       -2 0.21311450E+00 0.19926891E+04</pdfrwt>
<totfact> 0.23356329E+00</totfact>
</mgrwt>
</event>
<event>
12    5  0.5095719E-008  0.3072164E+04  0.7818608E-02  0.8223419E-01
         -2   -1    0    0    0  501 -0.00000000000E+00  0.00000000000E+00  0.19697761966E+04  0.19697761966E+04  0.00000000000E+00 0.  1.
          1   -1    0    0  501    0  0.00000000000E+00 -0.00000000000E+00 -0.11978759249E+04  0.11978759249E+04  0.00000000000E+00 0. -1.
        -24    2    1    2    0    0 -0.22901324093E+03  0.54628874794E+03  0.16614622085E+04  0.17658211064E+04  0.82395684856E+02 0.  0.
        254    2    1    2    0    0  0.22901324093E+03 -0.54628874794E+03 -0.88956193680E+03  0.14018310151E+04  0.90715560677E+03 0.  0.
         23    2    4    4    0    0  0.24056945570E+03 -0.47613830739E+03 -0.38183542998E+02  0.54249162503E+03  0.90872600320E+02 0.  0.
         23    2    4    4    0    0 -0.11556214772E+02 -0.70150440544E+02 -0.85137839381E+03  0.85933939009E+03  0.92543976098E+02 0.  0.
          3    1    3    3  502    0 -0.66184642018E+02  0.23503192953E+03  0.60161523215E+03  0.64927752333E+03  0.00000000000E+00 0. -1.
         -4    1    3    3    0  502 -0.16282859891E+03  0.31125681841E+03  0.10598469763E+04  0.11165435831E+04  0.00000000000E+00 0.  1.
         13    1    5    5    0    0  0.21597595644E+03 -0.44925152880E+03 -0.13825691591E+02  0.49866190915E+03  0.00000000000E+00 0. -1.
        -13    1    5    5    0    0  0.24593499260E+02 -0.26886778593E+02 -0.24357851406E+02  0.43829715880E+02  0.00000000000E+00 0.  1.
          2    1    6    6  503    0 -0.26175273198E+02 -0.60367361676E+02 -0.27759525824E+03  0.28528668157E+03  0.00000000000E+00 0.  1.
         -2    1    6    6    0  503  0.14619058427E+02 -0.97830788681E+01 -0.57378313557E+03  0.57405270852E+03  0.00000000000E+00 0. -1.
<mgrwt>
<rscale>  0 0.30721637E+04</rscale>
<asrwt>0</asrwt>
<pdfrwt beam="1">  1        1 0.18428860E+00 0.30721637E+04</pdfrwt>
<pdfrwt beam="2">  1       -2 0.30304249E+00 0.30721637E+04</pdfrwt>
<totfact> 0.24240772E-01</totfact>
</mgrwt>
</event>
<event>
12    5  0.5095719E-008  0.2031669E+04  0.7818608E-02  0.8591956E-01
          1   -1    0    0  501    0  0.00000000000E+00  0.00000000000E+00  0.36680021387E+04  0.36680021387E+04  0.00000000000E+00 0. -1.
         -2   -1    0    0    0  501 -0.00000000000E+00 -0.00000000000E+00 -0.28133025604E+03  0.28133025604E+03  0.00000000000E+00 0.  1.
        -24    2    1    2    0    0 -0.51335338180E+02  0.50745226195E+02 -0.21296896420E+03  0.23896487436E+03  0.80858125995E+02 0.  0.
        254    2    1    2    0    0  0.51335338180E+02 -0.50745226195E+02  0.35996408468E+04  0.37103675203E+04  0.89677339108E+03 0.  0.
         23    2    4    4    0    0 -0.15065468116E+03 -0.41561978104E+03  0.22475739540E+04  0.22924211015E+04  0.90383586289E+02 0.  0.
         23    2    4    4    0    0  0.20199001934E+03  0.36487455484E+03  0.13520668928E+04  0.14179464188E+04  0.92486514066E+02 0.  0.
          3    1    3    3  502    0 -0.66095544130E+02  0.55274465484E+02 -0.14007157221E+03  0.16445039626E+03  0.00000000000E+00 0. -1.
         -4    1    3    3    0  502  0.14760205951E+02 -0.45292392885E+01 -0.72897391986E+02  0.74514478101E+02  0.00000000000E+00 0.  1.
         13    1    5    5    0    0 -0.60391094516E+02 -0.20183127712E+03  0.85044171903E+03  0.87614728567E+03  0.00000000000E+00 0. -1.
        -13    1    5    5    0    0 -0.90263586640E+02 -0.21378850391E+03  0.13971322350E+04  0.14162738159E+04  0.00000000000E+00 0.  1.
          4    1    6    6  503    0  0.39657262390E+02  0.19808064407E+02  0.18121831982E+03  0.18656135000E+03  0.00000000000E+00 0. -1.
         -4    1    6    6    0  503  0.16233275695E+03  0.34506649043E+03  0.11708485730E+04  0.12313850688E+04  0.00000000000E+00 0.  1.
<mgrwt>
<rscale>  0 0.20316692E+04</rscale>
<asrwt>0</asrwt>
<pdfrwt beam="1">  1        1 0.56430799E+00 0.20316692E+04</pdfrwt>
<pdfrwt beam="2">  1       -2 0.43281580E-01 0.20316692E+04</pdfrwt>
<totfact> 0.75788368E-01</totfact>
</mgrwt>
</event>
<event>
12    5  0.5095719E-008  0.1253308E+04  0.7818608E-02  0.9067434E-01
         -2   -1    0    0    0  501 -0.00000000000E+00  0.00000000000E+00  0.10385427122E+04  0.10385427122E+04  0.00000000000E+00 0.  1.
          1   -1    0    0  501    0  0.00000000000E+00 -0.00000000000E+00 -0.37812147658E+03  0.37812147658E+03  0.00000000000E+00 0. -1.
        -24    2    1    2    0    0 -0.21489572836E+03  0.92785920908E+02  0.36122816409E+03  0.43757727496E+03  0.78731720689E+02 0.  0.
        254    2    1    2    0    0  0.21489572836E+03 -0.92785920908E+02  0.29919307155E+03  0.97908691383E+03  0.90238865772E+03 0.  0.
         23    2    4    4    0    0  0.55392086134E+02  0.26521104986E+02  0.59871269124E+03  0.60892944935E+03  0.92555580133E+02 0.  0.
         23    2    4    4    0    0  0.15950364223E+03 -0.11930702589E+03 -0.29951961969E+03  0.37015746449E+03  0.87343961570E+02 0.  0.
          1    1    3    3  502    0 -0.21200566379E+03  0.79974526787E+02  0.35859165820E+03  0.42418192293E+03  0.00000000000E+00 0. -1.
         -2    1    3    3    0  502 -0.28900645741E+01  0.12811394122E+02  0.26365058881E+01  0.13395352025E+02  0.00000000000E+00 0.  1.
         13    1    5    5    0    0  0.75856753258E+02  0.35811642607E+02  0.53098068131E+03  0.53756600030E+03  0.00000000000E+00 0. -1.
        -13    1    5    5    0    0 -0.20464667124E+02 -0.92905376210E+01  0.67732009935E+02  0.71363449045E+02  0.00000000000E+00 0.  1.
          1    1    6    6  503    0  0.16803484088E+02 -0.28195152546E+02 -0.11562562810E+03  0.12019404968E+03  0.00000000000E+00 0.  1.
         -1    1    6    6    0  503  0.14270015814E+03 -0.91111873348E+02 -0.18389399159E+03  0.24996341480E+03  0.00000000000E+00 0. -1.
<mgrwt>
<rscale>  0 0.12533081E+04</rscale>
<asrwt>0</asrwt>
<pdfrwt beam="1">  1        1 0.58172535E-01 0.12533081E+04</pdfrwt>
<pdfrwt beam="2">  1       -2 0.15977580E+00 0.12533081E+04</pdfrwt>
<totfact> 0.14065284E+01</totfact>
</mgrwt>
</event>
<event>
12    5  0.5095719E-008  0.1528155E+04  0.7818608E-02  0.8865943E-01
          1   -1    0    0  501    0  0.00000000000E+00  0.00000000000E+00  0.10098835034E+04  0.10098835034E+04  0.00000000000E+00 0. -1.
         -2   -1    0    0    0  501 -0.00000000000E+00 -0.00000000000E+00 -0.57810051324E+03  0.57810051324E+03  0.00000000000E+00 0.  1.
        -24    2    1    2    0    0  0.24211538025E+02  0.47078298435E+03 -0.57585148739E+01  0.47806901660E+03  0.79334779344E+02 0.  0.
        254    2    1    2    0    0 -0.24211538025E+02 -0.47078298435E+03  0.43754150504E+03  0.11099150000E+04  0.90456946763E+03 0.  0.
         23    2    4    4    0    0  0.29922625004E+03 -0.48737719767E+03  0.27082702740E+02  0.57927667094E+03  0.88063086402E+02 0.  0.
         23    2    4    4    0    0 -0.32343778806E+03  0.16594213319E+02  0.41045880230E+03  0.53063832911E+03  0.90626912520E+02 0.  0.
          1    1    3    3  502    0  0.63350139899E+01  0.35959732222E+02 -0.21903060834E+02  0.42579088972E+02  0.00000000000E+00 0. -1.
         -2    1    3    3    0  502  0.17876524035E+02  0.43482325213E+03  0.16144545960E+02  0.43548992763E+03  0.00000000000E+00 0.  1.
         13    1    5    5    0    0  0.10696601233E+02 -0.67129735050E+02 -0.72366801971E+01  0.68360720784E+02  0.00000000000E+00 0.  1.
        -13    1    5    5    0    0  0.28852964880E+03 -0.42024746262E+03  0.34319382937E+02  0.51091595015E+03  0.00000000000E+00 0. -1.
          2    1    6    6  503    0 -0.31252524480E+03 -0.44964992466E+01  0.38159659470E+03  0.49326281862E+03  0.00000000000E+00 0. -1.
         -2    1    6    6    0  503 -0.10912543257E+02  0.21090712566E+02  0.28862207603E+02  0.37375510493E+02  0.00000000000E+00 0.  1.
<mgrwt>
<rscale>  0 0.15281547E+04</rscale>
<asrwt>0</asrwt>
<pdfrwt beam="1">  1        1 0.15536669E+00 0.15281547E+04</pdfrwt>
<pdfrwt beam="2">  1       -2 0.88938540E-01 0.15281547E+04</pdfrwt>
<totfact> 0.13660955E+01</totfact>
</mgrwt>
</event>
<event>
12    5  0.5095719E-008  0.1198131E+04  0.7818608E-02  0.9114494E-01
         -2   -1    0    0    0  501 -0.00000000000E+00  0.00000000000E+00  0.14032895715E+03  0.14032895715E+03  0.00000000000E+00 0.  1.
          1   -1    0    0  501    0  0.00000000000E+00 -0.00000000000E+00 -0.25574164503E+04  0.25574164503E+04  0.00000000000E+00 0. -1.
        -24    2    1    2    0    0  0.16346693060E+03  0.14061436576E+03 -0.25078475055E+03  0.34008446174E+03  0.79187200685E+02 0.  0.
        254    2    1    2    0    0 -0.16346693060E+03 -0.14061436576E+03 -0.21663027426E+04  0.23576609457E+04  0.90509873775E+03 0.  0.
         23    2    4    4    0    0 -0.31743254346E+03 -0.10136895567E+03 -0.23407222198E+03  0.41710415213E+03  0.90260643682E+02 0.  0.
         23    2    4    4    0    0  0.15396561286E+03 -0.39245410090E+02 -0.19322305207E+04  0.19405567936E+04  0.83667629039E+02 0.  0.
          3    1    3    3  502    0  0.27707750526E+02  0.63598247133E+02 -0.10908257369E+03  0.12927282917E+03  0.00000000000E+00 0. -1.
         -4    1    3    3    0  502  0.13575918008E+03  0.77016118631E+02 -0.14170217686E+03  0.21081163258E+03  0.00000000000E+00 0.  1.
         13    1    5    5    0    0 -0.14648253160E+03 -0.59179959606E+02 -0.58554704292E+02  0.16848754577E+03  0.00000000000E+00 0. -1.
        -13    1    5    5    0    0 -0.17095001185E+03 -0.42188996068E+02 -0.17551751769E+03  0.24861660636E+03  0.00000000000E+00 0.  1.
          4    1    6    6  503    0  0.16371216399E+03 -0.30710873943E+02 -0.17806638843E+04  0.17884375022E+04  0.00000000000E+00 0. -1.
         -4    1    6    6    0  503 -0.97465511311E+01 -0.85345361466E+01 -0.15156663635E+03  0.15211929141E+03  0.00000000000E+00 0.  1.
<mgrwt>
<rscale>  0 0.11981312E+04</rscale>
<asrwt>0</asrwt>
<pdfrwt beam="1">  1        1 0.39344868E+00 0.11981312E+04</pdfrwt>
<pdfrwt beam="2">  1       -2 0.21589071E-01 0.11981312E+04</pdfrwt>
<totfact> 0.20192824E+01</totfact>
</mgrwt>
</event>
<event>
12    5  0.5095719E-008  0.1487272E+04  0.7818608E-02  0.8892961E-01
         -2   -1    0    0    0  501 -0.00000000000E+00  0.00000000000E+00  0.72603768197E+03  0.72603768197E+03  0.00000000000E+00 0.  1.
          1   -1    0    0  501    0  0.00000000000E+00 -0.00000000000E+00 -0.76166067042E+03  0.76166067042E+03  0.00000000000E+00 0. -1.
        -24    2    1    2    0    0  0.21483576860E+03 -0.67171575694E+02 -0.41878014565E+03  0.48198953704E+03  0.79187596098E+02 0.  0.
        254    2    1    2    0    0 -0.21483576860E+03  0.67171575694E+02  0.38315715720E+03  0.10057088153E+04  0.90220529044E+03 0.  0.
         23    2    4    4    0    0  0.16527427678E+02 -0.39337860552E+03  0.20698250395E+03  0.45321838223E+03  0.86863466996E+02 0.  0.
         23    2    4    4    0    0 -0.23136319628E+03  0.46055018122E+03  0.17617465325E+03  0.55249043312E+03  0.92589266271E+02 0.  0.
          3    1    3    3  502    0  0.15399352983E+03 -0.11592388910E+02 -0.30012575012E+03  0.33752608284E+03  0.00000000000E+00 0. -1.
         -4    1    3    3    0  502  0.60842238768E+02 -0.55579186783E+02 -0.11865439552E+03  0.14446345420E+03  0.00000000000E+00 0.  1.
         13    1    5    5    0    0 -0.15619027663E+02 -0.11477821604E+03  0.10009301882E+03  0.15309018688E+03  0.00000000000E+00 0. -1.
        -13    1    5    5    0    0  0.32146455341E+02 -0.27860038949E+03  0.10688948513E+03  0.30012819535E+03  0.00000000000E+00 0.  1.
          4    1    6    6  503    0 -0.63226798804E+02  0.64933780098E+02  0.83014691501E+01  0.91010649239E+02  0.00000000000E+00 0. -1.
         -4    1    6    6    0  503 -0.16813639748E+03  0.39561640112E+03  0.16787318410E+03  0.46147978388E+03  0.00000000000E+00 0.  1.
<mgrwt>
<rscale>  0 0.14872718E+04</rscale>
<asrwt>0</asrwt>
<pdfrwt beam="1">  1        1 0.11717856E+00 0.14872718E+04</pdfrwt>
<pdfrwt beam="2">  1       -2 0.11169810E+00 0.14872718E+04</pdfrwt>
<totfact> 0.12834761E+01</totfact>
</mgrwt>
</event>
<event>
12    5  0.5095719E-008  0.2672153E+04  0.7818608E-02  0.8344097E-01
          1   -1    0    0  501    0  0.00000000000E+00  0.00000000000E+00  0.22716482089E+04  0.22716482089E+04  0.00000000000E+00 0. -1.
         -2   -1    0    0    0  501 -0.00000000000E+00 -0.00000000000E+00 -0.78581734180E+03  0.78581734180E+03  0.00000000000E+00 0.  1.
        -24    2    1    2    0    0 -0.80440323632E+03 -0.70718274951E+03  0.85937676675E+02  0.10777234943E+04  0.83250454327E+02 0.  0.
        254    2    1    2    0    0  0.80440323632E+03  0.70718274951E+03  0.13998931905E+04  0.19797420564E+04  0.90139095703E+03 0.  0.
         23    2    4    4    0    0  0.61010127126E+03  0.56778193436E+03  0.14854250031E+04  0.17057184696E+04  0.91586960755E+02 0.  0.
         23    2    4    4    0    0  0.19430196506E+03  0.13940081515E+03 -0.85531812684E+02  0.27402358682E+03  0.10289506431E+03 0.  0.
          1    1    3    3  502    0 -0.28890049315E+03 -0.27560088220E+03  0.69031228264E+02  0.40519705291E+03  0.00000000000E+00 0. -1.
         -2    1    3    3    0  502 -0.51550274317E+03 -0.43158186731E+03  0.16906448411E+02  0.67252644142E+03  0.00000000000E+00 0.  1.
         13    1    5    5    0    0  0.43772925503E+03  0.45645711587E+03  0.11533169552E+04  0.13153326570E+04  0.00000000000E+00 0. -1.
        -13    1    5    5    0    0  0.17237201623E+03  0.11132481849E+03  0.33210804790E+03  0.39038581259E+03  0.00000000000E+00 0.  1.
          3    1    6    6  503    0  0.16176828468E+03  0.56677557598E+02 -0.58366901626E+02  0.18107462183E+03  0.00000000000E+00 0. -1.
         -3    1    6    6    0  503  0.32533680378E+02  0.82723257557E+02 -0.27164911058E+02  0.92948964989E+02  0.00000000000E+00 0.  1.
<mgrwt>
<rscale>  0 0.26721531E+04</rscale>
<asrwt>0</asrwt>
<pdfrwt beam="1">  1        1 0.34948434E+00 0.26721531E+04</pdfrwt>
<pdfrwt beam="2">  1       -2 0.12089498E+00 0.26721531E+04</pdfrwt>
<totfact> 0.78055767E-01</totfact>
</mgrwt>
</event>
<event>
12    5  0.5095719E-008  0.1953791E+04  0.7818608E-02  0.8628535E-01
         -2   -1    0    0    0  501 -0.00000000000E+00  0.00000000000E+00  0.17574982004E+04  0.17574982004E+04  0.00000000000E+00 0.  1.
          1   -1    0    0  501    0  0.00000000000E+00 -0.00000000000E+00 -0.54300193196E+03  0.54300193196E+03  0.00000000000E+00 0. -1.
        -24    2    1    2    0    0  0.32678550089E+03 -0.68242037282E+03  0.36155609504E+03  0.84232435378E+03  0.79379961477E+02 0.  0.
        254    2    1    2    0    0 -0.32678550089E+03  0.68242037282E+03  0.85294017336E+03  0.14581757785E+04  0.90900128325E+03 0.  0.
         23    2    4    4    0    0  0.10802341104E+03  0.58733306954E+03  0.79676588443E+03  0.99993200016E+03  0.91645722427E+02 0.  0.
         23    2    4    4    0    0 -0.43480891193E+03  0.95087303279E+02  0.56174288923E+02  0.45824377837E+03  0.93442091947E+02 0.  0.
          1    1    3    3  502    0  0.93529400025E+01 -0.15646526109E+01  0.31837530492E+01  0.10003094919E+02  0.00000000000E+00 0. -1.
         -2    1    3    3    0  502  0.31743256089E+03 -0.68085572021E+03  0.35837234199E+03  0.83232125886E+03  0.00000000000E+00 0.  1.
         13    1    5    5    0    0  0.11815032926E+03  0.47799746622E+03  0.61844634748E+03  0.79051689592E+03  0.00000000000E+00 0. -1.
        -13    1    5    5    0    0 -0.10126918226E+02  0.10933560332E+03  0.17831953695E+03  0.20941510424E+03  0.00000000000E+00 0.  1.
          4    1    6    6  503    0 -0.41692631885E+03  0.92856042040E+02  0.73297554211E+02  0.43338473825E+03  0.00000000000E+00 0. -1.
         -4    1    6    6    0  503 -0.17882593075E+02  0.22312612393E+01 -0.17123265288E+02  0.24859040125E+02  0.00000000000E+00 0.  1.
<mgrwt>
<rscale>  0 0.19537911E+04</rscale>
<asrwt>0</asrwt>
<pdfrwt beam="1">  1        1 0.83538760E-01 0.19537911E+04</pdfrwt>
<pdfrwt beam="2">  1       -2 0.27038434E+00 0.19537911E+04</pdfrwt>
<totfact> 0.15529274E+00</totfact>
</mgrwt>
</event>
<event>
12    5  0.5095719E-008  0.1602947E+04  0.7818608E-02  0.8818740E-01
         -2   -1    0    0    0  501 -0.00000000000E+00  0.00000000000E+00  0.87035714592E+03  0.87035714592E+03  0.00000000000E+00 0.  1.
          1   -1    0    0  501    0  0.00000000000E+00 -0.00000000000E+00 -0.73804170931E+03  0.73804170931E+03  0.00000000000E+00 0. -1.
        -24    2    1    2    0    0 -0.23854047896E+03 -0.43134124250E+03  0.13996958776E+03  0.51838811421E+03  0.78599770200E+02 0.  0.
        254    2    1    2    0    0  0.23854047896E+03  0.43134124250E+03 -0.76541511595E+01  0.10900107410E+04  0.97216665337E+03 0.  0.
         23    2    4    4    0    0 -0.26644071375E+03 -0.90233202838E+02  0.16454362728E+03  0.33832827432E+03  0.90877560949E+02 0.  0.
         23    2    4    4    0    0  0.50498119271E+03  0.52157444534E+03 -0.17219777844E+03  0.75168246670E+03  0.91260883358E+02 0.  0.
          3    1    3    3  502    0 -0.22226706851E+03 -0.40656280874E+03  0.10999379159E+03  0.47622956794E+03  0.00000000000E+00 0. -1.
         -4    1    3    3    0  502 -0.16273410449E+02 -0.24778433756E+02  0.29975796175E+02  0.42158546267E+02  0.00000000000E+00 0.  1.
         13    1    5    5    0    0 -0.58332218938E+02 -0.60466899692E+02  0.32565178122E+02  0.90107627594E+02  0.00000000000E+00 0.  1.
        -13    1    5    5    0    0 -0.20810849481E+03 -0.29766303146E+02  0.13197844916E+03  0.24822064672E+03  0.00000000000E+00 0. -1.
          2    1    6    6  503    0  0.46055492636E+03  0.44455972934E+03 -0.17182054879E+03  0.66277182660E+03  0.00000000000E+00 0. -1.
         -2    1    6    6    0  503  0.44426266349E+02  0.77014715997E+02 -0.37722965061E+00  0.88910640106E+02  0.00000000000E+00 0.  1.
<mgrwt>
<rscale>  0 0.16029471E+04</rscale>
<asrwt>0</asrwt>
<pdfrwt beam="1">  1        1 0.11354488E+00 0.16029471E+04</pdfrwt>
<pdfrwt beam="2">  1       -2 0.13390110E+00 0.16029471E+04</pdfrwt>
<totfact> 0.84964541E+00</totfact>
</mgrwt>
</event>
<event>
12    5  0.5095719E-008  0.2374558E+04  0.7818608E-02  0.8449091E-01
         -2   -1    0    0    0  501 -0.00000000000E+00  0.00000000000E+00  0.51820730173E+03  0.51820730173E+03  0.00000000000E+00 0.  1.
          1   -1    0    0  501    0  0.00000000000E+00 -0.00000000000E+00 -0.27202068165E+04  0.27202068165E+04  0.00000000000E+00 0. -1.
        -24    2    1    2    0    0 -0.42057443750E+03  0.52737987434E+01 -0.22020115613E+04  0.22433301183E+04  0.82246174006E+02 0.  0.
        254    2    1    2    0    0  0.42057443750E+03 -0.52737987434E+01  0.12046595409E-01  0.99508399987E+03  0.90182121078E+03 0.  0.
         23    2    4    4    0    0  0.55816980088E+03  0.30402199974E+03  0.32381782225E+02  0.64304129308E+03  0.92035981292E+02 0.  0.
         23    2    4    4    0    0 -0.13759536337E+03 -0.30929579848E+03 -0.32369735629E+02  0.35204270679E+03  0.91048847544E+02 0.  0.
          1    1    3    3  502    0 -0.21042300493E+03 -0.97697286184E-01 -0.13162957850E+04  0.13330087938E+04  0.00000000000E+00 0. -1.
         -2    1    3    3    0  502 -0.21015143258E+03  0.53714960296E+01 -0.88571577629E+03  0.91032132457E+03  0.00000000000E+00 0.  1.
         13    1    5    5    0    0  0.10882044194E+03  0.10276968470E+03  0.14142362799E+02  0.15034461448E+03  0.00000000000E+00 0.  1.
        -13    1    5    5    0    0  0.44934935893E+03  0.20125231504E+03  0.18239419425E+02  0.49269667860E+03  0.00000000000E+00 0. -1.
          2    1    6    6  503    0 -0.88593843105E+02 -0.15537287316E+03  0.25058965212E+02  0.18060329589E+03  0.00000000000E+00 0. -1.
         -2    1    6    6    0  503 -0.49001520269E+02 -0.15392292533E+03 -0.57428700841E+02  0.17143941090E+03  0.00000000000E+00 0.  1.
<mgrwt>
<rscale>  0 0.23745577E+04</rscale>
<asrwt>0</asrwt>
<pdfrwt beam="1">  1        1 0.41849335E+00 0.23745577E+04</pdfrwt>
<pdfrwt beam="2">  1       -2 0.79724202E-01 0.23745577E+04</pdfrwt>
<totfact> 0.10443739E+00</totfact>
</mgrwt>
</event>
<event>
12    5  0.5095719E-008  0.1718772E+04  0.7818608E-02  0.8750730E-01
         -2   -1    0    0    0  501 -0.00000000000E+00  0.00000000000E+00  0.51125507004E+03  0.51125507004E+03  0.00000000000E+00 0.  1.
          1   -1    0    0  501    0  0.00000000000E+00 -0.00000000000E+00 -0.14445711225E+04  0.14445711225E+04  0.00000000000E+00 0. -1.
        -24    2    1    2    0    0  0.17975917303E+03 -0.51355320584E+03 -0.63910803771E+03  0.84349118536E+03  0.83474789036E+02 0.  0.
        254    2    1    2    0    0 -0.17975917303E+03  0.51355320584E+03 -0.29420801471E+03  0.11123350071E+04  0.92448934913E+03 0.  0.
         23    2    4    4    0    0  0.21037655192E+03  0.16439531154E+03  0.23129465483E+03  0.36488969576E+03  0.91450318006E+02 0.  0.
         23    2    4    4    0    0 -0.39013572494E+03  0.34915789430E+03 -0.52550266954E+03  0.74744531137E+03  0.91675071675E+02 0.  0.
          3    1    3    3  502    0  0.16768304963E+02 -0.64647675191E+02 -0.12542267285E+03  0.14209625197E+03  0.00000000000E+00 0. -1.
         -4    1    3    3    0  502  0.16299086806E+03 -0.44890553065E+03 -0.51368536486E+03  0.70139493340E+03  0.00000000000E+00 0.  1.
         13    1    5    5    0    0  0.92113191577E+02  0.12131523904E+03  0.15692185910E+03  0.21869315753E+03  0.00000000000E+00 0. -1.
        -13    1    5    5    0    0  0.11826336034E+03  0.43080072500E+02  0.74372795734E+02  0.14619653823E+03  0.00000000000E+00 0.  1.
          3    1    6    6  503    0 -0.32862902593E+03  0.32247527072E+03 -0.48673512755E+03  0.66999882187E+03  0.00000000000E+00 0. -1.
         -3    1    6    6    0  503 -0.61506699013E+02  0.26682623575E+02 -0.38767541990E+02  0.77446489502E+02  0.00000000000E+00 0.  1.
<mgrwt>
<rscale>  0 0.17187720E+04</rscale>
<asrwt>0</asrwt>
<pdfrwt beam="1">  1        1 0.22224171E+00 0.17187720E+04</pdfrwt>
<pdfrwt beam="2">  1       -2 0.78654626E-01 0.17187720E+04</pdfrwt>
<totfact> 0.85592662E+00</totfact>
</mgrwt>
</event>
<event>
12    5  0.5095719E-008  0.1471502E+04  0.7818608E-02  0.8903628E-01
          1   -1    0    0  501    0  0.00000000000E+00  0.00000000000E+00  0.11828934075E+04  0.11828934075E+04  0.00000000000E+00 0. -1.
         -2   -1    0    0    0  501 -0.00000000000E+00 -0.00000000000E+00 -0.45763185061E+03  0.45763185061E+03  0.00000000000E+00 0.  1.
        -24    2    1    2    0    0 -0.28886223395E+03  0.84855121994E+02  0.59987278466E+03  0.67589703747E+03  0.79672238278E+02 0.  0.
        254    2    1    2    0    0  0.28886223395E+03 -0.84855121994E+02  0.12538877224E+03  0.96462822065E+03  0.90782348391E+03 0.  0.
         23    2    4    4    0    0  0.57625955759E+03  0.10557345754E+03  0.22231706795E+02  0.59345509415E+03  0.92053611150E+02 0.  0.
         23    2    4    4    0    0 -0.28739732364E+03 -0.19042857954E+03  0.10315706544E+03  0.37117312650E+03  0.90927686363E+02 0.  0.
          3    1    3    3  502    0 -0.18959205407E+03  0.61907547120E+02  0.30977315230E+03  0.36842515827E+03  0.00000000000E+00 0. -1.
         -4    1    3    3    0  502 -0.99270179884E+02  0.22947574874E+02  0.29009963236E+03  0.30747187920E+03  0.00000000000E+00 0.  1.
         13    1    5    5    0    0  0.40499796464E+03  0.36021454725E+02 -0.49148578741E+01  0.40662642855E+03  0.00000000000E+00 0.  1.
        -13    1    5    5    0    0  0.17126159295E+03  0.69552002820E+02  0.27146564669E+02  0.18682866560E+03  0.00000000000E+00 0. -1.
          4    1    6    6  503    0 -0.17597863546E+02 -0.40719128418E+01  0.30296664127E+02  0.35272554952E+02  0.00000000000E+00 0. -1.
         -4    1    6    6    0  503 -0.26979946009E+03 -0.18635666670E+03  0.72860401317E+02  0.33590057155E+03  0.00000000000E+00 0.  1.
<mgrwt>
<rscale>  0 0.14715022E+04</rscale>
<asrwt>0</asrwt>
<pdfrwt beam="1">  1        1 0.18198360E+00 0.14715022E+04</pdfrwt>
<pdfrwt beam="2">  1       -2 0.70404901E-01 0.14715022E+04</pdfrwt>
<totfact> 0.17168555E+01</totfact>
</mgrwt>
</event>
<event>
12    5  0.5095719E-008  0.1874348E+04  0.7818608E-02  0.8667732E-01
          1   -1    0    0  501    0  0.00000000000E+00  0.00000000000E+00  0.12712817609E+04  0.12712817609E+04  0.00000000000E+00 0. -1.
         -2   -1    0    0    0  501 -0.00000000000E+00 -0.00000000000E+00 -0.69087353214E+03  0.69087353214E+03  0.00000000000E+00 0.  1.
        -24    2    1    2    0    0  0.48743749379E+03  0.30571163606E+03 -0.22161761240E+03  0.62181805185E+03  0.80550659248E+02 0.  0.
        254    2    1    2    0    0 -0.48743749379E+03 -0.30571163606E+03  0.80202584118E+03  0.13403372412E+04  0.90675440748E+03 0.  0.
         23    2    4    4    0    0  0.13214330926E+03  0.20896407880E+03  0.20413215402E+03  0.33318643683E+03  0.90638981531E+02 0.  0.
         23    2    4    4    0    0 -0.61958080305E+03 -0.51467571486E+03  0.59789368716E+03  0.10071508044E+04  0.90024544747E+02 0.  0.
          3    1    3    3  502    0  0.18440529531E+03  0.14629351696E+03 -0.12249120287E+03  0.26535108973E+03  0.00000000000E+00 0. -1.
         -4    1    3    3    0  502  0.30303219848E+03  0.15941811910E+03 -0.99126409533E+02  0.35646696212E+03  0.00000000000E+00 0.  1.
         13    1    5    5    0    0  0.95396726410E+02  0.68938429097E+02  0.10503034842E+03  0.15774795246E+03  0.00000000000E+00 0.  1.
        -13    1    5    5    0    0  0.36746582850E+02  0.14002564970E+03  0.99101805607E+02  0.17543848437E+03  0.00000000000E+00 0. -1.
          1    1    6    6  503    0 -0.30607315932E+03 -0.31144294825E+03  0.33318668631E+03  0.54926392273E+03  0.00000000000E+00 0. -1.
         -1    1    6    6    0  503 -0.31350764373E+03 -0.20323276661E+03  0.26470700084E+03  0.45788688166E+03  0.00000000000E+00 0.  1.
<mgrwt>
<rscale>  0 0.18743478E+04</rscale>
<asrwt>0</asrwt>
<pdfrwt beam="1">  1        1 0.19558181E+00 0.18743478E+04</pdfrwt>
<pdfrwt beam="2">  1       -2 0.10628824E+00 0.18743478E+04</pdfrwt>
<totfact> 0.55699581E+00</totfact>
</mgrwt>
</event>
<event>
12    5  0.5095719E-008  0.1044218E+04  0.7818608E-02  0.9261334E-01
          1   -1    0    0  501    0  0.00000000000E+00  0.00000000000E+00  0.10424148853E+04  0.10424148853E+04  0.00000000000E+00 0. -1.
         -2   -1    0    0    0  501 -0.00000000000E+00 -0.00000000000E+00 -0.26150629010E+03  0.26150629010E+03  0.00000000000E+00 0.  1.
        -24    2    1    2    0    0 -0.25270179543E+01  0.10340709760E+03  0.56619210106E+02  0.14230204544E+03  0.79653772839E+02 0.  0.
        254    2    1    2    0    0  0.25270179543E+01 -0.10340709760E+03  0.72428938510E+03  0.11616191300E+04  0.90225521672E+03 0.  0.
         23    2    4    4    0    0  0.15838988459E+03  0.36066057675E+03  0.39009701816E+03  0.56184968729E+03  0.91301590180E+02 0.  0.
         23    2    4    4    0    0 -0.15586286664E+03 -0.46406767435E+03  0.33419236694E+03  0.59976944269E+03  0.91579510205E+02 0.  0.
          3    1    3    3  502    0  0.36812728055E+02  0.31143565948E+02  0.22941483556E+02  0.53398598432E+02  0.00000000000E+00 0. -1.
         -4    1    3    3    0  502 -0.39339746009E+02  0.72263531657E+02  0.33677726550E+02  0.88903447004E+02  0.00000000000E+00 0.  1.
         13    1    5    5    0    0  0.15511485619E+03  0.33838207974E+03  0.39027545363E+03  0.53933104880E+03  0.00000000000E+00 0. -1.
        -13    1    5    5    0    0  0.32750283962E+01  0.22278497008E+02 -0.17843546879E+00  0.22518638483E+02  0.00000000000E+00 0.  1.
          4    1    6    6  503    0 -0.79316950844E+02 -0.11016844596E+03  0.83592842709E+02  0.15942405254E+03  0.00000000000E+00 0. -1.
         -4    1    6    6    0  503 -0.76545915793E+02 -0.35389922839E+03  0.25059952423E+03  0.44034539015E+03  0.00000000000E+00 0.  1.
<mgrwt>
<rscale>  0 0.10442185E+04</rscale>
<asrwt>0</asrwt>
<pdfrwt beam="1">  1        1 0.16037152E+00 0.10442185E+04</pdfrwt>
<pdfrwt beam="2">  1       -2 0.40231738E-01 0.10442185E+04</pdfrwt>
<totfact> 0.71878641E+01</totfact>
</mgrwt>
</event>
<event>
12    5  0.5095719E-008  0.1414786E+04  0.7818608E-02  0.8943185E-01
         -2   -1    0    0    0  501 -0.00000000000E+00  0.00000000000E+00  0.80673221634E+03  0.80673221634E+03  0.00000000000E+00 0.  1.
          1   -1    0    0  501    0  0.00000000000E+00 -0.00000000000E+00 -0.62028638807E+03  0.62028638807E+03  0.00000000000E+00 0. -1.
        -24    2    1    2    0    0  0.25280845433E+03  0.17294276625E+03 -0.22157296751E+03  0.38609317089E+03  0.78434952007E+02 0.  0.
        254    2    1    2    0    0 -0.25280845433E+03 -0.17294276625E+03  0.40801879578E+03  0.10409254335E+04  0.90731753287E+03 0.  0.
         23    2    4    4    0    0  0.73284093571E+02 -0.35255316084E+03 -0.11836408660E+03  0.38953093390E+03  0.89777513177E+02 0.  0.
         23    2    4    4    0    0 -0.32609254790E+03  0.17961039460E+03  0.52638288239E+03  0.65139449962E+03  0.92949511147E+02 0.  0.
          3    1    3    3  502    0  0.20128641492E+03  0.13978594894E+03 -0.21208635319E+03  0.32409405048E+03  0.00000000000E+00 0. -1.
         -4    1    3    3    0  502  0.51522039418E+02  0.33156817309E+02 -0.94866143229E+01  0.61999120406E+02  0.00000000000E+00 0.  1.
         13    1    5    5    0    0  0.10727905246E+02 -0.27382872580E+02  0.14435416161E+02  0.32761118745E+02  0.00000000000E+00 0. -1.
        -13    1    5    5    0    0  0.62556188326E+02 -0.32517028826E+03 -0.13279950277E+03  0.35676981515E+03  0.00000000000E+00 0.  1.
          3    1    6    6  503    0 -0.16532538384E+03  0.98579242290E+02  0.19342478879E+03  0.27288000746E+03  0.00000000000E+00 0. -1.
         -3    1    6    6    0  503 -0.16076716406E+03  0.81031152305E+02  0.33295809360E+03  0.37851449216E+03  0.00000000000E+00 0.  1.
<mgrwt>
<rscale>  0 0.14147862E+04</rscale>
<asrwt>0</asrwt>
<pdfrwt beam="1">  1        1 0.95428675E-01 0.14147862E+04</pdfrwt>
<pdfrwt beam="2">  1       -2 0.12411265E+00 0.14147862E+04</pdfrwt>
<totfact> 0.13572553E+01</totfact>
</mgrwt>
</event>
<event>
12    5  0.5095719E-008  0.1767207E+04  0.7818608E-02  0.8723935E-01
         -2   -1    0    0    0  501 -0.00000000000E+00  0.00000000000E+00  0.59116607910E+03  0.59116607910E+03  0.00000000000E+00 0.  1.
          1   -1    0    0  501    0  0.00000000000E+00 -0.00000000000E+00 -0.13207037119E+04  0.13207037119E+04  0.00000000000E+00 0. -1.
        -24    2    1    2    0    0  0.13659386002E+03 -0.45415511225E+03  0.19993998177E+03  0.52087297362E+03  0.80111857820E+02 0.  0.
        254    2    1    2    0    0 -0.13659386002E+03  0.45415511225E+03 -0.92947761459E+03  0.13909968174E+04  0.91979821777E+03 0.  0.
         23    2    4    4    0    0  0.50543000486E+02  0.30124418608E+03  0.96191808825E+02  0.33331835816E+03  0.92442464575E+02 0.  0.
         23    2    4    4    0    0 -0.18713686051E+03  0.15291092617E+03 -0.10256694234E+04  0.10576784592E+04  0.91016488084E+02 0.  0.
          3    1    3    3  502    0  0.35948920434E+02 -0.17333209733E+03  0.11352343897E+03  0.21029482172E+03  0.00000000000E+00 0. -1.
         -4    1    3    3    0  502  0.10064493958E+03 -0.28082301491E+03  0.86416542798E+02  0.31057815190E+03  0.00000000000E+00 0.  1.
         13    1    5    5    0    0  0.50501665227E+02  0.30389185286E+03  0.10394659821E+03  0.32512393284E+03  0.00000000000E+00 0. -1.
        -13    1    5    5    0    0  0.41335259574E-01 -0.26476667787E+01 -0.77547893844E+01  0.81944253229E+01  0.00000000000E+00 0.  1.
          1    1    6    6  503    0 -0.16431390937E+03  0.15185446346E+03 -0.79510364611E+03  0.82598344229E+03  0.00000000000E+00 0. -1.
         -1    1    6    6    0  503 -0.22822951133E+02  0.10564627078E+01 -0.23056577730E+03  0.23169501694E+03  0.00000000000E+00 0.  1.
<mgrwt>
<rscale>  0 0.17672071E+04</rscale>
<asrwt>0</asrwt>
<pdfrwt beam="1">  1        1 0.20318519E+00 0.17672071E+04</pdfrwt>
<pdfrwt beam="2">  1       -2 0.90948628E-01 0.17672071E+04</pdfrwt>
<totfact> 0.74866057E+00</totfact>
</mgrwt>
</event>
<event>
12    5  0.5095719E-008  0.1303321E+04  0.7818608E-02  0.9026935E-01
          1   -1    0    0  501    0  0.00000000000E+00  0.00000000000E+00  0.86395659874E+03  0.86395659874E+03  0.00000000000E+00 0. -1.
         -2   -1    0    0    0  501 -0.00000000000E+00 -0.00000000000E+00 -0.49153129458E+03  0.49153129458E+03  0.00000000000E+00 0.  1.
        -24    2    1    2    0    0 -0.80801184249E+02 -0.28899932818E+03  0.24934652816E+03  0.39814200810E+03  0.79334257691E+02 0.  0.
        254    2    1    2    0    0  0.80801184249E+02  0.28899932818E+03  0.12307877600E+03  0.95734588523E+03  0.90072932438E+03 0.  0.
         23    2    4    4    0    0  0.11361194422E+03  0.51815368626E+03 -0.17736842122E+03  0.56650279722E+03  0.89860703087E+02 0.  0.
         23    2    4    4    0    0 -0.32810759967E+02 -0.22915435808E+03  0.30044719722E+03  0.39084308801E+03  0.94347948202E+02 0.  0.
          3    1    3    3  502    0 -0.55577792750E+02 -0.22817534549E+03  0.14901771274E+03  0.27813514350E+03  0.00000000000E+00 0. -1.
         -4    1    3    3    0  502 -0.25223391500E+02 -0.60823982688E+02  0.10032881541E+03  0.12000686460E+03  0.00000000000E+00 0.  1.
         13    1    5    5    0    0  0.80757208825E+02  0.48374371095E+03 -0.16244158508E+03  0.51664008094E+03  0.00000000000E+00 0.  1.
        -13    1    5    5    0    0  0.32854735391E+02  0.34409975302E+02 -0.14926836140E+02  0.49862716282E+02  0.00000000000E+00 0. -1.
          2    1    6    6  503    0  0.96402956122E+01 -0.90695367257E+01  0.62759559495E+02  0.64140113064E+02  0.00000000000E+00 0. -1.
         -2    1    6    6    0  503 -0.42451055579E+02 -0.22008482135E+03  0.23768763773E+03  0.32670297495E+03  0.00000000000E+00 0.  1.
<mgrwt>
<rscale>  0 0.13033215E+04</rscale>
<asrwt>0</asrwt>
<pdfrwt beam="1">  1        1 0.13291640E+00 0.13033215E+04</pdfrwt>
<pdfrwt beam="2">  1       -2 0.75620199E-01 0.13033215E+04</pdfrwt>
<totfact> 0.26312298E+01</totfact>
</mgrwt>
</event>
<event>
12    5  0.5095719E-008  0.2089754E+04  0.7818608E-02  0.8565770E-01
         -2   -1    0    0    0  501 -0.00000000000E+00  0.00000000000E+00  0.75955881969E+03  0.75955881969E+03  0.00000000000E+00 0.  1.
          1   -1    0    0  501    0  0.00000000000E+00 -0.00000000000E+00 -0.14373709323E+04  0.14373709323E+04  0.00000000000E+00 0. -1.
        -24    2    1    2    0    0  0.13668230840E+03 -0.56276445442E+03  0.37526397740E+03  0.69466083753E+03  0.79653888044E+02 0.  0.
        254    2    1    2    0    0 -0.13668230840E+03  0.56276445442E+03 -0.10530760900E+04  0.15022689145E+04  0.90136383077E+03 0.  0.
         23    2    4    4    0    0 -0.30772398860E+03  0.29292442856E+03 -0.41517757976E+02  0.43747525936E+03  0.95718881694E+02 0.  0.
         23    2    4    4    0    0  0.17104168020E+03  0.26984002586E+03 -0.10115583320E+04  0.10647936551E+04  0.92012895464E+02 0.  0.
          3    1    3    3  502    0  0.19003833459E+02 -0.56216672102E+02  0.69526136823E+02  0.91407568668E+02  0.00000000000E+00 0. -1.
         -4    1    3    3    0  502  0.11767847494E+03 -0.50654778232E+03  0.30573784058E+03  0.60325326886E+03  0.00000000000E+00 0.  1.
         13    1    5    5    0    0 -0.27229363154E+03  0.20795448696E+03 -0.21711066389E+02  0.34330782226E+03  0.00000000000E+00 0.  1.
        -13    1    5    5    0    0 -0.35430357064E+02  0.84969941597E+02 -0.19806691588E+02  0.94167437091E+02  0.00000000000E+00 0. -1.
          3    1    6    6  503    0 -0.16960659012E+01  0.20264694481E+02 -0.23059892886E+02  0.30745619881E+02  0.00000000000E+00 0. -1.
         -3    1    6    6    0  503  0.17273774611E+03  0.24957533138E+03 -0.98849843914E+03  0.10340480352E+04  0.00000000000E+00 0.  1.
<mgrwt>
<rscale>  0 0.20897538E+04</rscale>
<asrwt>0</asrwt>
<pdfrwt beam="1">  1        1 0.22113399E+00 0.20897538E+04</pdfrwt>
<pdfrwt beam="2">  1       -2 0.11685520E+00 0.20897538E+04</pdfrwt>
<totfact> 0.33134249E+00</totfact>
</mgrwt>
</event>
<event>
12    5  0.5095719E-008  0.2276765E+04  0.7818608E-02  0.8487139E-01
         -2   -1    0    0    0  501 -0.00000000000E+00  0.00000000000E+00  0.16226199457E+04  0.16226199457E+04  0.00000000000E+00 0.  1.
          1   -1    0    0  501    0  0.00000000000E+00 -0.00000000000E+00 -0.79865587869E+03  0.79865587869E+03  0.00000000000E+00 0. -1.
        -24    2    1    2    0    0 -0.66554656766E+03  0.67923871793E+03  0.46895290092E+03  0.10630616623E+04  0.76588542884E+02 0.  0.
        254    2    1    2    0    0  0.66554656766E+03 -0.67923871793E+03  0.35501116607E+03  0.13582141621E+04  0.90243853663E+03 0.  0.
         23    2    4    4    0    0  0.41792726016E+03 -0.59260883973E+03  0.63173327756E+03  0.96603256284E+03  0.91013992186E+02 0.  0.
         23    2    4    4    0    0  0.24761930750E+03 -0.86629878194E+02 -0.27672211149E+03  0.39218159924E+03  0.91712717519E+02 0.  0.
          1    1    3    3  502    0 -0.14580572146E+03  0.17754894659E+03  0.14248314561E+03  0.27034123554E+03  0.00000000000E+00 0. -1.
         -2    1    3    3    0  502 -0.51974084620E+03  0.50168977133E+03  0.32646975530E+03  0.79272042676E+03  0.00000000000E+00 0.  1.
         13    1    5    5    0    0  0.33693949851E+02 -0.73246226041E+02  0.10555711919E+03  0.13282543920E+03  0.00000000000E+00 0.  1.
        -13    1    5    5    0    0  0.38423331031E+03 -0.51936261369E+03  0.52617615837E+03  0.83320712364E+03  0.00000000000E+00 0. -1.
          1    1    6    6  503    0  0.12780649340E+03 -0.80901542955E+01 -0.88611660681E+02  0.15573046189E+03  0.00000000000E+00 0.  1.
         -1    1    6    6    0  503  0.11981281410E+03 -0.78539723898E+02 -0.18811045081E+03  0.23645113735E+03  0.00000000000E+00 0. -1.
<mgrwt>
<rscale>  0 0.22767652E+04</rscale>
<asrwt>0</asrwt>
<pdfrwt beam="1">  1        1 0.12287014E+00 0.22767652E+04</pdfrwt>
<pdfrwt beam="2">  1       -2 0.24963384E+00 0.22767652E+04</pdfrwt>
<totfact> 0.11366480E+00</totfact>
</mgrwt>
</event>
<event>
12    5  0.5095719E-008  0.1159899E+04  0.7818608E-02  0.9148699E-01
          1   -1    0    0  501    0  0.00000000000E+00  0.00000000000E+00  0.17407763894E+04  0.17407763894E+04  0.00000000000E+00 0. -1.
         -2   -1    0    0    0  501 -0.00000000000E+00 -0.00000000000E+00 -0.19321348682E+03  0.19321348682E+03  0.00000000000E+00 0.  1.
        -24    2    1    2    0    0  0.16630659541E+02 -0.40498325144E+01  0.59269042788E+03  0.59824069251E+03  0.79479575362E+02 0.  0.
        254    2    1    2    0    0 -0.16630659541E+02  0.40498325144E+01  0.95487247468E+03  0.13357491837E+04  0.93389049617E+03 0.  0.
         23    2    4    4    0    0  0.73434134918E+02  0.28840127074E+03  0.97641252444E+03  0.10250620611E+04  0.93824016363E+02 0.  0.
         23    2    4    4    0    0 -0.90064794460E+02 -0.28435143822E+03 -0.21540049761E+02  0.31068712261E+03  0.84232456866E+02 0.  0.
          3    1    3    3  502    0  0.12224859184E+02 -0.16018517676E+02  0.57965043259E+03  0.58000057249E+03  0.00000000000E+00 0. -1.
         -4    1    3    3    0  502  0.44058003568E+01  0.11968685162E+02  0.13039995294E+02  0.18240120026E+02  0.00000000000E+00 0.  1.
         13    1    5    5    0    0  0.84509147093E+02  0.15337285256E+03  0.59882422672E+03  0.62390342390E+03  0.00000000000E+00 0.  1.
        -13    1    5    5    0    0 -0.11075012174E+02  0.13502841818E+03  0.37758829772E+03  0.40115863718E+03  0.00000000000E+00 0. -1.
          2    1    6    6  503    0  0.13396724793E+02 -0.13334298436E+02 -0.72397241719E+01  0.20240784472E+02  0.00000000000E+00 0. -1.
         -2    1    6    6    0  503 -0.10346151925E+03 -0.27101713979E+03 -0.14300325589E+02  0.29044633814E+03  0.00000000000E+00 0.  1.
<mgrwt>
<rscale>  0 0.11598991E+04</rscale>
<asrwt>0</asrwt>
<pdfrwt beam="1">  1        1 0.26781174E+00 0.11598991E+04</pdfrwt>
<pdfrwt beam="2">  1       -2 0.29725153E-01 0.11598991E+04</pdfrwt>
<totfact> 0.40652468E+01</totfact>
</mgrwt>
</event>
<event>
12    5  0.5095719E-008  0.1172708E+04  0.7818608E-02  0.9137086E-01
         -2   -1    0    0    0  501 -0.00000000000E+00  0.00000000000E+00  0.22040200105E+04  0.22040200105E+04  0.00000000000E+00 0.  1.
          1   -1    0    0  501    0  0.00000000000E+00 -0.00000000000E+00 -0.15599271364E+03  0.15599271364E+03  0.00000000000E+00 0. -1.
        -24    2    1    2    0    0 -0.18702601324E+03  0.15328748179E+03  0.33050101582E+03  0.41745355968E+03  0.80998588426E+02 0.  0.
        254    2    1    2    0    0  0.18702601324E+03 -0.15328748179E+03  0.17175262811E+04  0.19425591645E+04  0.87473641728E+03 0.  0.
         23    2    4    4    0    0 -0.27039832499E+03  0.10723819454E+03  0.10170429832E+04  0.10617086375E+04  0.90738728196E+02 0.  0.
         23    2    4    4    0    0  0.45742433822E+03 -0.26052567633E+03  0.70048329788E+03  0.88085052699E+03  0.90056354892E+02 0.  0.
          3    1    3    3  502    0 -0.74079786944E+01  0.28694124658E+02  0.78185324391E+02  0.83613251871E+02  0.00000000000E+00 0. -1.
         -4    1    3    3    0  502 -0.17961803454E+03  0.12459335713E+03  0.25231569143E+03  0.33384030781E+03  0.00000000000E+00 0.  1.
         13    1    5    5    0    0 -0.93247488832E+02 -0.74272877012E+01  0.32769025733E+03  0.34078022760E+03  0.00000000000E+00 0.  1.
        -13    1    5    5    0    0 -0.17715083615E+03  0.11466548224E+03  0.68935272585E+03  0.72092840991E+03  0.00000000000E+00 0. -1.
          3    1    6    6  503    0  0.35869342719E+03 -0.19923469859E+03  0.47883325456E+03  0.63058443170E+03  0.00000000000E+00 0. -1.
         -3    1    6    6    0  503  0.98730911034E+02 -0.61290977746E+02  0.22165004332E+03  0.25026609529E+03  0.00000000000E+00 0.  1.
<mgrwt>
<rscale>  0 0.11727081E+04</rscale>
<asrwt>0</asrwt>
<pdfrwt beam="1">  1        1 0.23998881E-01 0.11727081E+04</pdfrwt>
<pdfrwt beam="2">  1       -2 0.33907998E+00 0.11727081E+04</pdfrwt>
<totfact> 0.32895227E+00</totfact>
</mgrwt>
</event>
<event>
12    5  0.5095719E-008  0.2176684E+04  0.7818608E-02  0.8528196E-01
         -2   -1    0    0    0  501 -0.00000000000E+00  0.00000000000E+00  0.12699325478E+04  0.12699325478E+04  0.00000000000E+00 0.  1.
          1   -1    0    0  501    0  0.00000000000E+00 -0.00000000000E+00 -0.93271723605E+03  0.93271723605E+03  0.00000000000E+00 0. -1.
        -24    2    1    2    0    0 -0.24217037873E+03 -0.85109266014E+03 -0.40981270285E+02  0.88945592586E+03  0.80294277779E+02 0.  0.
        254    2    1    2    0    0  0.24217037873E+03  0.85109266014E+03  0.37819658201E+03  0.13131938580E+04  0.89355483630E+03 0.  0.
         23    2    4    4    0    0 -0.90835065655E+02  0.88632861563E+03  0.17752533677E+03  0.91209943405E+03  0.81121565268E+02 0.  0.
         23    2    4    4    0    0  0.33300544439E+03 -0.35235955493E+02  0.20067124523E+03  0.40109442392E+03  0.92052103081E+02 0.  0.
          3    1    3    3  502    0 -0.19905620203E+02 -0.15826502312E+03  0.11727253675E+02  0.15994242632E+03  0.00000000000E+00 0. -1.
         -4    1    3    3    0  502 -0.22226475853E+03 -0.69282763702E+03 -0.52708523961E+02  0.72951349954E+03  0.00000000000E+00 0.  1.
         13    1    5    5    0    0 -0.30456195017E+02  0.17158899317E+03  0.49283001641E+01  0.17434061643E+03  0.00000000000E+00 0.  1.
        -13    1    5    5    0    0 -0.60378870638E+02  0.71473962246E+03  0.17259703661E+03  0.73775881762E+03  0.00000000000E+00 0. -1.
          4    1    6    6  503    0  0.33241099852E+03 -0.26165049466E+02  0.18093839807E+03  0.37936840359E+03  0.00000000000E+00 0. -1.
         -4    1    6    6    0  503  0.59444587306E+00 -0.90709060273E+01  0.19732847160E+02  0.21726020323E+02  0.00000000000E+00 0.  1.
<mgrwt>
<rscale>  0 0.21766837E+04</rscale>
<asrwt>0</asrwt>
<pdfrwt beam="1">  1        1 0.14349496E+00 0.21766837E+04</pdfrwt>
<pdfrwt beam="2">  1       -2 0.19537424E+00 0.21766837E+04</pdfrwt>
<totfact> 0.19553281E+00</totfact>
</mgrwt>
</event>
<event>
12    5  0.5095719E-008  0.1859854E+04  0.7818608E-02  0.8675102E-01
         -2   -1    0    0    0  501 -0.00000000000E+00  0.00000000000E+00  0.20410882295E+04  0.20410882295E+04  0.00000000000E+00 0.  1.
          1   -1    0    0  501    0  0.00000000000E+00 -0.00000000000E+00 -0.42367813739E+03  0.42367813739E+03  0.00000000000E+00 0. -1.
        -24    2    1    2    0    0 -0.21998980482E+03 -0.40862218372E+03 -0.10418958303E+03  0.48301408664E+03  0.84139975220E+02 0.  0.
        254    2    1    2    0    0  0.21998980482E+03  0.40862218372E+03  0.17215996751E+04  0.19817522802E+04  0.86490985400E+03 0.  0.
         23    2    4    4    0    0  0.13529259105E+03  0.64648878226E+03  0.91614897205E+03  0.11330939501E+04  0.91220228096E+02 0.  0.
         23    2    4    4    0    0  0.84697213776E+02 -0.23786659855E+03  0.80545070305E+03  0.84865833009E+03  0.87840705067E+02 0.  0.
          3    1    3    3  502    0 -0.21094885629E+03 -0.33278401841E+03 -0.74060525484E+02  0.40091094312E+03  0.00000000000E+00 0. -1.
         -2    1    3    3    0  502 -0.90409485357E+01 -0.75838165306E+02 -0.30129057544E+02  0.82103143520E+02  0.00000000000E+00 0.  1.
         13    1    5    5    0    0  0.12340019792E+03  0.37034288278E+03  0.53705633260E+03  0.66393596383E+03  0.00000000000E+00 0. -1.
        -13    1    5    5    0    0  0.11892393128E+02  0.27614589948E+03  0.37909263945E+03  0.46915798629E+03  0.00000000000E+00 0.  1.
          3    1    6    6  503    0  0.76476098744E+02 -0.20318597273E+03  0.76271000524E+03  0.79300673723E+03  0.00000000000E+00 0. -1.
         -3    1    6    6    0  503  0.82211150320E+01 -0.34680625811E+02  0.42740697806E+02  0.55651592861E+02  0.00000000000E+00 0.  1.
<mgrwt>
<rscale>  0 0.18598543E+04</rscale>
<asrwt>0</asrwt>
<pdfrwt beam="1">  1        1 0.65181253E-01 0.18598543E+04</pdfrwt>
<pdfrwt beam="2">  1       -2 0.31401357E+00 0.18598543E+04</pdfrwt>
<totfact> 0.11916719E+00</totfact>
</mgrwt>
</event>
<event>
12    5  0.5095719E-008  0.1298447E+04  0.7818608E-02  0.9030798E-01
         -2   -1    0    0    0  501 -0.00000000000E+00  0.00000000000E+00  0.27629290162E+03  0.27629290162E+03  0.00000000000E+00 0.  1.
          1   -1    0    0  501    0  0.00000000000E+00 -0.00000000000E+00 -0.15255232033E+04  0.15255232033E+04  0.00000000000E+00 0. -1.
        -24    2    1    2    0    0 -0.87760783411E+02  0.93630235344E+02  0.97433464460E+02  0.17986735005E+03  0.79940024648E+02 0.  0.
        254    2    1    2    0    0  0.87760783411E+02 -0.93630235344E+02 -0.13466637662E+04  0.16219487549E+04  0.89484405811E+03 0.  0.
         23    2    4    4    0    0  0.38005944391E+03  0.32121339720E+02 -0.22861957377E+03  0.45567926344E+03  0.99497337885E+02 0.  0.
         23    2    4    4    0    0 -0.29229866050E+03 -0.12575157506E+03 -0.11180441924E+04  0.11662694915E+04  0.94391445575E+02 0.  0.
          1    1    3    3  502    0 -0.65183288671E+02  0.88857125059E+02  0.38760867055E+02  0.11681975266E+03  0.00000000000E+00 0. -1.
         -2    1    3    3    0  502 -0.22577494740E+02  0.47731102847E+01  0.58672597405E+02  0.63047597391E+02  0.00000000000E+00 0.  1.
         13    1    5    5    0    0  0.31893771618E+03  0.63919831479E+02 -0.18874256271E+03  0.37607282093E+03  0.00000000000E+00 0.  1.
        -13    1    5    5    0    0  0.61121727726E+02 -0.31798491759E+02 -0.39877011066E+02  0.79606442515E+02  0.00000000000E+00 0. -1.
          2    1    6    6  503    0 -0.11889399009E+03 -0.10626086168E+02 -0.32033140154E+03  0.34184923782E+03  0.00000000000E+00 0. -1.
         -2    1    6    6    0  503 -0.17340467041E+03 -0.11512548890E+03 -0.79771279087E+03  0.82442025365E+03  0.00000000000E+00 0.  1.
<mgrwt>
<rscale>  0 0.12984471E+04</rscale>
<asrwt>0</asrwt>
<pdfrwt beam="1">  1        1 0.23469587E+00 0.12984471E+04</pdfrwt>
<pdfrwt beam="2">  1       -2 0.42506601E-01 0.12984471E+04</pdfrwt>
<totfact> 0.28410773E+01</totfact>
</mgrwt>
</event>
<event>
12    5  0.5095719E-008  0.1135279E+04  0.7818608E-02  0.9171473E-01
         -2   -1    0    0    0  501 -0.00000000000E+00  0.00000000000E+00  0.19624994325E+03  0.19624994325E+03  0.00000000000E+00 0.  1.
          1   -1    0    0  501    0  0.00000000000E+00 -0.00000000000E+00 -0.16418570745E+04  0.16418570745E+04  0.00000000000E+00 0. -1.
        -24    2    1    2    0    0 -0.21792532254E+03  0.10048232779E+01 -0.31302311250E+03  0.39024854875E+03  0.82571211533E+02 0.  0.
        254    2    1    2    0    0  0.21792532254E+03 -0.10048232779E+01 -0.11325840187E+04  0.14478584690E+04  0.87524575454E+03 0.  0.
         23    2    4    4    0    0  0.37237014723E+03 -0.24978475271E+03 -0.10201986927E+04  0.11183692105E+04  0.94299360012E+02 0.  0.
         23    2    4    4    0    0 -0.15444482469E+03  0.24877992943E+03 -0.11238532606E+03  0.32948925845E+03  0.10093588438E+03 0.  0.
          1    1    3    3  502    0 -0.22470621605E+03  0.36828968622E+01 -0.30846447155E+03  0.38165007201E+03  0.00000000000E+00 0. -1.
         -2    1    3    3    0  502  0.67808935113E+01 -0.26780735843E+01 -0.45586409450E+01  0.85984767372E+01  0.00000000000E+00 0.  1.
         13    1    5    5    0    0  0.36803576696E+03 -0.23421621458E+03 -0.10072488910E+04  0.10976601884E+04  0.00000000000E+00 0. -1.
        -13    1    5    5    0    0  0.43343802670E+01 -0.15568538135E+02 -0.12949801725E+02  0.20709022108E+02  0.00000000000E+00 0.  1.
          2    1    6    6  503    0 -0.10260572659E+03  0.22521442738E+03 -0.66246419599E+02  0.25619926139E+03  0.00000000000E+00 0. -1.
         -2    1    6    6    0  503 -0.51839098107E+02  0.23565502057E+02 -0.46138906457E+02  0.73289997059E+02  0.00000000000E+00 0.  1.
<mgrwt>
<rscale>  0 0.11352786E+04</rscale>
<asrwt>0</asrwt>
<pdfrwt beam="1">  1        1 0.25259340E+00 0.11352786E+04</pdfrwt>
<pdfrwt beam="2">  1       -2 0.30192299E-01 0.11352786E+04</pdfrwt>
<totfact> 0.46190931E+01</totfact>
</mgrwt>
</event>
<event>
12    5  0.5095719E-008  0.1452846E+04  0.7818608E-02  0.8916430E-01
          1   -1    0    0  501    0  0.00000000000E+00  0.00000000000E+00  0.19309615221E+04  0.19309615221E+04  0.00000000000E+00 0. -1.
         -2   -1    0    0    0  501 -0.00000000000E+00 -0.00000000000E+00 -0.27327867311E+03  0.27327867311E+03  0.00000000000E+00 0.  1.
        -24    2    1    2    0    0 -0.40146910460E+03 -0.12082330345E+03  0.27302498897E+03  0.50772461885E+03  0.86405621218E+02 0.  0.
        254    2    1    2    0    0  0.40146910460E+03  0.12082330345E+03  0.13846578600E+04  0.16965155764E+04  0.88606545974E+03 0.  0.
         23    2    4    4    0    0  0.62166413780E+03  0.30285164627E+01  0.60236916625E+03  0.87023872568E+03  0.89394379454E+02 0.  0.
         23    2    4    4    0    0 -0.22019503320E+03  0.11779478698E+03  0.78228869376E+03  0.82627685068E+03  0.91631703588E+02 0.  0.
          3    1    3    3  502    0 -0.76679043389E+02 -0.40596944037E+02  0.22114075919E+02  0.89536695907E+02  0.00000000000E+00 0. -1.
         -4    1    3    3    0  502 -0.32479006121E+03 -0.80226359408E+02  0.25091091305E+03  0.41818792294E+03  0.00000000000E+00 0.  1.
         13    1    5    5    0    0  0.33334450046E+03 -0.32139596825E+02  0.36274364054E+03  0.49369470164E+03  0.00000000000E+00 0. -1.
        -13    1    5    5    0    0  0.28831963734E+03  0.35168113288E+02  0.23962552571E+03  0.37654402404E+03  0.00000000000E+00 0.  1.
          2    1    6    6  503    0 -0.38853367885E+02  0.10870749211E+01  0.52692532404E+02  0.65477239550E+02  0.00000000000E+00 0. -1.
         -2    1    6    6    0  503 -0.18134166532E+03  0.11670771206E+03  0.72959616135E+03  0.76079961113E+03  0.00000000000E+00 0.  1.
<mgrwt>
<rscale>  0 0.14528463E+04</rscale>
<asrwt>0</asrwt>
<pdfrwt beam="1">  1        1 0.29707099E+00 0.14528463E+04</pdfrwt>
<pdfrwt beam="2">  1       -2 0.42042874E-01 0.14528463E+04</pdfrwt>
<totfact> 0.15179685E+01</totfact>
</mgrwt>
</event>
<event>
12    5  0.5095719E-008  0.1753786E+04  0.7818608E-02  0.8731269E-01
          1   -1    0    0  501    0  0.00000000000E+00  0.00000000000E+00  0.30534758822E+04  0.30534758822E+04  0.00000000000E+00 0. -1.
         -2   -1    0    0    0  501 -0.00000000000E+00 -0.00000000000E+00 -0.25182491353E+03  0.25182491353E+03  0.00000000000E+00 0.  1.
        -24    2    1    2    0    0 -0.24632438321E+03  0.58809507563E+03  0.10647311737E+04  0.12438179954E+04  0.83061505303E+02 0.  0.
        254    2    1    2    0    0  0.24632438321E+03 -0.58809507563E+03  0.17369197949E+04  0.20614828003E+04  0.90900464365E+03 0.  0.
         23    2    4    4    0    0 -0.21945870682E+03 -0.56410178540E+03  0.11769897321E+04  0.13266017471E+04  0.90523022419E+02 0.  0.
         23    2    4    4    0    0  0.46578309003E+03 -0.23993290226E+02  0.55993006283E+03  0.73488105322E+03  0.94862649081E+02 0.  0.
          3    1    3    3  502    0 -0.82277063000E+02  0.19207193912E+03  0.27654887947E+03  0.34661279207E+03  0.00000000000E+00 0. -1.
         -2    1    3    3    0  502 -0.16404732021E+03  0.39602313651E+03  0.78818229424E+03  0.89720520332E+03  0.00000000000E+00 0.  1.
         13    1    5    5    0    0 -0.11281866791E+03 -0.32762636466E+03  0.57891688470E+03  0.67469389062E+03  0.00000000000E+00 0. -1.
        -13    1    5    5    0    0 -0.10664003891E+03 -0.23647542074E+03  0.59807284741E+03  0.65190785647E+03  0.00000000000E+00 0.  1.
          3    1    6    6  503    0  0.16579903375E+03  0.30740047659E+02  0.23541545970E+03  0.28957677530E+03  0.00000000000E+00 0. -1.
         -3    1    6    6    0  503  0.29998405628E+03 -0.54733337886E+02  0.32451460312E+03  0.44530427793E+03  0.00000000000E+00 0.  1.
<mgrwt>
<rscale>  0 0.17537860E+04</rscale>
<asrwt>0</asrwt>
<pdfrwt beam="1">  1        1 0.46976549E+00 0.17537860E+04</pdfrwt>
<pdfrwt beam="2">  1       -2 0.38742297E-01 0.17537860E+04</pdfrwt>
<totfact> 0.28719144E+00</totfact>
</mgrwt>
</event>
<event>
12    5  0.5095719E-008  0.2411531E+04  0.7818608E-02  0.8435199E-01
         -2   -1    0    0    0  501 -0.00000000000E+00  0.00000000000E+00  0.10183316179E+04  0.10183316179E+04  0.00000000000E+00 0.  1.
          1   -1    0    0  501    0  0.00000000000E+00 -0.00000000000E+00 -0.14276980875E+04  0.14276980875E+04  0.00000000000E+00 0. -1.
        -24    2    1    2    0    0  0.65517363180E+03 -0.80792828745E+03 -0.24328166564E+03  0.10712021372E+04  0.79293407086E+02 0.  0.
        254    2    1    2    0    0 -0.65517363180E+03  0.80792828745E+03 -0.16608480396E+03  0.13748275683E+04  0.88349650536E+03 0.  0.
         23    2    4    4    0    0 -0.80669992769E+03  0.77692725199E+03 -0.27971070003E+03  0.11580951115E+04  0.92549896170E+02 0.  0.
         23    2    4    4    0    0  0.15152629589E+03  0.31001035462E+02  0.11362589607E+03  0.21673245683E+03  0.10070169334E+03 0.  0.
          1    1    3    3  502    0  0.43605229243E+03 -0.55018317445E+03 -0.20122900477E+03  0.73029873308E+03  0.00000000000E+00 0. -1.
         -2    1    3    3    0  502  0.21912133938E+03 -0.25774511300E+03 -0.42052660870E+02  0.34090340411E+03  0.00000000000E+00 0.  1.
         13    1    5    5    0    0 -0.42388454903E+03  0.38773910023E+03 -0.18857687701E+03  0.60463291284E+03  0.00000000000E+00 0. -1.
        -13    1    5    5    0    0 -0.38281537866E+03  0.38918815176E+03 -0.91133823026E+02  0.55346219863E+03  0.00000000000E+00 0.  1.
          4    1    6    6  503    0  0.26655398948E+02  0.30518667101E+02  0.76315560439E+02  0.86405810567E+02  0.00000000000E+00 0. -1.
         -4    1    6    6    0  503  0.12487089694E+03  0.48236836105E+00  0.37310335631E+02  0.13032664626E+03  0.00000000000E+00 0.  1.
<mgrwt>
<rscale>  0 0.24115307E+04</rscale>
<asrwt>0</asrwt>
<pdfrwt beam="1">  1        1 0.21964586E+00 0.24115307E+04</pdfrwt>
<pdfrwt beam="2">  1       -2 0.15666640E+00 0.24115307E+04</pdfrwt>
<totfact> 0.15399953E+00</totfact>
</mgrwt>
</event>
<event>
12    5  0.5095719E-008  0.1784878E+04  0.7818608E-02  0.8714383E-01
          1   -1    0    0  501    0  0.00000000000E+00  0.00000000000E+00  0.15320742429E+04  0.15320742429E+04  0.00000000000E+00 0. -1.
         -2   -1    0    0    0  501 -0.00000000000E+00 -0.00000000000E+00 -0.51984892388E+03  0.51984892388E+03  0.00000000000E+00 0.  1.
        -24    2    1    2    0    0 -0.44732201639E+02 -0.62529628786E+03  0.12989551504E+03  0.64537073493E+03  0.81450127061E+02 0.  0.
        254    2    1    2    0    0  0.44732201639E+02  0.62529628786E+03  0.88232980396E+03  0.14065524318E+04  0.89826913733E+03 0.  0.
         23    2    4    4    0    0  0.19678671911E+03  0.79249529765E+03  0.80552444015E+03  0.11507875423E+04  0.93104963914E+02 0.  0.
         23    2    4    4    0    0 -0.15205451747E+03 -0.16719900979E+03  0.76805363810E+02  0.25576488950E+03  0.91872355096E+02 0.  0.
          1    1    3    3  502    0  0.43670614189E+01 -0.14576956028E+03  0.62440507660E+02  0.15864001049E+03  0.00000000000E+00 0. -1.
         -2    1    3    3    0  502 -0.49099263058E+02 -0.47952672758E+03  0.67455007383E+02  0.48673072444E+03  0.00000000000E+00 0.  1.
         13    1    5    5    0    0 -0.10336998286E+02  0.44021141292E+02  0.46607845518E+02  0.64938476099E+02  0.00000000000E+00 0. -1.
        -13    1    5    5    0    0  0.20712371740E+03  0.74847415636E+03  0.75891659464E+03  0.10858490662E+04  0.00000000000E+00 0.  1.
          2    1    6    6  503    0 -0.70377389556E+02 -0.37586478782E+02 -0.87993446572E+01  0.80269227069E+02  0.00000000000E+00 0. -1.
         -2    1    6    6    0  503 -0.81677127917E+02 -0.12961253101E+03  0.85604708467E+02  0.17549566243E+03  0.00000000000E+00 0.  1.
<mgrwt>
<rscale>  0 0.17848778E+04</rscale>
<asrwt>0</asrwt>
<pdfrwt beam="1">  1        1 0.23570373E+00 0.17848778E+04</pdfrwt>
<pdfrwt beam="2">  1       -2 0.79976758E-01 0.17848778E+04</pdfrwt>
<totfact> 0.71285219E+00</totfact>
</mgrwt>
</event>
<event>
12    5  0.5095719E-008  0.1221076E+04  0.7818608E-02  0.9094606E-01
          1   -1    0    0  501    0  0.00000000000E+00  0.00000000000E+00  0.17744775129E+04  0.17744775129E+04  0.00000000000E+00 0. -1.
         -2   -1    0    0    0  501 -0.00000000000E+00 -0.00000000000E+00 -0.21006564963E+03  0.21006564963E+03  0.00000000000E+00 0.  1.
        -24    2    1    2    0    0  0.56746013324E+02 -0.17168517596E+03  0.67447151494E+03  0.70282810104E+03  0.79747134588E+02 0.  0.
        254    2    1    2    0    0 -0.56746013324E+02  0.17168517596E+03  0.88994034834E+03  0.12817150615E+04  0.90449088750E+03 0.  0.
         23    2    4    4    0    0 -0.41130252176E+03 -0.13372859093E+03  0.48153032829E+03  0.65362047425E+03  0.91077806570E+02 0.  0.
         23    2    4    4    0    0  0.35455650844E+03  0.30541376689E+03  0.40841002004E+03  0.62809458724E+03  0.93360480762E+02 0.  0.
          3    1    3    3  502    0  0.72420732761E+02 -0.12695914205E+03  0.44085944029E+03  0.46445713729E+03  0.00000000000E+00 0. -1.
         -4    1    3    3    0  502 -0.15674719437E+02 -0.44726033905E+02  0.23361207465E+03  0.23837096375E+03  0.00000000000E+00 0.  1.
         13    1    5    5    0    0 -0.35244566591E+03 -0.12768119482E+03  0.45284072232E+03  0.58786491197E+03  0.00000000000E+00 0. -1.
        -13    1    5    5    0    0 -0.58856855846E+02 -0.60473961105E+01  0.28689605977E+02  0.65755562281E+02  0.00000000000E+00 0.  1.
          1    1    6    6  503    0  0.31904205231E+03  0.24206824045E+03  0.37308687128E+03  0.54733780950E+03  0.00000000000E+00 0. -1.
         -1    1    6    6    0  503  0.35514456123E+02  0.63345526437E+02  0.35323148762E+02  0.80756777745E+02  0.00000000000E+00 0.  1.
<mgrwt>
<rscale>  0 0.12210762E+04</rscale>
<asrwt>0</asrwt>
<pdfrwt beam="1">  1        1 0.27299653E+00 0.12210762E+04</pdfrwt>
<pdfrwt beam="2">  1       -2 0.32317793E-01 0.12210762E+04</pdfrwt>
<totfact> 0.32812796E+01</totfact>
</mgrwt>
</event>
<event>
12    5  0.5095719E-008  0.1002085E+04  0.7818608E-02  0.9306261E-01
         -2   -1    0    0    0  501 -0.00000000000E+00  0.00000000000E+00  0.38753864955E+03  0.38753864955E+03  0.00000000000E+00 0.  1.
          1   -1    0    0  501    0  0.00000000000E+00 -0.00000000000E+00 -0.64778919122E+03  0.64778919122E+03  0.00000000000E+00 0. -1.
        -24    2    1    2    0    0 -0.33112721428E+02  0.25653712487E+02 -0.71404786572E+02  0.11273331934E+03  0.76521843014E+02 0.  0.
        254    2    1    2    0    0  0.33112721428E+02 -0.25653712487E+02 -0.18884575510E+03  0.92259452144E+03  0.90208833630E+03 0.  0.
         23    2    4    4    0    0  0.40082349461E+03 -0.21201467581E+03 -0.55281196590E+01  0.46248573007E+03  0.90844888796E+02 0.  0.
         23    2    4    4    0    0 -0.36771077318E+03  0.18636096332E+03 -0.18331763544E+03  0.46010879137E+03  0.90294645860E+02 0.  0.
          1    1    3    3  502    0 -0.12537719772E+02  0.51848293672E+02 -0.37505991416E+02  0.65208430175E+02  0.00000000000E+00 0. -1.
         -2    1    3    3    0  502 -0.20575001656E+02 -0.26194581186E+02 -0.33898795157E+02  0.47524889160E+02  0.00000000000E+00 0.  1.
         13    1    5    5    0    0  0.33268796257E+03 -0.21026526528E+03 -0.13937729871E+02  0.39381089692E+03  0.00000000000E+00 0. -1.
        -13    1    5    5    0    0  0.68135532045E+02 -0.17494105314E+01  0.84096102119E+01  0.68674833150E+02  0.00000000000E+00 0.  1.
          1    1    6    6  503    0 -0.30310465410E+03  0.18807862813E+03 -0.16433841422E+03  0.39275070475E+03  0.00000000000E+00 0. -1.
         -1    1    6    6    0  503 -0.64606119081E+02 -0.17176648023E+01 -0.18979221218E+02  0.67358086620E+02  0.00000000000E+00 0.  1.
<mgrwt>
<rscale>  0 0.10020845E+04</rscale>
<asrwt>0</asrwt>
<pdfrwt beam="1">  1        1 0.99659874E-01 0.10020845E+04</pdfrwt>
<pdfrwt beam="2">  1       -2 0.59621331E-01 0.10020845E+04</pdfrwt>
<totfact> 0.70557747E+01</totfact>
</mgrwt>
</event>
<event>
12    5  0.5095719E-008  0.1894060E+04  0.7818608E-02  0.8657819E-01
          1   -1    0    0  501    0  0.00000000000E+00  0.00000000000E+00  0.22231783645E+04  0.22231783645E+04  0.00000000000E+00 0. -1.
         -2   -1    0    0    0  501 -0.00000000000E+00 -0.00000000000E+00 -0.40341603611E+03  0.40341603611E+03  0.00000000000E+00 0.  1.
        -24    2    1    2    0    0  0.22355183143E+03 -0.70373396831E+03  0.77858076616E+03  0.10759747616E+04  0.79478039116E+02 0.  0.
        254    2    1    2    0    0 -0.22355183143E+03  0.70373396831E+03  0.10411815622E+04  0.15506196390E+04  0.88042336395E+03 0.  0.
         23    2    4    4    0    0  0.61240906843E+02  0.35099807398E+03 -0.44738228033E+02  0.37048644979E+03  0.91151543165E+02 0.  0.
         23    2    4    4    0    0 -0.28479273828E+03  0.35273589433E+03  0.10859197902E+04  0.11801331892E+04  0.89235858463E+02 0.  0.
          1    1    3    3  502    0  0.87074891811E+02 -0.18700987564E+03  0.25241726696E+03  0.32598958117E+03  0.00000000000E+00 0. -1.
         -2    1    3    3    0  502  0.13647693962E+03 -0.51672409267E+03  0.52616349920E+03  0.74998518044E+03  0.00000000000E+00 0.  1.
         13    1    5    5    0    0  0.17028105445E+01  0.24456045006E+03 -0.15408652878E+02  0.24505130051E+03  0.00000000000E+00 0. -1.
        -13    1    5    5    0    0  0.59538096298E+02  0.10643762393E+03 -0.29329575155E+02  0.12543514929E+03  0.00000000000E+00 0.  1.
          1    1    6    6  503    0 -0.24079616261E+03  0.31676973276E+03  0.10080005052E+04  0.10836931641E+04  0.00000000000E+00 0. -1.
         -1    1    6    6    0  503 -0.43996575665E+02  0.35966161562E+02  0.77919285062E+02  0.96440025053E+02  0.00000000000E+00 0.  1.
<mgrwt>
<rscale>  0 0.18940600E+04</rscale>
<asrwt>0</asrwt>
<pdfrwt beam="1">  1        1 0.34202743E+00 0.18940600E+04</pdfrwt>
<pdfrwt beam="2">  1       -2 0.62064007E-01 0.18940600E+04</pdfrwt>
<totfact> 0.41637153E+00</totfact>
</mgrwt>
</event>
<event>
12    5  0.5095719E-008  0.1653761E+04  0.7818608E-02  0.8788185E-01
         -4   -1    0    0    0  501 -0.00000000000E+00  0.00000000000E+00  0.99120696090E+03  0.99120696090E+03  0.00000000000E+00 0.  1.
          3   -1    0    0  501    0  0.00000000000E+00 -0.00000000000E+00 -0.68979637923E+03  0.68979637923E+03  0.00000000000E+00 0. -1.
        -24    2    1    2    0    0 -0.52489744112E+03  0.17151897167E+03  0.27759682673E+03  0.62357728936E+03  0.82780168317E+02 0.  0.
        254    2    1    2    0    0  0.52489744112E+03 -0.17151897167E+03  0.23813754938E+02  0.10574260508E+04  0.90146917672E+03 0.  0.
         23    2    4    4    0    0  0.63098561378E+02 -0.45366198713E+03 -0.13284774196E+03  0.48649413377E+03  0.96111355377E+02 0.  0.
         23    2    4    4    0    0  0.46179887974E+03  0.28214301547E+03  0.15666149690E+03  0.57093191699E+03  0.92506987402E+02 0.  0.
          1    1    3    3  502    0 -0.46578124277E+03  0.15656717635E+03  0.27370253186E+03  0.56247535303E+03  0.00000000000E+00 0. -1.
         -2    1    3    3    0  502 -0.59116198349E+02  0.14951795319E+02  0.38942948662E+01  0.61101936328E+02  0.00000000000E+00 0.  1.
         13    1    5    5    0    0  0.88238978273E+02 -0.35465637132E+03 -0.11195325274E+03  0.38223133022E+03  0.00000000000E+00 0. -1.
        -13    1    5    5    0    0 -0.25140416895E+02 -0.99005615813E+02 -0.20894489225E+02  0.10426280355E+03  0.00000000000E+00 0.  1.
          2    1    6    6  503    0  0.37606798793E+03  0.24694098446E+03  0.16181515504E+03  0.47811204310E+03  0.00000000000E+00 0. -1.
         -2    1    6    6    0  503  0.85730891806E+02  0.35202031003E+02 -0.51536581352E+01  0.92819873889E+02  0.00000000000E+00 0.  1.
<mgrwt>
<rscale>  0 0.16537605E+04</rscale>
<asrwt>0</asrwt>
<pdfrwt beam="1">  1        3 0.10612252E+00 0.16537605E+04</pdfrwt>
<pdfrwt beam="2">  1       -4 0.15249338E+00 0.16537605E+04</pdfrwt>
<totfact> 0.47370179E-01</totfact>
</mgrwt>
</event>
<event>
12    5  0.5095719E-008  0.1714344E+04  0.7818608E-02  0.8753226E-01
         -2   -1    0    0    0  501 -0.00000000000E+00  0.00000000000E+00  0.17710305046E+03  0.17710305046E+03  0.00000000000E+00 0.  1.
          1   -1    0    0  501    0  0.00000000000E+00 -0.00000000000E+00 -0.41486788640E+04  0.41486788640E+04  0.00000000000E+00 0. -1.
        -24    2    1    2    0    0 -0.29168008479E+03  0.13161581923E+03 -0.28392947506E+04  0.28583425557E+04  0.78278281889E+02 0.  0.
        254    2    1    2    0    0  0.29168008479E+03 -0.13161581923E+03 -0.11322810630E+04  0.14674393588E+04  0.87687962134E+03 0.  0.
         23    2    4    4    0    0 -0.18036215069E+03  0.20322496232E+03 -0.15062310362E+03  0.32425508280E+03  0.92860910345E+02 0.  0.
         23    2    4    4    0    0  0.47204223548E+03 -0.33484078154E+03 -0.98165795936E+03  0.11431842760E+04  0.90970976476E+02 0.  0.
          3    1    3    3  502    0 -0.25161732744E+03  0.92374383987E+02 -0.25140881902E+04  0.25283361593E+04  0.00000000000E+00 0. -1.
         -4    1    3    3    0  502 -0.40062757354E+02  0.39241435240E+02 -0.32520656036E+03  0.33000639641E+03  0.00000000000E+00 0.  1.
         13    1    5    5    0    0 -0.10154845280E+03  0.10568837307E+03 -0.28693743003E+02  0.14935009661E+03  0.00000000000E+00 0. -1.
        -13    1    5    5    0    0 -0.78813697885E+02  0.97536589245E+02 -0.12192936061E+03  0.17490498619E+03  0.00000000000E+00 0.  1.
          1    1    6    6  503    0  0.43615509496E+03 -0.32721070309E+03 -0.88134251284E+03  0.10363699803E+04  0.00000000000E+00 0. -1.
         -1    1    6    6    0  503  0.35887140521E+02 -0.76300784563E+01 -0.10031544652E+03  0.10681429568E+03  0.00000000000E+00 0.  1.
<mgrwt>
<rscale>  0 0.17143438E+04</rscale>
<asrwt>0</asrwt>
<pdfrwt beam="1">  1        1 0.63825827E+00 0.17143438E+04</pdfrwt>
<pdfrwt beam="2">  1       -2 0.27246624E-01 0.17143438E+04</pdfrwt>
<totfact> 0.73328856E-01</totfact>
</mgrwt>
</event>
<event>
12    5  0.5095719E-008  0.2667671E+04  0.7818608E-02  0.8345572E-01
         -2   -1    0    0    0  501 -0.00000000000E+00  0.00000000000E+00  0.14473195732E+04  0.14473195732E+04  0.00000000000E+00 0.  1.
          1   -1    0    0  501    0  0.00000000000E+00 -0.00000000000E+00 -0.12292494152E+04  0.12292494152E+04  0.00000000000E+00 0. -1.
        -24    2    1    2    0    0  0.91165876457E+03  0.83918115242E+02  0.84127962699E+03  0.12461695859E+04  0.83804970125E+02 0.  0.
        254    2    1    2    0    0 -0.91165876457E+03 -0.83918115242E+02 -0.62320946898E+03  0.14303994025E+04  0.90525601641E+03 0.  0.
         23    2    4    4    0    0 -0.14168902979E+03 -0.30629202721E+03  0.81014209479E+02  0.35962650403E+03  0.94219600765E+02 0.  0.
         23    2    4    4    0    0 -0.76996973478E+03  0.22237391197E+03 -0.70422367846E+03  0.10707728984E+04  0.91214371215E+02 0.  0.
          3    1    3    3  502    0  0.24202380782E+03  0.53185178560E+02  0.19927119040E+03  0.31798300913E+03  0.00000000000E+00 0. -1.
         -4    1    3    3    0  502  0.66963495675E+03  0.30732936682E+02  0.64200843659E+03  0.92818657680E+03  0.00000000000E+00 0.  1.
         13    1    5    5    0    0 -0.66668270019E+02 -0.64632968000E+02 -0.32977656974E+01  0.92913691340E+02  0.00000000000E+00 0. -1.
        -13    1    5    5    0    0 -0.75020759768E+02 -0.24165905921E+03  0.84311975176E+02  0.26671281269E+03  0.00000000000E+00 0.  1.
          1    1    6    6  503    0 -0.16655077213E+03  0.42529403710E+02 -0.20288035096E+03  0.26591041101E+03  0.00000000000E+00 0. -1.
         -1    1    6    6    0  503 -0.60341896266E+03  0.17984450825E+03 -0.50134332750E+03  0.80486248743E+03  0.00000000000E+00 0.  1.
<mgrwt>
<rscale>  0 0.26676707E+04</rscale>
<asrwt>0</asrwt>
<pdfrwt beam="1">  1        1 0.18911530E+00 0.26676707E+04</pdfrwt>
<pdfrwt beam="2">  1       -2 0.22266455E+00 0.26676707E+04</pdfrwt>
<totfact> 0.74321461E-01</totfact>
</mgrwt>
</event>
<event>
12    5  0.5095719E-008  0.2652838E+04  0.7818608E-02  0.8350472E-01
         -2   -1    0    0    0  501 -0.00000000000E+00  0.00000000000E+00  0.42245946055E+04  0.42245946055E+04  0.00000000000E+00 0.  1.
          1   -1    0    0  501    0  0.00000000000E+00 -0.00000000000E+00 -0.41646296051E+03  0.41646296051E+03  0.00000000000E+00 0. -1.
        -24    2    1    2    0    0  0.48200070033E+03 -0.87849767552E+03  0.62162412348E+03  0.11817811416E+04  0.78149054928E+02 0.  0.
        254    2    1    2    0    0 -0.48200070033E+03  0.87849767552E+03  0.31865075216E+04  0.34592764244E+04  0.89926656492E+03 0.  0.
         23    2    4    4    0    0 -0.56281892269E+03  0.25430842377E+03  0.21924828066E+04  0.22796101277E+04  0.90573521367E+02 0.  0.
         23    2    4    4    0    0  0.80818222360E+02  0.62418925175E+03  0.99402471491E+03  0.11796662967E+04  0.85928055645E+02 0.  0.
          3    1    3    3  502    0  0.42462021625E+03 -0.81431538374E+03  0.55644081362E+03  0.10737961870E+04  0.00000000000E+00 0. -1.
         -4    1    3    3    0  502  0.57380484074E+02 -0.64182291782E+02  0.65183309859E+02  0.10798495458E+03  0.00000000000E+00 0.  1.
         13    1    5    5    0    0 -0.95513024429E-01  0.45572256007E+01  0.56165131396E+02  0.56349795143E+02  0.00000000000E+00 0. -1.
        -13    1    5    5    0    0 -0.56272340966E+03  0.24975119817E+03  0.21363176752E+04  0.22232603326E+04  0.00000000000E+00 0.  1.
          1    1    6    6  503    0  0.34608303975E+02  0.33809580946E+03  0.61356194496E+03  0.70140200412E+03  0.00000000000E+00 0. -1.
         -1    1    6    6    0  503  0.46209918385E+02  0.28609344229E+03  0.38046276995E+03  0.47826429262E+03  0.00000000000E+00 0.  1.
<mgrwt>
<rscale>  0 0.26528379E+04</rscale>
<asrwt>0</asrwt>
<pdfrwt beam="1">  1        1 0.64071228E-01 0.26528379E+04</pdfrwt>
<pdfrwt beam="2">  1       -2 0.64993760E+00 0.26528379E+04</pdfrwt>
<totfact> 0.14458277E-02</totfact>
</mgrwt>
</event>
<event>
12    5  0.5095719E-008  0.1409369E+04  0.7818608E-02  0.8947065E-01
         -4   -1    0    0    0  501 -0.00000000000E+00  0.00000000000E+00  0.24646142275E+03  0.24646142275E+03  0.00000000000E+00 0.  1.
          1   -1    0    0  501    0  0.00000000000E+00 -0.00000000000E+00 -0.20148390441E+04  0.20148390441E+04  0.00000000000E+00 0. -1.
        -24    2    1    2    0    0 -0.23469985933E+03  0.31477257837E+03 -0.66626740671E+03  0.77754355355E+03  0.80597272681E+02 0.  0.
        254    2    1    2    0    0  0.23469985933E+03 -0.31477257837E+03 -0.11021102147E+04  0.14837569133E+04  0.91253594587E+03 0.  0.
         23    2    4    4    0    0 -0.12644968031E+03  0.26241043586E+03 -0.30408158351E+03  0.43091683592E+03  0.91514761383E+02 0.  0.
         23    2    4    4    0    0  0.36114953963E+03 -0.57718301423E+03 -0.79802863116E+03  0.10528400774E+04  0.89740239319E+02 0.  0.
          1    1    3    3  502    0 -0.14599113034E+03  0.22790419550E+03 -0.51551077426E+03  0.58224143690E+03  0.00000000000E+00 0. -1.
         -2    1    3    3    0  502 -0.88708728987E+02  0.86868382875E+02 -0.15075663245E+03  0.19530211665E+03  0.00000000000E+00 0.  1.
         13    1    5    5    0    0 -0.13650083037E+03  0.23528869438E+03 -0.29336698414E+03  0.40007178578E+03  0.00000000000E+00 0.  1.
        -13    1    5    5    0    0  0.10051150063E+02  0.27121741480E+02 -0.10714599376E+02  0.30845050143E+02  0.00000000000E+00 0. -1.
          4    1    6    6  503    0  0.31907428233E+02 -0.21939098394E+02 -0.68776772844E+02  0.78928147689E+02  0.00000000000E+00 0. -1.
         -4    1    6    6    0  503  0.32924211140E+03 -0.55524391584E+03 -0.72925185832E+03  0.97391192972E+03  0.00000000000E+00 0.  1.
<mgrwt>
<rscale>  0 0.14093688E+04</rscale>
<asrwt>0</asrwt>
<pdfrwt beam="1">  1        1 0.30997524E+00 0.14093688E+04</pdfrwt>
<pdfrwt beam="2">  1       -4 0.37917142E-01 0.14093688E+04</pdfrwt>
<totfact> 0.95501992E+00</totfact>
</mgrwt>
</event>
<event>
12    5  0.5095719E-008  0.1488248E+04  0.7818608E-02  0.8892306E-01
         -2   -1    0    0    0  501 -0.00000000000E+00  0.00000000000E+00  0.31584586033E+03  0.31584586033E+03  0.00000000000E+00 0.  1.
          1   -1    0    0  501    0  0.00000000000E+00 -0.00000000000E+00 -0.17531349210E+04  0.17531349210E+04  0.00000000000E+00 0. -1.
        -24    2    1    2    0    0  0.34927631388E+03  0.30253828932E+03 -0.35935899621E+03  0.59078849374E+03  0.79804738179E+02 0.  0.
        254    2    1    2    0    0 -0.34927631388E+03 -0.30253828932E+03 -0.10779300644E+04  0.14781922876E+04  0.89977544714E+03 0.  0.
         23    2    4    4    0    0  0.38068589269E+02 -0.43206949275E+03 -0.16231346965E+03  0.47157266133E+03  0.88892341794E+02 0.  0.
         23    2    4    4    0    0 -0.38734490315E+03  0.12953120342E+03 -0.91561659477E+03  0.10066196262E+04  0.90082832143E+02 0.  0.
          3    1    3    3  502    0  0.21005138481E+03  0.21172398425E+03 -0.26877881815E+03  0.40148559482E+03  0.00000000000E+00 0. -1.
         -4    1    3    3    0  502  0.13922492907E+03  0.90814305078E+02 -0.90580178060E+02  0.18930289892E+03  0.00000000000E+00 0.  1.
         13    1    5    5    0    0 -0.62553332118E+01 -0.20191633306E+02 -0.30000206758E+02  0.36699368587E+02  0.00000000000E+00 0. -1.
        -13    1    5    5    0    0  0.44323922481E+02 -0.41187785944E+03 -0.13231326290E+03  0.43487329274E+03  0.00000000000E+00 0.  1.
          1    1    6    6  503    0 -0.51596194796E+02  0.48832246016E+02 -0.12283047299E+03  0.14189461111E+03  0.00000000000E+00 0. -1.
         -1    1    6    6    0  503 -0.33574870835E+03  0.80698957405E+02 -0.79278612178E+03  0.86472501512E+03  0.00000000000E+00 0.  1.
<mgrwt>
<rscale>  0 0.14882478E+04</rscale>
<asrwt>0</asrwt>
<pdfrwt beam="1">  1        1 0.26971306E+00 0.14882478E+04</pdfrwt>
<pdfrwt beam="2">  1       -2 0.48591672E-01 0.14882478E+04</pdfrwt>
<totfact> 0.14948779E+01</totfact>
</mgrwt>
</event>
<event>
12    5  0.5095719E-008  0.1644942E+04  0.7818608E-02  0.8793404E-01
          1   -1    0    0  501    0  0.00000000000E+00  0.00000000000E+00  0.14870134801E+04  0.14870134801E+04  0.00000000000E+00 0. -1.
         -2   -1    0    0    0  501 -0.00000000000E+00 -0.00000000000E+00 -0.45491081627E+03  0.45491081627E+03  0.00000000000E+00 0.  1.
        -24    2    1    2    0    0  0.42230167841E+03 -0.15609421547E+03  0.68827579852E+03  0.82641326001E+03  0.80815776960E+02 0.  0.
        254    2    1    2    0    0 -0.42230167841E+03  0.15609421547E+03  0.34382686529E+03  0.11155110363E+04  0.96095985722E+03 0.  0.
         23    2    4    4    0    0  0.26310990490E+03  0.19220748150E+03 -0.74147057403E+01  0.33915170478E+03  0.93799589526E+02 0.  0.
         23    2    4    4    0    0 -0.68541158331E+03 -0.36113266026E+02  0.35124157103E+03  0.77635933154E+03  0.90939342053E+02 0.  0.
          3    1    3    3  502    0  0.42085793164E+03 -0.15060240543E+03  0.68833329642E+03  0.82073455521E+03  0.00000000000E+00 0. -1.
         -4    1    3    3    0  502  0.14437467745E+01 -0.54918100435E+01 -0.57497902884E-01  0.56787048093E+01  0.00000000000E+00 0.  1.
         13    1    5    5    0    0  0.23548984884E+02  0.62186323775E+02 -0.20961564660E+01  0.66528846568E+02  0.00000000000E+00 0. -1.
        -13    1    5    5    0    0  0.23956092002E+03  0.13002115772E+03 -0.53185492743E+01  0.27262285822E+03  0.00000000000E+00 0.  1.
          3    1    6    6  503    0 -0.63981252386E+03 -0.29583364818E+02  0.35084641947E+03  0.73029340077E+03  0.00000000000E+00 0. -1.
         -3    1    6    6    0  503 -0.45599059458E+02 -0.65299012081E+01  0.39515156168E+00  0.46065930773E+02  0.00000000000E+00 0.  1.
<mgrwt>
<rscale>  0 0.16449420E+04</rscale>
<asrwt>0</asrwt>
<pdfrwt beam="1">  1        1 0.22877130E+00 0.16449420E+04</pdfrwt>
<pdfrwt beam="2">  1       -2 0.69986280E-01 0.16449420E+04</pdfrwt>
<totfact> 0.10419289E+01</totfact>
</mgrwt>
</event>
<event>
12    5  0.5095719E-008  0.1340336E+04  0.7818608E-02  0.8998176E-01
         -2   -1    0    0    0  501 -0.00000000000E+00  0.00000000000E+00  0.39558077803E+03  0.39558077803E+03  0.00000000000E+00 0.  1.
          1   -1    0    0  501    0  0.00000000000E+00 -0.00000000000E+00 -0.11353559272E+04  0.11353559272E+04  0.00000000000E+00 0. -1.
        -24    2    1    2    0    0 -0.25647317866E+03 -0.12477496967E+03  0.20201641417E+02  0.29743880932E+03  0.81941775345E+02 0.  0.
        254    2    1    2    0    0  0.25647317866E+03  0.12477496967E+03 -0.75997679058E+03  0.12334978959E+04  0.92876533772E+03 0.  0.
         23    2    4    4    0    0  0.52907842445E+03 -0.98041585115E+02 -0.65815932626E+03  0.85507795614E+03  0.91915617301E+02 0.  0.
         23    2    4    4    0    0 -0.27260524579E+03  0.22281655479E+03 -0.10181746433E+03  0.37841993977E+03  0.94202004498E+02 0.  0.
          1    1    3    3  502    0 -0.13167682903E+02  0.46179395238E-01 -0.16958047748E+02  0.21470104541E+02  0.00000000000E+00 0. -1.
         -2    1    3    3    0  502 -0.24330549576E+03 -0.12482114907E+03  0.37159689165E+02  0.27596870478E+03  0.00000000000E+00 0.  1.
         13    1    5    5    0    0  0.92551085654E+02  0.17785455465E+02 -0.11461973092E+03  0.14839039254E+03  0.00000000000E+00 0.  1.
        -13    1    5    5    0    0  0.43652733879E+03 -0.11582704058E+03 -0.54353959534E+03  0.70668756360E+03  0.00000000000E+00 0. -1.
          3    1    6    6  503    0 -0.20677771286E+03  0.13862027508E+03 -0.10801219133E+03  0.27136550384E+03  0.00000000000E+00 0. -1.
         -3    1    6    6    0  503 -0.65827532929E+02  0.84196279712E+02  0.61947270054E+01  0.10705443593E+03  0.00000000000E+00 0.  1.
<mgrwt>
<rscale>  0 0.13403358E+04</rscale>
<asrwt>0</asrwt>
<pdfrwt beam="1">  1        1 0.17467014E+00 0.13403358E+04</pdfrwt>
<pdfrwt beam="2">  1       -2 0.60858582E-01 0.13403358E+04</pdfrwt>
<totfact> 0.25749237E+01</totfact>
</mgrwt>
</event>
<event>
12    5  0.5095719E-008  0.1774199E+04  0.7818608E-02  0.8720142E-01
          1   -1    0    0  501    0  0.00000000000E+00  0.00000000000E+00  0.98533699212E+03  0.98533699212E+03  0.00000000000E+00 0. -1.
         -2   -1    0    0    0  501 -0.00000000000E+00 -0.00000000000E+00 -0.79865596266E+03  0.79865596266E+03  0.00000000000E+00 0.  1.
        -24    2    1    2    0    0 -0.54020693609E+03  0.22578125619E+03 -0.22032046346E+03  0.63099629988E+03  0.82550072105E+02 0.  0.
        254    2    1    2    0    0  0.54020693609E+03 -0.22578125619E+03  0.40700149293E+03  0.11529966549E+04  0.90606311122E+03 0.  0.
         23    2    4    4    0    0 -0.10801989748E+02  0.56017498868E+02  0.50784005453E+03  0.51934225226E+03  0.92521407474E+02 0.  0.
         23    2    4    4    0    0  0.55100892584E+03 -0.28179875506E+03 -0.10083856160E+03  0.63365440263E+03  0.91258488730E+02 0.  0.
          1    1    3    3  502    0 -0.35609181458E+02  0.32808465202E+02 -0.24524104442E+01  0.48481166549E+02  0.00000000000E+00 0. -1.
         -2    1    3    3    0  502 -0.50459775463E+03  0.19297279099E+03 -0.21786805302E+03  0.58251513334E+03  0.00000000000E+00 0.  1.
         13    1    5    5    0    0 -0.18971781090E+02 -0.12614375118E+02  0.36966698482E+02  0.43423354707E+02  0.00000000000E+00 0.  1.
        -13    1    5    5    0    0  0.81697913425E+01  0.68631873985E+02  0.47087335605E+03  0.47591889756E+03  0.00000000000E+00 0. -1.
          3    1    6    6  503    0  0.41154682877E+03 -0.16717248560E+03 -0.56659224171E+02  0.44780319326E+03  0.00000000000E+00 0. -1.
         -3    1    6    6    0  503  0.13946209706E+03 -0.11462626946E+03 -0.44179337429E+02  0.18585120937E+03  0.00000000000E+00 0.  1.
<mgrwt>
<rscale>  0 0.17741987E+04</rscale>
<asrwt>0</asrwt>
<pdfrwt beam="1">  1        1 0.15159031E+00 0.17741987E+04</pdfrwt>
<pdfrwt beam="2">  1       -2 0.12287015E+00 0.17741987E+04</pdfrwt>
<totfact> 0.64474186E+00</totfact>
</mgrwt>
</event>
<event>
12    5  0.5095719E-008  0.1240874E+04  0.7818608E-02  0.9077813E-01
          1   -1    0    0  501    0  0.00000000000E+00  0.00000000000E+00  0.88723409188E+03  0.88723409188E+03  0.00000000000E+00 0. -1.
         -2   -1    0    0    0  501 -0.00000000000E+00 -0.00000000000E+00 -0.43386740675E+03  0.43386740675E+03  0.00000000000E+00 0.  1.
        -24    2    1    2    0    0 -0.53669318700E+02 -0.10756074275E+03  0.39245022247E+03  0.41849043670E+03  0.81653899718E+02 0.  0.
        254    2    1    2    0    0  0.53669318700E+02  0.10756074275E+03  0.60916462664E+02  0.90261106193E+03  0.89249437228E+03 0.  0.
         23    2    4    4    0    0 -0.20096463140E+03 -0.30889015441E+03 -0.78550871899E+02  0.38692707429E+03  0.87990969880E+02 0.  0.
         23    2    4    4    0    0  0.25463395010E+03  0.41645089716E+03  0.13946733456E+03  0.51568398764E+03  0.90603749444E+02 0.  0.
          3    1    3    3  502    0 -0.58796187094E+02 -0.11605898084E+03  0.38404702851E+03  0.40548587985E+03  0.00000000000E+00 0. -1.
         -4    1    3    3    0  502  0.51268683938E+01  0.84982380843E+01  0.84031939567E+01  0.13004556845E+02  0.00000000000E+00 0.  1.
         13    1    5    5    0    0 -0.12840482975E+03 -0.17632027818E+03 -0.34048570514E+01  0.21814727560E+03  0.00000000000E+00 0. -1.
        -13    1    5    5    0    0 -0.72559801644E+02 -0.13256987623E+03 -0.75146014848E+02  0.16877979869E+03  0.00000000000E+00 0.  1.
          2    1    6    6  503    0  0.21941202388E+03  0.28482429194E+03  0.89073209116E+02  0.37040592609E+03  0.00000000000E+00 0. -1.
         -2    1    6    6    0  503  0.35221926218E+02  0.13162660522E+03  0.50394125448E+02  0.14527806155E+03  0.00000000000E+00 0.  1.
<mgrwt>
<rscale>  0 0.12408738E+04</rscale>
<asrwt>0</asrwt>
<pdfrwt beam="1">  1        1 0.13649755E+00 0.12408738E+04</pdfrwt>
<pdfrwt beam="2">  1       -2 0.66748832E-01 0.12408738E+04</pdfrwt>
<totfact> 0.33243673E+01</totfact>
</mgrwt>
</event>
<event>
12    5  0.5095719E-008  0.1124822E+04  0.7818608E-02  0.9181331E-01
          1   -1    0    0  501    0  0.00000000000E+00  0.00000000000E+00  0.31399902359E+03  0.31399902359E+03  0.00000000000E+00 0. -1.
         -2   -1    0    0    0  501 -0.00000000000E+00 -0.00000000000E+00 -0.10073472626E+04  0.10073472626E+04  0.00000000000E+00 0.  1.
        -24    2    1    2    0    0 -0.98832856054E+02 -0.50941413817E+02  0.56313077280E+02  0.14973404902E+03  0.82982899963E+02 0.  0.
        254    2    1    2    0    0  0.98832856054E+02  0.50941413817E+02 -0.74966131624E+03  0.11716122371E+04  0.89348765186E+03 0.  0.
         23    2    4    4    0    0  0.19384625780E+03  0.16029814819E+02 -0.92444186735E+03  0.94807030504E+03  0.80070035334E+02 0.  0.
         23    2    4    4    0    0 -0.95013401743E+02  0.34911598998E+02  0.17478055111E+03  0.22354193209E+03  0.95793465854E+02 0.  0.
          1    1    3    3  502    0 -0.79338827771E+02 -0.40647719016E+02  0.78262671465E+02  0.11862517607E+03  0.00000000000E+00 0. -1.
         -4    1    3    3    0  502 -0.19494028282E+02 -0.10293694801E+02 -0.21949594185E+02  0.31108872950E+02  0.00000000000E+00 0.  1.
         13    1    5    5    0    0  0.15804360463E+03  0.30666614656E+02 -0.59606961964E+03  0.61742790160E+03  0.00000000000E+00 0. -1.
        -13    1    5    5    0    0  0.35802653168E+02 -0.14636799836E+02 -0.32837224771E+03  0.33064240344E+03  0.00000000000E+00 0.  1.
          4    1    6    6  503    0 -0.28273652928E+02 -0.26464868080E+02  0.18629392096E+02  0.42974910614E+02  0.00000000000E+00 0. -1.
         -4    1    6    6    0  503 -0.66739748815E+02  0.61376467078E+02  0.15615115901E+03  0.18056702147E+03  0.00000000000E+00 0.  1.
<mgrwt>
<rscale>  0 0.11248219E+04</rscale>
<asrwt>0</asrwt>
<pdfrwt beam="1">  1        1 0.48307541E-01 0.11248219E+04</pdfrwt>
<pdfrwt beam="2">  1       -2 0.15497650E+00 0.11248219E+04</pdfrwt>
<totfact> 0.19674267E+01</totfact>
</mgrwt>
</event>
<event>
12    5  0.5095719E-008  0.1313601E+04  0.7818608E-02  0.9018848E-01
         -2   -1    0    0    0  501 -0.00000000000E+00  0.00000000000E+00  0.37608900894E+03  0.37608900894E+03  0.00000000000E+00 0.  1.
          1   -1    0    0  501    0  0.00000000000E+00 -0.00000000000E+00 -0.11470340517E+04  0.11470340517E+04  0.00000000000E+00 0. -1.
        -24    2    1    2    0    0  0.74454431974E+01  0.26539258730E+03  0.39126077448E+01  0.27643542204E+03  0.76893263955E+02 0.  0.
        254    2    1    2    0    0 -0.74454431974E+01 -0.26539258730E+03 -0.77485765049E+03  0.12466876386E+04  0.93986011174E+03 0.  0.
         23    2    4    4    0    0 -0.28224973636E+03  0.23662978776E+03 -0.19555169388E+03  0.42704260092E+03  0.92012759399E+02 0.  0.
         23    2    4    4    0    0  0.27480429317E+03 -0.50202237506E+03 -0.57930595661E+03  0.81964503765E+03  0.93159711169E+02 0.  0.
          1    1    3    3  502    0 -0.19844233395E+02  0.16827628853E+03  0.30378006158E+02  0.17214391113E+03  0.00000000000E+00 0. -1.
         -2    1    3    3    0  502  0.27289676592E+02  0.97116298770E+02 -0.26465398414E+02  0.10429151091E+03  0.00000000000E+00 0.  1.
         13    1    5    5    0    0 -0.18284805757E+03  0.17561851919E+03 -0.87924070217E+02  0.26833918566E+03  0.00000000000E+00 0. -1.
        -13    1    5    5    0    0 -0.99401678795E+02  0.61011268566E+02 -0.10762762366E+03  0.15870341526E+03  0.00000000000E+00 0.  1.
          1    1    6    6  503    0  0.25731049610E+03 -0.42594366520E+03 -0.53153060432E+03  0.72812188585E+03  0.00000000000E+00 0. -1.
         -1    1    6    6    0  503  0.17493797063E+02 -0.76078709856E+02 -0.47775352292E+02  0.91523151801E+02  0.00000000000E+00 0.  1.
<mgrwt>
<rscale>  0 0.13136010E+04</rscale>
<asrwt>0</asrwt>
<pdfrwt beam="1">  1        1 0.17646678E+00 0.13136010E+04</pdfrwt>
<pdfrwt beam="2">  1       -2 0.57859848E-01 0.13136010E+04</pdfrwt>
<totfact> 0.28138663E+01</totfact>
</mgrwt>
</event>
<event>
12    5  0.5095719E-008  0.1328543E+04  0.7818608E-02  0.9007232E-01
         -2   -1    0    0    0  501 -0.00000000000E+00  0.00000000000E+00  0.66582212674E+03  0.66582212674E+03  0.00000000000E+00 0.  1.
          1   -1    0    0  501    0  0.00000000000E+00 -0.00000000000E+00 -0.66272456533E+03  0.66272456533E+03  0.00000000000E+00 0. -1.
        -24    2    1    2    0    0  0.83480479152E+02 -0.24122499975E+03 -0.24575467462E+03  0.36288222050E+03  0.78292112961E+02 0.  0.
        254    2    1    2    0    0 -0.83480479152E+02  0.24122499975E+03  0.24885223603E+03  0.96566447157E+03  0.89745303240E+03 0.  0.
         23    2    4    4    0    0 -0.20147254946E+03  0.28734386011E+03 -0.25112053314E+03  0.44155631729E+03  0.93556277432E+02 0.  0.
         23    2    4    4    0    0  0.11799207031E+03 -0.46118860356E+02  0.49997276917E+03  0.52410815428E+03  0.93099460449E+02 0.  0.
          3    1    3    3  502    0  0.83430018519E+02 -0.21553653634E+03 -0.24552461214E+03  0.33719267735E+03  0.00000000000E+00 0. -1.
         -4    1    3    3    0  502  0.50460633072E-01 -0.25688463411E+02 -0.23006247797E+00  0.25689543153E+02  0.00000000000E+00 0.  1.
         13    1    5    5    0    0 -0.20688177167E+02  0.87677087482E+02 -0.91782330802E+02  0.12860508773E+03  0.00000000000E+00 0. -1.
        -13    1    5    5    0    0 -0.18078437229E+03  0.19966677262E+03 -0.15933820234E+03  0.31295122955E+03  0.00000000000E+00 0.  1.
          2    1    6    6  503    0  0.49388768997E+02 -0.43271549227E+01  0.35432275212E+03  0.35777449244E+03  0.00000000000E+00 0. -1.
         -2    1    6    6    0  503  0.68603301310E+02 -0.41791705434E+02  0.14565001705E+03  0.16633366184E+03  0.00000000000E+00 0.  1.
<mgrwt>
<rscale>  0 0.13285431E+04</rscale>
<asrwt>0</asrwt>
<pdfrwt beam="1">  1        1 0.10195763E+00 0.13285431E+04</pdfrwt>
<pdfrwt beam="2">  1       -2 0.10243417E+00 0.13285431E+04</pdfrwt>
<totfact> 0.19810249E+01</totfact>
</mgrwt>
</event>
<event>
12    5  0.5095719E-008  0.1341465E+04  0.7818608E-02  0.8997315E-01
         -4   -1    0    0    0  501 -0.00000000000E+00  0.00000000000E+00  0.43392791925E+03  0.43392791925E+03  0.00000000000E+00 0.  1.
          3   -1    0    0  501    0  0.00000000000E+00 -0.00000000000E+00 -0.10367662805E+04  0.10367662805E+04  0.00000000000E+00 0. -1.
        -24    2    1    2    0    0  0.16810209036E+03  0.10566554511E+03 -0.47888512913E+03  0.52654586254E+03  0.92174064953E+02 0.  0.
        254    2    1    2    0    0 -0.16810209036E+03 -0.10566554511E+03 -0.12395323214E+03  0.94414833723E+03  0.91467379908E+03 0.  0.
         23    2    4    4    0    0 -0.19947792929E+03 -0.38827138962E+03  0.21207556625E+03  0.49417803886E+03  0.93218946682E+02 0.  0.
         23    2    4    4    0    0  0.31375838929E+02  0.28260584450E+03 -0.33602879839E+03  0.44997029837E+03  0.93313500899E+02 0.  0.
          3    1    3    3  502    0  0.11925459383E+03  0.11878077450E+03 -0.37045806451E+03  0.40690257814E+03  0.00000000000E+00 0. -1.
         -4    1    3    3    0  502  0.48847496528E+02 -0.13115229387E+02 -0.10842706463E+03  0.11964328440E+03  0.00000000000E+00 0.  1.
         13    1    5    5    0    0 -0.10093929803E+03 -0.10453297315E+03  0.82076992210E+02  0.16689073375E+03  0.00000000000E+00 0.  1.
        -13    1    5    5    0    0 -0.98538631253E+02 -0.28373841647E+03  0.12999857404E+03  0.32728730510E+03  0.00000000000E+00 0. -1.
          2    1    6    6  503    0 -0.10656912491E+02  0.23259408703E+03 -0.24578160501E+03  0.33855897044E+03  0.00000000000E+00 0. -1.
         -2    1    6    6    0  503  0.42032751419E+02  0.50011757477E+02 -0.90247193387E+02  0.11141132793E+03  0.00000000000E+00 0.  1.
<mgrwt>
<rscale>  0 0.13414646E+04</rscale>
<asrwt>0</asrwt>
<pdfrwt beam="1">  1        3 0.15950250E+00 0.13414646E+04</pdfrwt>
<pdfrwt beam="2">  1       -4 0.66758142E-01 0.13414646E+04</pdfrwt>
<totfact> 0.12819475E+00</totfact>
</mgrwt>
</event>
<event>
12    5  0.5095719E-008  0.1639913E+04  0.7818608E-02  0.8796396E-01
         -2   -1    0    0    0  501 -0.00000000000E+00  0.00000000000E+00  0.33540199744E+03  0.33540199744E+03  0.00000000000E+00 0.  1.
          1   -1    0    0  501    0  0.00000000000E+00 -0.00000000000E+00 -0.20045462086E+04  0.20045462086E+04  0.00000000000E+00 0. -1.
        -24    2    1    2    0    0  0.29542151985E+03  0.36053256794E+03 -0.10447455722E+04  0.11468164761E+04  0.80231616123E+02 0.  0.
        254    2    1    2    0    0 -0.29542151985E+03 -0.36053256794E+03 -0.62439863894E+03  0.11931317300E+04  0.90356629960E+03 0.  0.
         23    2    4    4    0    0  0.13376821947E+03  0.55928146346E+02  0.13794798906E+03  0.21988448675E+03  0.91091414153E+02 0.  0.
         23    2    4    4    0    0 -0.42918973932E+03 -0.41646071429E+03 -0.76234662800E+03  0.97324724321E+03  0.91621265575E+02 0.  0.
          3    1    3    3  502    0  0.27299344909E+03  0.34709736157E+03 -0.10167864191E+04  0.11085380569E+04  0.00000000000E+00 0. -1.
         -4    1    3    3    0  502  0.22428070763E+02  0.13435206379E+02 -0.27959153123E+02  0.38278419141E+02  0.00000000000E+00 0.  1.
         13    1    5    5    0    0  0.11436954988E+03  0.34877214359E+02  0.14734451278E+03  0.18975568362E+03  0.00000000000E+00 0.  1.
        -13    1    5    5    0    0  0.19398669590E+02  0.21050931986E+02 -0.93965237242E+01  0.30128803121E+02  0.00000000000E+00 0. -1.
          4    1    6    6  503    0 -0.14185185554E+03 -0.10156930471E+03 -0.17122760435E+03  0.24445278699E+03  0.00000000000E+00 0. -1.
         -4    1    6    6    0  503 -0.28733788378E+03 -0.31489140958E+03 -0.59111902365E+03  0.72879445621E+03  0.00000000000E+00 0.  1.
<mgrwt>
<rscale>  0 0.16399132E+04</rscale>
<asrwt>0</asrwt>
<pdfrwt beam="1">  1        1 0.30839172E+00 0.16399132E+04</pdfrwt>
<pdfrwt beam="2">  1       -2 0.51600308E-01 0.16399132E+04</pdfrwt>
<totfact> 0.88173188E+00</totfact>
</mgrwt>
</event>
<event>
12    5  0.5095719E-008  0.2153722E+04  0.7818608E-02  0.8537941E-01
         -2   -1    0    0    0  501 -0.00000000000E+00  0.00000000000E+00  0.33646586336E+03  0.33646586336E+03  0.00000000000E+00 0.  1.
          1   -1    0    0  501    0  0.00000000000E+00 -0.00000000000E+00 -0.34465001534E+04  0.34465001534E+04  0.00000000000E+00 0. -1.
        -24    2    1    2    0    0  0.45896970209E+03  0.75772424204E+03 -0.13437754726E+04  0.16114778421E+04  0.79555643073E+02 0.  0.
        254    2    1    2    0    0 -0.45896970209E+03 -0.75772424204E+03 -0.17662588174E+04  0.21714881747E+04  0.90049512392E+03 0.  0.
         23    2    4    4    0    0 -0.47262641417E+03 -0.18853629373E+02 -0.45141393915E+03  0.66034549530E+03  0.92468600029E+02 0.  0.
         23    2    4    4    0    0  0.13656712086E+02 -0.73887061267E+03 -0.13148448783E+04  0.15111426794E+04  0.92837791029E+02 0.  0.
          3    1    3    3  502    0  0.45553240664E+03  0.73711469395E+03 -0.13261261959E+04  0.15841270571E+04  0.00000000000E+00 0. -1.
         -4    1    3    3    0  502  0.34372954438E+01  0.20609548091E+02 -0.17649276766E+02  0.27350785050E+02  0.00000000000E+00 0.  1.
         13    1    5    5    0    0 -0.18165771932E+03  0.14100368613E+02 -0.12037112724E+03  0.21837480546E+03  0.00000000000E+00 0.  1.
        -13    1    5    5    0    0 -0.29096869485E+03 -0.32953997986E+02 -0.33104281191E+03  0.44197068984E+03  0.00000000000E+00 0. -1.
          3    1    6    6  503    0  0.48442649585E+02 -0.53071859640E+03 -0.90883508049E+03  0.10535606876E+04  0.00000000000E+00 0. -1.
         -3    1    6    6    0  503 -0.34785937499E+02 -0.20815201627E+03 -0.40600979777E+03  0.45758199179E+03  0.00000000000E+00 0.  1.
<mgrwt>
<rscale>  0 0.21537220E+04</rscale>
<asrwt>0</asrwt>
<pdfrwt beam="1">  1        1 0.53023082E+00 0.21537220E+04</pdfrwt>
<pdfrwt beam="2">  1       -2 0.51763976E-01 0.21537220E+04</pdfrwt>
<totfact> 0.78270496E-01</totfact>
</mgrwt>
</event>
<event>
12    5  0.5095719E-008  0.1795856E+04  0.7818608E-02  0.8708507E-01
         -2   -1    0    0    0  501 -0.00000000000E+00  0.00000000000E+00  0.19402799987E+04  0.19402799987E+04  0.00000000000E+00 0.  1.
          1   -1    0    0  501    0  0.00000000000E+00 -0.00000000000E+00 -0.41554534544E+03  0.41554534544E+03  0.00000000000E+00 0. -1.
        -24    2    1    2    0    0 -0.43477073176E+03 -0.47599951090E+03  0.33193567380E+03  0.72953128033E+03  0.80208938862E+02 0.  0.
        254    2    1    2    0    0  0.43477073176E+03  0.47599951090E+03  0.11927989795E+04  0.16262940638E+04  0.89803221159E+03 0.  0.
         23    2    4    4    0    0  0.25792691174E+03  0.67514475811E+03  0.11188887713E+04  0.13351785136E+04  0.91884952964E+02 0.  0.
         23    2    4    4    0    0  0.17684382001E+03 -0.19914524721E+03  0.73910208213E+02  0.29111555021E+03  0.91394630765E+02 0.  0.
          3    1    3    3  502    0 -0.29604080954E+03 -0.27115217587E+03  0.22270877685E+03  0.45908916637E+03  0.00000000000E+00 0. -1.
         -4    1    3    3    0  502 -0.13872992221E+03 -0.20484733502E+03  0.10922689694E+03  0.27044211395E+03  0.00000000000E+00 0.  1.
         13    1    5    5    0    0  0.15808471269E+03  0.38474311323E+03  0.72346239514E+03  0.83451535441E+03  0.00000000000E+00 0.  1.
        -13    1    5    5    0    0  0.99842199057E+02  0.29040164488E+03  0.39542637612E+03  0.50066315921E+03  0.00000000000E+00 0. -1.
          4    1    6    6  503    0  0.11957854940E+03 -0.98537098246E+02  0.81554907107E+02  0.17509937773E+03  0.00000000000E+00 0. -1.
         -4    1    6    6    0  503  0.57265270616E+02 -0.10060814896E+03 -0.76446988935E+01  0.11601617248E+03  0.00000000000E+00 0.  1.
<mgrwt>
<rscale>  0 0.17958556E+04</rscale>
<asrwt>0</asrwt>
<pdfrwt beam="1">  1        1 0.63930054E-01 0.17958556E+04</pdfrwt>
<pdfrwt beam="2">  1       -2 0.29850461E+00 0.17958556E+04</pdfrwt>
<totfact> 0.15305454E+00</totfact>
</mgrwt>
</event>
<event>
12    5  0.5095719E-008  0.4726219E+04  0.7818608E-02  0.7872187E-01
          1   -1    0    0  501    0  0.00000000000E+00  0.00000000000E+00  0.11269286360E+04  0.11269286360E+04  0.00000000000E+00 0. -1.
         -2   -1    0    0    0  501 -0.00000000000E+00 -0.00000000000E+00 -0.49553145149E+04  0.49553145149E+04  0.00000000000E+00 0.  1.
        -24    2    1    2    0    0 -0.52128005368E+03  0.25500374365E+03 -0.46784842296E+04  0.47150302584E+04  0.80844590550E+02 0.  0.
        254    2    1    2    0    0  0.52128005368E+03 -0.25500374365E+03  0.85009835063E+03  0.13672128925E+04  0.89991337584E+03 0.  0.
         23    2    4    4    0    0  0.18196936095E+03 -0.37999805556E+03  0.89290199089E+03  0.99109724647E+03  0.86535634671E+02 0.  0.
         23    2    4    4    0    0  0.33931069273E+03  0.12499431191E+03 -0.42803640258E+02  0.37611564602E+03  0.94209889905E+02 0.  0.
          1    1    3    3  502    0 -0.41036387378E+02  0.23265851667E+02 -0.23681151814E+03  0.24146424180E+03  0.00000000000E+00 0. -1.
         -2    1    3    3    0  502 -0.48024366630E+03  0.23173789199E+03 -0.44416727114E+04  0.44735660166E+04  0.00000000000E+00 0.  1.
         13    1    5    5    0    0  0.17486043074E+03 -0.31466799113E+03  0.69713880689E+03  0.78459838832E+03  0.00000000000E+00 0.  1.
        -13    1    5    5    0    0  0.71089302092E+01 -0.65330064433E+02  0.19576318400E+03  0.20649885815E+03  0.00000000000E+00 0. -1.
          1    1    6    6  503    0  0.14497223973E+03  0.52749177549E+02  0.28467541825E+02  0.15687519550E+03  0.00000000000E+00 0. -1.
         -1    1    6    6    0  503  0.19433845300E+03  0.72245134361E+02 -0.71271182083E+02  0.21924045053E+03  0.00000000000E+00 0.  1.
<mgrwt>
<rscale>  0 0.47262187E+04</rscale>
<asrwt>0</asrwt>
<pdfrwt beam="1">  1        1 0.17337364E+00 0.47262187E+04</pdfrwt>
<pdfrwt beam="2">  1       -2 0.76235608E+00 0.47262187E+04</pdfrwt>
<totfact> 0.98557340E-04</totfact>
</mgrwt>
</event>
<event>
12    5  0.5181846E-008  0.2943840E+04  0.7818608E-02  0.8259952E-01
          1   -1    0    0  501    0  0.00000000000E+00  0.00000000000E+00  0.21216316937E+04  0.21216316937E+04  0.00000000000E+00 0. -1.
         -2   -1    0    0    0  501 -0.00000000000E+00 -0.00000000000E+00 -0.10211705724E+04  0.10211705724E+04  0.00000000000E+00 0.  1.
        -24    2    1    2    0    0  0.74598924060E+03 -0.19121905321E+03  0.16775472529E+04  0.18476006446E+04  0.79991766686E+02 0.  0.
        254    2    1    2    0    0 -0.74598924060E+03  0.19121905321E+03 -0.57708613160E+03  0.12952016215E+04  0.86686455902E+03 0.  0.
         23    2    4    4    0    0 -0.63671020298E+03 -0.17305717789E+03 -0.60944220163E+03  0.90290939889E+03  0.92070169280E+02 0.  0.
         23    2    4    4    0    0 -0.10927903762E+03  0.36427623110E+03  0.32356070027E+02  0.39229222263E+03  0.90593554171E+02 0.  0.
          3    1    3    3  502    0  0.59456637635E+03 -0.17847077738E+03  0.13916657435E+04  0.15238420311E+04  0.00000000000E+00 0. -1.
         -4    1    3    3    0  502  0.15142286425E+03 -0.12748275838E+02  0.28588150941E+03  0.32375861344E+03  0.00000000000E+00 0.  1.
         13    1    5    5    0    0  0.13589504619E+01  0.77517362946E+00 -0.10686713611E+02  0.10800624442E+02  0.00000000000E+00 0.  1.
        -13    1    5    5    0    0 -0.63806915344E+03 -0.17383235152E+03 -0.59875548802E+03  0.89210877444E+03  0.00000000000E+00 0. -1.
          2    1    6    6  503    0 -0.76956403661E+02  0.34465618048E+03  0.28970340894E+02  0.35432958028E+03  0.00000000000E+00 0. -1.
         -2    1    6    6    0  503 -0.32322633961E+02  0.19620050623E+02  0.33857291333E+01  0.37962642353E+02  0.00000000000E+00 0.  1.
<mgrwt>
<rscale>  0 0.29438396E+04</rscale>
<asrwt>0</asrwt>
<pdfrwt beam="1">  1        1 0.32640488E+00 0.29438396E+04</pdfrwt>
<pdfrwt beam="2">  1       -2 0.15710317E+00 0.29438396E+04</pdfrwt>
<totfact> 0.49031975E-01</totfact>
</mgrwt>
</event>
<event>
12    5  0.5095719E-008  0.1485423E+04  0.7818608E-02  0.8894205E-01
          1   -1    0    0  501    0  0.00000000000E+00  0.00000000000E+00  0.57902807918E+03  0.57902807918E+03  0.00000000000E+00 0. -1.
         -2   -1    0    0    0  501 -0.00000000000E+00 -0.00000000000E+00 -0.95266577022E+03  0.95266577022E+03  0.00000000000E+00 0.  1.
        -24    2    1    2    0    0  0.41261468564E+03 -0.16244639681E+02  0.11286657332E+03  0.43459031238E+03  0.74934031766E+02 0.  0.
        254    2    1    2    0    0 -0.41261468564E+03  0.16244639681E+02 -0.48650426435E+03  0.10971035370E+04  0.89243207281E+03 0.  0.
         23    2    4    4    0    0 -0.94505285079E+02  0.15034457808E+03  0.22438429908E+03  0.30161343940E+03  0.95328967731E+02 0.  0.
         23    2    4    4    0    0 -0.31810940056E+03 -0.13409993839E+03 -0.71088856344E+03  0.79549009762E+03  0.90915133937E+02 0.  0.
          1    1    3    3  502    0  0.26166539896E+03 -0.62582061700E+01  0.10824619165E+03  0.28324050587E+03  0.00000000000E+00 0. -1.
         -2    1    3    3    0  502  0.15094928668E+03 -0.99864335109E+01  0.46203816604E+01  0.15134980651E+03  0.00000000000E+00 0.  1.
         13    1    5    5    0    0  0.14438274298E+02  0.64937943525E+01  0.42721372592E+02  0.45560386367E+02  0.00000000000E+00 0.  1.
        -13    1    5    5    0    0 -0.10894355938E+03  0.14385078372E+03  0.18166292649E+03  0.25605305304E+03  0.00000000000E+00 0. -1.
          2    1    6    6  503    0 -0.25270288772E+03 -0.14260274291E+03 -0.59973907495E+03  0.66624413676E+03  0.00000000000E+00 0. -1.
         -2    1    6    6    0  503 -0.65406512840E+02  0.85028045150E+01 -0.11114948849E+03  0.12924596086E+03  0.00000000000E+00 0.  1.
<mgrwt>
<rscale>  0 0.14854228E+04</rscale>
<asrwt>0</asrwt>
<pdfrwt beam="1">  1        1 0.89081244E-01 0.14854228E+04</pdfrwt>
<pdfrwt beam="2">  1       -2 0.14656396E+00 0.14854228E+04</pdfrwt>
<totfact> 0.97253285E+00</totfact>
</mgrwt>
</event>
<event>
12    5  0.5095719E-008  0.1604916E+04  0.7818608E-02  0.8817533E-01
         -2   -1    0    0    0  501 -0.00000000000E+00  0.00000000000E+00  0.40998915669E+03  0.40998915669E+03  0.00000000000E+00 0.  1.
          1   -1    0    0  501    0  0.00000000000E+00 -0.00000000000E+00 -0.15706248457E+04  0.15706248457E+04  0.00000000000E+00 0. -1.
        -24    2    1    2    0    0  0.13510278596E+03 -0.12316213721E+03  0.23373920880E+03  0.30699642720E+03  0.78683630884E+02 0.  0.
        254    2    1    2    0    0 -0.13510278596E+03  0.12316213721E+03 -0.13943748978E+04  0.16736175751E+04  0.90735481347E+03 0.  0.
         23    2    4    4    0    0  0.19705355412E+03 -0.19338819965E+03 -0.10581434762E+04  0.10973042423E+04  0.90442715918E+02 0.  0.
         23    2    4    4    0    0 -0.33215634007E+03  0.31655033686E+03 -0.33623142155E+03  0.57631333289E+03  0.92485343821E+02 0.  0.
          3    1    3    3  502    0  0.27307629004E+02 -0.61241676817E+01  0.51103300174E+01  0.28448681946E+02  0.00000000000E+00 0. -1.
         -4    1    3    3    0  502  0.10779515695E+03 -0.11703796953E+03  0.22862887878E+03  0.27854774525E+03  0.00000000000E+00 0.  1.
         13    1    5    5    0    0  0.12250685167E+03 -0.65999399773E+02 -0.60207759844E+03  0.61794925684E+03  0.00000000000E+00 0.  1.
        -13    1    5    5    0    0  0.74546702445E+02 -0.12738879987E+03 -0.45606587777E+03  0.47935498542E+03  0.00000000000E+00 0. -1.
          2    1    6    6  503    0 -0.27082014974E+02  0.37160634416E+02 -0.72063154387E+02  0.85483603723E+02  0.00000000000E+00 0. -1.
         -2    1    6    6    0  503 -0.30507432510E+03  0.27938970244E+03 -0.26416826716E+03  0.49082972917E+03  0.00000000000E+00 0.  1.
<mgrwt>
<rscale>  0 0.16049164E+04</rscale>
<asrwt>0</asrwt>
<pdfrwt beam="1">  1        1 0.24163459E+00 0.16049164E+04</pdfrwt>
<pdfrwt beam="2">  1       -2 0.63075256E-01 0.16049164E+04</pdfrwt>
<totfact> 0.11458176E+01</totfact>
</mgrwt>
</event>
<event>
12    5  0.5095719E-008  0.1927027E+04  0.7818608E-02  0.8641519E-01
          1   -1    0    0  501    0  0.00000000000E+00  0.00000000000E+00  0.15767146100E+04  0.15767146100E+04  0.00000000000E+00 0. -1.
         -2   -1    0    0    0  501 -0.00000000000E+00 -0.00000000000E+00 -0.58879291567E+03  0.58879291567E+03  0.00000000000E+00 0.  1.
        -24    2    1    2    0    0  0.14888806406E+03  0.43485791154E+03 -0.27872756175E+03  0.54308557528E+03  0.77355216696E+02 0.  0.
        254    2    1    2    0    0 -0.14888806406E+03 -0.43485791154E+03  0.12666492561E+04  0.16224219504E+04  0.90365014709E+03 0.  0.
         23    2    4    4    0    0 -0.30379819356E+03 -0.41132177841E+03  0.13334673780E+04  0.14311915976E+04  0.93248019262E+02 0.  0.
         23    2    4    4    0    0  0.15491012951E+03 -0.23536133134E+02 -0.66818121856E+02  0.19123035283E+03  0.86909657979E+02 0.  0.
          3    1    3    3  502    0  0.40678013557E+02  0.41412531094E+02 -0.34603304371E+02  0.67580227818E+02  0.00000000000E+00 0. -1.
         -4    1    3    3    0  502  0.10821005050E+03  0.39344538045E+03 -0.24412425738E+03  0.47550534747E+03  0.00000000000E+00 0.  1.
         13    1    5    5    0    0 -0.19745180162E+03 -0.19189947518E+03  0.67260484691E+03  0.72678050512E+03  0.00000000000E+00 0. -1.
        -13    1    5    5    0    0 -0.10634639194E+03 -0.21942230323E+03  0.66086253104E+03  0.70441109245E+03  0.00000000000E+00 0.  1.
          2    1    6    6  503    0  0.74609803360E+02 -0.41218666202E+02  0.65762465448E-01  0.85238521372E+02  0.00000000000E+00 0. -1.
         -2    1    6    6    0  503  0.80300326146E+02  0.17682533067E+02 -0.66883884321E+02  0.10599183146E+03  0.00000000000E+00 0.  1.
<mgrwt>
<rscale>  0 0.19270271E+04</rscale>
<asrwt>0</asrwt>
<pdfrwt beam="1">  1        1 0.24257148E+00 0.19270271E+04</pdfrwt>
<pdfrwt beam="2">  1       -2 0.90583526E-01 0.19270271E+04</pdfrwt>
<totfact> 0.49390456E+00</totfact>
</mgrwt>
</event>
<event>
12    5  0.5095719E-008  0.1366729E+04  0.7818608E-02  0.8978260E-01
         -2   -1    0    0    0  501 -0.00000000000E+00  0.00000000000E+00  0.30311833050E+03  0.30311833050E+03  0.00000000000E+00 0.  1.
          1   -1    0    0  501    0  0.00000000000E+00 -0.00000000000E+00 -0.15406100041E+04  0.15406100041E+04  0.00000000000E+00 0. -1.
        -24    2    1    2    0    0 -0.23911320323E+02 -0.11310263600E+03  0.13265350299E+03  0.19313260365E+03  0.79619678657E+02 0.  0.
        254    2    1    2    0    0  0.23911320323E+02  0.11310263600E+03 -0.13701451766E+04  0.16505957309E+04  0.91312896382E+03 0.  0.
         23    2    4    4    0    0  0.24273747308E+03 -0.70766102898E+02 -0.22800405128E+02  0.27020472758E+03  0.92527910245E+02 0.  0.
         23    2    4    4    0    0 -0.21882615276E+03  0.18386873890E+03 -0.13473447715E+04  0.13803910034E+04  0.91917303692E+02 0.  0.
          1    1    3    3  502    0  0.22289002962E+02 -0.86037446630E+01  0.37393690759E+02  0.44374679536E+02  0.00000000000E+00 0. -1.
         -2    1    3    3    0  502 -0.46200323285E+02 -0.10449889133E+03  0.95259812231E+02  0.14875792412E+03  0.00000000000E+00 0.  1.
         13    1    5    5    0    0  0.25095450327E+03 -0.69713549893E+02 -0.24939478145E+02  0.26164884735E+03  0.00000000000E+00 0.  1.
        -13    1    5    5    0    0 -0.82170301927E+01 -0.10525530048E+01  0.21390730173E+01  0.85558802229E+01  0.00000000000E+00 0. -1.
          4    1    6    6  503    0 -0.77701766835E+02  0.54567438878E+02 -0.66372377995E+03  0.67048074247E+03  0.00000000000E+00 0. -1.
         -4    1    6    6    0  503 -0.14112438592E+03  0.12930130002E+03 -0.68362099150E+03  0.70991026089E+03  0.00000000000E+00 0.  1.
<mgrwt>
<rscale>  0 0.13667291E+04</rscale>
<asrwt>0</asrwt>
<pdfrwt beam="1">  1        1 0.23701693E+00 0.13667291E+04</pdfrwt>
<pdfrwt beam="2">  1       -2 0.46633589E-01 0.13667291E+04</pdfrwt>
<totfact> 0.22928860E+01</totfact>
</mgrwt>
</event>
<event>
12    5  0.5095719E-008  0.1361185E+04  0.7818608E-02  0.8982404E-01
         -2   -1    0    0    0  501 -0.00000000000E+00  0.00000000000E+00  0.64101011921E+03  0.64101011921E+03  0.00000000000E+00 0.  1.
          1   -1    0    0  501    0  0.00000000000E+00 -0.00000000000E+00 -0.72261950912E+03  0.72261950912E+03  0.00000000000E+00 0. -1.
        -24    2    1    2    0    0 -0.54957581131E+00 -0.90319721614E+02 -0.38869766028E+03  0.40648772701E+03  0.77385056434E+02 0.  0.
        254    2    1    2    0    0  0.54957581131E+00  0.90319721614E+02  0.30708827037E+03  0.95714190132E+03  0.90203074189E+03 0.  0.
         23    2    4    4    0    0  0.12661772396E+03 -0.37667120301E+03  0.77810934671E+02  0.41400966992E+03  0.86233531967E+02 0.  0.
         23    2    4    4    0    0 -0.12606814815E+03  0.46699092462E+03  0.22927733570E+03  0.54313223140E+03  0.91928355059E+02 0.  0.
          1    1    3    3  502    0  0.34032974177E+02 -0.53939775280E+02 -0.27335307605E+03  0.28069493560E+03  0.00000000000E+00 0. -1.
         -2    1    3    3    0  502 -0.34582549988E+02 -0.36379946335E+02 -0.11534458423E+03  0.12579279141E+03  0.00000000000E+00 0.  1.
         13    1    5    5    0    0  0.11015947397E+03 -0.36532945794E+03  0.87973746815E+02  0.39158664771E+03  0.00000000000E+00 0. -1.
        -13    1    5    5    0    0  0.16458249991E+02 -0.11341745072E+02 -0.10162812143E+02  0.22423022203E+02  0.00000000000E+00 0.  1.
          1    1    6    6  503    0 -0.57375324435E+02  0.30539523353E+03  0.10494869331E+03  0.32798232382E+03  0.00000000000E+00 0. -1.
         -1    1    6    6    0  503 -0.68692823712E+02  0.16159569109E+03  0.12432864240E+03  0.21514990758E+03  0.00000000000E+00 0.  1.
<mgrwt>
<rscale>  0 0.13611854E+04</rscale>
<asrwt>0</asrwt>
<pdfrwt beam="1">  1        1 0.11117223E+00 0.13611854E+04</pdfrwt>
<pdfrwt beam="2">  1       -2 0.98616942E-01 0.13611854E+04</pdfrwt>
<totfact> 0.18973094E+01</totfact>
</mgrwt>
</event>
<event>
12    5  0.5095719E-008  0.1542398E+04  0.7818608E-02  0.8856738E-01
          1   -1    0    0  501    0  0.00000000000E+00  0.00000000000E+00  0.35249098657E+04  0.35249098657E+04  0.00000000000E+00 0. -1.
         -2   -1    0    0    0  501 -0.00000000000E+00 -0.00000000000E+00 -0.16872712966E+03  0.16872712966E+03  0.00000000000E+00 0.  1.
        -24    2    1    2    0    0  0.30949830146E+03 -0.27255179861E+03  0.17871638517E+04  0.18358461950E+04  0.79391040244E+02 0.  0.
        254    2    1    2    0    0 -0.30949830146E+03  0.27255179861E+03  0.15690188843E+04  0.18577908004E+04  0.90525837032E+03 0.  0.
         23    2    4    4    0    0 -0.36572105936E+02  0.11070009937E+03 -0.85987452009E+02  0.17032248923E+03  0.89576098945E+02 0.  0.
         23    2    4    4    0    0 -0.27292619552E+03  0.16185169924E+03  0.16550063363E+04  0.16874683111E+04  0.88423113689E+02 0.  0.
          3    1    3    3  502    0  0.16203629901E+03 -0.17966479319E+03  0.91541806401E+03  0.94685026906E+03  0.00000000000E+00 0. -1.
         -4    1    3    3    0  502  0.14746200245E+03 -0.92887005415E+02  0.87174578774E+03  0.88899592596E+03  0.00000000000E+00 0.  1.
         13    1    5    5    0    0 -0.41210587601E+02  0.91448597097E+02 -0.10332396625E+03  0.14400347372E+03  0.00000000000E+00 0. -1.
        -13    1    5    5    0    0  0.46384816651E+01  0.19251502272E+02  0.17336514236E+02  0.26319015517E+02  0.00000000000E+00 0.  1.
          1    1    6    6  503    0 -0.25298067886E+03  0.16209350609E+03  0.16156055443E+04  0.16433060590E+04  0.00000000000E+00 0. -1.
         -1    1    6    6    0  503 -0.19945516661E+02 -0.24180685131E+00  0.39400792005E+02  0.44162252163E+02  0.00000000000E+00 0.  1.
<mgrwt>
<rscale>  0 0.15423980E+04</rscale>
<asrwt>0</asrwt>
<pdfrwt beam="1">  1        1 0.54229377E+00 0.15423980E+04</pdfrwt>
<pdfrwt beam="2">  1       -2 0.25958023E-01 0.15423980E+04</pdfrwt>
<totfact> 0.27387922E+00</totfact>
</mgrwt>
</event>
<event>
12    5  0.5095719E-008  0.1371354E+04  0.7818608E-02  0.8974819E-01
          1   -1    0    0  501    0  0.00000000000E+00  0.00000000000E+00  0.69683941929E+03  0.69683941929E+03  0.00000000000E+00 0. -1.
         -2   -1    0    0    0  501 -0.00000000000E+00 -0.00000000000E+00 -0.67469308156E+03  0.67469308156E+03  0.00000000000E+00 0.  1.
        -24    2    1    2    0    0 -0.33848308818E+03 -0.57328056024E+02  0.18975851707E+03  0.40012533416E+03  0.78959997711E+02 0.  0.
        254    2    1    2    0    0  0.33848308818E+03  0.57328056024E+02 -0.16761217933E+03  0.97140716669E+03  0.89312974077E+03 0.  0.
         23    2    4    4    0    0  0.62348313365E+03 -0.13007164856E+02 -0.22118159807E+02  0.63096808640E+03  0.93440402288E+02 0.  0.
         23    2    4    4    0    0 -0.28500004547E+03  0.70335220880E+02 -0.14549401953E+03  0.34043908029E+03  0.92510477558E+02 0.  0.
          1    1    3    3  502    0 -0.16713906560E+03 -0.23956311967E+02  0.13795045928E+03  0.21803600930E+03  0.00000000000E+00 0. -1.
         -2    1    3    3    0  502 -0.17134402258E+03 -0.33371744057E+02  0.51808057787E+02  0.18208932486E+03  0.00000000000E+00 0.  1.
         13    1    5    5    0    0  0.36060360221E+03  0.38422119301E+02 -0.17450172601E+02  0.36306435477E+03  0.00000000000E+00 0. -1.
        -13    1    5    5    0    0  0.26287953144E+03 -0.51429284157E+02 -0.46679872060E+01  0.26790373163E+03  0.00000000000E+00 0.  1.
          3    1    6    6  503    0 -0.27410042001E+03  0.65676439801E+02 -0.10922502773E+03  0.30228222190E+03  0.00000000000E+00 0. -1.
         -3    1    6    6    0  503 -0.10899625457E+02  0.46587810784E+01 -0.36268991795E+02  0.38156858388E+02  0.00000000000E+00 0.  1.
<mgrwt>
<rscale>  0 0.13713537E+04</rscale>
<asrwt>0</asrwt>
<pdfrwt beam="1">  1        1 0.10720606E+00 0.13713537E+04</pdfrwt>
<pdfrwt beam="2">  1       -2 0.10379894E+00 0.13713537E+04</pdfrwt>
<totfact> 0.17738083E+01</totfact>
</mgrwt>
</event>
<event>
12    5  0.5095719E-008  0.1903353E+04  0.7818608E-02  0.8653189E-01
          1   -1    0    0  501    0  0.00000000000E+00  0.00000000000E+00  0.78108457213E+03  0.78108457213E+03  0.00000000000E+00 0. -1.
         -2   -1    0    0    0  501 -0.00000000000E+00 -0.00000000000E+00 -0.11595262942E+04  0.11595262942E+04  0.00000000000E+00 0.  1.
        -24    2    1    2    0    0  0.57631143190E+03  0.26050225995E+03  0.25615714392E+03  0.68692661828E+03  0.79091102860E+02 0.  0.
        254    2    1    2    0    0 -0.57631143190E+03 -0.26050225995E+03 -0.63459886594E+03  0.12536842480E+04  0.87693339489E+03 0.  0.
         23    2    4    4    0    0 -0.65817537917E+03 -0.31403821009E+03 -0.14915538527E+03  0.74993586539E+03  0.91332612447E+02 0.  0.
         23    2    4    4    0    0  0.81863947275E+02  0.53535950147E+02 -0.48544348067E+03  0.50374838262E+03  0.92408096187E+02 0.  0.
          3    1    3    3  502    0  0.54711064025E+03  0.25533207797E+03  0.25934061420E+03  0.65710126837E+03  0.00000000000E+00 0. -1.
         -4    1    3    3    0  502  0.29200791646E+02  0.51701819738E+01 -0.31834702832E+01  0.29825349913E+02  0.00000000000E+00 0.  1.
         13    1    5    5    0    0 -0.58436408161E+03 -0.30100015294E+03 -0.15293609699E+03  0.67488659915E+03  0.00000000000E+00 0.  1.
        -13    1    5    5    0    0 -0.73811297567E+02 -0.13038057148E+02  0.37807117226E+01  0.75049266244E+02  0.00000000000E+00 0. -1.
          2    1    6    6  503    0  0.86397725889E+02  0.59542841889E+01 -0.32448790525E+03  0.33584582950E+03  0.00000000000E+00 0. -1.
         -2    1    6    6    0  503 -0.45337786138E+01  0.47581665958E+02 -0.16095557542E+03  0.16790255312E+03  0.00000000000E+00 0.  1.
<mgrwt>
<rscale>  0 0.19033529E+04</rscale>
<asrwt>0</asrwt>
<pdfrwt beam="1">  1        1 0.12016686E+00 0.19033529E+04</pdfrwt>
<pdfrwt beam="2">  1       -2 0.17838866E+00 0.19033529E+04</pdfrwt>
<totfact> 0.35004774E+00</totfact>
</mgrwt>
</event>
<event>
12    5  0.5095719E-008  0.1622458E+04  0.7818608E-02  0.8806869E-01
         -2   -1    0    0    0  501 -0.00000000000E+00  0.00000000000E+00  0.80723995609E+03  0.80723995609E+03  0.00000000000E+00 0.  1.
          1   -1    0    0  501    0  0.00000000000E+00 -0.00000000000E+00 -0.81523800245E+03  0.81523800245E+03  0.00000000000E+00 0. -1.
        -24    2    1    2    0    0 -0.30170453204E+03  0.34906566226E+03 -0.23076370476E+03  0.52183198415E+03  0.78640136229E+02 0.  0.
        254    2    1    2    0    0  0.30170453204E+03 -0.34906566226E+03  0.22276565841E+03  0.11006459744E+04  0.97412758977E+03 0.  0.
         23    2    4    4    0    0  0.10741048941E+03 -0.18940831580E+03  0.59610727697E+03  0.64109367350E+03  0.90800270995E+02 0.  0.
         23    2    4    4    0    0  0.19429404263E+03 -0.15965734646E+03 -0.37334161856E+03  0.45955230089E+03  0.92540314617E+02 0.  0.
          3    1    3    3  502    0 -0.54418637184E+02  0.90663519766E+02 -0.84751195081E+02  0.13551393639E+03  0.00000000000E+00 0. -1.
         -4    1    3    3    0  502 -0.24728589486E+03  0.25840214249E+03 -0.14601250968E+03  0.38631804776E+03  0.00000000000E+00 0.  1.
         13    1    5    5    0    0 -0.11905132510E+01 -0.37134734409E+02  0.41026435851E+02  0.55349564226E+02  0.00000000000E+00 0. -1.
        -13    1    5    5    0    0  0.10860100266E+03 -0.15227358139E+03  0.55508084112E+03  0.58574410927E+03  0.00000000000E+00 0.  1.
          4    1    6    6  503    0  0.14067023690E+03 -0.64650467831E+02 -0.17881228094E+03  0.23651983079E+03  0.00000000000E+00 0. -1.
         -4    1    6    6    0  503  0.53623805727E+02 -0.95006878626E+02 -0.19452933762E+03  0.22303247011E+03  0.00000000000E+00 0.  1.
<mgrwt>
<rscale>  0 0.16224582E+04</rscale>
<asrwt>0</asrwt>
<pdfrwt beam="1">  1        1 0.12542123E+00 0.16224582E+04</pdfrwt>
<pdfrwt beam="2">  1       -2 0.12419076E+00 0.16224582E+04</pdfrwt>
<totfact> 0.87680125E+00</totfact>
</mgrwt>
</event>
<event>
12    5  0.5095719E-008  0.2653610E+04  0.7818608E-02  0.8350216E-01
         -2   -1    0    0    0  501 -0.00000000000E+00  0.00000000000E+00  0.21537627096E+04  0.21537627096E+04  0.00000000000E+00 0.  1.
          3   -1    0    0  501    0  0.00000000000E+00 -0.00000000000E+00 -0.81736530855E+03  0.81736530855E+03  0.00000000000E+00 0. -1.
        -24    2    1    2    0    0  0.37753586950E+03  0.91004712547E+03 -0.12091517277E+03  0.99577318977E+03  0.78896534297E+02 0.  0.
        254    2    1    2    0    0 -0.37753586950E+03 -0.91004712547E+03  0.14573125738E+04  0.19753548284E+04  0.89863655437E+03 0.  0.
         23    2    4    4    0    0 -0.43241579568E+03 -0.34206904650E+03  0.12348581456E+04  0.13554440636E+04  0.91429299475E+02 0.  0.
         23    2    4    4    0    0  0.54879926179E+02 -0.56797807897E+03  0.22245442821E+03  0.61991076479E+03  0.95877417519E+02 0.  0.
          1    1    3    3  502    0  0.33588585732E+03  0.85055307710E+03 -0.12530022099E+03  0.92301678830E+03  0.00000000000E+00 0. -1.
         -2    1    3    3    0  502  0.41650012187E+02  0.59494048371E+02  0.43850482246E+01  0.72756401469E+02  0.00000000000E+00 0.  1.
         13    1    5    5    0    0 -0.28492612845E+03 -0.23478333362E+03  0.71816303619E+03  0.80750495910E+03  0.00000000000E+00 0.  1.
        -13    1    5    5    0    0 -0.14748966723E+03 -0.10728571289E+03  0.51669510942E+03  0.54793910449E+03  0.00000000000E+00 0. -1.
          2    1    6    6  503    0  0.69926349960E+02 -0.52015584880E+03  0.22178671194E+03  0.56977289076E+03  0.00000000000E+00 0. -1.
         -2    1    6    6    0  503 -0.15046423781E+02 -0.47822230169E+02  0.66771627037E+00  0.50137874027E+02  0.00000000000E+00 0.  1.
<mgrwt>
<rscale>  0 0.26536096E+04</rscale>
<asrwt>0</asrwt>
<pdfrwt beam="1">  1        3 0.12574851E+00 0.26536096E+04</pdfrwt>
<pdfrwt beam="2">  1       -2 0.33134811E+00 0.26536096E+04</pdfrwt>
<totfact> 0.37741986E-02</totfact>
</mgrwt>
</event>
<event>
12    5  0.5095719E-008  0.1794459E+04  0.7818608E-02  0.8709252E-01
          1   -1    0    0  501    0  0.00000000000E+00  0.00000000000E+00  0.18808906638E+04  0.18808906638E+04  0.00000000000E+00 0. -1.
         -2   -1    0    0    0  501 -0.00000000000E+00 -0.00000000000E+00 -0.42799969617E+03  0.42799969617E+03  0.00000000000E+00 0.  1.
        -24    2    1    2    0    0  0.10512543414E+03 -0.45932537564E+03 -0.63928890546E+02  0.48217176286E+03  0.79821978420E+02 0.  0.
        254    2    1    2    0    0 -0.10512543414E+03  0.45932537564E+03  0.15168198582E+04  0.18267185971E+04  0.90228997181E+03 0.  0.
         23    2    4    4    0    0  0.17985307671E+03  0.50442790009E+03  0.41202228710E+03  0.68167646226E+03  0.90143211333E+02 0.  0.
         23    2    4    4    0    0 -0.28497851085E+03 -0.45102524444E+02  0.11047975711E+04  0.11450421348E+04  0.85421473561E+02 0.  0.
          1    1    3    3  502    0  0.35821461426E+02 -0.45041215828E+02 -0.19431904171E+01  0.57581804513E+02  0.00000000000E+00 0. -1.
         -2    1    3    3    0  502  0.69303972718E+02 -0.41428415981E+03 -0.61985700129E+02  0.42458995835E+03  0.00000000000E+00 0.  1.
         13    1    5    5    0    0  0.14000972309E+03  0.37357429031E+03  0.35300182312E+03  0.53270137982E+03  0.00000000000E+00 0. -1.
        -13    1    5    5    0    0  0.39843353620E+02  0.13085360978E+03  0.59020463978E+02  0.14897508244E+03  0.00000000000E+00 0.  1.
          4    1    6    6  503    0 -0.77085587288E+02 -0.59525536950E+01  0.17232901367E+03  0.18887802841E+03  0.00000000000E+00 0. -1.
         -4    1    6    6    0  503 -0.20789292357E+03 -0.39149970749E+02  0.93246855739E+03  0.95616410642E+03  0.00000000000E+00 0.  1.
<mgrwt>
<rscale>  0 0.17944588E+04</rscale>
<asrwt>0</asrwt>
<pdfrwt beam="1">  1        1 0.28936779E+00 0.17944588E+04</pdfrwt>
<pdfrwt beam="2">  1       -2 0.65846108E-01 0.17944588E+04</pdfrwt>
<totfact> 0.63173198E+00</totfact>
</mgrwt>
</event>
<event>
12    5  0.5095719E-008  0.1494644E+04  0.7818608E-02  0.8888022E-01
         -2   -1    0    0    0  501 -0.00000000000E+00  0.00000000000E+00  0.31385500571E+03  0.31385500571E+03  0.00000000000E+00 0.  1.
          1   -1    0    0  501    0  0.00000000000E+00 -0.00000000000E+00 -0.17794538678E+04  0.17794538678E+04  0.00000000000E+00 0. -1.
        -24    2    1    2    0    0 -0.44278504374E+03 -0.17525153392E+03 -0.51632316230E+03  0.70705527783E+03  0.81030012255E+02 0.  0.
        254    2    1    2    0    0  0.44278504374E+03  0.17525153392E+03 -0.94927569979E+03  0.13862535957E+04  0.89095621791E+03 0.  0.
         23    2    4    4    0    0  0.27367255778E+02  0.25271121553E+03  0.70065768370E+02  0.27900937808E+03  0.91241964139E+02 0.  0.
         23    2    4    4    0    0  0.41541778796E+03 -0.77459681608E+02 -0.10193414682E+04  0.11072442176E+04  0.91437343985E+02 0.  0.
          1    1    3    3  502    0 -0.36261253472E+03 -0.14514670359E+03 -0.46477058976E+03  0.60709728792E+03  0.00000000000E+00 0. -1.
         -2    1    3    3    0  502 -0.80172509015E+02 -0.30104830333E+02 -0.51552572541E+02  0.99957989909E+02  0.00000000000E+00 0.  1.
         13    1    5    5    0    0  0.30573958983E+02  0.81965989162E+02 -0.14114215757E+02  0.88613776771E+02  0.00000000000E+00 0.  1.
        -13    1    5    5    0    0 -0.32067032049E+01  0.17074522636E+03  0.84179984127E+02  0.19039560131E+03  0.00000000000E+00 0. -1.
          1    1    6    6  503    0  0.28891053118E+03 -0.18826522403E+02 -0.62022733088E+03  0.68447474383E+03  0.00000000000E+00 0. -1.
         -1    1    6    6    0  503  0.12650725678E+03 -0.58633159205E+02 -0.39911413728E+03  0.42276947377E+03  0.00000000000E+00 0.  1.
<mgrwt>
<rscale>  0 0.14946444E+04</rscale>
<asrwt>0</asrwt>
<pdfrwt beam="1">  1        1 0.27376213E+00 0.14946444E+04</pdfrwt>
<pdfrwt beam="2">  1       -2 0.48285386E-01 0.14946444E+04</pdfrwt>
<totfact> 0.14523296E+01</totfact>
</mgrwt>
</event>
<event>
12    5  0.5095719E-008  0.1158193E+04  0.7818608E-02  0.9150258E-01
          1   -1    0    0  501    0  0.00000000000E+00  0.00000000000E+00  0.14719146461E+04  0.14719146461E+04  0.00000000000E+00 0. -1.
         -2   -1    0    0    0  501 -0.00000000000E+00 -0.00000000000E+00 -0.22783451733E+03  0.22783451733E+03  0.00000000000E+00 0.  1.
        -24    2    1    2    0    0  0.66053539106E+02  0.13892946821E+03  0.46462017577E+03  0.49589292757E+03  0.79833706649E+02 0.  0.
        254    2    1    2    0    0 -0.66053539106E+02 -0.13892946821E+03  0.77945995302E+03  0.12038562359E+04  0.90445981179E+03 0.  0.
         23    2    4    4    0    0  0.16903513767E+03  0.31315197393E+03  0.17015479913E+03  0.40440263108E+03  0.89172842363E+02 0.  0.
         23    2    4    4    0    0 -0.23508867678E+03 -0.45208144214E+03  0.60930515389E+03  0.79945360480E+03  0.90713722130E+02 0.  0.
          1    1    3    3  502    0  0.17444540025E+02  0.79422600888E+02  0.33917331860E+03  0.34878474961E+03  0.00000000000E+00 0. -1.
         -2    1    3    3    0  502  0.48608999081E+02  0.59506867319E+02  0.12544685717E+03  0.14710817796E+03  0.00000000000E+00 0.  1.
         13    1    5    5    0    0  0.10133799725E+03  0.19761040259E+03  0.15234397596E+03  0.26931013332E+03  0.00000000000E+00 0.  1.
        -13    1    5    5    0    0  0.67697140423E+02  0.11554157135E+03  0.17810823170E+02  0.13509249777E+03  0.00000000000E+00 0. -1.
          1    1    6    6  503    0 -0.14116734282E+03 -0.30752307827E+03  0.46223701386E+03  0.57285401223E+03  0.00000000000E+00 0. -1.
         -1    1    6    6    0  503 -0.93921333954E+02 -0.14455836387E+03  0.14706814003E+03  0.22659959256E+03  0.00000000000E+00 0.  1.
<mgrwt>
<rscale>  0 0.11581934E+04</rscale>
<asrwt>0</asrwt>
<pdfrwt beam="1">  1        1 0.22644840E+00 0.11581934E+04</pdfrwt>
<pdfrwt beam="2">  1       -2 0.35051465E-01 0.11581934E+04</pdfrwt>
<totfact> 0.45518411E+01</totfact>
</mgrwt>
</event>
<event>
12    5  0.5095719E-008  0.1529658E+04  0.7818608E-02  0.8864967E-01
          1   -1    0    0  501    0  0.00000000000E+00  0.00000000000E+00  0.58052448272E+03  0.58052448272E+03  0.00000000000E+00 0. -1.
         -2   -1    0    0    0  501 -0.00000000000E+00 -0.00000000000E+00 -0.10076459216E+04  0.10076459216E+04  0.00000000000E+00 0.  1.
        -24    2    1    2    0    0 -0.12429893131E+03  0.22613948647E+03  0.29884809354E+03  0.40314389511E+03  0.81397330972E+02 0.  0.
        254    2    1    2    0    0  0.12429893131E+03 -0.22613948647E+03 -0.72596953240E+03  0.11850265092E+04  0.90037035370E+03 0.  0.
         23    2    4    4    0    0  0.38132572821E+03 -0.43774364703E+03 -0.50091165732E+03  0.77310557185E+03  0.98746773523E+02 0.  0.
         23    2    4    4    0    0 -0.25702679690E+03  0.21160416056E+03 -0.22505787508E+03  0.41192093733E+03  0.90491526595E+02 0.  0.
          3    1    3    3  502    0 -0.55660013357E+02  0.31200205678E+02  0.75302891405E+02  0.98701648290E+02  0.00000000000E+00 0. -1.
         -4    1    3    3    0  502 -0.68638917955E+02  0.19493928079E+03  0.22354520213E+03  0.30444224682E+03  0.00000000000E+00 0.  1.
         13    1    5    5    0    0  0.29869862088E+03 -0.37268364389E+03 -0.45020651809E+03  0.65635346687E+03  0.00000000000E+00 0. -1.
        -13    1    5    5    0    0  0.82627107325E+02 -0.65060003142E+02 -0.50705139227E+02  0.11675210498E+03  0.00000000000E+00 0.  1.
          2    1    6    6  503    0 -0.19817054245E+03  0.16142537159E+03 -0.12241192970E+03  0.28339794463E+03  0.00000000000E+00 0. -1.
         -2    1    6    6    0  503 -0.58856254449E+02  0.50178788972E+02 -0.10264594538E+03  0.12852299270E+03  0.00000000000E+00 0.  1.
<mgrwt>
<rscale>  0 0.15296576E+04</rscale>
<asrwt>0</asrwt>
<pdfrwt beam="1">  1        1 0.89311460E-01 0.15296576E+04</pdfrwt>
<pdfrwt beam="2">  1       -2 0.15502245E+00 0.15296576E+04</pdfrwt>
<totfact> 0.83166728E+00</totfact>
</mgrwt>
</event>
<event>
12    5  0.5095719E-008  0.1509089E+04  0.7818608E-02  0.8878431E-01
          1   -1    0    0  501    0  0.00000000000E+00  0.00000000000E+00  0.17715734826E+04  0.17715734826E+04  0.00000000000E+00 0. -1.
         -2   -1    0    0    0  501 -0.00000000000E+00 -0.00000000000E+00 -0.32137399080E+03  0.32137399080E+03  0.00000000000E+00 0.  1.
        -24    2    1    2    0    0  0.50033873748E+02  0.32555474040E+02 -0.19289849974E+03  0.21798885870E+03  0.82134425818E+02 0.  0.
        254    2    1    2    0    0 -0.50033873748E+02 -0.32555474040E+02  0.16430979916E+04  0.18749586147E+04  0.90118563552E+03 0.  0.
         23    2    4    4    0    0 -0.44376769848E+03 -0.13375876451E+03  0.71335175376E+03  0.85618005158E+03  0.96707697927E+02 0.  0.
         23    2    4    4    0    0  0.39373382473E+03  0.10120329047E+03  0.92974623780E+03  0.10187785632E+04  0.90627056056E+02 0.  0.
          3    1    3    3  502    0  0.26582740483E+02  0.29441272323E+02 -0.21799241345E+02  0.45261877235E+02  0.00000000000E+00 0. -1.
         -4    1    3    3    0  502  0.23451133264E+02  0.31142017169E+01 -0.17109925839E+03  0.17272698147E+03  0.00000000000E+00 0.  1.
         13    1    5    5    0    0 -0.37045723801E+02 -0.14999815158E+02  0.12432538144E+03  0.13059165585E+03  0.00000000000E+00 0. -1.
        -13    1    5    5    0    0 -0.40672197467E+03 -0.11875894935E+03  0.58902637232E+03  0.72558839573E+03  0.00000000000E+00 0.  1.
          4    1    6    6  503    0  0.33728103461E+03  0.92141638234E+02  0.70590043663E+03  0.78774615469E+03  0.00000000000E+00 0.  1.
         -4    1    6    6    0  503  0.56452790119E+02  0.90616522341E+01  0.22384580118E+03  0.23103240846E+03  0.00000000000E+00 0. -1.
<mgrwt>
<rscale>  0 0.15090893E+04</rscale>
<asrwt>0</asrwt>
<pdfrwt beam="1">  1        1 0.27254976E+00 0.15090893E+04</pdfrwt>
<pdfrwt beam="2">  1       -2 0.49442153E-01 0.15090893E+04</pdfrwt>
<totfact> 0.13995667E+01</totfact>
</mgrwt>
</event>
<event>
12    5  0.5095719E-008  0.1353621E+04  0.7818608E-02  0.8988092E-01
          1   -1    0    0  501    0  0.00000000000E+00  0.00000000000E+00  0.11398021517E+04  0.11398021517E+04  0.00000000000E+00 0. -1.
         -2   -1    0    0    0  501 -0.00000000000E+00 -0.00000000000E+00 -0.40188759248E+03  0.40188759248E+03  0.00000000000E+00 0.  1.
        -24    2    1    2    0    0  0.30276764713E+03 -0.14414462208E+03  0.35603333129E+03  0.49478821456E+03  0.74898091171E+02 0.  0.
        254    2    1    2    0    0 -0.30276764713E+03  0.14414462208E+03  0.38188122791E+03  0.10469015296E+04  0.91527242950E+03 0.  0.
         23    2    4    4    0    0 -0.35811358909E+03 -0.12177209728E+03  0.57812128526E+03  0.69677085176E+03  0.90507530219E+02 0.  0.
         23    2    4    4    0    0  0.55345941959E+02  0.26591671936E+03 -0.19624005735E+03  0.35013067783E+03  0.10152071967E+03 0.  0.
          1    1    3    3  502    0  0.11465151277E+03 -0.51205877173E+02  0.83309592739E+02  0.15069007757E+03  0.00000000000E+00 0. -1.
         -2    1    3    3    0  502  0.18811613436E+03 -0.92938744906E+02  0.27272373855E+03  0.34409813699E+03  0.00000000000E+00 0.  1.
         13    1    5    5    0    0 -0.22914851886E+03 -0.34943961820E+02  0.31401509659E+03  0.39030194087E+03  0.00000000000E+00 0. -1.
        -13    1    5    5    0    0 -0.12896507023E+03 -0.86828135459E+02  0.26410618867E+03  0.30646891089E+03  0.00000000000E+00 0.  1.
          4    1    6    6  503    0  0.29424393868E+02  0.14687874581E+03 -0.16797701757E+03  0.22506763285E+03  0.00000000000E+00 0. -1.
         -4    1    6    6    0  503  0.25921548091E+02  0.11903797355E+03 -0.28263039781E+02  0.12506304498E+03  0.00000000000E+00 0.  1.
<mgrwt>
<rscale>  0 0.13536208E+04</rscale>
<asrwt>0</asrwt>
<pdfrwt beam="1">  1        1 0.17535418E+00 0.13536208E+04</pdfrwt>
<pdfrwt beam="2">  1       -2 0.61828861E-01 0.13536208E+04</pdfrwt>
<totfact> 0.24683514E+01</totfact>
</mgrwt>
</event>
<event>
12    5  0.5095719E-008  0.1525225E+04  0.7818608E-02  0.8867849E-01
          1   -1    0    0  501    0  0.00000000000E+00  0.00000000000E+00  0.53005133888E+03  0.53005133888E+03  0.00000000000E+00 0. -1.
         -2   -1    0    0    0  501 -0.00000000000E+00 -0.00000000000E+00 -0.10972108903E+04  0.10972108903E+04  0.00000000000E+00 0.  1.
        -24    2    1    2    0    0  0.34390062086E+03 -0.26761636605E+03 -0.41604358217E+03  0.60762218145E+03  0.78906886395E+02 0.  0.
        254    2    1    2    0    0 -0.34390062086E+03  0.26761636605E+03 -0.15111596928E+03  0.10196400478E+04  0.90936441233E+03 0.  0.
         23    2    4    4    0    0 -0.27315967793E+03  0.47236473722E+03 -0.39611281536E+03  0.68035501756E+03  0.90735510213E+02 0.  0.
         23    2    4    4    0    0 -0.70740942929E+02 -0.20474837117E+03  0.24499684608E+03  0.33928503019E+03  0.90358732951E+02 0.  0.
          1    1    3    3  502    0  0.17623495829E+03 -0.14545477873E+03 -0.16444217825E+03  0.28152634542E+03  0.00000000000E+00 0. -1.
         -2    1    3    3    0  502  0.16766566257E+03 -0.12216158733E+03 -0.25160140392E+03  0.32609583603E+03  0.00000000000E+00 0.  1.
         13    1    5    5    0    0 -0.27882005898E+03  0.45494779415E+03 -0.39044331930E+03  0.66118386722E+03  0.00000000000E+00 0.  1.
        -13    1    5    5    0    0  0.56603810546E+01  0.17416943073E+02 -0.56694960584E+01  0.19171150337E+02  0.00000000000E+00 0. -1.
          3    1    6    6  503    0 -0.90220923223E+02 -0.18964718806E+03  0.22142417530E+03  0.30517951493E+03  0.00000000000E+00 0. -1.
         -3    1    6    6    0  503  0.19479980294E+02 -0.15101183112E+02  0.23572670779E+02  0.34105515262E+02  0.00000000000E+00 0.  1.
<mgrwt>
<rscale>  0 0.15252254E+04</rscale>
<asrwt>0</asrwt>
<pdfrwt beam="1">  1        1 0.81546361E-01 0.15252254E+04</pdfrwt>
<pdfrwt beam="2">  1       -2 0.16880167E+00 0.15252254E+04</pdfrwt>
<totfact> 0.74941241E+00</totfact>
</mgrwt>
</event>
<event>
12    5  0.5095719E-008  0.1804700E+04  0.7818608E-02  0.8703804E-01
         -2   -1    0    0    0  501 -0.00000000000E+00  0.00000000000E+00  0.56673223132E+03  0.56673223132E+03  0.00000000000E+00 0.  1.
          1   -1    0    0  501    0  0.00000000000E+00 -0.00000000000E+00 -0.14367193132E+04  0.14367193132E+04  0.00000000000E+00 0. -1.
        -24    2    1    2    0    0  0.10172837367E+03  0.63824848802E+03 -0.53588306464E+03  0.84339339704E+03  0.80199555782E+02 0.  0.
        254    2    1    2    0    0 -0.10172837367E+03 -0.63824848802E+03 -0.33410401728E+03  0.11600581475E+04  0.90354834779E+03 0.  0.
         23    2    4    4    0    0 -0.50726860375E+02 -0.60598514248E+03  0.17583363087E+03  0.63882077283E+03  0.85926170531E+02 0.  0.
         23    2    4    4    0    0 -0.51001513291E+02 -0.32263345531E+02 -0.50993764815E+03  0.52123737468E+03  0.89498144898E+02 0.  0.
          1    1    3    3  502    0  0.11242339375E+03  0.60534109300E+03 -0.49628153159E+03  0.79080479066E+03  0.00000000000E+00 0. -1.
         -2    1    3    3    0  502 -0.10695020085E+02  0.32907395016E+02 -0.39601533053E+02  0.52588606385E+02  0.00000000000E+00 0.  1.
         13    1    5    5    0    0  0.20392670369E+02 -0.18678191413E+03  0.71308250101E+02  0.20096818400E+03  0.00000000000E+00 0. -1.
        -13    1    5    5    0    0 -0.71119530743E+02 -0.41920322836E+03  0.10452538077E+03  0.43785258883E+03  0.00000000000E+00 0.  1.
          3    1    6    6  503    0 -0.58833414673E+02 -0.56617399919E+02 -0.36101546138E+03  0.37013384608E+03  0.00000000000E+00 0. -1.
         -3    1    6    6    0  503  0.78319013822E+01  0.24354054387E+02 -0.14892218677E+03  0.15110352860E+03  0.00000000000E+00 0.  1.
<mgrwt>
<rscale>  0 0.18046996E+04</rscale>
<asrwt>0</asrwt>
<pdfrwt beam="1">  1        1 0.22103374E+00 0.18046996E+04</pdfrwt>
<pdfrwt beam="2">  1       -2 0.87189573E-01 0.18046996E+04</pdfrwt>
<totfact> 0.68130483E+00</totfact>
</mgrwt>
</event>
<event>
12    5  0.5095719E-008  0.1231505E+04  0.7818608E-02  0.9085719E-01
          1   -1    0    0  501    0  0.00000000000E+00  0.00000000000E+00  0.75950427358E+03  0.75950427358E+03  0.00000000000E+00 0. -1.
         -2   -1    0    0    0  501 -0.00000000000E+00 -0.00000000000E+00 -0.49920835993E+03  0.49920835993E+03  0.00000000000E+00 0.  1.
        -24    2    1    2    0    0 -0.50698518487E+02  0.21046797812E+03 -0.11665386126E+03  0.25844625978E+03  0.79493623998E+02 0.  0.
        254    2    1    2    0    0  0.50698518487E+02 -0.21046797812E+03  0.37694977490E+03  0.10002663737E+04  0.90087433977E+03 0.  0.
         23    2    4    4    0    0 -0.13785358078E+03  0.11426301026E+03 -0.21440049624E+03  0.29409320976E+03  0.91997815165E+02 0.  0.
         23    2    4    4    0    0  0.18855209927E+03 -0.32473098837E+03  0.59135027114E+03  0.70617316398E+03  0.89349232804E+02 0.  0.
          3    1    3    3  502    0  0.12953412292E+01 -0.56107891965E+01  0.24953780339E+01  0.62758087797E+01  0.00000000000E+00 0. -1.
         -4    1    3    3    0  502 -0.51993859716E+02  0.21607876731E+03 -0.11914923929E+03  0.25217045100E+03  0.00000000000E+00 0.  1.
         13    1    5    5    0    0 -0.64769254574E+02  0.77264756185E+02 -0.17774926403E+03  0.20435190175E+03  0.00000000000E+00 0. -1.
        -13    1    5    5    0    0 -0.73084326206E+02  0.36998254070E+02 -0.36651232208E+02  0.89741308011E+02  0.00000000000E+00 0.  1.
          1    1    6    6  503    0  0.17473208138E+03 -0.22291622765E+03  0.43312734972E+03  0.51751545473E+03  0.00000000000E+00 0. -1.
         -1    1    6    6    0  503  0.13820017885E+02 -0.10181476073E+03  0.15822292142E+03  0.18865770925E+03  0.00000000000E+00 0.  1.
<mgrwt>
<rscale>  0 0.12315046E+04</rscale>
<asrwt>0</asrwt>
<pdfrwt beam="1">  1        1 0.11684681E+00 0.12315046E+04</pdfrwt>
<pdfrwt beam="2">  1       -2 0.76801286E-01 0.12315046E+04</pdfrwt>
<totfact> 0.31470154E+01</totfact>
</mgrwt>
</event>
<event>
12    5  0.5095719E-008  0.1994509E+04  0.7818608E-02  0.8609192E-01
         -2   -1    0    0    0  501 -0.00000000000E+00  0.00000000000E+00  0.70436194688E+03  0.70436194688E+03  0.00000000000E+00 0.  1.
          1   -1    0    0  501    0  0.00000000000E+00 -0.00000000000E+00 -0.14119401551E+04  0.14119401551E+04  0.00000000000E+00 0. -1.
        -24    2    1    2    0    0 -0.78334371148E+03 -0.32738161946E+02 -0.18613061843E+03  0.80954390600E+03  0.77573004796E+02 0.  0.
        254    2    1    2    0    0  0.78334371148E+03  0.32738161946E+02 -0.52144758981E+03  0.13067581960E+04  0.90609615181E+03 0.  0.
         23    2    4    4    0    0  0.48625852626E+03  0.28083031585E+03 -0.67301155451E+03  0.88104719207E+03  0.89367675866E+02 0.  0.
         23    2    4    4    0    0  0.29708518521E+03 -0.24809215391E+03  0.15156396470E+03  0.42571100392E+03  0.91917894677E+02 0.  0.
          3    1    3    3  502    0 -0.24733925391E+03 -0.20683912892E+02 -0.94745921102E+02  0.26567145188E+03  0.00000000000E+00 0. -1.
         -4    1    3    3    0  502 -0.53600445756E+03 -0.12054249055E+02 -0.91384697327E+02  0.54387245412E+03  0.00000000000E+00 0.  1.
         13    1    5    5    0    0  0.13833954965E+03  0.93553415031E+02 -0.14233472837E+03  0.21942936759E+03  0.00000000000E+00 0. -1.
        -13    1    5    5    0    0  0.34791897661E+03  0.18727690082E+03 -0.53067682614E+03  0.66161782448E+03  0.00000000000E+00 0.  1.
          4    1    6    6  503    0  0.78059041022E+02 -0.62150182343E+02 -0.22794601490E+01  0.99805084986E+02  0.00000000000E+00 0. -1.
         -4    1    6    6    0  503  0.21902614419E+03 -0.18594197156E+03  0.15384342485E+03  0.32590591894E+03  0.00000000000E+00 0.  1.
<mgrwt>
<rscale>  0 0.19945094E+04</rscale>
<asrwt>0</asrwt>
<pdfrwt beam="1">  1        1 0.21722156E+00 0.19945094E+04</pdfrwt>
<pdfrwt beam="2">  1       -2 0.10836338E+00 0.19945094E+04</pdfrwt>
<totfact> 0.41817868E+00</totfact>
</mgrwt>
</event>
<event>
12    5  0.5095719E-008  0.2054451E+04  0.7818608E-02  0.8581578E-01
         -2   -1    0    0    0  501 -0.00000000000E+00  0.00000000000E+00  0.18481357827E+04  0.18481357827E+04  0.00000000000E+00 0.  1.
          1   -1    0    0  501    0  0.00000000000E+00 -0.00000000000E+00 -0.57094978211E+03  0.57094978211E+03  0.00000000000E+00 0. -1.
        -24    2    1    2    0    0 -0.60776200647E+02 -0.39605064972E+02  0.14805922427E+04  0.14845863552E+04  0.81123050120E+02 0.  0.
        254    2    1    2    0    0  0.60776200647E+02  0.39605064972E+02 -0.20340624204E+03  0.93449920964E+03  0.90920424866E+03 0.  0.
         23    2    4    4    0    0  0.24123315944E+03  0.41279777732E+03 -0.99008402886E+02  0.49688229402E+03  0.92162400655E+02 0.  0.
         23    2    4    4    0    0 -0.18045695879E+03 -0.37319271234E+03 -0.10439783916E+03  0.43761691563E+03  0.93659711181E+02 0.  0.
          1    1    3    3  502    0 -0.26026557992E+02 -0.33508067643E+02  0.25647160924E+03  0.25995741702E+03  0.00000000000E+00 0. -1.
         -2    1    3    3    0  502 -0.34749642655E+02 -0.60969973286E+01  0.12241206334E+04  0.12246289382E+04  0.00000000000E+00 0.  1.
         13    1    5    5    0    0  0.69507405307E+01  0.67653079267E+02 -0.28847464900E+02  0.73874408013E+02  0.00000000000E+00 0. -1.
        -13    1    5    5    0    0  0.23428241891E+03  0.34514469805E+03 -0.70160937986E+02  0.42300788600E+03  0.00000000000E+00 0.  1.
          3    1    6    6  503    0 -0.24541772800E+02 -0.73304812184E+02 -0.57581505729E+02  0.96392551079E+02  0.00000000000E+00 0. -1.
         -3    1    6    6    0  503 -0.15591518599E+03 -0.29988790016E+03 -0.46816333430E+02  0.34122436455E+03  0.00000000000E+00 0.  1.
<mgrwt>
<rscale>  0 0.20544515E+04</rscale>
<asrwt>0</asrwt>
<pdfrwt beam="1">  1        1 0.87838429E-01 0.20544515E+04</pdfrwt>
<pdfrwt beam="2">  1       -2 0.28432858E+00 0.20544515E+04</pdfrwt>
<totfact> 0.11791129E+00</totfact>
</mgrwt>
</event>
<event>
12    5  0.5095719E-008  0.1208730E+04  0.7818608E-02  0.9105250E-01
          1   -1    0    0  501    0  0.00000000000E+00  0.00000000000E+00  0.15891148401E+04  0.15891148401E+04  0.00000000000E+00 0. -1.
         -2   -1    0    0    0  501 -0.00000000000E+00 -0.00000000000E+00 -0.22984928357E+03  0.22984928357E+03  0.00000000000E+00 0.  1.
        -24    2    1    2    0    0  0.12532618063E+03 -0.10792678974E+03  0.71942601537E+03  0.74239371191E+03  0.78865635116E+02 0.  0.
        254    2    1    2    0    0 -0.12532618063E+03  0.10792678974E+03  0.63983954115E+03  0.10765704118E+04  0.84985549921E+03 0.  0.
         23    2    4    4    0    0 -0.24347588024E+03  0.28137773512E+03 -0.14335274532E+02  0.38345684744E+03  0.91540808760E+02 0.  0.
         23    2    4    4    0    0  0.11814969961E+03 -0.17345094538E+03  0.65417481569E+03  0.69311356432E+03  0.91744981278E+02 0.  0.
          3    1    3    3  502    0  0.81414798851E+02 -0.65927233886E+02  0.59228970276E+03  0.60148305183E+03  0.00000000000E+00 0. -1.
         -4    1    3    3    0  502  0.43911381776E+02 -0.41999555859E+02  0.12713631261E+03  0.14091066008E+03  0.00000000000E+00 0.  1.
         13    1    5    5    0    0 -0.76537798166E+02  0.62914971046E+02 -0.40993933037E+02  0.10722327488E+03  0.00000000000E+00 0.  1.
        -13    1    5    5    0    0 -0.16693808207E+03  0.21846276408E+03  0.26658658506E+02  0.27623357256E+03  0.00000000000E+00 0. -1.
          2    1    6    6  503    0  0.12808410431E+03 -0.17534611108E+03  0.60194845970E+03  0.63991698257E+03  0.00000000000E+00 0. -1.
         -2    1    6    6    0  503 -0.99344046999E+01  0.18951657000E+01  0.52226355981E+02  0.53196581741E+02  0.00000000000E+00 0.  1.
<mgrwt>
<rscale>  0 0.12087298E+04</rscale>
<asrwt>0</asrwt>
<pdfrwt beam="1">  1        1 0.24447920E+00 0.12087298E+04</pdfrwt>
<pdfrwt beam="2">  1       -2 0.35361429E-01 0.12087298E+04</pdfrwt>
<totfact> 0.37016629E+01</totfact>
</mgrwt>
</event>
<event>
12    5  0.5095719E-008  0.1869004E+04  0.7818608E-02  0.8670441E-01
         -2   -1    0    0    0  501 -0.00000000000E+00  0.00000000000E+00  0.70399556534E+03  0.70399556534E+03  0.00000000000E+00 0.  1.
          1   -1    0    0  501    0  0.00000000000E+00 -0.00000000000E+00 -0.12404826035E+04  0.12404826035E+04  0.00000000000E+00 0. -1.
        -24    2    1    2    0    0  0.26005241650E+03 -0.32525578771E+03  0.39592998723E+03  0.57997396725E+03  0.78680754514E+02 0.  0.
        254    2    1    2    0    0 -0.26005241650E+03  0.32525578771E+03 -0.93241702541E+03  0.13645042016E+04  0.90501470714E+03 0.  0.
         23    2    4    4    0    0  0.20871345122E+03 -0.15835450090E+03 -0.11195528793E+03  0.29922009657E+03  0.91439745295E+02 0.  0.
         23    2    4    4    0    0 -0.46876586772E+03  0.48361028861E+03 -0.82046173748E+03  0.10652841050E+04  0.89735231468E+02 0.  0.
          3    1    3    3  502    0  0.76653112890E+01 -0.12131251559E+02  0.41489103410E+02  0.43900682948E+02  0.00000000000E+00 0. -1.
         -4    1    3    3    0  502  0.25238710521E+03 -0.31312453616E+03  0.35444088382E+03  0.53607328430E+03  0.00000000000E+00 0.  1.
         13    1    5    5    0    0  0.18216580841E+03 -0.16918391028E+03 -0.10380748600E+03  0.26941338385E+03  0.00000000000E+00 0. -1.
        -13    1    5    5    0    0  0.26547642815E+02  0.10829409381E+02 -0.81478019277E+01  0.29806712714E+02  0.00000000000E+00 0.  1.
          4    1    6    6  503    0 -0.26212767969E+03  0.32543649888E+03 -0.53801296807E+03  0.68123255139E+03  0.00000000000E+00 0. -1.
         -4    1    6    6    0  503 -0.20663818803E+03  0.15817378974E+03 -0.28244876941E+03  0.38405155364E+03  0.00000000000E+00 0.  1.
<mgrwt>
<rscale>  0 0.18690043E+04</rscale>
<asrwt>0</asrwt>
<pdfrwt beam="1">  1        1 0.19084347E+00 0.18690043E+04</pdfrwt>
<pdfrwt beam="2">  1       -2 0.10830701E+00 0.18690043E+04</pdfrwt>
<totfact> 0.56047466E+00</totfact>
</mgrwt>
</event>
<event>
12    5  0.5095719E-008  0.1269164E+04  0.7818608E-02  0.9054382E-01
          1   -1    0    0  501    0  0.00000000000E+00  0.00000000000E+00  0.21877310519E+04  0.21877310519E+04  0.00000000000E+00 0. -1.
         -2   -1    0    0    0  501 -0.00000000000E+00 -0.00000000000E+00 -0.18406934068E+03  0.18406934068E+03  0.00000000000E+00 0.  1.
        -24    2    1    2    0    0  0.24125869390E+03 -0.14952865944E+03  0.66692972030E+03  0.72916372719E+03  0.79497873244E+02 0.  0.
        254    2    1    2    0    0 -0.24125869390E+03  0.14952865944E+03  0.13367319909E+04  0.16426366654E+04  0.91150327567E+03 0.  0.
         23    2    4    4    0    0  0.29943496350E+03  0.10016628652E+03  0.21269529712E+03  0.39093930138E+03  0.88880063162E+02 0.  0.
         23    2    4    4    0    0 -0.54069365740E+03  0.49362372922E+02  0.11240366938E+04  0.12516973640E+04  0.92203725748E+02 0.  0.
          3    1    3    3  502    0  0.21059519122E+03 -0.92877864186E+02  0.51038524083E+03  0.55988367209E+03  0.00000000000E+00 0. -1.
         -4    1    3    3    0  502  0.30663502675E+02 -0.56650795252E+02  0.15654447948E+03  0.16928005510E+03  0.00000000000E+00 0.  1.
         13    1    5    5    0    0  0.29546945770E+03  0.89184321535E+02  0.21825258262E+03  0.37800824523E+03  0.00000000000E+00 0.  1.
        -13    1    5    5    0    0  0.39655058017E+01  0.10981964982E+02 -0.55572855004E+01  0.12931056154E+02  0.00000000000E+00 0. -1.
          2    1    6    6  503    0 -0.23865538715E+03  0.95630171676E+01  0.59602921249E+03  0.64210487248E+03  0.00000000000E+00 0. -1.
         -2    1    6    6    0  503 -0.30203827025E+03  0.39799355754E+02  0.52800748129E+03  0.60959249152E+03  0.00000000000E+00 0.  1.
<mgrwt>
<rscale>  0 0.12691638E+04</rscale>
<asrwt>0</asrwt>
<pdfrwt beam="1">  1        1 0.33657399E+00 0.12691638E+04</pdfrwt>
<pdfrwt beam="2">  1       -2 0.28318362E-01 0.12691638E+04</pdfrwt>
<totfact> 0.21975581E+01</totfact>
</mgrwt>
</event>
<event>
12    5  0.5095719E-008  0.3018634E+04  0.7818608E-02  0.8238430E-01
          1   -1    0    0  501    0  0.00000000000E+00  0.00000000000E+00  0.92541782010E+03  0.92541782010E+03  0.00000000000E+00 0. -1.
         -2   -1    0    0    0  501 -0.00000000000E+00 -0.00000000000E+00 -0.24616318025E+04  0.24616318025E+04  0.00000000000E+00 0.  1.
        -24    2    1    2    0    0  0.66099381817E+02  0.60182599434E+03  0.68483773588E+03  0.91758100432E+03  0.79928213111E+02 0.  0.
        254    2    1    2    0    0 -0.66099381817E+02 -0.60182599434E+03 -0.22210517183E+04  0.24694686183E+04  0.89366708884E+03 0.  0.
         23    2    4    4    0    0 -0.39819613120E+03 -0.17757113536E+03 -0.52989286922E+03  0.69211386699E+03  0.90241260039E+02 0.  0.
         23    2    4    4    0    0  0.33209674938E+03 -0.42425485898E+03 -0.16911588491E+04  0.17773547513E+04  0.93226728359E+02 0.  0.
          1    1    3    3  502    0  0.36649376162E+02  0.52768313663E+03  0.56853907699E+03  0.77654964524E+03  0.00000000000E+00 0. -1.
         -2    1    3    3    0  502  0.29450005655E+02  0.74142857707E+02  0.11629865889E+03  0.14103135907E+03  0.00000000000E+00 0.  1.
         13    1    5    5    0    0 -0.38410006940E+03 -0.15282463199E+03 -0.47089807545E+03  0.62660452354E+03  0.00000000000E+00 0.  1.
        -13    1    5    5    0    0 -0.14096061798E+02 -0.24746503375E+02 -0.58994793769E+02  0.65509343451E+02  0.00000000000E+00 0. -1.
          2    1    6    6  503    0  0.20926115306E+03 -0.29123667804E+03 -0.12516423302E+04  0.13020052057E+04  0.00000000000E+00 0. -1.
         -2    1    6    6    0  503  0.12283559632E+03 -0.13301818094E+03 -0.43951651882E+03  0.47534954560E+03  0.00000000000E+00 0.  1.
<mgrwt>
<rscale>  0 0.30186341E+04</rscale>
<asrwt>0</asrwt>
<pdfrwt beam="1">  1        1 0.14237197E+00 0.30186341E+04</pdfrwt>
<pdfrwt beam="2">  1       -2 0.37871258E+00 0.30186341E+04</pdfrwt>
<totfact> 0.13192350E-01</totfact>
</mgrwt>
</event>
<event>
12    5  0.5095719E-008  0.1546396E+04  0.7818608E-02  0.8854173E-01
         -2   -1    0    0    0  501 -0.00000000000E+00  0.00000000000E+00  0.30901393802E+03  0.30901393802E+03  0.00000000000E+00 0.  1.
          1   -1    0    0  501    0  0.00000000000E+00 -0.00000000000E+00 -0.19346546696E+04  0.19346546696E+04  0.00000000000E+00 0. -1.
        -24    2    1    2    0    0 -0.27346743526E+03 -0.35514058292E+03 -0.99339627868E+03  0.10926451853E+04  0.78281943465E+02 0.  0.
        254    2    1    2    0    0  0.27346743526E+03  0.35514058292E+03 -0.63224445287E+03  0.11510234223E+04  0.85100681473E+03 0.  0.
         23    2    4    4    0    0  0.18315013403E+03  0.35676374736E+03  0.86701204921E+02  0.42067353006E+03  0.92869677160E+02 0.  0.
         23    2    4    4    0    0  0.90317301225E+02 -0.16231644426E+01 -0.71894565779E+03  0.73034989224E+03  0.91478175898E+02 0.  0.
          3    1    3    3  502    0 -0.20332340852E+03 -0.21671277585E+03 -0.59465617079E+03  0.66477123669E+03  0.00000000000E+00 0. -1.
         -4    1    3    3    0  502 -0.70144026734E+02 -0.13842780707E+03 -0.39874010789E+03  0.42787394861E+03  0.00000000000E+00 0.  1.
         13    1    5    5    0    0  0.19308170753E+03  0.34899106223E+03  0.81807969443E+02  0.40714598263E+03  0.00000000000E+00 0.  1.
        -13    1    5    5    0    0 -0.99315735010E+01  0.77726851241E+01  0.48932354783E+01  0.13527547438E+02  0.00000000000E+00 0. -1.
          2    1    6    6  503    0  0.11611280954E+01 -0.33407853361E+02 -0.16116700431E+03  0.16459719366E+03  0.00000000000E+00 0. -1.
         -2    1    6    6    0  503  0.89156173129E+02  0.31784688918E+02 -0.55777865349E+03  0.56575269857E+03  0.00000000000E+00 0.  1.
<mgrwt>
<rscale>  0 0.15463961E+04</rscale>
<asrwt>0</asrwt>
<pdfrwt beam="1">  1        1 0.29763918E+00 0.15463961E+04</pdfrwt>
<pdfrwt beam="2">  1       -2 0.47540606E-01 0.15463961E+04</pdfrwt>
<totfact> 0.11712358E+01</totfact>
</mgrwt>
</event>
<event>
12    5  0.5095719E-008  0.1797028E+04  0.7818608E-02  0.8707882E-01
          1   -1    0    0  501    0  0.00000000000E+00  0.00000000000E+00  0.35955710414E+03  0.35955710414E+03  0.00000000000E+00 0. -1.
         -2   -1    0    0    0  501 -0.00000000000E+00 -0.00000000000E+00 -0.22453384961E+04  0.22453384961E+04  0.00000000000E+00 0.  1.
        -24    2    1    2    0    0 -0.55225116106E+03 -0.17956988326E+03 -0.21987559062E+03  0.62605848892E+03  0.79857800710E+02 0.  0.
        254    2    1    2    0    0  0.55225116106E+03  0.17956988326E+03 -0.16659058014E+04  0.19788371114E+04  0.89628538219E+03 0.  0.
         23    2    4    4    0    0  0.49944165171E+03 -0.83916511972E+02 -0.16086457964E+04  0.16889481323E+04  0.91217054415E+02 0.  0.
         23    2    4    4    0    0  0.52809509349E+02  0.26348639523E+03 -0.57260005006E+02  0.28988897904E+03  0.92428281617E+02 0.  0.
          3    1    3    3  502    0 -0.40897892458E+03 -0.15968897406E+03 -0.18980781514E+03  0.47832137301E+03  0.00000000000E+00 0. -1.
         -4    1    3    3    0  502 -0.14327223648E+03 -0.19880909199E+02 -0.30067775483E+02  0.14773711592E+03  0.00000000000E+00 0.  1.
         13    1    5    5    0    0  0.36264919459E+03 -0.20066710384E+02 -0.11044412747E+04  0.11626296231E+04  0.00000000000E+00 0.  1.
        -13    1    5    5    0    0  0.13679245712E+03 -0.63849801588E+02 -0.50420452166E+03  0.52631850922E+03  0.00000000000E+00 0. -1.
          2    1    6    6  503    0  0.51796737351E+02  0.26619349254E+03 -0.67324162213E+02  0.27941800280E+03  0.00000000000E+00 0. -1.
         -2    1    6    6    0  503  0.10127719984E+01 -0.27070973106E+01  0.10064157208E+02  0.10470976233E+02  0.00000000000E+00 0.  1.
<mgrwt>
<rscale>  0 0.17970280E+04</rscale>
<asrwt>0</asrwt>
<pdfrwt beam="1">  1        1 0.55316480E-01 0.17970280E+04</pdfrwt>
<pdfrwt beam="2">  1       -2 0.34543668E+00 0.17970280E+04</pdfrwt>
<totfact> 0.95154267E-01</totfact>
</mgrwt>
</event>
<event>
12    5  0.5095719E-008  0.1481276E+04  0.7818608E-02  0.8897001E-01
         -2   -1    0    0    0  501 -0.00000000000E+00  0.00000000000E+00  0.41125756604E+03  0.41125756604E+03  0.00000000000E+00 0.  1.
          1   -1    0    0  501    0  0.00000000000E+00 -0.00000000000E+00 -0.13338222097E+04  0.13338222097E+04  0.00000000000E+00 0. -1.
        -24    2    1    2    0    0 -0.24986295309E+03  0.21590127237E+03  0.86650046002E+02  0.35060487787E+03  0.79816634701E+02 0.  0.
        254    2    1    2    0    0  0.24986295309E+03 -0.21590127237E+03 -0.10092146897E+04  0.13944748979E+04  0.90388112949E+03 0.  0.
         23    2    4    4    0    0  0.25513655627E+03 -0.51886755391E+03 -0.40291059571E+03  0.71077015236E+03  0.92407037121E+02 0.  0.
         23    2    4    4    0    0 -0.52736031859E+01  0.30296628153E+03 -0.60630409396E+03  0.68370474553E+03  0.89616661778E+02 0.  0.
          3    1    3    3  502    0 -0.67008781813E+01  0.15406765949E+02 -0.11679465808E+02  0.20461674589E+02  0.00000000000E+00 0. -1.
         -2    1    3    3    0  502 -0.24316207490E+03  0.20049450643E+03  0.98329511810E+02  0.33014320328E+03  0.00000000000E+00 0.  1.
         13    1    5    5    0    0  0.21854459833E+03 -0.45167149992E+03 -0.30759521929E+03  0.58854371480E+03  0.00000000000E+00 0.  1.
        -13    1    5    5    0    0  0.36591957945E+02 -0.67196053984E+02 -0.95315376415E+02  0.12222643756E+03  0.00000000000E+00 0. -1.
          2    1    6    6  503    0  0.10958104915E+01  0.66546540618E+02 -0.22835899519E+03  0.23786019750E+03  0.00000000000E+00 0.  1.
         -2    1    6    6    0  503 -0.63694136774E+01  0.23641974091E+03 -0.37794509877E+03  0.44584454803E+03  0.00000000000E+00 0. -1.
<mgrwt>
<rscale>  0 0.14812758E+04</rscale>
<asrwt>0</asrwt>
<pdfrwt beam="1">  1        1 0.20520342E+00 0.14812758E+04</pdfrwt>
<pdfrwt beam="2">  1       -2 0.63270395E-01 0.14812758E+04</pdfrwt>
<totfact> 0.16822462E+01</totfact>
</mgrwt>
</event>
<event>
12    5  0.5095719E-008  0.1447266E+04  0.7818608E-02  0.8920298E-01
          1   -1    0    0  501    0  0.00000000000E+00  0.00000000000E+00  0.18221352919E+03  0.18221352919E+03  0.00000000000E+00 0. -1.
         -2   -1    0    0    0  501 -0.00000000000E+00 -0.00000000000E+00 -0.28737955281E+04  0.28737955281E+04  0.00000000000E+00 0.  1.
        -24    2    1    2    0    0  0.37176774033E+03  0.16935659187E+03 -0.10805874960E+04  0.11579724957E+04  0.79611910150E+02 0.  0.
        254    2    1    2    0    0 -0.37176774033E+03 -0.16935659187E+03 -0.16109945029E+04  0.18980365616E+04  0.91670420144E+03 0.  0.
         23    2    4    4    0    0 -0.22130046785E+03  0.25642325638E+03 -0.18227174783E+03  0.39694862178E+03  0.98073619265E+02 0.  0.
         23    2    4    4    0    0 -0.15046727248E+03 -0.42577984825E+03 -0.14287227551E+04  0.15010879399E+04  0.89930045201E+02 0.  0.
          1    1    3    3  502    0  0.92296799425E+02  0.19021917718E+02 -0.18116894740E+03  0.20421243850E+03  0.00000000000E+00 0. -1.
         -2    1    3    3    0  502  0.27947094090E+03  0.15033467415E+03 -0.89941854863E+03  0.95376005718E+03  0.00000000000E+00 0.  1.
         13    1    5    5    0    0 -0.14625391184E+03  0.21889970060E+03 -0.16672429741E+03  0.31161559171E+03  0.00000000000E+00 0. -1.
        -13    1    5    5    0    0 -0.75046556002E+02  0.37523555783E+02 -0.15547450422E+02  0.85333030070E+02  0.00000000000E+00 0.  1.
          4    1    6    6  503    0 -0.35128068101E+02 -0.90619594274E+02 -0.44406740595E+03  0.45457865443E+03  0.00000000000E+00 0.  1.
         -4    1    6    6    0  503 -0.11533920438E+03 -0.33516025398E+03 -0.98465534912E+03  0.10465092854E+04  0.00000000000E+00 0. -1.
<mgrwt>
<rscale>  0 0.14472656E+04</rscale>
<asrwt>0</asrwt>
<pdfrwt beam="1">  1        1 0.28032851E-01 0.14472656E+04</pdfrwt>
<pdfrwt beam="2">  1       -2 0.44212238E+00 0.14472656E+04</pdfrwt>
<totfact> 0.56309087E-01</totfact>
</mgrwt>
</event>
<event>
12    5  0.5095719E-008  0.1301125E+04  0.7818608E-02  0.9028673E-01
         -4   -1    0    0    0  501 -0.00000000000E+00  0.00000000000E+00  0.21638293472E+03  0.21638293472E+03  0.00000000000E+00 0.  1.
          1   -1    0    0  501    0  0.00000000000E+00 -0.00000000000E+00 -0.19559379105E+04  0.19559379105E+04  0.00000000000E+00 0. -1.
        -24    2    1    2    0    0 -0.33742136042E+02  0.13979736542E+03 -0.44776141228E+02  0.17003945040E+03  0.78909294414E+02 0.  0.
        254    2    1    2    0    0  0.33742136042E+02 -0.13979736542E+03 -0.16947788345E+04  0.20022813948E+04  0.10564911977E+04 0.  0.
         23    2    4    4    0    0 -0.13355961373E+03  0.43359536790E+03 -0.72987026699E+03  0.86419195097E+03  0.90961574352E+02 0.  0.
         23    2    4    4    0    0  0.16730174977E+03 -0.57339273333E+03 -0.96490856753E+03  0.11380894438E+04  0.86197078425E+02 0.  0.
          1    1    3    3  502    0 -0.10119096970E+02  0.39742507260E+02 -0.52875114753E+02  0.66915175909E+02  0.00000000000E+00 0. -1.
         -2    1    3    3    0  502 -0.23623039073E+02  0.10005485816E+03  0.80989735247E+01  0.10312427449E+03  0.00000000000E+00 0.  1.
         13    1    5    5    0    0 -0.35189737410E+02  0.25178503153E+03 -0.36460771635E+03  0.44449162708E+03  0.00000000000E+00 0.  1.
        -13    1    5    5    0    0 -0.98369876316E+02  0.18181033637E+03 -0.36526255063E+03  0.41970032389E+03  0.00000000000E+00 0. -1.
          1    1    6    6  503    0  0.66307844807E+02 -0.14310117675E+03 -0.20047830369E+03  0.25508082507E+03  0.00000000000E+00 0. -1.
         -1    1    6    6    0  503  0.10099390496E+03 -0.43029155658E+03 -0.76443026385E+03  0.88300861875E+03  0.00000000000E+00 0.  1.
<mgrwt>
<rscale>  0 0.13011250E+04</rscale>
<asrwt>0</asrwt>
<pdfrwt beam="1">  1        1 0.30091353E+00 0.13011250E+04</pdfrwt>
<pdfrwt beam="2">  1       -4 0.33289682E-01 0.13011250E+04</pdfrwt>
<totfact> 0.13673489E+01</totfact>
</mgrwt>
</event>
<event>
12    5  0.8931399E-008  0.1715825E+04  0.7818608E-02  0.8752390E-01
          1   -1    0    0  501    0  0.00000000000E+00  0.00000000000E+00  0.11520222904E+04  0.11520222904E+04  0.00000000000E+00 0. -1.
         -2   -1    0    0    0  501 -0.00000000000E+00 -0.00000000000E+00 -0.63888856493E+03  0.63888856493E+03  0.00000000000E+00 0.  1.
        -24    2    1    2    0    0  0.16741236653E+03 -0.50138337721E+03 -0.14046316172E+03  0.55253973937E+03  0.78473386350E+02 0.  0.
        254    2    1    2    0    0 -0.16741236653E+03  0.50138337721E+03  0.65359688720E+03  0.12383711160E+04  0.90937447649E+03 0.  0.
         23    2    4    4    0    0 -0.34872961909E+02  0.72359403901E+03  0.30171679355E+03  0.79081823143E+03  0.97754769118E+02 0.  0.
         23    2    4    4    0    0 -0.13253940462E+03 -0.22221066179E+03  0.35188009365E+03  0.44755288454E+03  0.97671450092E+02 0.  0.
          1    1    3    3  502    0 -0.85478506318E+01 -0.26114586052E+02 -0.47326881476E+01  0.27882533820E+02  0.00000000000E+00 0. -1.
         -2    1    3    3    0  502  0.17596021716E+03 -0.47526879116E+03 -0.13573047357E+03  0.52465720555E+03  0.00000000000E+00 0.  1.
         13    1    5    5    0    0  0.23843308283E+02  0.16663271826E+03  0.98558627822E+02  0.19506093730E+03  0.00000000000E+00 0. -1.
        -13    1    5    5    0    0 -0.58716270192E+02  0.55696132075E+03  0.20315816573E+03  0.59575729412E+03  0.00000000000E+00 0.  1.
          4    1    6    6  503    0 -0.86244052068E+01 -0.92241057237E+00 -0.47862774092E+01  0.99065462132E+01  0.00000000000E+00 0. -1.
         -4    1    6    6    0  503 -0.12391499942E+03 -0.22128825122E+03  0.35666637106E+03  0.43764633833E+03  0.00000000000E+00 0.  1.
<mgrwt>
<rscale>  0 0.17158250E+04</rscale>
<asrwt>0</asrwt>
<pdfrwt beam="1">  1        1 0.17723420E+00 0.17158250E+04</pdfrwt>
<pdfrwt beam="2">  1       -2 0.98290548E-01 0.17158250E+04</pdfrwt>
<totfact> 0.83128235E+00</totfact>
</mgrwt>
</event>
<event>
12    5  0.5095719E-008  0.2227290E+04  0.7818608E-02  0.8507155E-01
         -2   -1    0    0    0  501 -0.00000000000E+00  0.00000000000E+00  0.92607903803E+03  0.92607903803E+03  0.00000000000E+00 0.  1.
          1   -1    0    0  501    0  0.00000000000E+00 -0.00000000000E+00 -0.13392001180E+04  0.13392001180E+04  0.00000000000E+00 0. -1.
        -24    2    1    2    0    0 -0.60911465755E+03 -0.29804205898E+03 -0.82018391685E+03  0.10672612141E+04  0.80592224586E+02 0.  0.
        254    2    1    2    0    0  0.60911465755E+03  0.29804205898E+03  0.40706283688E+03  0.11980179419E+04  0.89983170710E+03 0.  0.
         23    2    4    4    0    0  0.52181823864E+03 -0.64309129812E+02 -0.11879005026E+03  0.54685753548E+03  0.92261312125E+02 0.  0.
         23    2    4    4    0    0  0.87296418906E+02  0.36235118879E+03  0.52585288713E+03  0.65116040646E+03  0.92571957250E+02 0.  0.
          1    1    3    3  502    0 -0.29858565717E+03 -0.13160800526E+03 -0.33501469130E+03  0.46766323899E+03  0.00000000000E+00 0. -1.
         -2    1    3    3    0  502 -0.31052900038E+03 -0.16643405372E+03 -0.48516922555E+03  0.59959797509E+03  0.00000000000E+00 0.  1.
         13    1    5    5    0    0  0.40649268011E+01 -0.60036057702E+01  0.78252477009E+01  0.10667774544E+02  0.00000000000E+00 0. -1.
        -13    1    5    5    0    0  0.51775331184E+03 -0.58305524042E+02 -0.12661529796E+03  0.53618976094E+03  0.00000000000E+00 0.  1.
          3    1    6    6  503    0  0.78555412790E+02  0.14491963540E+03  0.25630324553E+03  0.30473596321E+03  0.00000000000E+00 0. -1.
         -3    1    6    6    0  503  0.87410061159E+01  0.21743155338E+03  0.26954964160E+03  0.34642444325E+03  0.00000000000E+00 0.  1.
<mgrwt>
<rscale>  0 0.22272900E+04</rscale>
<asrwt>0</asrwt>
<pdfrwt beam="1">  1        1 0.20603079E+00 0.22272900E+04</pdfrwt>
<pdfrwt beam="2">  1       -2 0.14247370E+00 0.22272900E+04</pdfrwt>
<totfact> 0.23232308E+00</totfact>
</mgrwt>
</event>
<event>
12    5  0.5095719E-008  0.3089760E+04  0.7818608E-02  0.8218554E-01
          1   -1    0    0  501    0  0.00000000000E+00  0.00000000000E+00  0.16706852899E+04  0.16706852899E+04  0.00000000000E+00 0. -1.
         -2   -1    0    0    0  501 -0.00000000000E+00 -0.00000000000E+00 -0.14285484632E+04  0.14285484632E+04  0.00000000000E+00 0.  1.
        -24    2    1    2    0    0 -0.72381646123E+03  0.91552536068E+03 -0.68765975816E+03  0.13569632567E+04  0.79852247418E+02 0.  0.
        254    2    1    2    0    0  0.72381646123E+03 -0.91552536068E+03  0.92979658492E+03  0.17422704964E+04  0.89938191986E+03 0.  0.
         23    2    4    4    0    0  0.45812353929E+03 -0.10227025665E+04  0.90000483047E+03  0.14401713967E+04  0.91034280096E+02 0.  0.
         23    2    4    4    0    0  0.26569292194E+03  0.10717720580E+03  0.29791754458E+02  0.30209909976E+03  0.91085867375E+02 0.  0.
          3    1    3    3  502    0  0.12639076646E+00  0.10642373768E+02 -0.95645560962E+01  0.14309326587E+02  0.00000000000E+00 0. -1.
         -4    1    3    3    0  502 -0.72394285200E+03  0.90488298691E+03 -0.67809520206E+03  0.13426539301E+04  0.00000000000E+00 0.  1.
         13    1    5    5    0    0  0.42002922547E+03 -0.85858010833E+03  0.76766920019E+03  0.12259283640E+04  0.00000000000E+00 0.  1.
        -13    1    5    5    0    0  0.38094313824E+02 -0.16412245814E+03  0.13233563027E+03  0.21424303268E+03  0.00000000000E+00 0. -1.
          3    1    6    6  503    0  0.55235906720E+02  0.29540251396E+02  0.45208994262E+02  0.77249498418E+02  0.00000000000E+00 0. -1.
         -3    1    6    6    0  503  0.21045701522E+03  0.77636954402E+02 -0.15417239804E+02  0.22484960135E+03  0.00000000000E+00 0.  1.
<mgrwt>
<rscale>  0 0.30897604E+04</rscale>
<asrwt>0</asrwt>
<pdfrwt beam="1">  1        1 0.25702850E+00 0.30897604E+04</pdfrwt>
<pdfrwt beam="2">  1       -2 0.21977669E+00 0.30897604E+04</pdfrwt>
<totfact> 0.36725156E-01</totfact>
</mgrwt>
</event>
<event>
12    5  0.5095719E-008  0.1189996E+04  0.7818608E-02  0.9121659E-01
         -2   -1    0    0    0  501 -0.00000000000E+00  0.00000000000E+00  0.10520521229E+03  0.10520521229E+03  0.00000000000E+00 0.  1.
          1   -1    0    0  501    0  0.00000000000E+00 -0.00000000000E+00 -0.33650652449E+04  0.33650652449E+04  0.00000000000E+00 0. -1.
        -24    2    1    2    0    0  0.17147045798E+03 -0.87629432087E+02 -0.76424965963E+03  0.79220082679E+03  0.80147192035E+02 0.  0.
        254    2    1    2    0    0 -0.17147045798E+03  0.87629432087E+02 -0.24956103730E+04  0.26780696304E+04  0.95231548148E+03 0.  0.
         23    2    4    4    0    0 -0.27819085920E+02 -0.10982237876E+03  0.21977146125E+02  0.14703343839E+03  0.91109717564E+02 0.  0.
         23    2    4    4    0    0 -0.14365137206E+03  0.19745181085E+03 -0.25175875191E+04  0.25310361920E+04  0.90963479797E+02 0.  0.
          3    1    3    3  502    0  0.84525285563E+02 -0.14685544134E+02 -0.21774829395E+03  0.23403954500E+03  0.00000000000E+00 0. -1.
         -4    1    3    3    0  502  0.86945172417E+02 -0.72943887952E+02 -0.54650136568E+03  0.55816128179E+03  0.00000000000E+00 0.  1.
         13    1    5    5    0    0  0.27145922987E+02 -0.14739377127E+02  0.20728095630E+02  0.37199520445E+02  0.00000000000E+00 0.  1.
        -13    1    5    5    0    0 -0.54965008907E+02 -0.95083001633E+02  0.12490504955E+01  0.10983391794E+03  0.00000000000E+00 0. -1.
          1    1    6    6  503    0 -0.11219379195E+03  0.97810794032E+02 -0.17590114233E+04  0.17652975912E+04  0.00000000000E+00 0. -1.
         -1    1    6    6    0  503 -0.31457580113E+02  0.99641016814E+02 -0.75857609584E+03  0.76573860081E+03  0.00000000000E+00 0.  1.
<mgrwt>
<rscale>  0 0.11899956E+04</rscale>
<asrwt>0</asrwt>
<pdfrwt beam="1">  1        1 0.51770239E+00 0.11899956E+04</pdfrwt>
<pdfrwt beam="2">  1       -2 0.16185416E-01 0.11899956E+04</pdfrwt>
<totfact> 0.87155743E+00</totfact>
</mgrwt>
</event>
<event>
12    5  0.5095719E-008  0.1279062E+04  0.7818608E-02  0.9046336E-01
          1   -1    0    0  501    0  0.00000000000E+00  0.00000000000E+00  0.33300216137E+04  0.33300216137E+04  0.00000000000E+00 0. -1.
         -2   -1    0    0    0  501 -0.00000000000E+00 -0.00000000000E+00 -0.12282206233E+03  0.12282206233E+03  0.00000000000E+00 0.  1.
        -24    2    1    2    0    0  0.18440435833E+03  0.42222945457E+02  0.14502858240E+03  0.25177142343E+03  0.81042059742E+02 0.  0.
        254    2    1    2    0    0 -0.18440435833E+03 -0.42222945457E+02  0.30621709690E+04  0.32010722526E+04  0.91333716595E+03 0.  0.
         23    2    4    4    0    0  0.15285690860E+03 -0.39603991473E+03  0.14774332417E+04  0.15400723004E+04  0.93812887849E+02 0.  0.
         23    2    4    4    0    0 -0.33726126694E+03  0.35381696928E+03  0.15847377273E+04  0.16609999523E+04  0.92712282772E+02 0.  0.
          3    1    3    3  502    0  0.10658809335E+03 -0.14488816951E+02  0.93700768517E+02  0.14265616524E+03  0.00000000000E+00 0. -1.
         -2    1    3    3    0  502  0.77816264983E+02  0.56711762408E+02  0.51327813880E+02  0.10911525819E+03  0.00000000000E+00 0.  1.
         13    1    5    5    0    0  0.22876054881E+01 -0.33509345559E+01  0.11777144867E+00  0.40590357699E+01  0.00000000000E+00 0. -1.
        -13    1    5    5    0    0  0.15056930312E+03 -0.39268898018E+03  0.14773154703E+04  0.15360132646E+04  0.00000000000E+00 0.  1.
          2    1    6    6  503    0 -0.30223902990E+03  0.27940495283E+03  0.13885889106E+04  0.14483075369E+04  0.00000000000E+00 0.  1.
         -2    1    6    6    0  503 -0.35022237038E+02  0.74412016442E+02  0.19614881670E+03  0.21269241541E+03  0.00000000000E+00 0. -1.
<mgrwt>
<rscale>  0 0.12790623E+04</rscale>
<asrwt>0</asrwt>
<pdfrwt beam="1">  1        1 0.51231095E+00 0.12790623E+04</pdfrwt>
<pdfrwt beam="2">  1       -2 0.18895704E-01 0.12790623E+04</pdfrwt>
<totfact> 0.70202676E+00</totfact>
</mgrwt>
</event>
<event>
12    5  0.5095719E-008  0.2238632E+04  0.7818608E-02  0.8502518E-01
          1   -1    0    0  501    0  0.00000000000E+00  0.00000000000E+00  0.15099280707E+04  0.15099280707E+04  0.00000000000E+00 0. -1.
         -2   -1    0    0    0  501 -0.00000000000E+00 -0.00000000000E+00 -0.82975382821E+03  0.82975382821E+03  0.00000000000E+00 0.  1.
        -24    2    1    2    0    0 -0.25749005343E+03 -0.24709164223E+03 -0.61499133453E+03  0.71552602543E+03  0.80048386878E+02 0.  0.
        254    2    1    2    0    0  0.25749005343E+03  0.24709164223E+03  0.12951655770E+04  0.16241558735E+04  0.91272833974E+03 0.  0.
         23    2    4    4    0    0 -0.31291977698E+03  0.22239408750E+03  0.62561536549E+03  0.73923080066E+03  0.87690787034E+02 0.  0.
         23    2    4    4    0    0  0.57040983041E+03  0.24697554729E+02  0.66955021152E+03  0.88492507280E+03  0.93901836451E+02 0.  0.
          1    1    3    3  502    0 -0.31487856076E+02 -0.87553128694E+00 -0.50805593035E+02  0.59778423524E+02  0.00000000000E+00 0. -1.
         -4    1    3    3    0  502 -0.22600219735E+03 -0.24621611094E+03 -0.56418574150E+03  0.65574760191E+03  0.00000000000E+00 0.  1.
         13    1    5    5    0    0 -0.17455229096E+02  0.35820111790E+02  0.35262104197E+02  0.53208847233E+02  0.00000000000E+00 0.  1.
        -13    1    5    5    0    0 -0.29546454788E+03  0.18657397571E+03  0.59035326129E+03  0.68602195343E+03  0.00000000000E+00 0. -1.
          2    1    6    6  503    0  0.53947205023E+03  0.45333140281E+02  0.62352581083E+03  0.82575397266E+03  0.00000000000E+00 0. -1.
         -2    1    6    6    0  503  0.30937780179E+02 -0.20635585551E+02  0.46024400685E+02  0.59171100141E+02  0.00000000000E+00 0.  1.
<mgrwt>
<rscale>  0 0.22386323E+04</rscale>
<asrwt>0</asrwt>
<pdfrwt beam="1">  1        1 0.23229663E+00 0.22386323E+04</pdfrwt>
<pdfrwt beam="2">  1       -2 0.12765443E+00 0.22386323E+04</pdfrwt>
<totfact> 0.23360270E+00</totfact>
</mgrwt>
</event>
<event>
12    5  0.5095719E-008  0.1420848E+04  0.7818608E-02  0.8938864E-01
         -2   -1    0    0    0  501 -0.00000000000E+00  0.00000000000E+00  0.14324087086E+04  0.14324087086E+04  0.00000000000E+00 0.  1.
          1   -1    0    0  501    0  0.00000000000E+00 -0.00000000000E+00 -0.35234528934E+03  0.35234528934E+03  0.00000000000E+00 0. -1.
        -24    2    1    2    0    0  0.14106668080E+03  0.13404248873E+03  0.80465667419E+03  0.83321537574E+03  0.94383800634E+02 0.  0.
        254    2    1    2    0    0 -0.14106668080E+03 -0.13404248873E+03  0.27540674511E+03  0.95153862224E+03  0.88978069048E+03 0.  0.
         23    2    4    4    0    0  0.23049361881E+03 -0.28204402328E+03  0.37367357712E+03  0.52990876815E+03  0.92169522841E+02 0.  0.
         23    2    4    4    0    0 -0.37156029961E+03  0.14800153455E+03 -0.98266832001E+02  0.42162985410E+03  0.90298688352E+02 0.  0.
          1    1    3    3  502    0  0.74180308750E+02  0.10937427903E+03  0.37320083150E+03  0.39590947419E+03  0.00000000000E+00 0. -1.
         -2    1    3    3    0  502  0.66886372053E+02  0.24668209709E+02  0.43145584269E+03  0.43730590155E+03  0.00000000000E+00 0.  1.
         13    1    5    5    0    0  0.18522114407E+03 -0.26726436644E+03  0.34604073662E+03  0.47484871821E+03  0.00000000000E+00 0.  1.
        -13    1    5    5    0    0  0.45272474739E+02 -0.14779656838E+02  0.27632840492E+02  0.55060049936E+02  0.00000000000E+00 0. -1.
          3    1    6    6  503    0 -0.26601076245E+03  0.87988602923E+02 -0.28589708041E+02  0.28164000318E+03  0.00000000000E+00 0. -1.
         -3    1    6    6    0  503 -0.10554953716E+03  0.60012931625E+02 -0.69677123960E+02  0.13998985092E+03  0.00000000000E+00 0.  1.
<mgrwt>
<rscale>  0 0.14208483E+04</rscale>
<asrwt>0</asrwt>
<pdfrwt beam="1">  1        1 0.54206968E-01 0.14208483E+04</pdfrwt>
<pdfrwt beam="2">  1       -2 0.22037057E+00 0.14208483E+04</pdfrwt>
<totfact> 0.59322655E+00</totfact>
</mgrwt>
</event>
<event>
12    5  0.5095719E-008  0.1312467E+04  0.7818608E-02  0.9019737E-01
          1   -1    0    0  501    0  0.00000000000E+00  0.00000000000E+00  0.82735108963E+03  0.82735108963E+03  0.00000000000E+00 0. -1.
         -2   -1    0    0    0  501 -0.00000000000E+00 -0.00000000000E+00 -0.52050749479E+03  0.52050749479E+03  0.00000000000E+00 0.  1.
        -24    2    1    2    0    0  0.11283008753E+03 -0.21580156209E+03 -0.16619301646E+03  0.30516448833E+03  0.78767400385E+02 0.  0.
        254    2    1    2    0    0 -0.11283008753E+03  0.21580156209E+03  0.47303661130E+03  0.10426940961E+04  0.89674210314E+03 0.  0.
         23    2    4    4    0    0  0.33864535995E+03  0.24641602979E+03  0.38049391134E+03  0.57217365532E+03  0.84885427044E+02 0.  0.
         23    2    4    4    0    0 -0.45147544748E+03 -0.30614467698E+02  0.92542699956E+02  0.47052044077E+03  0.89766411101E+02 0.  0.
          3    1    3    3  502    0 -0.95198136313E+01 -0.65831887489E+01 -0.52344848239E+00  0.11586165198E+02  0.00000000000E+00 0. -1.
         -4    1    3    3    0  502  0.12234990116E+03 -0.20921837335E+03 -0.16566956797E+03  0.29357832313E+03  0.00000000000E+00 0.  1.
         13    1    5    5    0    0  0.16764089284E+03  0.16666853647E+03  0.18226114252E+03  0.29849789626E+03  0.00000000000E+00 0. -1.
        -13    1    5    5    0    0  0.17100446711E+03  0.79747493326E+02  0.19823276883E+03  0.27367575906E+03  0.00000000000E+00 0.  1.
          3    1    6    6  503    0 -0.39341844102E+03 -0.27441178144E+02  0.11068456196E+03  0.40961220716E+03  0.00000000000E+00 0. -1.
         -3    1    6    6    0  503 -0.58057006453E+02 -0.31732895537E+01 -0.18141862008E+02  0.60908233614E+02  0.00000000000E+00 0.  1.
<mgrwt>
<rscale>  0 0.13124671E+04</rscale>
<asrwt>0</asrwt>
<pdfrwt beam="1">  1        1 0.12728478E+00 0.13124671E+04</pdfrwt>
<pdfrwt beam="2">  1       -2 0.80078076E-01 0.13124671E+04</pdfrwt>
<totfact> 0.24840874E+01</totfact>
</mgrwt>
</event>
<event>
12    5  0.5095719E-008  0.1913902E+04  0.7818608E-02  0.8647967E-01
         -2   -1    0    0    0  501 -0.00000000000E+00  0.00000000000E+00  0.99472496804E+03  0.99472496804E+03  0.00000000000E+00 0.  1.
          1   -1    0    0  501    0  0.00000000000E+00 -0.00000000000E+00 -0.92061125934E+03  0.92061125934E+03  0.00000000000E+00 0. -1.
        -24    2    1    2    0    0  0.11381266156E+02  0.17901298990E+02 -0.71074370864E+03  0.71483262918E+03  0.73342202324E+02 0.  0.
        254    2    1    2    0    0 -0.11381266156E+02 -0.17901298990E+02  0.78485741734E+03  0.12005035982E+04  0.90816173340E+03 0.  0.
         23    2    4    4    0    0  0.21635530169E+03  0.16100042775E+02 -0.11843281633E+03  0.26407808193E+03  0.92962752889E+02 0.  0.
         23    2    4    4    0    0 -0.22773656784E+03 -0.34001341765E+02  0.90329023367E+03  0.93642551627E+03  0.89103679572E+02 0.  0.
          1    1    3    3  502    0  0.20659824503E+02 -0.24063799147E+02 -0.37726478227E+03  0.37859557673E+03  0.00000000000E+00 0. -1.
         -2    1    3    3    0  502 -0.92785583464E+01  0.41965098137E+02 -0.33347892638E+03  0.33623705246E+03  0.00000000000E+00 0.  1.
         13    1    5    5    0    0  0.21303677878E+03 -0.65172907934E+01 -0.10830404556E+03  0.23907511472E+03  0.00000000000E+00 0. -1.
        -13    1    5    5    0    0  0.33185229089E+01  0.22617333568E+02 -0.10128770769E+02  0.25002967211E+02  0.00000000000E+00 0.  1.
          1    1    6    6  503    0 -0.23559133327E+03 -0.29656756978E+02  0.87976446076E+03  0.91124546965E+03  0.00000000000E+00 0. -1.
         -1    1    6    6    0  503  0.78547654277E+01 -0.43445847866E+01  0.23525772909E+02  0.25180046621E+02  0.00000000000E+00 0.  1.
<mgrwt>
<rscale>  0 0.19139018E+04</rscale>
<asrwt>0</asrwt>
<pdfrwt beam="1">  1        1 0.14163250E+00 0.19139018E+04</pdfrwt>
<pdfrwt beam="2">  1       -2 0.15303461E+00 0.19139018E+04</pdfrwt>
<totfact> 0.40716547E+00</totfact>
</mgrwt>
</event>
<event>
12    5  0.5095719E-008  0.1137275E+04  0.7818608E-02  0.9169604E-01
         -2   -1    0    0    0  501 -0.00000000000E+00  0.00000000000E+00  0.26231658738E+03  0.26231658738E+03  0.00000000000E+00 0.  1.
          1   -1    0    0  501    0  0.00000000000E+00 -0.00000000000E+00 -0.12326658634E+04  0.12326658634E+04  0.00000000000E+00 0. -1.
        -24    2    1    2    0    0 -0.54237011643E+02 -0.29543575436E+02  0.90025320940E+02  0.13545492447E+03  0.80181056805E+02 0.  0.
        254    2    1    2    0    0  0.54237011643E+02  0.29543575436E+02 -0.10603745970E+04  0.13595275263E+04  0.84859079221E+03 0.  0.
         23    2    4    4    0    0  0.38419128861E+03 -0.15762033582E+03 -0.35390234134E+03  0.55287685756E+03  0.89324329859E+02 0.  0.
         23    2    4    4    0    0 -0.32995427697E+03  0.18716391126E+03 -0.70647225563E+03  0.80665066876E+03  0.87647583380E+02 0.  0.
          3    1    3    3  502    0 -0.32938653962E+02  0.24441134344E+02  0.51324068761E+02  0.65699954392E+02  0.00000000000E+00 0. -1.
         -4    1    3    3    0  502 -0.21298357682E+02 -0.53984709780E+02  0.38701252179E+02  0.69754970075E+02  0.00000000000E+00 0.  1.
         13    1    5    5    0    0  0.26473919834E+03 -0.15166648813E+03 -0.25005495895E+03  0.39448326866E+03  0.00000000000E+00 0.  1.
        -13    1    5    5    0    0  0.11945209027E+03 -0.59538476877E+01 -0.10384738239E+03  0.15839358889E+03  0.00000000000E+00 0. -1.
          2    1    6    6  503    0 -0.29605910471E+03  0.19454178101E+03 -0.65319879937E+03  0.74307884476E+03  0.00000000000E+00 0.  1.
         -2    1    6    6    0  503 -0.33895172255E+02 -0.73778697497E+01 -0.53273456259E+02  0.63571823994E+02  0.00000000000E+00 0. -1.
<mgrwt>
<rscale>  0 0.11372752E+04</rscale>
<asrwt>0</asrwt>
<pdfrwt beam="1">  1        1 0.18964090E+00 0.11372752E+04</pdfrwt>
<pdfrwt beam="2">  1       -2 0.40356398E-01 0.11372752E+04</pdfrwt>
<totfact> 0.51240338E+01</totfact>
</mgrwt>
</event>
<event>
12    5  0.5095719E-008  0.1214270E+04  0.7818608E-02  0.9100457E-01
          1   -1    0    0  501    0  0.00000000000E+00  0.00000000000E+00  0.17872384035E+03  0.17872384035E+03  0.00000000000E+00 0. -1.
         -2   -1    0    0    0  501 -0.00000000000E+00 -0.00000000000E+00 -0.20624722868E+04  0.20624722868E+04  0.00000000000E+00 0.  1.
        -24    2    1    2    0    0 -0.11091422379E+03  0.18086801341E+03 -0.13634341739E+03  0.26480399668E+03  0.80724382178E+02 0.  0.
        254    2    1    2    0    0  0.11091422379E+03 -0.18086801341E+03 -0.17474050291E+04  0.19763921305E+04  0.89871369997E+03 0.  0.
         23    2    4    4    0    0 -0.89203765301E+02  0.28177037022E+03 -0.11455120600E+04  0.11866786726E+04  0.93040523920E+02 0.  0.
         23    2    4    4    0    0  0.20011798909E+03 -0.46263838363E+03 -0.60189296911E+03  0.78971345794E+03  0.85385688599E+02 0.  0.
          3    1    3    3  502    0 -0.11912319568E+03  0.16186557141E+03 -0.10370184904E+03  0.22615232135E+03  0.00000000000E+00 0. -1.
         -4    1    3    3    0  502  0.82089718949E+01  0.19002441997E+02 -0.32641568343E+02  0.38651675324E+02  0.00000000000E+00 0.  1.
         13    1    5    5    0    0 -0.70020681968E+02  0.24765876313E+03 -0.83646866793E+03  0.87516717905E+03  0.00000000000E+00 0. -1.
        -13    1    5    5    0    0 -0.19183083333E+02  0.34111607093E+02 -0.30904339205E+03  0.31151149352E+03  0.00000000000E+00 0.  1.
          1    1    6    6  503    0  0.11481746943E+03 -0.24994893826E+03 -0.39258531029E+03  0.47935451273E+03  0.00000000000E+00 0. -1.
         -1    1    6    6    0  503  0.85300519655E+02 -0.21268944537E+03 -0.20930765882E+03  0.31035894520E+03  0.00000000000E+00 0.  1.
<mgrwt>
<rscale>  0 0.12142701E+04</rscale>
<asrwt>0</asrwt>
<pdfrwt beam="1">  1        1 0.27495975E-01 0.12142701E+04</pdfrwt>
<pdfrwt beam="2">  1       -2 0.31730343E+00 0.12142701E+04</pdfrwt>
<totfact> 0.37320275E+00</totfact>
</mgrwt>
</event>
<event>
12    5  0.5095719E-008  0.1833060E+04  0.7818608E-02  0.8688914E-01
         -2   -1    0    0    0  501 -0.00000000000E+00  0.00000000000E+00  0.52443290468E+03  0.52443290468E+03  0.00000000000E+00 0.  1.
          1   -1    0    0  501    0  0.00000000000E+00 -0.00000000000E+00 -0.16017814666E+04  0.16017814666E+04  0.00000000000E+00 0. -1.
        -24    2    1    2    0    0  0.54583438182E+03 -0.31061515129E+03 -0.97001663974E+02  0.64041230201E+03  0.79382927406E+02 0.  0.
        254    2    1    2    0    0 -0.54583438182E+03  0.31061515129E+03 -0.98034689790E+03  0.14858020692E+04  0.92309848019E+03 0.  0.
         23    2    4    4    0    0 -0.54476008995E+03 -0.20007924331E+03 -0.42581350892E+03  0.72564333120E+03  0.91901254331E+02 0.  0.
         23    2    4    4    0    0 -0.10742918709E+01  0.51069439460E+03 -0.55453338898E+03  0.76015873802E+03  0.97591540195E+02 0.  0.
          3    1    3    3  502    0  0.21040963594E+03 -0.13560426100E+03 -0.75525369040E+02  0.26146665536E+03  0.00000000000E+00 0. -1.
         -4    1    3    3    0  502  0.33542474588E+03 -0.17501089029E+03 -0.21476294934E+02  0.37894564665E+03  0.00000000000E+00 0.  1.
         13    1    5    5    0    0 -0.89154540620E+02 -0.13884347261E+02 -0.10352973150E+03  0.13733066852E+03  0.00000000000E+00 0.  1.
        -13    1    5    5    0    0 -0.45560554933E+03 -0.18619489605E+03 -0.32228377742E+03  0.58831266269E+03  0.00000000000E+00 0. -1.
          1    1    6    6  503    0  0.13026338301E+02  0.31934545454E+03 -0.41046352490E+03  0.52022255824E+03  0.00000000000E+00 0. -1.
         -1    1    6    6    0  503 -0.14100630172E+02  0.19134894006E+03 -0.14406986408E+03  0.23993617978E+03  0.00000000000E+00 0.  1.
<mgrwt>
<rscale>  0 0.18330596E+04</rscale>
<asrwt>0</asrwt>
<pdfrwt beam="1">  1        1 0.24642792E+00 0.18330596E+04</pdfrwt>
<pdfrwt beam="2">  1       -2 0.80681985E-01 0.18330596E+04</pdfrwt>
<totfact> 0.62319833E+00</totfact>
</mgrwt>
</event>
<event>
12    5  0.5095719E-008  0.2600432E+04  0.7818608E-02  0.8368054E-01
         -2   -1    0    0    0  501 -0.00000000000E+00  0.00000000000E+00  0.21448947402E+04  0.21448947402E+04  0.00000000000E+00 0.  1.
          1   -1    0    0  501    0  0.00000000000E+00 -0.00000000000E+00 -0.78817957226E+03  0.78817957226E+03  0.00000000000E+00 0. -1.
        -24    2    1    2    0    0  0.29068963842E+03  0.10485366723E+04  0.20567495732E+03  0.11104918553E+04  0.83428732768E+02 0.  0.
        254    2    1    2    0    0 -0.29068963842E+03 -0.10485366723E+04  0.11510402106E+04  0.18225824572E+04  0.90165604734E+03 0.  0.
         23    2    4    4    0    0 -0.10051375492E+02 -0.10835822835E+04  0.10406623486E+04  0.15056380240E+04  0.98570484087E+02 0.  0.
         23    2    4    4    0    0 -0.28063826293E+03  0.35045611176E+02  0.11037786200E+03  0.31694443315E+03  0.91019073859E+02 0.  0.
          1    1    3    3  502    0  0.11456716832E+03  0.46621547811E+03  0.13039839783E+03  0.49747989933E+03  0.00000000000E+00 0. -1.
         -2    1    3    3    0  502  0.17612247010E+03  0.58232119421E+03  0.75276559485E+02  0.61301195592E+03  0.00000000000E+00 0.  1.
         13    1    5    5    0    0 -0.35004006198E+02 -0.15855622198E+03  0.16951520928E+03  0.23473551533E+03  0.00000000000E+00 0. -1.
        -13    1    5    5    0    0  0.24952630706E+02 -0.92502606152E+03  0.87114713931E+03  0.12709025087E+04  0.00000000000E+00 0.  1.
          1    1    6    6  503    0 -0.13209095022E+03  0.56940746976E+02  0.31164108567E+02  0.14717835934E+03  0.00000000000E+00 0. -1.
         -1    1    6    6    0  503 -0.14854731271E+03 -0.21895135800E+02  0.79213753431E+02  0.16976607381E+03  0.00000000000E+00 0.  1.
<mgrwt>
<rscale>  0 0.26004324E+04</rscale>
<asrwt>0</asrwt>
<pdfrwt beam="1">  1        1 0.12125840E+00 0.26004324E+04</pdfrwt>
<pdfrwt beam="2">  1       -2 0.32998380E+00 0.26004324E+04</pdfrwt>
<totfact> 0.36316277E-01</totfact>
</mgrwt>
</event>
<event>
12    5  0.5095719E-008  0.4185826E+04  0.7818608E-02  0.7968074E-01
          1   -1    0    0  501    0  0.00000000000E+00  0.00000000000E+00  0.21202523849E+04  0.21202523849E+04  0.00000000000E+00 0. -1.
         -2   -1    0    0    0  501 -0.00000000000E+00 -0.00000000000E+00 -0.20659262390E+04  0.20659262390E+04  0.00000000000E+00 0.  1.
        -24    2    1    2    0    0  0.15965365817E+04 -0.73305526655E+03 -0.92719709595E+03  0.19880784823E+04  0.80389777402E+02 0.  0.
        254    2    1    2    0    0 -0.15965365817E+04  0.73305526655E+03  0.98152324179E+03  0.21981001416E+04  0.88428348270E+03 0.  0.
         23    2    4    4    0    0 -0.19996157161E+03  0.39814442844E+03  0.50797210275E+03  0.68250321075E+03  0.96287898929E+02 0.  0.
         23    2    4    4    0    0 -0.13965750101E+04  0.33491083811E+03  0.47355113904E+03  0.15155969309E+04  0.10097696382E+03 0.  0.
          3    1    3    3  502    0  0.12045042700E+04 -0.57177083537E+03 -0.73694392933E+03  0.15234299392E+04  0.00000000000E+00 0. -1.
         -4    1    3    3    0  502  0.39203231175E+03 -0.16128443118E+03 -0.19025316661E+03  0.46464854310E+03  0.00000000000E+00 0.  1.
         13    1    5    5    0    0 -0.20071865318E+03  0.32126076263E+03  0.42819965391E+03  0.57170919089E+03  0.00000000000E+00 0.  1.
        -13    1    5    5    0    0  0.75708156399E+00  0.76883665816E+02  0.79772448841E+02  0.11079401986E+03  0.00000000000E+00 0. -1.
          1    1    6    6  503    0 -0.27373358233E+03  0.44583309995E+02  0.55893976491E+02  0.28291674081E+03  0.00000000000E+00 0. -1.
         -1    1    6    6    0  503 -0.11228414278E+04  0.29032752811E+03  0.41765716254E+03  0.12326801901E+04  0.00000000000E+00 0.  1.
<mgrwt>
<rscale>  0 0.41858261E+04</rscale>
<asrwt>0</asrwt>
<pdfrwt beam="1">  1        1 0.32619268E+00 0.41858261E+04</pdfrwt>
<pdfrwt beam="2">  1       -2 0.31783480E+00 0.41858261E+04</pdfrwt>
<totfact> 0.41309404E-02</totfact>
</mgrwt>
</event>
<event>
12    5  0.5095719E-008  0.1228895E+04  0.7818608E-02  0.9087935E-01
          1   -1    0    0  501    0  0.00000000000E+00  0.00000000000E+00  0.85120845273E+03  0.85120845273E+03  0.00000000000E+00 0. -1.
         -2   -1    0    0    0  501 -0.00000000000E+00 -0.00000000000E+00 -0.44354051850E+03  0.44354051850E+03  0.00000000000E+00 0.  1.
        -24    2    1    2    0    0 -0.16182403156E+03 -0.35170311055E+02  0.33458062314E+03  0.38171393133E+03  0.79607562583E+02 0.  0.
        254    2    1    2    0    0  0.16182403156E+03  0.35170311055E+02  0.73087311085E+02  0.91303503990E+03  0.89491187336E+03 0.  0.
         23    2    4    4    0    0 -0.32890341731E+03  0.40228547483E+01 -0.14300634099E+03  0.36890596042E+03  0.86296887514E+02 0.  0.
         23    2    4    4    0    0  0.49072744887E+03  0.31147456307E+02  0.21609365208E+03  0.54412907948E+03  0.87157303555E+02 0.  0.
          3    1    3    3  502    0 -0.15278453776E+03 -0.54506964303E+02  0.30085991098E+03  0.34180522256E+03  0.00000000000E+00 0. -1.
         -4    1    3    3    0  502 -0.90394938046E+01  0.19336653248E+02  0.33720712161E+02  0.39908708770E+02  0.00000000000E+00 0.  1.
         13    1    5    5    0    0 -0.15215136481E+03  0.42956153966E+02 -0.52800198261E+02  0.16668272230E+03  0.00000000000E+00 0.  1.
        -13    1    5    5    0    0 -0.17675205250E+03 -0.38933299218E+02 -0.90206142734E+02  0.20222323812E+03  0.00000000000E+00 0. -1.
          1    1    6    6  503    0  0.14767328196E+03  0.48719287939E+02  0.57655703984E+02  0.16584675886E+03  0.00000000000E+00 0. -1.
         -1    1    6    6    0  503  0.34305416691E+03 -0.17571831632E+02  0.15843794810E+03  0.37828232063E+03  0.00000000000E+00 0.  1.
<mgrwt>
<rscale>  0 0.12288945E+04</rscale>
<asrwt>0</asrwt>
<pdfrwt beam="1">  1        1 0.13095515E+00 0.12288945E+04</pdfrwt>
<pdfrwt beam="2">  1       -2 0.68237003E-01 0.12288945E+04</pdfrwt>
<totfact> 0.33991504E+01</totfact>
</mgrwt>
</event>
<event>
12    5  0.5095719E-008  0.1432052E+04  0.7818608E-02  0.8930939E-01
          1   -1    0    0  501    0  0.00000000000E+00  0.00000000000E+00  0.29942903102E+04  0.29942903102E+04  0.00000000000E+00 0. -1.
         -2   -1    0    0    0  501 -0.00000000000E+00 -0.00000000000E+00 -0.17122361339E+03  0.17122361339E+03  0.00000000000E+00 0.  1.
        -24    2    1    2    0    0 -0.73352996083E+02  0.32171427981E+03  0.15014459265E+04  0.15393822148E+04  0.80479769263E+02 0.  0.
        254    2    1    2    0    0  0.73352996083E+02 -0.32171427981E+03  0.13216207703E+04  0.16261317088E+04  0.88811155486E+03 0.  0.
         23    2    4    4    0    0 -0.13553426552E+03 -0.53923781309E+03  0.52360769941E+03  0.76804121747E+03  0.81088424958E+02 0.  0.
         23    2    4    4    0    0  0.20888726160E+03  0.21752353328E+03  0.79801307089E+03  0.85809049128E+03  0.92434053979E+02 0.  0.
          3    1    3    3  502    0  0.77070266396E+01  0.14253815745E+03  0.66008883628E+03  0.67534716729E+03  0.00000000000E+00 0. -1.
         -4    1    3    3    0  502 -0.81060022723E+02  0.17917612236E+03  0.84135709024E+03  0.86403504756E+03  0.00000000000E+00 0.  1.
         13    1    5    5    0    0 -0.14563967597E+03 -0.48493127689E+03  0.46408901627E+03  0.68683904486E+03  0.00000000000E+00 0.  1.
        -13    1    5    5    0    0  0.10105410451E+02 -0.54306536199E+02  0.59518683142E+02  0.81202172614E+02  0.00000000000E+00 0. -1.
          2    1    6    6  503    0  0.15609174740E+03  0.17208940130E+03  0.48987396605E+03  0.54217699902E+03  0.00000000000E+00 0.  1.
         -2    1    6    6    0  503  0.52795514196E+02  0.45434131986E+02  0.30813910483E+03  0.31591349227E+03  0.00000000000E+00 0. -1.
<mgrwt>
<rscale>  0 0.14320520E+04</rscale>
<asrwt>0</asrwt>
<pdfrwt beam="1">  1        1 0.46066001E+00 0.14320520E+04</pdfrwt>
<pdfrwt beam="2">  1       -2 0.26342097E-01 0.14320520E+04</pdfrwt>
<totfact> 0.67713114E+00</totfact>
</mgrwt>
</event>
<event>
12    5  0.5095719E-008  0.1602569E+04  0.7818608E-02  0.8818971E-01
          1   -1    0    0  501    0  0.00000000000E+00  0.00000000000E+00  0.63477243017E+03  0.63477243017E+03  0.00000000000E+00 0. -1.
         -2   -1    0    0    0  501 -0.00000000000E+00 -0.00000000000E+00 -0.10114756837E+04  0.10114756837E+04  0.00000000000E+00 0.  1.
        -24    2    1    2    0    0  0.29235492922E+03 -0.35469265509E+03 -0.42860909528E+03  0.63382316591E+03  0.82144779929E+02 0.  0.
        254    2    1    2    0    0 -0.29235492922E+03  0.35469265509E+03  0.51905841784E+02  0.10124249479E+04  0.90057302567E+03 0.  0.
         23    2    4    4    0    0 -0.12469463446E+03  0.47674589590E+03  0.36921452868E+03  0.62256761183E+03  0.91845859949E+02 0.  0.
         23    2    4    4    0    0 -0.16766029476E+03 -0.12205324080E+03 -0.31730868689E+03  0.38985733610E+03  0.91087714338E+02 0.  0.
          3    1    3    3  502    0  0.12758593881E+03 -0.21737207850E+03 -0.24450037056E+03  0.35115413069E+03  0.00000000000E+00 0. -1.
         -4    1    3    3    0  502  0.16476899041E+03 -0.13732057660E+03 -0.18410872472E+03  0.28266903522E+03  0.00000000000E+00 0.  1.
         13    1    5    5    0    0 -0.15692572950E+02  0.22583884158E+03  0.14476303096E+03  0.26871132158E+03  0.00000000000E+00 0. -1.
        -13    1    5    5    0    0 -0.10900206151E+03  0.25090705432E+03  0.22445149772E+03  0.35385629025E+03  0.00000000000E+00 0.  1.
          3    1    6    6  503    0 -0.11566206428E+03 -0.75290523996E+02 -0.12872006861E+03  0.18871998352E+03  0.00000000000E+00 0. -1.
         -3    1    6    6    0  503 -0.51998230480E+02 -0.46762716808E+02 -0.18858861829E+03  0.20113735258E+03  0.00000000000E+00 0.  1.
<mgrwt>
<rscale>  0 0.16025690E+04</rscale>
<asrwt>0</asrwt>
<pdfrwt beam="1">  1        1 0.97657298E-01 0.16025690E+04</pdfrwt>
<pdfrwt beam="2">  1       -2 0.15561164E+00 0.16025690E+04</pdfrwt>
<totfact> 0.71898154E+00</totfact>
</mgrwt>
</event>
<event>
12    5  0.5095719E-008  0.1082789E+04  0.7818608E-02  0.9222131E-01
          1   -1    0    0  501    0  0.00000000000E+00  0.00000000000E+00  0.15826121988E+04  0.15826121988E+04  0.00000000000E+00 0. -1.
         -2   -1    0    0    0  501 -0.00000000000E+00 -0.00000000000E+00 -0.18520507208E+03  0.18520507208E+03  0.00000000000E+00 0.  1.
        -24    2    1    2    0    0 -0.16190533738E+03  0.80707654112E+01  0.63128597929E+02  0.19182032095E+03  0.80816706976E+02 0.  0.
        254    2    1    2    0    0  0.16190533738E+03 -0.80707654112E+01  0.13342785288E+04  0.15759969499E+04  0.82291476977E+03 0.  0.
         23    2    4    4    0    0  0.35526955716E+03 -0.31689492275E+02  0.13088423882E+04  0.13597169106E+04  0.92417517208E+02 0.  0.
         23    2    4    4    0    0 -0.19336421978E+03  0.23618726864E+02  0.25436140546E+02  0.21628003936E+03  0.90457130344E+02 0.  0.
          1    1    3    3  502    0 -0.12958081468E+02 -0.19610468629E+02 -0.74936531138E+01  0.24670573406E+02  0.00000000000E+00 0. -1.
         -2    1    3    3    0  502 -0.14894725591E+03  0.27681234040E+02  0.70622251043E+02  0.16714974754E+03  0.00000000000E+00 0.  1.
         13    1    5    5    0    0  0.23303380473E+02  0.10868611761E+02  0.19472718428E+03  0.19641754138E+03  0.00000000000E+00 0. -1.
        -13    1    5    5    0    0  0.33196617668E+03 -0.42558104036E+02  0.11141152040E+04  0.11632993692E+04  0.00000000000E+00 0.  1.
          2    1    6    6  503    0 -0.74040389284E+01  0.16450841416E+02 -0.17672513676E+02  0.25254063344E+02  0.00000000000E+00 0. -1.
         -2    1    6    6    0  503 -0.18596018085E+03  0.71678854478E+01  0.43108654223E+02  0.19102597602E+03  0.00000000000E+00 0.  1.
<mgrwt>
<rscale>  0 0.10827886E+04</rscale>
<asrwt>0</asrwt>
<pdfrwt beam="1">  1        1 0.24347879E+00 0.10827886E+04</pdfrwt>
<pdfrwt beam="2">  1       -2 0.28493089E-01 0.10827886E+04</pdfrwt>
<totfact> 0.56688565E+01</totfact>
</mgrwt>
</event>
<event>
12    5  0.5095719E-008  0.1304964E+04  0.7818608E-02  0.9025638E-01
          1   -1    0    0  501    0  0.00000000000E+00  0.00000000000E+00  0.18313424976E+03  0.18313424976E+03  0.00000000000E+00 0. -1.
         -2   -1    0    0    0  501 -0.00000000000E+00 -0.00000000000E+00 -0.23247034245E+04  0.23247034245E+04  0.00000000000E+00 0.  1.
        -24    2    1    2    0    0  0.51954875994E+02 -0.25084564158E+03 -0.99808147820E+03  0.10334796529E+04  0.79314001769E+02 0.  0.
        254    2    1    2    0    0 -0.51954875994E+02  0.25084564158E+03 -0.11434876965E+04  0.14743580213E+04  0.89473158984E+03 0.  0.
         23    2    4    4    0    0 -0.44113812966E+03 -0.14081977607E+02 -0.57589997868E+03  0.73128520225E+03  0.91192708376E+02 0.  0.
         23    2    4    4    0    0  0.38918325366E+03  0.26492761918E+03 -0.56758771783E+03  0.74307281905E+03  0.91384619256E+02 0.  0.
          3    1    3    3  502    0  0.23506009366E+02 -0.52503015733E+02 -0.12352432246E+03  0.13626209076E+03  0.00000000000E+00 0. -1.
         -4    1    3    3    0  502  0.28448866628E+02 -0.19834262584E+03 -0.87455715574E+03  0.89721756218E+03  0.00000000000E+00 0.  1.
         13    1    5    5    0    0 -0.24759896959E+03 -0.41297778363E+02 -0.37267926160E+03  0.44933349337E+03  0.00000000000E+00 0.  1.
        -13    1    5    5    0    0 -0.19353916007E+03  0.27215800756E+02 -0.20322071708E+03  0.28195170888E+03  0.00000000000E+00 0. -1.
          3    1    6    6  503    0  0.87881189930E+02  0.28700276982E+02 -0.15283581790E+03  0.17862137799E+03  0.00000000000E+00 0. -1.
         -3    1    6    6    0  503  0.30130206373E+03  0.23622734220E+03 -0.41475189993E+03  0.56445144105E+03  0.00000000000E+00 0.  1.
<mgrwt>
<rscale>  0 0.13049641E+04</rscale>
<asrwt>0</asrwt>
<pdfrwt beam="1">  1        1 0.28174501E-01 0.13049641E+04</pdfrwt>
<pdfrwt beam="2">  1       -2 0.35764667E+00 0.13049641E+04</pdfrwt>
<totfact> 0.20131079E+00</totfact>
</mgrwt>
</event>
<event>
12    5  0.5095719E-008  0.1877744E+04  0.7818608E-02  0.8666014E-01
          3   -1    0    0  501    0  0.00000000000E+00  0.00000000000E+00  0.19653420816E+04  0.19653420816E+04  0.00000000000E+00 0. -1.
         -4   -1    0    0    0  501 -0.00000000000E+00 -0.00000000000E+00 -0.44851266645E+03  0.44851266645E+03  0.00000000000E+00 0.  1.
        -24    2    1    2    0    0  0.34646448036E+02  0.70741684911E+03  0.38348890594E+03  0.81039912468E+03  0.89688491693E+02 0.  0.
        254    2    1    2    0    0 -0.34646448036E+02 -0.70741684911E+03  0.11333405092E+04  0.16034556234E+04  0.88598546915E+03 0.  0.
         23    2    4    4    0    0 -0.27513225784E+03 -0.49942193751E+03  0.11347847720E+04  0.12731037814E+04  0.89088318286E+02 0.  0.
         23    2    4    4    0    0  0.24048580980E+03 -0.20799491159E+03 -0.14442627679E+01  0.33035184200E+03  0.89637858367E+02 0.  0.
          1    1    3    3  502    0  0.40062304100E+01  0.26236238447E+03  0.19093326877E+03  0.32450821837E+03  0.00000000000E+00 0. -1.
         -2    1    3    3    0  502  0.30640217626E+02  0.44505446464E+03  0.19255563718E+03  0.48589090631E+03  0.00000000000E+00 0.  1.
         13    1    5    5    0    0 -0.27488411502E+02 -0.12362186749E+03  0.26952770914E+03  0.29779718749E+03  0.00000000000E+00 0. -1.
        -13    1    5    5    0    0 -0.24764384633E+03 -0.37580007003E+03  0.86525706285E+03  0.97530659388E+03  0.00000000000E+00 0.  1.
          1    1    6    6  503    0  0.52851495276E+02 -0.10190314172E+03  0.32543948524E+00  0.11479388815E+03  0.00000000000E+00 0. -1.
         -1    1    6    6    0  503  0.18763431452E+03 -0.10609176987E+03 -0.17697022532E+01  0.21555795385E+03  0.00000000000E+00 0.  1.
<mgrwt>
<rscale>  0 0.18777442E+04</rscale>
<asrwt>0</asrwt>
<pdfrwt beam="1">  1        3 0.30236031E+00 0.18777442E+04</pdfrwt>
<pdfrwt beam="2">  1       -4 0.69001950E-01 0.18777442E+04</pdfrwt>
<totfact> 0.15636086E-01</totfact>
</mgrwt>
</event>
<event>
12    5  0.5095719E-008  0.1909189E+04  0.7818608E-02  0.8650296E-01
          1   -1    0    0  501    0  0.00000000000E+00  0.00000000000E+00  0.16329734353E+04  0.16329734353E+04  0.00000000000E+00 0. -1.
         -2   -1    0    0    0  501 -0.00000000000E+00 -0.00000000000E+00 -0.55803126730E+03  0.55803126730E+03  0.00000000000E+00 0.  1.
        -24    2    1    2    0    0 -0.52494269810E+03 -0.79091725642E+02  0.10011134272E+04  0.11363288949E+04  0.84822909613E+02 0.  0.
        254    2    1    2    0    0  0.52494269810E+03  0.79091725642E+02  0.73828740863E+02  0.10546758077E+04  0.90833366065E+03 0.  0.
         23    2    4    4    0    0  0.27458032156E+03 -0.36541624222E+03 -0.15119162421E+03  0.49006130889E+03  0.91530301918E+02 0.  0.
         23    2    4    4    0    0  0.25036237654E+03  0.44450796786E+03  0.22502036507E+03  0.56461449884E+03  0.88807176067E+02 0.  0.
          1    1    3    3  502    0 -0.25127220391E+03 -0.41481176437E+02  0.56997545760E+03  0.62428393438E+03  0.00000000000E+00 0. -1.
         -2    1    3    3    0  502 -0.27367049419E+03 -0.37610549205E+02  0.43113796957E+03  0.51204496053E+03  0.00000000000E+00 0.  1.
         13    1    5    5    0    0  0.15832651401E+02  0.23131652069E+01 -0.95803246316E+01  0.18649563097E+02  0.00000000000E+00 0.  1.
        -13    1    5    5    0    0  0.25874767016E+03 -0.36772940743E+03 -0.14161129957E+03  0.47141174579E+03  0.00000000000E+00 0. -1.
          3    1    6    6  503    0  0.11030501182E+03  0.16244406983E+03  0.13067824656E+03  0.23586452803E+03  0.00000000000E+00 0.  1.
         -3    1    6    6    0  503  0.14005736472E+03  0.28206389803E+03  0.94342118508E+02  0.32874997081E+03  0.00000000000E+00 0. -1.
<mgrwt>
<rscale>  0 0.19091886E+04</rscale>
<asrwt>0</asrwt>
<pdfrwt beam="1">  1        1 0.25122668E+00 0.19091886E+04</pdfrwt>
<pdfrwt beam="2">  1       -2 0.85850965E-01 0.19091886E+04</pdfrwt>
<totfact> 0.51196451E+00</totfact>
</mgrwt>
</event>
<event>
12    5  0.5095719E-008  0.1985576E+04  0.7818608E-02  0.8613394E-01
          1   -1    0    0  501    0  0.00000000000E+00  0.00000000000E+00  0.16127803433E+04  0.16127803433E+04  0.00000000000E+00 0. -1.
         -2   -1    0    0    0  501 -0.00000000000E+00 -0.00000000000E+00 -0.61113621273E+03  0.61113621273E+03  0.00000000000E+00 0.  1.
        -24    2    1    2    0    0 -0.58541712031E+03 -0.32461516771E+03  0.85442949947E+03  0.10884520042E+04  0.81177484636E+02 0.  0.
        254    2    1    2    0    0  0.58541712031E+03  0.32461516771E+03  0.14721463110E+03  0.11354645518E+04  0.90527310188E+03 0.  0.
         23    2    4    4    0    0  0.33282238026E+03  0.51888402216E+03  0.38026353346E+03  0.72994782173E+03  0.90620650615E+02 0.  0.
         23    2    4    4    0    0  0.25259474005E+03 -0.19426885445E+03 -0.23304890236E+03  0.40551673010E+03  0.92668964545E+02 0.  0.
          1    1    3    3  502    0 -0.51990252285E+02 -0.34849789318E+02  0.46967165429E+02  0.78252212599E+02  0.00000000000E+00 0. -1.
         -2    1    3    3    0  502 -0.53342686803E+03 -0.28976537839E+03  0.80746233405E+03  0.10101997916E+04  0.00000000000E+00 0.  1.
         13    1    5    5    0    0  0.30942192052E+03  0.46801235797E+03  0.31309418835E+03  0.64249938747E+03  0.00000000000E+00 0. -1.
        -13    1    5    5    0    0  0.23400459743E+02  0.50871664183E+02  0.67169345115E+02  0.87448434269E+02  0.00000000000E+00 0.  1.
          3    1    6    6  503    0  0.20106756732E+03 -0.14473245445E+03 -0.12908862788E+03  0.27935555095E+03  0.00000000000E+00 0. -1.
         -3    1    6    6    0  503  0.51527172727E+02 -0.49536399998E+02 -0.10396027448E+03  0.12616117915E+03  0.00000000000E+00 0.  1.
<mgrwt>
<rscale>  0 0.19855765E+04</rscale>
<asrwt>0</asrwt>
<pdfrwt beam="1">  1        1 0.24812005E+00 0.19855765E+04</pdfrwt>
<pdfrwt beam="2">  1       -2 0.94020956E-01 0.19855765E+04</pdfrwt>
<totfact> 0.42572823E+00</totfact>
</mgrwt>
</event>
<event>
12    5  0.5095719E-008  0.3100966E+04  0.7818608E-02  0.8215473E-01
         -2   -1    0    0    0  501 -0.00000000000E+00  0.00000000000E+00  0.12245965201E+04  0.12245965201E+04  0.00000000000E+00 0.  1.
          1   -1    0    0  501    0  0.00000000000E+00 -0.00000000000E+00 -0.19630937236E+04  0.19630937236E+04  0.00000000000E+00 0. -1.
        -24    2    1    2    0    0  0.79256641825E+02  0.15737438295E+03 -0.17848353756E+04  0.17952775694E+04  0.79598502427E+02 0.  0.
        254    2    1    2    0    0 -0.79256641825E+02 -0.15737438295E+03  0.10463381721E+04  0.13924126742E+04  0.90163250445E+03 0.  0.
         23    2    4    4    0    0 -0.35766700928E+02  0.31819125722E+03  0.13408521601E+03  0.35872459622E+03  0.90440907300E+02 0.  0.
         23    2    4    4    0    0 -0.43489940897E+02 -0.47556564017E+03  0.91225295611E+03  0.10336880780E+04  0.90837951869E+02 0.  0.
          1    1    3    3  502    0  0.23381393854E+02  0.91446334149E+02 -0.12445553666E+04  0.12481294733E+04  0.00000000000E+00 0. -1.
         -2    1    3    3    0  502  0.55875247971E+02  0.65928048802E+02 -0.54028000905E+03  0.54714809616E+03  0.00000000000E+00 0.  1.
         13    1    5    5    0    0 -0.15074805974E+02  0.46334688140E+01  0.17492610170E+02  0.23552286916E+02  0.00000000000E+00 0. -1.
        -13    1    5    5    0    0 -0.20691894954E+02  0.31355778841E+03  0.11659260584E+03  0.33517230931E+03  0.00000000000E+00 0.  1.
          2    1    6    6  503    0 -0.56731718288E+01 -0.51984044207E+02  0.17422666675E+03  0.18190507727E+03  0.00000000000E+00 0. -1.
         -2    1    6    6    0  503 -0.37816769069E+02 -0.42358159596E+03  0.73802628937E+03  0.85178300069E+03  0.00000000000E+00 0.  1.
<mgrwt>
<rscale>  0 0.31009661E+04</rscale>
<asrwt>0</asrwt>
<pdfrwt beam="1">  1        1 0.30201442E+00 0.31009661E+04</pdfrwt>
<pdfrwt beam="2">  1       -2 0.18839947E+00 0.31009661E+04</pdfrwt>
<totfact> 0.37209426E-01</totfact>
</mgrwt>
</event>
<event>
12    5  0.5095719E-008  0.2089026E+04  0.7818608E-02  0.8566093E-01
         -2   -1    0    0    0  501 -0.00000000000E+00  0.00000000000E+00  0.14421056275E+04  0.14421056275E+04  0.00000000000E+00 0.  1.
          1   -1    0    0  501    0  0.00000000000E+00 -0.00000000000E+00 -0.75653768338E+03  0.75653768338E+03  0.00000000000E+00 0. -1.
        -24    2    1    2    0    0  0.20917400258E+03 -0.40558226961E+02  0.11453413079E+04  0.11680423323E+04  0.84364952796E+02 0.  0.
        254    2    1    2    0    0 -0.20917400258E+03  0.40558226961E+02 -0.45977336379E+03  0.10306009786E+04  0.89741188867E+03 0.  0.
         23    2    4    4    0    0  0.24363352028E+03  0.52404592697E+02  0.11818849298E+03  0.29033525835E+03  0.90678050424E+02 0.  0.
         23    2    4    4    0    0 -0.45280752286E+03 -0.11846365735E+02 -0.57796185677E+03  0.74026572025E+03  0.93693327185E+02 0.  0.
          1    1    3    3  502    0  0.30493071572E+02 -0.35535259248E+02  0.33232036664E+03  0.33560305146E+03  0.00000000000E+00 0. -1.
         -2    1    3    3    0  502  0.17868093101E+03 -0.50229677136E+01  0.81302094125E+03  0.83243928081E+03  0.00000000000E+00 0.  1.
         13    1    5    5    0    0  0.21972043292E+03  0.57707451335E+02  0.13147006671E+03  0.26247208808E+03  0.00000000000E+00 0. -1.
        -13    1    5    5    0    0  0.23913087358E+02 -0.53028586376E+01 -0.13281573726E+02  0.27863170267E+02  0.00000000000E+00 0.  1.
          3    1    6    6  503    0 -0.22788325073E+03  0.15779734758E+02 -0.35651167842E+03  0.42341510701E+03  0.00000000000E+00 0. -1.
         -3    1    6    6    0  503 -0.22492427213E+03 -0.27626100494E+02 -0.22145017835E+03  0.31685061324E+03  0.00000000000E+00 0.  1.
<mgrwt>
<rscale>  0 0.20890259E+04</rscale>
<asrwt>0</asrwt>
<pdfrwt beam="1">  1        1 0.11639041E+00 0.20890259E+04</pdfrwt>
<pdfrwt beam="2">  1       -2 0.22186240E+00 0.20890259E+04</pdfrwt>
<totfact> 0.18737643E+00</totfact>
</mgrwt>
</event>
<event>
12    5  0.5095719E-008  0.1580955E+04  0.7818608E-02  0.8832334E-01
         -2   -1    0    0    0  501 -0.00000000000E+00  0.00000000000E+00  0.71891502265E+03  0.71891502265E+03  0.00000000000E+00 0.  1.
          1   -1    0    0  501    0  0.00000000000E+00 -0.00000000000E+00 -0.86916315314E+03  0.86916315314E+03  0.00000000000E+00 0. -1.
        -24    2    1    2    0    0 -0.98631078152E+02 -0.34802790761E+03 -0.43395300035E+03  0.57049147154E+03  0.79333464186E+02 0.  0.
        254    2    1    2    0    0  0.98631078152E+02  0.34802790761E+03  0.28370486985E+03  0.10175867042E+04  0.90782307386E+03 0.  0.
         23    2    4    4    0    0 -0.35992525513E+03  0.29041046999E+01  0.22707893094E+03  0.43383672211E+03  0.84230858176E+02 0.  0.
         23    2    4    4    0    0  0.45855633328E+03  0.34512380291E+03  0.56625938914E+02  0.58374998214E+03  0.90405721951E+02 0.  0.
          3    1    3    3  502    0 -0.10728202524E+03 -0.25371386784E+03 -0.31556620089E+03  0.41888206791E+03  0.00000000000E+00 0. -1.
         -4    1    3    3    0  502  0.86509470915E+01 -0.94314039768E+02 -0.11838679946E+03  0.15160940363E+03  0.00000000000E+00 0.  1.
         13    1    5    5    0    0 -0.36267765109E+03  0.91842913590E+01  0.22241907707E+03  0.42554632609E+03  0.00000000000E+00 0.  1.
        -13    1    5    5    0    0  0.27523959600E+01 -0.62801866591E+01  0.46598538674E+01  0.82903960134E+01  0.00000000000E+00 0. -1.
          4    1    6    6  503    0  0.77026183788E+02  0.83161532321E+02 -0.18603858848E+02  0.11486939110E+03  0.00000000000E+00 0. -1.
         -4    1    6    6    0  503  0.38153014949E+03  0.26196227059E+03  0.75229797762E+02  0.46888059104E+03  0.00000000000E+00 0.  1.
<mgrwt>
<rscale>  0 0.15809547E+04</rscale>
<asrwt>0</asrwt>
<pdfrwt beam="1">  1        1 0.13371741E+00 0.15809547E+04</pdfrwt>
<pdfrwt beam="2">  1       -2 0.11060231E+00 0.15809547E+04</pdfrwt>
<totfact> 0.10536694E+01</totfact>
</mgrwt>
</event>
<event>
12    5  0.5095719E-008  0.1714553E+04  0.7818608E-02  0.8753108E-01
          1   -1    0    0  501    0  0.00000000000E+00  0.00000000000E+00  0.34991282843E+03  0.34991282843E+03  0.00000000000E+00 0. -1.
         -4   -1    0    0    0  501 -0.00000000000E+00 -0.00000000000E+00 -0.21003023585E+04  0.21003023585E+04  0.00000000000E+00 0.  1.
        -24    2    1    2    0    0 -0.11129228080E+03 -0.40013570519E+03 -0.13212290231E+04  0.13870673775E+04  0.76257616835E+02 0.  0.
        254    2    1    2    0    0  0.11129228080E+03  0.40013570519E+03 -0.42916050698E+03  0.10631478094E+04  0.87955100447E+03 0.  0.
         23    2    4    4    0    0  0.33030582762E+03  0.57964404064E+03 -0.26754542054E+03  0.72453345707E+03  0.90989146395E+02 0.  0.
         23    2    4    4    0    0 -0.21901354682E+03 -0.17950833545E+03 -0.16161508645E+03  0.33861435229E+03  0.91378702221E+02 0.  0.
          1    1    3    3  502    0  0.10958193236E+02 -0.25362839052E+02 -0.10324866300E+03  0.10688143905E+03  0.00000000000E+00 0. -1.
         -2    1    3    3    0  502 -0.12225047403E+03 -0.37477286614E+03 -0.12179803601E+04  0.12801859385E+04  0.00000000000E+00 0.  1.
         13    1    5    5    0    0  0.96021376175E+01  0.30322228238E+02  0.55741333472E+01  0.32291013219E+02  0.00000000000E+00 0.  1.
        -13    1    5    5    0    0  0.32070369000E+03  0.54932181240E+03 -0.27311955389E+03  0.69224244386E+03  0.00000000000E+00 0. -1.
          1    1    6    6  503    0 -0.21200408270E+03 -0.17547712783E+03 -0.17269152003E+03  0.32490046870E+03  0.00000000000E+00 0. -1.
         -1    1    6    6    0  503 -0.70094641265E+01 -0.40312076190E+01  0.11076433580E+02  0.13713883588E+02  0.00000000000E+00 0.  1.
<mgrwt>
<rscale>  0 0.17145527E+04</rscale>
<asrwt>0</asrwt>
<pdfrwt beam="1">  1        1 0.53832742E-01 0.17145527E+04</pdfrwt>
<pdfrwt beam="2">  1       -4 0.32312344E+00 0.17145527E+04</pdfrwt>
<totfact> 0.71600094E-01</totfact>
</mgrwt>
</event>
<event>
12    5  0.5095719E-008  0.1482363E+04  0.7818608E-02  0.8896267E-01
         -2   -1    0    0    0  501 -0.00000000000E+00  0.00000000000E+00  0.62996177615E+03  0.62996177615E+03  0.00000000000E+00 0.  1.
          1   -1    0    0  501    0  0.00000000000E+00 -0.00000000000E+00 -0.87203746862E+03  0.87203746862E+03  0.00000000000E+00 0. -1.
        -24    2    1    2    0    0 -0.41084150636E+03 -0.17170572958E+03  0.46348656399E+02  0.45486017108E+03  0.80473451303E+02 0.  0.
        254    2    1    2    0    0  0.41084150636E+03  0.17170572958E+03 -0.28842434887E+03  0.10471390737E+04  0.90279456893E+03 0.  0.
         23    2    4    4    0    0  0.66203541868E+03  0.25765402027E+02 -0.68262154790E+02  0.67213658752E+03  0.90294623191E+02 0.  0.
         23    2    4    4    0    0 -0.25119391232E+03  0.14594032755E+03 -0.22016219408E+03  0.37500248617E+03  0.88082416734E+02 0.  0.
          1    1    3    3  502    0 -0.18425798007E+02 -0.22275394637E+02 -0.11257158612E+02  0.31023005310E+02  0.00000000000E+00 0. -1.
         -2    1    3    3    0  502 -0.39241570836E+03 -0.14943033494E+03  0.57605815011E+02  0.42383716577E+03  0.00000000000E+00 0.  1.
         13    1    5    5    0    0  0.58020301831E+03  0.74267421546E+01 -0.33077439922E+02  0.58119258081E+03  0.00000000000E+00 0. -1.
        -13    1    5    5    0    0  0.81832400368E+02  0.18338659872E+02 -0.35184714868E+02  0.90944006708E+02  0.00000000000E+00 0.  1.
          2    1    6    6  503    0 -0.81975813156E+02  0.74934957675E+02 -0.12858536775E+03  0.16991020753E+03  0.00000000000E+00 0. -1.
         -2    1    6    6    0  503 -0.16921809916E+03  0.71005369880E+02 -0.91576826333E+02  0.20509227864E+03  0.00000000000E+00 0.  1.
<mgrwt>
<rscale>  0 0.14823633E+04</rscale>
<asrwt>0</asrwt>
<pdfrwt beam="1">  1        1 0.13415961E+00 0.14823633E+04</pdfrwt>
<pdfrwt beam="2">  1       -2 0.96917196E-01 0.14823633E+04</pdfrwt>
<totfact> 0.14490122E+01</totfact>
</mgrwt>
</event>
<event>
12    5  0.5095719E-008  0.1384404E+04  0.7818608E-02  0.8965186E-01
         -2   -1    0    0    0  501 -0.00000000000E+00  0.00000000000E+00  0.69673837984E+03  0.69673837984E+03  0.00000000000E+00 0.  1.
          1   -1    0    0  501    0  0.00000000000E+00 -0.00000000000E+00 -0.68769538360E+03  0.68769538360E+03  0.00000000000E+00 0. -1.
        -24    2    1    2    0    0  0.13694882696E+02  0.70088500977E+02 -0.38543954291E+03  0.39987911749E+03  0.78991895688E+02 0.  0.
        254    2    1    2    0    0 -0.13694882696E+02 -0.70088500977E+02  0.39448253915E+03  0.98455464595E+03  0.89923936156E+03 0.  0.
         23    2    4    4    0    0 -0.78861781628E+00 -0.27416332805E+03  0.60936922841E+03  0.67448047767E+03  0.91798180052E+02 0.  0.
         23    2    4    4    0    0 -0.12906264879E+02  0.20407482707E+03 -0.21488668926E+03  0.31007416828E+03  0.90313863277E+02 0.  0.
          1    1    3    3  502    0  0.67197793538E+01  0.83124767936E+02 -0.36641129648E+03  0.37578201216E+03  0.00000000000E+00 0. -1.
         -2    1    3    3    0  502  0.69751033419E+01 -0.13036266959E+02 -0.19028246436E+02  0.24097105329E+02  0.00000000000E+00 0.  1.
         13    1    5    5    0    0  0.15393514161E+02 -0.27233893544E+03  0.57158064685E+03  0.63333237079E+03  0.00000000000E+00 0. -1.
        -13    1    5    5    0    0 -0.16182131977E+02 -0.18243926092E+01  0.37788581556E+02  0.41148106879E+02  0.00000000000E+00 0.  1.
          1    1    6    6  503    0 -0.38820659780E+02  0.11707762366E+03 -0.16649209281E+03  0.20720480341E+03  0.00000000000E+00 0. -1.
         -1    1    6    6    0  503  0.25914394901E+02  0.86997203406E+02 -0.48394596442E+02  0.10286936487E+03  0.00000000000E+00 0.  1.
<mgrwt>
<rscale>  0 0.13844042E+04</rscale>
<asrwt>0</asrwt>
<pdfrwt beam="1">  1        1 0.10579929E+00 0.13844042E+04</pdfrwt>
<pdfrwt beam="2">  1       -2 0.10719052E+00 0.13844042E+04</pdfrwt>
<totfact> 0.16732126E+01</totfact>
</mgrwt>
</event>
<event>
12    5  0.5095719E-008  0.1235647E+04  0.7818608E-02  0.9082214E-01
          1   -1    0    0  501    0  0.00000000000E+00  0.00000000000E+00  0.13534012000E+04  0.13534012000E+04  0.00000000000E+00 0. -1.
         -2   -1    0    0    0  501 -0.00000000000E+00 -0.00000000000E+00 -0.28203472232E+03  0.28203472232E+03  0.00000000000E+00 0.  1.
        -24    2    1    2    0    0 -0.18984800485E+03 -0.88166584527E+02  0.48692196668E+03  0.53598592340E+03  0.79826667731E+02 0.  0.
        254    2    1    2    0    0  0.18984800485E+03  0.88166584527E+02  0.58444451096E+03  0.10994499989E+04  0.90741352318E+03 0.  0.
         23    2    4    4    0    0 -0.26519469464E+03  0.24202782161E+03  0.47069977509E+03  0.59904157009E+03  0.91579647970E+02 0.  0.
         23    2    4    4    0    0  0.45504269949E+03 -0.15386123708E+03  0.11374473587E+03  0.50040842878E+03  0.82058467093E+02 0.  0.
          3    1    3    3  502    0 -0.15924478147E+03 -0.93661102200E+02  0.45658416637E+03  0.49254482382E+03  0.00000000000E+00 0. -1.
         -4    1    3    3    0  502 -0.30603223375E+02  0.54945176734E+01  0.30337800302E+02  0.43441099578E+02  0.00000000000E+00 0.  1.
         13    1    5    5    0    0 -0.24004967197E+03  0.17191893960E+03  0.35962857421E+03  0.46530922857E+03  0.00000000000E+00 0. -1.
        -13    1    5    5    0    0 -0.25145022671E+02  0.70108882008E+02  0.11107120088E+03  0.13373234151E+03  0.00000000000E+00 0.  1.
          4    1    6    6  503    0  0.27200033474E+02 -0.40133490002E+01  0.27625009567E+02  0.38975504419E+02  0.00000000000E+00 0. -1.
         -4    1    6    6    0  503  0.42784266602E+03 -0.14984788808E+03  0.86119726299E+02  0.46143292436E+03  0.00000000000E+00 0.  1.
<mgrwt>
<rscale>  0 0.12356474E+04</rscale>
<asrwt>0</asrwt>
<pdfrwt beam="1">  1        1 0.20821556E+00 0.12356474E+04</pdfrwt>
<pdfrwt beam="2">  1       -2 0.43389958E-01 0.12356474E+04</pdfrwt>
<totfact> 0.36140440E+01</totfact>
</mgrwt>
</event>
<event>
12    5  0.5095719E-008  0.1692063E+04  0.7818608E-02  0.8765904E-01
         -2   -1    0    0    0  501 -0.00000000000E+00  0.00000000000E+00  0.10847162540E+04  0.10847162540E+04  0.00000000000E+00 0.  1.
          1   -1    0    0  501    0  0.00000000000E+00 -0.00000000000E+00 -0.65986786918E+03  0.65986786918E+03  0.00000000000E+00 0. -1.
        -24    2    1    2    0    0  0.18141737718E+03  0.31363737397E+03 -0.33917210048E+03  0.50224106393E+03  0.76991593443E+02 0.  0.
        254    2    1    2    0    0 -0.18141737718E+03 -0.31363737397E+03  0.76402048528E+03  0.12423430592E+04  0.91016938413E+03 0.  0.
         23    2    4    4    0    0 -0.16673931608E+03  0.27079356139E+03  0.85033134268E+02  0.34162835889E+03  0.91368207052E+02 0.  0.
         23    2    4    4    0    0 -0.14678061101E+02 -0.58443093536E+03  0.67898735101E+03  0.90071470035E+03  0.92131345926E+02 0.  0.
          1    1    3    3  502    0  0.14912936333E+03  0.18433918083E+03 -0.22062786360E+03  0.32387830244E+03  0.00000000000E+00 0. -1.
         -2    1    3    3    0  502  0.32288013846E+02  0.12929819315E+03 -0.11854423688E+03  0.17836276149E+03  0.00000000000E+00 0.  1.
         13    1    5    5    0    0 -0.13798685125E+03  0.15090257906E+03  0.30213973429E+02  0.20669988795E+03  0.00000000000E+00 0. -1.
        -13    1    5    5    0    0 -0.28752464825E+02  0.11989098232E+03  0.54819160839E+02  0.13492847094E+03  0.00000000000E+00 0.  1.
          2    1    6    6  503    0 -0.31221718769E+02 -0.44860503640E+03  0.56844739594E+03  0.72481288368E+03  0.00000000000E+00 0. -1.
         -2    1    6    6    0  503  0.16543657668E+02 -0.13582589896E+03  0.11053995508E+03  0.17590181667E+03  0.00000000000E+00 0.  1.
<mgrwt>
<rscale>  0 0.16920631E+04</rscale>
<asrwt>0</asrwt>
<pdfrwt beam="1">  1        1 0.10151813E+00 0.16920631E+04</pdfrwt>
<pdfrwt beam="2">  1       -2 0.16687942E+00 0.16920631E+04</pdfrwt>
<totfact> 0.55670913E+00</totfact>
</mgrwt>
</event>
<event>
12    5  0.5095719E-008  0.1947421E+04  0.7818608E-02  0.8631605E-01
         -2   -1    0    0    0  501 -0.00000000000E+00  0.00000000000E+00  0.16263193116E+04  0.16263193116E+04  0.00000000000E+00 0.  1.
          1   -1    0    0  501    0  0.00000000000E+00 -0.00000000000E+00 -0.58298048162E+03  0.58298048162E+03  0.00000000000E+00 0. -1.
        -24    2    1    2    0    0  0.51097895538E+03  0.36048321114E+03 -0.11121908865E+03  0.64012069316E+03  0.79606392763E+02 0.  0.
        254    2    1    2    0    0 -0.51097895538E+03 -0.36048321114E+03  0.11545579186E+04  0.15691791001E+04  0.85922722389E+03 0.  0.
         23    2    4    4    0    0 -0.51662820668E+03 -0.29959249590E+03  0.12723662222E+04  0.14085110152E+04  0.91252994873E+02 0.  0.
         23    2    4    4    0    0  0.56492512965E+01 -0.60890715242E+02 -0.11780830361E+03  0.16066808481E+03  0.90530899886E+02 0.  0.
          3    1    3    3  502    0  0.34047319727E+03  0.19472428173E+03 -0.58708455418E+02  0.39659327615E+03  0.00000000000E+00 0. -1.
         -4    1    3    3    0  502  0.17050575812E+03  0.16575892941E+03 -0.52510633230E+02  0.24352741700E+03  0.00000000000E+00 0.  1.
         13    1    5    5    0    0 -0.34988562049E+03 -0.23355995191E+03  0.96387648753E+03  0.10516786970E+04  0.00000000000E+00 0.  1.
        -13    1    5    5    0    0 -0.16674258619E+03 -0.66032543990E+02  0.30848973470E+03  0.35683231822E+03  0.00000000000E+00 0. -1.
          3    1    6    6  503    0 -0.35252592182E+02 -0.30988950269E-01 -0.30176801290E+02  0.46404585463E+02  0.00000000000E+00 0. -1.
         -3    1    6    6    0  503  0.40901843478E+02 -0.60859726291E+02 -0.87631502322E+02  0.11426349935E+03  0.00000000000E+00 0.  1.
<mgrwt>
<rscale>  0 0.19474213E+04</rscale>
<asrwt>0</asrwt>
<pdfrwt beam="1">  1        1 0.89689305E-01 0.19474213E+04</pdfrwt>
<pdfrwt beam="2">  1       -2 0.25020297E+00 0.19474213E+04</pdfrwt>
<totfact> 0.18660904E+00</totfact>
</mgrwt>
</event>
<event>
12    5  0.5095719E-008  0.2937824E+04  0.7818608E-02  0.8261712E-01
          1   -1    0    0  501    0  0.00000000000E+00  0.00000000000E+00  0.12334357667E+04  0.12334357667E+04  0.00000000000E+00 0. -1.
         -2   -1    0    0    0  501 -0.00000000000E+00 -0.00000000000E+00 -0.17493436094E+04  0.17493436094E+04  0.00000000000E+00 0.  1.
        -24    2    1    2    0    0  0.12320346461E+04 -0.29330739325E+03  0.17786663950E+03  0.12813941118E+04  0.79973322617E+02 0.  0.
        254    2    1    2    0    0 -0.12320346461E+04  0.29330739325E+03 -0.69377448221E+03  0.17013852643E+04  0.89969449771E+03 0.  0.
         23    2    4    4    0    0 -0.12782955780E+04  0.47081278348E+02 -0.62100299895E+03  0.14248180750E+04  0.90584715984E+02 0.  0.
         23    2    4    4    0    0  0.46260931927E+02  0.24622611490E+03 -0.72771483263E+02  0.27656718921E+03  0.91795140890E+02 0.  0.
          1    1    3    3  502    0  0.81929749187E+03 -0.18154278388E+03  0.81910675517E+02  0.84315806426E+03  0.00000000000E+00 0. -1.
         -2    1    3    3    0  502  0.41273715420E+03 -0.11176460937E+03  0.95955963979E+02  0.43823604757E+03  0.00000000000E+00 0.  1.
         13    1    5    5    0    0 -0.15395804240E+03 -0.16410207330E+02 -0.53795552618E+02  0.16390953361E+03  0.00000000000E+00 0. -1.
        -13    1    5    5    0    0 -0.11243375356E+04  0.63491485678E+02 -0.56720744633E+03  0.12609085414E+04  0.00000000000E+00 0.  1.
          3    1    6    6  503    0  0.25529936979E+02  0.24188362543E+02 -0.36404969324E+02  0.50617945001E+02  0.00000000000E+00 0. -1.
         -3    1    6    6    0  503  0.20730994948E+02  0.22203775236E+03 -0.36366513939E+02  0.22594924421E+03  0.00000000000E+00 0.  1.
<mgrwt>
<rscale>  0 0.29378243E+04</rscale>
<asrwt>0</asrwt>
<pdfrwt beam="1">  1        1 0.18975935E+00 0.29378243E+04</pdfrwt>
<pdfrwt beam="2">  1       -2 0.26912979E+00 0.29378243E+04</pdfrwt>
<totfact> 0.37223797E-01</totfact>
</mgrwt>
</event>
<event>
12    5  0.5095719E-008  0.3435014E+04  0.7818608E-02  0.8129366E-01
         -2   -1    0    0    0  501 -0.00000000000E+00  0.00000000000E+00  0.14017201621E+04  0.14017201621E+04  0.00000000000E+00 0.  1.
          1   -1    0    0  501    0  0.00000000000E+00 -0.00000000000E+00 -0.21044358209E+04  0.21044358209E+04  0.00000000000E+00 0. -1.
        -24    2    1    2    0    0 -0.19811815880E+03  0.97288758458E+03 -0.16123378584E+04  0.18965846903E+04  0.10788447930E+03 0.  0.
        254    2    1    2    0    0  0.19811815880E+03 -0.97288758458E+03  0.90962219960E+03  0.16095712927E+04  0.88178576938E+03 0.  0.
         23    2    4    4    0    0  0.16258967274E+03 -0.96635630827E+03  0.10522926240E+04  0.14404618522E+04  0.85619301885E+02 0.  0.
         23    2    4    4    0    0  0.35528486065E+02 -0.65312763142E+01 -0.14267042440E+03  0.16910944048E+03  0.83295990119E+02 0.  0.
          1    1    3    3  502    0 -0.13218504410E+03  0.83230647762E+03 -0.13352153017E+04  0.15789258566E+04  0.00000000000E+00 0. -1.
         -2    1    3    3    0  502 -0.65933114700E+02  0.14058110696E+03 -0.27712255666E+03  0.31765883374E+03  0.00000000000E+00 0.  1.
         13    1    5    5    0    0  0.97719537648E+02 -0.78235008277E+03  0.83388904567E+03  0.11476025882E+04  0.00000000000E+00 0.  1.
        -13    1    5    5    0    0  0.64870135089E+02 -0.18400622550E+03  0.21840357834E+03  0.29285926394E+03  0.00000000000E+00 0. -1.
          3    1    6    6  503    0  0.22666637067E+01  0.35851336894E+02 -0.45159835789E+02  0.57704998830E+02  0.00000000000E+00 0. -1.
         -3    1    6    6    0  503  0.33261822358E+02 -0.42382613208E+02 -0.97510588609E+02  0.11140444165E+03  0.00000000000E+00 0.  1.
<mgrwt>
<rscale>  0 0.34350139E+04</rscale>
<asrwt>0</asrwt>
<pdfrwt beam="1">  1        1 0.32375936E+00 0.34350139E+04</pdfrwt>
<pdfrwt beam="2">  1       -2 0.21564926E+00 0.34350139E+04</pdfrwt>
<totfact> 0.19231471E-01</totfact>
</mgrwt>
</event>
<event>
12    5  0.5095719E-008  0.1974372E+04  0.7818608E-02  0.8618697E-01
         -2   -1    0    0    0  501 -0.00000000000E+00  0.00000000000E+00  0.13579956407E+04  0.13579956407E+04  0.00000000000E+00 0.  1.
          1   -1    0    0  501    0  0.00000000000E+00 -0.00000000000E+00 -0.71762850497E+03  0.71762850497E+03  0.00000000000E+00 0. -1.
        -24    2    1    2    0    0 -0.20685590173E+03  0.31757431432E+03 -0.46033821667E+03  0.60155749026E+03  0.79481640376E+02 0.  0.
        254    2    1    2    0    0  0.20685590173E+03 -0.31757431432E+03  0.11007053524E+04  0.14740666554E+04  0.90425517561E+03 0.  0.
         23    2    4    4    0    0  0.27322764202E+03 -0.56198395378E+03  0.46567912340E+03  0.78452710513E+03  0.90257542834E+02 0.  0.
         23    2    4    4    0    0 -0.66371740293E+02  0.24440963946E+03  0.63502622900E+03  0.68953955029E+03  0.89806459236E+02 0.  0.
          3    1    3    3  502    0 -0.20741443132E+03  0.30295491380E+03 -0.45757920180E+03  0.58666954245E+03  0.00000000000E+00 0. -1.
         -4    1    3    3    0  502  0.55852958868E+00  0.14619400521E+02 -0.27590148720E+01  0.14887947809E+02  0.00000000000E+00 0.  1.
         13    1    5    5    0    0  0.42881263006E+02 -0.53131663675E+02  0.82881297403E+02  0.10738289371E+03  0.00000000000E+00 0. -1.
        -13    1    5    5    0    0  0.23034637901E+03 -0.50885229011E+03  0.38279782599E+03  0.67714421142E+03  0.00000000000E+00 0.  1.
          2    1    6    6  503    0 -0.28046882845E+01  0.17092150083E+03  0.38231819455E+03  0.41879497084E+03  0.00000000000E+00 0. -1.
         -2    1    6    6    0  503 -0.63567052009E+02  0.73488138629E+02  0.25270803445E+03  0.27074457944E+03  0.00000000000E+00 0.  1.
<mgrwt>
<rscale>  0 0.19743722E+04</rscale>
<asrwt>0</asrwt>
<pdfrwt beam="1">  1        1 0.11040439E+00 0.19743722E+04</pdfrwt>
<pdfrwt beam="2">  1       -2 0.20892241E+00 0.19743722E+04</pdfrwt>
<totfact> 0.24837201E+00</totfact>
</mgrwt>
</event>
<event>
12    5  0.5095719E-008  0.1374874E+04  0.7818608E-02  0.8972210E-01
          1   -1    0    0  501    0  0.00000000000E+00  0.00000000000E+00  0.10009223082E+04  0.10009223082E+04  0.00000000000E+00 0. -1.
         -2   -1    0    0    0  501 -0.00000000000E+00 -0.00000000000E+00 -0.47213416618E+03  0.47213416618E+03  0.00000000000E+00 0.  1.
        -24    2    1    2    0    0  0.74492814836E+02 -0.15384794081E+03 -0.22451806237E+03  0.29314507910E+03  0.79418566573E+02 0.  0.
        254    2    1    2    0    0 -0.74492814836E+02  0.15384794081E+03  0.75330620443E+03  0.11799113953E+04  0.89190935349E+03 0.  0.
         23    2    4    4    0    0  0.76334422668E+02 -0.28763285450E+03  0.27647484947E+02  0.31235215732E+03  0.90773805081E+02 0.  0.
         23    2    4    4    0    0 -0.15082723750E+03  0.44148079531E+03  0.72565871948E+03  0.86755923800E+03  0.91784018686E+02 0.  0.
          3    1    3    3  502    0 -0.11385535680E+02  0.70509230067E+00 -0.10157131150E+02  0.15273993946E+02  0.00000000000E+00 0. -1.
         -2    1    3    3    0  502  0.85878350516E+02 -0.15455303311E+03 -0.21436093122E+03  0.27787108515E+03  0.00000000000E+00 0.  1.
         13    1    5    5    0    0 -0.74304866969E+01 -0.13168201045E+03  0.30223824796E+02  0.13531017550E+03  0.00000000000E+00 0. -1.
        -13    1    5    5    0    0  0.83764909365E+02 -0.15595084405E+03 -0.25763398498E+01  0.17704198182E+03  0.00000000000E+00 0.  1.
          4    1    6    6  503    0 -0.10690826578E+01  0.19003900101E+02  0.75502712449E+02  0.77864951961E+02  0.00000000000E+00 0.  1.
         -4    1    6    6    0  503 -0.14975815485E+03  0.42247689521E+03  0.65015600703E+03  0.78969428604E+03  0.00000000000E+00 0. -1.
<mgrwt>
<rscale>  0 0.13748740E+04</rscale>
<asrwt>0</asrwt>
<pdfrwt beam="1">  1        1 0.15398805E+00 0.13748740E+04</pdfrwt>
<pdfrwt beam="2">  1       -2 0.72636026E-01 0.13748740E+04</pdfrwt>
<totfact> 0.22177263E+01</totfact>
</mgrwt>
</event>
<event>
12    5  0.5095719E-008  0.3545034E+04  0.7818608E-02  0.8103200E-01
         -2   -1    0    0    0  501 -0.00000000000E+00  0.00000000000E+00  0.11117719196E+04  0.11117719196E+04  0.00000000000E+00 0.  1.
          1   -1    0    0  501    0  0.00000000000E+00 -0.00000000000E+00 -0.28259548954E+04  0.28259548954E+04  0.00000000000E+00 0. -1.
        -24    2    1    2    0    0  0.65860369447E+03 -0.12525031297E+04  0.16419676423E+03  0.14266986797E+04  0.77366846933E+02 0.  0.
        254    2    1    2    0    0 -0.65860369447E+03  0.12525031297E+04 -0.18783797400E+04  0.25110281353E+04  0.88001643874E+03 0.  0.
         23    2    4    4    0    0 -0.14779764662E+02  0.94039567493E+03 -0.10331297338E+04  0.13998969834E+04  0.88272590705E+02 0.  0.
         23    2    4    4    0    0 -0.64382392981E+03  0.31210745473E+03 -0.84525000622E+03  0.11111311520E+04  0.90799493150E+02 0.  0.
          1    1    3    3  502    0  0.20182527798E+02 -0.46068041939E+02  0.20132350586E+02  0.54174813858E+02  0.00000000000E+00 0. -1.
         -2    1    3    3    0  502  0.63842116667E+03 -0.12064350877E+04  0.14406441365E+03  0.13725238658E+04  0.00000000000E+00 0.  1.
         13    1    5    5    0    0  0.14029499379E+02  0.57309396361E+03 -0.57427050339E+03  0.81143091452E+03  0.00000000000E+00 0. -1.
        -13    1    5    5    0    0 -0.28809264041E+02  0.36730171133E+03 -0.45885923042E+03  0.58846606884E+03  0.00000000000E+00 0.  1.
          2    1    6    6  503    0 -0.16558910225E+03  0.91043184353E+02 -0.28606371518E+03  0.34284261892E+03  0.00000000000E+00 0. -1.
         -2    1    6    6    0  503 -0.47823482756E+03  0.22106427038E+03 -0.55918629104E+03  0.76828853305E+03  0.00000000000E+00 0.  1.
<mgrwt>
<rscale>  0 0.35450344E+04</rscale>
<asrwt>0</asrwt>
<pdfrwt beam="1">  1        1 0.43476229E+00 0.35450344E+04</pdfrwt>
<pdfrwt beam="2">  1       -2 0.17104184E+00 0.35450344E+04</pdfrwt>
<totfact> 0.11966883E-01</totfact>
</mgrwt>
</event>
<event>
12    5  0.5095719E-008  0.2203170E+04  0.7818608E-02  0.8517110E-01
         -2   -1    0    0    0  501 -0.00000000000E+00  0.00000000000E+00  0.78245175841E+03  0.78245175841E+03  0.00000000000E+00 0.  1.
          1   -1    0    0  501    0  0.00000000000E+00 -0.00000000000E+00 -0.15508803994E+04  0.15508803994E+04  0.00000000000E+00 0. -1.
        -24    2    1    2    0    0 -0.34438649720E+03 -0.80431207077E+03 -0.62301725938E+03  0.10770097576E+04  0.79243586178E+02 0.  0.
        254    2    1    2    0    0  0.34438649720E+03  0.80431207077E+03 -0.14541138161E+03  0.12563224002E+04  0.88976487714E+03 0.  0.
         23    2    4    4    0    0  0.20086183900E+03  0.69514470910E+03  0.28365685560E+03  0.78225560536E+03  0.88831162552E+02 0.  0.
         23    2    4    4    0    0  0.14352465820E+03  0.10916736167E+03 -0.42906823720E+03  0.47406679479E+03  0.90127317614E+02 0.  0.
          3    1    3    3  502    0 -0.30870628409E+03 -0.64649358853E+03 -0.49713989209E+03  0.87201009292E+03  0.00000000000E+00 0. -1.
         -4    1    3    3    0  502 -0.35680213111E+02 -0.15781848223E+03 -0.12587736729E+03  0.20499966473E+03  0.00000000000E+00 0.  1.
         13    1    5    5    0    0  0.13324969887E+03  0.33014666107E+03  0.16622546552E+03  0.39291628301E+03  0.00000000000E+00 0.  1.
        -13    1    5    5    0    0  0.67612140136E+02  0.36499804803E+03  0.11743139007E+03  0.38933932235E+03  0.00000000000E+00 0. -1.
          1    1    6    6  503    0  0.15019709954E+03  0.81639069627E+02 -0.38989579493E+03  0.42572624690E+03  0.00000000000E+00 0. -1.
         -1    1    6    6    0  503 -0.66724413389E+01  0.27528292043E+02 -0.39172442276E+02  0.48340547888E+02  0.00000000000E+00 0.  1.
<mgrwt>
<rscale>  0 0.22031696E+04</rscale>
<asrwt>0</asrwt>
<pdfrwt beam="1">  1        1 0.23859698E+00 0.22031696E+04</pdfrwt>
<pdfrwt beam="2">  1       -2 0.12037719E+00 0.22031696E+04</pdfrwt>
<totfact> 0.25433790E+00</totfact>
</mgrwt>
</event>
<event>
12    5  0.5095719E-008  0.2388214E+04  0.7818608E-02  0.8443929E-01
          1   -1    0    0  501    0  0.00000000000E+00  0.00000000000E+00  0.96381543885E+03  0.96381543885E+03  0.00000000000E+00 0. -1.
         -2   -1    0    0    0  501 -0.00000000000E+00 -0.00000000000E+00 -0.14794242858E+04  0.14794242858E+04  0.00000000000E+00 0.  1.
        -24    2    1    2    0    0 -0.13793463772E+02  0.71128788345E+03 -0.97126282055E+03  0.12069356186E+04  0.84978868995E+02 0.  0.
        254    2    1    2    0    0  0.13793463772E+02 -0.71128788345E+03  0.45565397358E+03  0.12363041060E+04  0.90261098275E+03 0.  0.
         23    2    4    4    0    0 -0.16744621031E+03 -0.18363743571E+02  0.47636984881E+03  0.51392155682E+03  0.93870513371E+02 0.  0.
         23    2    4    4    0    0  0.18123967408E+03 -0.69292413987E+03 -0.20715875228E+02  0.72238254922E+03  0.91737216287E+02 0.  0.
          3    1    3    3  502    0 -0.34568839410E+02  0.15854419476E+03 -0.24880601710E+03  0.29704494693E+03  0.00000000000E+00 0. -1.
         -4    1    3    3    0  502  0.20775375638E+02  0.55274368868E+03 -0.72245680345E+03  0.90989067171E+03  0.00000000000E+00 0.  1.
         13    1    5    5    0    0 -0.12382875039E+03  0.11018599063E+02  0.22452862553E+03  0.25664775984E+03  0.00000000000E+00 0. -1.
        -13    1    5    5    0    0 -0.43617459925E+02 -0.29382342634E+02  0.25184122328E+03  0.25727379698E+03  0.00000000000E+00 0.  1.
          2    1    6    6  503    0  0.13645842213E+03 -0.62941518725E+03 -0.11617278468E+02  0.64414232904E+03  0.00000000000E+00 0.  1.
         -2    1    6    6    0  503  0.44781251957E+02 -0.63508952627E+02 -0.90985967599E+01  0.78240220179E+02  0.00000000000E+00 0. -1.
<mgrwt>
<rscale>  0 0.23882144E+04</rscale>
<asrwt>0</asrwt>
<pdfrwt beam="1">  1        1 0.14827930E+00 0.23882144E+04</pdfrwt>
<pdfrwt beam="2">  1       -2 0.22760374E+00 0.23882144E+04</pdfrwt>
<totfact> 0.11248397E+00</totfact>
</mgrwt>
</event>
<event>
12    5  0.5095719E-008  0.2075157E+04  0.7818608E-02  0.8572267E-01
         -2   -1    0    0    0  501 -0.00000000000E+00  0.00000000000E+00  0.12156671440E+04  0.12156671440E+04  0.00000000000E+00 0.  1.
          1   -1    0    0  501    0  0.00000000000E+00 -0.00000000000E+00 -0.88557886166E+03  0.88557886166E+03  0.00000000000E+00 0. -1.
        -24    2    1    2    0    0  0.48718256342E+03  0.43951398144E+03  0.66760828114E+03  0.93942672116E+03  0.79387388150E+02 0.  0.
        254    2    1    2    0    0 -0.48718256342E+03 -0.43951398144E+03 -0.33751999881E+03  0.11618192845E+04  0.89743239870E+03 0.  0.
         23    2    4    4    0    0  0.16515961954E+03 -0.40210917386E+03 -0.68206439670E+02  0.44909294973E+03  0.89793493355E+02 0.  0.
         23    2    4    4    0    0 -0.65234218296E+03 -0.37404807577E+02 -0.26931355914E+03  0.71272633476E+03  0.92193230934E+02 0.  0.
          3    1    3    3  502    0  0.20784972162E+03  0.18612420587E+03  0.22882464231E+03  0.36083852859E+03  0.00000000000E+00 0. -1.
         -4    1    3    3    0  502  0.27933284179E+03  0.25338977558E+03  0.43878363883E+03  0.57858819257E+03  0.00000000000E+00 0.  1.
         13    1    5    5    0    0  0.14253612101E+03 -0.26974110339E+03 -0.76564557582E+02  0.31454560899E+03  0.00000000000E+00 0. -1.
        -13    1    5    5    0    0  0.22623498527E+02 -0.13236807047E+03  0.83581179120E+01  0.13454734074E+03  0.00000000000E+00 0.  1.
          2    1    6    6  503    0 -0.54053388614E+03 -0.10943372533E+01 -0.20057940981E+03  0.57655024003E+03  0.00000000000E+00 0. -1.
         -2    1    6    6    0  503 -0.11180829682E+03 -0.36310470324E+02 -0.68734149324E+02  0.13617609473E+03  0.00000000000E+00 0.  1.
<mgrwt>
<rscale>  0 0.20751570E+04</rscale>
<asrwt>0</asrwt>
<pdfrwt beam="1">  1        1 0.13624290E+00 0.20751570E+04</pdfrwt>
<pdfrwt beam="2">  1       -2 0.18702571E+00 0.20751570E+04</pdfrwt>
<totfact> 0.24514633E+00</totfact>
</mgrwt>
</event>
<event>
12    5  0.5095719E-008  0.1800250E+04  0.7818608E-02  0.8706166E-01
         -2   -1    0    0    0  501 -0.00000000000E+00  0.00000000000E+00  0.53849609748E+03  0.53849609748E+03  0.00000000000E+00 0.  1.
          1   -1    0    0  501    0  0.00000000000E+00 -0.00000000000E+00 -0.15046073448E+04  0.15046073448E+04  0.00000000000E+00 0. -1.
        -24    2    1    2    0    0 -0.39825355576E+02 -0.63224361322E+03 -0.62204932330E+03  0.89160159964E+03  0.81792459647E+02 0.  0.
        254    2    1    2    0    0  0.39825355576E+02  0.63224361322E+03 -0.34406192406E+03  0.11515018427E+04  0.89791972953E+03 0.  0.
         23    2    4    4    0    0 -0.17156154512E+03  0.75642349080E+02 -0.48969631407E+03  0.53216609539E+03  0.90791763543E+02 0.  0.
         23    2    4    4    0    0  0.21138690070E+03  0.55660126414E+03  0.14563439000E+03  0.61933574729E+03  0.88758116721E+02 0.  0.
          1    1    3    3  502    0 -0.43970622360E+02 -0.54138372014E+03 -0.56747706986E+03  0.78553164983E+03  0.00000000000E+00 0. -1.
         -2    1    3    3    0  502  0.41452667846E+01 -0.90859893087E+02 -0.54572253443E+02  0.10606994982E+03  0.00000000000E+00 0.  1.
         13    1    5    5    0    0 -0.67049246731E+02  0.61546967233E+02 -0.14058955106E+03  0.16747851364E+03  0.00000000000E+00 0.  1.
        -13    1    5    5    0    0 -0.10451229839E+03  0.14095381848E+02 -0.34910676300E+03  0.36468758174E+03  0.00000000000E+00 0. -1.
          2    1    6    6  503    0  0.15237134330E+03  0.48734174770E+03  0.13132955388E+03  0.52722524317E+03  0.00000000000E+00 0. -1.
         -2    1    6    6    0  503  0.59015557397E+02  0.69259516447E+02  0.14304836121E+02  0.92110504123E+02  0.00000000000E+00 0.  1.
<mgrwt>
<rscale>  0 0.18002502E+04</rscale>
<asrwt>0</asrwt>
<pdfrwt beam="1">  1        1 0.23147805E+00 0.18002502E+04</pdfrwt>
<pdfrwt beam="2">  1       -2 0.82845554E-01 0.18002502E+04</pdfrwt>
<totfact> 0.68684460E+00</totfact>
</mgrwt>
</event>
<event>
12    5  0.5095719E-008  0.1570259E+04  0.7818608E-02  0.8839030E-01
         -2   -1    0    0    0  501 -0.00000000000E+00  0.00000000000E+00  0.51804948961E+03  0.51804948961E+03  0.00000000000E+00 0.  1.
          1   -1    0    0  501    0  0.00000000000E+00 -0.00000000000E+00 -0.11899030161E+04  0.11899030161E+04  0.00000000000E+00 0. -1.
        -24    2    1    2    0    0 -0.47288420781E+03  0.16731947085E+03 -0.47274834719E+02  0.51011239371E+03  0.79777596484E+02 0.  0.
        254    2    1    2    0    0  0.47288420781E+03 -0.16731947085E+03 -0.62457869181E+03  0.11978401120E+04  0.89056561377E+03 0.  0.
         23    2    4    4    0    0  0.51798205924E+03 -0.26024544843E+03 -0.78911292541E+03  0.98397251768E+03  0.97311866597E+02 0.  0.
         23    2    4    4    0    0 -0.45097851431E+02  0.92925977583E+02  0.16453423359E+03  0.21386759436E+03  0.89435900957E+02 0.  0.
          3    1    3    3  502    0 -0.11835766004E+03  0.58381304345E+02 -0.44313889138E+02  0.13921434250E+03  0.00000000000E+00 0. -1.
         -4    1    3    3    0  502 -0.35452654777E+03  0.10893816651E+03 -0.29609455804E+01  0.37089805122E+03  0.00000000000E+00 0.  1.
         13    1    5    5    0    0  0.16803594217E+03 -0.13670247620E+03 -0.29779781273E+03  0.36824880465E+03  0.00000000000E+00 0. -1.
        -13    1    5    5    0    0  0.34994611707E+03 -0.12354297223E+03 -0.49131511268E+03  0.61572371303E+03  0.00000000000E+00 0.  1.
          3    1    6    6  503    0  0.41878448797E+01 -0.97276904191E+01 -0.32612096315E+01  0.11081583546E+02  0.00000000000E+00 0. -1.
         -3    1    6    6    0  503 -0.49285696311E+02  0.10265366800E+03  0.16779544322E+03  0.20278601081E+03  0.00000000000E+00 0.  1.
<mgrwt>
<rscale>  0 0.15702594E+04</rscale>
<asrwt>0</asrwt>
<pdfrwt beam="1">  1        1 0.18306200E+00 0.15702594E+04</pdfrwt>
<pdfrwt beam="2">  1       -2 0.79699922E-01 0.15702594E+04</pdfrwt>
<totfact> 0.12782761E+01</totfact>
</mgrwt>
</event>
<event>
12    5  0.5095719E-008  0.1015618E+04  0.7818608E-02  0.9291579E-01
          1   -1    0    0  501    0  0.00000000000E+00  0.00000000000E+00  0.79431377623E+03  0.79431377623E+03  0.00000000000E+00 0. -1.
         -2   -1    0    0    0  501 -0.00000000000E+00 -0.00000000000E+00 -0.32464521007E+03  0.32464521007E+03  0.00000000000E+00 0.  1.
        -24    2    1    2    0    0 -0.68266389689E+02 -0.26230456881E+02  0.71781616394E+02  0.12964199750E+03  0.79411020854E+02 0.  0.
        254    2    1    2    0    0  0.68266389689E+02  0.26230456881E+02  0.39788694977E+03  0.98931698880E+03  0.90282099151E+03 0.  0.
         23    2    4    4    0    0  0.39221918041E+03  0.24669701233E+02 -0.73180126749E+02  0.40978272152E+03  0.90122518046E+02 0.  0.
         23    2    4    4    0    0 -0.32395279073E+03  0.15607556487E+01  0.47106707651E+03  0.57953426728E+03  0.94910114323E+02 0.  0.
          3    1    3    3  502    0 -0.52052936944E+02 -0.28510691848E+02  0.88294832104E+02  0.10638771156E+03  0.00000000000E+00 0. -1.
         -4    1    3    3    0  502 -0.16213452745E+02  0.22802349671E+01 -0.16513215709E+02  0.23254285938E+02  0.00000000000E+00 0.  1.
         13    1    5    5    0    0  0.41604533638E+02  0.60055452230E+01  0.19951221667E+02  0.46530151930E+02  0.00000000000E+00 0.  1.
        -13    1    5    5    0    0  0.35061464678E+03  0.18664156010E+02 -0.93131348415E+02  0.36325256959E+03  0.00000000000E+00 0. -1.
          4    1    6    6  503    0 -0.76519721171E+02 -0.34769540635E+02  0.15678385218E+03  0.17789144158E+03  0.00000000000E+00 0. -1.
         -4    1    6    6    0  503 -0.24743306955E+03  0.36330296284E+02  0.31428322433E+03  0.40164282570E+03  0.00000000000E+00 0.  1.
<mgrwt>
<rscale>  0 0.10156184E+04</rscale>
<asrwt>0</asrwt>
<pdfrwt beam="1">  1        1 0.12220212E+00 0.10156184E+04</pdfrwt>
<pdfrwt beam="2">  1       -2 0.49945417E-01 0.10156184E+04</pdfrwt>
<totfact> 0.74445168E+01</totfact>
</mgrwt>
</event>
<event>
12    5  0.5095719E-008  0.4530497E+04  0.7818608E-02  0.7905319E-01
          1   -1    0    0  501    0  0.00000000000E+00  0.00000000000E+00  0.40881546412E+04  0.40881546412E+04  0.00000000000E+00 0. -1.
         -2   -1    0    0    0  501 -0.00000000000E+00 -0.00000000000E+00 -0.12551751129E+04  0.12551751129E+04  0.00000000000E+00 0.  1.
        -24    2    1    2    0    0  0.39347364789E+03 -0.19179534602E+04  0.24808711172E+04  0.31614184827E+04  0.80488109921E+02 0.  0.
        254    2    1    2    0    0 -0.39347364789E+03  0.19179534602E+04  0.35210841114E+03  0.21819112714E+04  0.89631996317E+03 0.  0.
         23    2    4    4    0    0  0.26702600092E+03  0.59881400115E+03 -0.36159221291E+01  0.66169166976E+03  0.89116203922E+02 0.  0.
         23    2    4    4    0    0 -0.66049964881E+03  0.13191394590E+04  0.35572433327E+03  0.15202196017E+04  0.90217169554E+02 0.  0.
          1    1    3    3  502    0  0.38591494347E+03 -0.18577282772E+04  0.24235320810E+04  0.30779201489E+04  0.00000000000E+00 0. -1.
         -2    1    3    3    0  502  0.75587044219E+01 -0.60225182963E+02  0.57339036165E+02  0.83498333779E+02  0.00000000000E+00 0.  1.
         13    1    5    5    0    0  0.76372649700E+02  0.99008509856E+02  0.17947842180E+02  0.12632336160E+03  0.00000000000E+00 0. -1.
        -13    1    5    5    0    0  0.19065335122E+03  0.49980549129E+03 -0.21563764309E+02  0.53536830816E+03  0.00000000000E+00 0.  1.
          4    1    6    6  503    0 -0.50812986337E+02  0.13198977124E+03  0.57956169917E+02  0.15284690682E+03  0.00000000000E+00 0. -1.
         -4    1    6    6    0  503 -0.60968666247E+03  0.11871496878E+04  0.29776816335E+03  0.13673726949E+04  0.00000000000E+00 0.  1.
<mgrwt>
<rscale>  0 0.45304966E+04</rscale>
<asrwt>0</asrwt>
<pdfrwt beam="1">  1        1 0.62894686E+00 0.45304966E+04</pdfrwt>
<pdfrwt beam="2">  1       -2 0.19310387E+00 0.45304966E+04</pdfrwt>
<totfact> 0.77877580E-03</totfact>
</mgrwt>
</event>
<event>
12    5  0.5095719E-008  0.1734407E+04  0.7818608E-02  0.8741980E-01
         -2   -1    0    0    0  501 -0.00000000000E+00  0.00000000000E+00  0.47299108311E+03  0.47299108311E+03  0.00000000000E+00 0.  1.
          1   -1    0    0  501    0  0.00000000000E+00 -0.00000000000E+00 -0.15899709729E+04  0.15899709729E+04  0.00000000000E+00 0. -1.
        -24    2    1    2    0    0  0.53221187619E+03 -0.21405704272E+03 -0.71493442994E+03  0.91986207693E+03  0.77104492522E+02 0.  0.
        254    2    1    2    0    0 -0.53221187619E+03  0.21405704272E+03 -0.40204545980E+03  0.11430999790E+04  0.90330897905E+03 0.  0.
         23    2    4    4    0    0 -0.73416298549E+03  0.30033482187E+03 -0.42586939964E+03  0.90480839644E+03  0.90095472749E+02 0.  0.
         23    2    4    4    0    0  0.20195110930E+03 -0.86277779158E+02  0.23823939841E+02  0.23829158260E+03  0.89371094334E+02 0.  0.
          1    1    3    3  502    0  0.51131653076E+03 -0.18825862668E+03 -0.66225407229E+03  0.85759335434E+03  0.00000000000E+00 0. -1.
         -2    1    3    3    0  502  0.20895345430E+02 -0.25798416036E+02 -0.52680357649E+02  0.62268722588E+02  0.00000000000E+00 0.  1.
         13    1    5    5    0    0 -0.57207961947E+03  0.20258972227E+03 -0.35231666266E+03  0.70174405404E+03  0.00000000000E+00 0. -1.
        -13    1    5    5    0    0 -0.16208336602E+03  0.97745099603E+02 -0.73552736985E+02  0.20306434240E+03  0.00000000000E+00 0.  1.
          2    1    6    6  503    0  0.10534626682E+03 -0.29536534996E+02  0.54359698118E+02  0.12216881604E+03  0.00000000000E+00 0. -1.
         -2    1    6    6    0  503  0.96604842482E+02 -0.56741244162E+02 -0.30535758277E+02  0.11612276656E+03  0.00000000000E+00 0.  1.
<mgrwt>
<rscale>  0 0.17344072E+04</rscale>
<asrwt>0</asrwt>
<pdfrwt beam="1">  1        1 0.24461092E+00 0.17344072E+04</pdfrwt>
<pdfrwt beam="2">  1       -2 0.72767857E-01 0.17344072E+04</pdfrwt>
<totfact> 0.80600288E+00</totfact>
</mgrwt>
</event>
<event>
12    5  0.5095719E-008  0.1173251E+04  0.7818608E-02  0.9136597E-01
         -2   -1    0    0    0  501 -0.00000000000E+00  0.00000000000E+00  0.14192114345E+03  0.14192114345E+03  0.00000000000E+00 0.  1.
          1   -1    0    0  501    0  0.00000000000E+00 -0.00000000000E+00 -0.24247940981E+04  0.24247940981E+04  0.00000000000E+00 0. -1.
        -24    2    1    2    0    0 -0.44711642265E+02 -0.28811725971E+02 -0.92379632913E+03  0.92883301428E+03  0.80634137946E+02 0.  0.
        254    2    1    2    0    0  0.44711642265E+02  0.28811725971E+02 -0.13590766256E+04  0.16378822273E+04  0.91254570837E+03 0.  0.
         23    2    4    4    0    0 -0.46126962749E+02  0.36867801186E+03 -0.21668001308E+03  0.43908772447E+03  0.88298519759E+02 0.  0.
         23    2    4    4    0    0  0.90838605014E+02 -0.33986628589E+03 -0.11423966125E+04  0.11987945028E+04  0.90980741696E+02 0.  0.
          3    1    3    3  502    0 -0.41476042022E+02 -0.53017820241E+02 -0.78703194047E+03  0.78990532765E+03  0.00000000000E+00 0. -1.
         -4    1    3    3    0  502 -0.32356002430E+01  0.24206094270E+02 -0.13676438866E+03  0.13892768663E+03  0.00000000000E+00 0.  1.
         13    1    5    5    0    0 -0.14659704441E+02  0.33675968771E+03 -0.19136317736E+03  0.38761044858E+03  0.00000000000E+00 0.  1.
        -13    1    5    5    0    0 -0.31467258308E+02  0.31918324145E+02 -0.25316835718E+02  0.51477275883E+02  0.00000000000E+00 0. -1.
          3    1    6    6  503    0  0.59769710727E+02 -0.72480816854E+02 -0.31499791474E+03  0.32870894941E+03  0.00000000000E+00 0. -1.
         -3    1    6    6    0  503  0.31068894287E+02 -0.26738546903E+03 -0.82739869775E+03  0.87008555342E+03  0.00000000000E+00 0.  1.
<mgrwt>
<rscale>  0 0.11732511E+04</rscale>
<asrwt>0</asrwt>
<pdfrwt beam="1">  1        1 0.37304529E+00 0.11732511E+04</pdfrwt>
<pdfrwt beam="2">  1       -2 0.21834020E-01 0.11732511E+04</pdfrwt>
<totfact> 0.24480655E+01</totfact>
</mgrwt>
</event>
<event>
12    5  0.5095719E-008  0.2242677E+04  0.7818608E-02  0.8500872E-01
          1   -1    0    0  501    0  0.00000000000E+00  0.00000000000E+00  0.72101645774E+03  0.72101645774E+03  0.00000000000E+00 0. -1.
         -2   -1    0    0    0  501 -0.00000000000E+00 -0.00000000000E+00 -0.17439270870E+04  0.17439270870E+04  0.00000000000E+00 0.  1.
        -24    2    1    2    0    0  0.77916064681E+03 -0.28858721074E+03  0.45677804059E+02  0.83606232001E+03  0.80869335405E+02 0.  0.
        254    2    1    2    0    0 -0.77916064681E+03  0.28858721074E+03 -0.10685884334E+04  0.16288812248E+04  0.90608990324E+03 0.  0.
         23    2    4    4    0    0 -0.93214814787E+03  0.29874414298E+03 -0.66421609187E+03  0.11865632795E+04  0.92742477045E+02 0.  0.
         23    2    4    4    0    0  0.15298750106E+03 -0.10156932243E+02 -0.40437234149E+03  0.44231794526E+03  0.92843068566E+02 0.  0.
          3    1    3    3  502    0  0.75902956852E+03 -0.27153089592E+03  0.55170489277E+02  0.80802147014E+03  0.00000000000E+00 0. -1.
         -4    1    3    3    0  502  0.20131078296E+02 -0.17056314820E+02 -0.94926852180E+01  0.28040849867E+02  0.00000000000E+00 0.  1.
         13    1    5    5    0    0 -0.21156144911E+03  0.78951603120E+02 -0.20009895871E+03  0.30171376446E+03  0.00000000000E+00 0.  1.
        -13    1    5    5    0    0 -0.72058669875E+03  0.21979253986E+03 -0.46411713316E+03  0.88484951505E+03  0.00000000000E+00 0. -1.
          3    1    6    6  503    0  0.88728169323E+02  0.17365075993E+02 -0.32113944486E+03  0.33362370560E+03  0.00000000000E+00 0. -1.
         -3    1    6    6    0  503  0.64259331733E+02 -0.27522008235E+02 -0.83232896631E+02  0.10869423965E+03  0.00000000000E+00 0.  1.
<mgrwt>
<rscale>  0 0.22426771E+04</rscale>
<asrwt>0</asrwt>
<pdfrwt beam="1">  1        1 0.11092561E+00 0.22426771E+04</pdfrwt>
<pdfrwt beam="2">  1       -2 0.26829647E+00 0.22426771E+04</pdfrwt>
<totfact> 0.10288970E+00</totfact>
</mgrwt>
</event>
<event>
12    5  0.5095719E-008  0.1737036E+04  0.7818608E-02  0.8740519E-01
          1   -1    0    0  501    0  0.00000000000E+00  0.00000000000E+00  0.52581212666E+03  0.52581212666E+03  0.00000000000E+00 0. -1.
         -2   -1    0    0    0  501 -0.00000000000E+00 -0.00000000000E+00 -0.14345875427E+04  0.14345875427E+04  0.00000000000E+00 0.  1.
        -24    2    1    2    0    0  0.10801542178E+01  0.54101161964E+03  0.36700375982E+02  0.54815232268E+03  0.80182990344E+02 0.  0.
        254    2    1    2    0    0 -0.10801542178E+01 -0.54101161964E+03 -0.94547579204E+03  0.14122473467E+04  0.89878993965E+03 0.  0.
         23    2    4    4    0    0  0.25870094385E+03 -0.18645897487E+03 -0.90226862172E+03  0.96137814488E+03  0.92011651751E+02 0.  0.
         23    2    4    4    0    0 -0.25978109807E+03 -0.35455264478E+03 -0.43207170320E+02  0.45086920182E+03  0.90677344219E+02 0.  0.
          1    1    3    3  502    0 -0.17010373085E+02  0.32103548203E+03  0.57008374214E+02  0.32650128368E+03  0.00000000000E+00 0. -1.
         -2    1    3    3    0  502  0.18090527303E+02  0.21997613761E+03 -0.20307998232E+02  0.22165103900E+03  0.00000000000E+00 0.  1.
         13    1    5    5    0    0  0.91921330774E+01  0.29000711003E+01 -0.46967497754E+01  0.10722181744E+02  0.00000000000E+00 0.  1.
        -13    1    5    5    0    0  0.24950881078E+03 -0.18935904597E+03 -0.89757187194E+03  0.95065596313E+03  0.00000000000E+00 0. -1.
          1    1    6    6  503    0 -0.19959257176E+03 -0.29275796173E+03  0.15204910660E+00  0.35432251124E+03  0.00000000000E+00 0. -1.
         -1    1    6    6    0  503 -0.60188526311E+02 -0.61794683050E+02 -0.43359219427E+02  0.96546690581E+02  0.00000000000E+00 0.  1.
<mgrwt>
<rscale>  0 0.17370360E+04</rscale>
<asrwt>0</asrwt>
<pdfrwt beam="1">  1        1 0.80894174E-01 0.17370360E+04</pdfrwt>
<pdfrwt beam="2">  1       -2 0.22070577E+00 0.17370360E+04</pdfrwt>
<totfact> 0.33536064E+00</totfact>
</mgrwt>
</event>
<event>
12    5  0.5095719E-008  0.1741437E+04  0.7818608E-02  0.8738078E-01
         -2   -1    0    0    0  501 -0.00000000000E+00  0.00000000000E+00  0.83423115633E+03  0.83423115633E+03  0.00000000000E+00 0.  1.
          1   -1    0    0  501    0  0.00000000000E+00 -0.00000000000E+00 -0.90880143556E+03  0.90880143556E+03  0.00000000000E+00 0. -1.
        -24    2    1    2    0    0  0.32802868553E+03 -0.35327333593E+03  0.39044842664E+03  0.62552930892E+03  0.80200212271E+02 0.  0.
        254    2    1    2    0    0 -0.32802868553E+03  0.35327333593E+03 -0.46501870587E+03  0.11175032830E+04  0.89452016312E+03 0.  0.
         23    2    4    4    0    0 -0.49447470588E+03  0.22929189282E+03  0.50702551309E+02  0.55431289222E+03  0.87246930643E+02 0.  0.
         23    2    4    4    0    0  0.16644602035E+03  0.12398144311E+03 -0.51572125718E+03  0.56319039075E+03  0.90218208806E+02 0.  0.
          3    1    3    3  502    0  0.91595822980E+02 -0.10952688824E+03  0.71621427022E+02  0.15973591595E+03  0.00000000000E+00 0. -1.
         -4    1    3    3    0  502  0.23643286255E+03 -0.24374644768E+03  0.31882699962E+03  0.46579339297E+03  0.00000000000E+00 0.  1.
         13    1    5    5    0    0 -0.46573499150E+03  0.22190880196E+03  0.67368819872E+02  0.52027988294E+03  0.00000000000E+00 0.  1.
        -13    1    5    5    0    0 -0.28739714378E+02  0.73830908531E+01 -0.16666268564E+02  0.34033009283E+02  0.00000000000E+00 0. -1.
          2    1    6    6  503    0  0.21221594947E+02  0.28662817463E+02 -0.27648621795E+02  0.45126039979E+02  0.00000000000E+00 0. -1.
         -2    1    6    6    0  503  0.14522442540E+03  0.95318625647E+02 -0.48807263538E+03  0.51806435077E+03  0.00000000000E+00 0.  1.
<mgrwt>
<rscale>  0 0.17414367E+04</rscale>
<asrwt>0</asrwt>
<pdfrwt beam="1">  1        1 0.13981561E+00 0.17414367E+04</pdfrwt>
<pdfrwt beam="2">  1       -2 0.12834325E+00 0.17414367E+04</pdfrwt>
<totfact> 0.66717863E+00</totfact>
</mgrwt>
</event>
<event>
12    5  0.5095719E-008  0.3543741E+04  0.7818608E-02  0.8103501E-01
          1   -1    0    0  501    0  0.00000000000E+00  0.00000000000E+00  0.33084807000E+04  0.33084807000E+04  0.00000000000E+00 0. -1.
         -2   -1    0    0    0  501 -0.00000000000E+00 -0.00000000000E+00 -0.94893259321E+03  0.94893259321E+03  0.00000000000E+00 0.  1.
        -24    2    1    2    0    0  0.69064736770E+02  0.12916786596E+04 -0.13839192831E+03  0.13033590934E+04  0.79930614046E+02 0.  0.
        254    2    1    2    0    0 -0.69064736770E+02 -0.12916786596E+04  0.24979400351E+04  0.29540541998E+04  0.90195792538E+03 0.  0.
         23    2    4    4    0    0 -0.28273805674E+03 -0.85323798346E+03  0.87718289639E+03  0.12593241099E+04  0.92149415922E+02 0.  0.
         23    2    4    4    0    0  0.21367331996E+03 -0.43844067610E+03  0.16207571387E+04  0.16947300900E+04  0.85847894440E+02 0.  0.
          3    1    3    3  502    0  0.11307153251E+02  0.49517536025E+02  0.74390710783E+01  0.51333983551E+02  0.00000000000E+00 0. -1.
         -4    1    3    3    0  502  0.57757583519E+02  0.12421611235E+04 -0.14583099939E+03  0.12520251098E+04  0.00000000000E+00 0.  1.
         13    1    5    5    0    0 -0.19482852112E+03 -0.45435808921E+03  0.50587465500E+03  0.70732495533E+03  0.00000000000E+00 0. -1.
        -13    1    5    5    0    0 -0.87909535619E+02 -0.39887989425E+03  0.37130824139E+03  0.55199915454E+03  0.00000000000E+00 0.  1.
          2    1    6    6  503    0  0.18393432898E+03 -0.38836617490E+03  0.13136426619E+04  0.13821422381E+04  0.00000000000E+00 0. -1.
         -2    1    6    6    0  503  0.29738990986E+02 -0.50074501197E+02  0.30711447687E+03  0.31258785190E+03  0.00000000000E+00 0.  1.
<mgrwt>
<rscale>  0 0.35437411E+04</rscale>
<asrwt>0</asrwt>
<pdfrwt beam="1">  1        1 0.50899702E+00 0.35437411E+04</pdfrwt>
<pdfrwt beam="2">  1       -2 0.14598963E+00 0.35437411E+04</pdfrwt>
<totfact> 0.80987225E-02</totfact>
</mgrwt>
</event>
<event>
12    5  0.5095719E-008  0.2247783E+04  0.7818608E-02  0.8498799E-01
          1   -1    0    0  501    0  0.00000000000E+00  0.00000000000E+00  0.14764281513E+04  0.14764281513E+04  0.00000000000E+00 0. -1.
         -4   -1    0    0    0  501 -0.00000000000E+00 -0.00000000000E+00 -0.85553265907E+03  0.85553265907E+03  0.00000000000E+00 0.  1.
        -24    2    1    2    0    0  0.76537018737E+03 -0.48627236259E+03  0.53512087980E+03  0.10559359932E+04  0.79963312876E+02 0.  0.
        254    2    1    2    0    0 -0.76537018737E+03  0.48627236259E+03  0.85774612419E+02  0.12760248172E+04  0.89366085040E+03 0.  0.
         23    2    4    4    0    0 -0.54161256965E+03 -0.40481556459E+02 -0.25049978411E+03  0.60564307165E+03  0.95238943576E+02 0.  0.
         23    2    4    4    0    0 -0.22375761771E+03  0.52675391905E+03  0.33627439653E+03  0.67038174551E+03  0.93776608147E+02 0.  0.
          1    1    3    3  502    0  0.73546261008E+03 -0.44670134747E+03  0.51095174963E+03  0.10007592293E+04  0.00000000000E+00 0. -1.
         -2    1    3    3    0  502  0.29907577285E+02 -0.39571015121E+02  0.24169130172E+02  0.55176763860E+02  0.00000000000E+00 0.  1.
         13    1    5    5    0    0 -0.35884978837E+03 -0.49654915729E+02 -0.20816337377E+03  0.41781667206E+03  0.00000000000E+00 0. -1.
        -13    1    5    5    0    0 -0.18276278128E+03  0.91733592704E+01 -0.42336410346E+02  0.18782639959E+03  0.00000000000E+00 0.  1.
          3    1    6    6  503    0 -0.19994013354E+03  0.36355340470E+03  0.23483694044E+03  0.47675520308E+03  0.00000000000E+00 0. -1.
         -3    1    6    6    0  503 -0.23817484174E+02  0.16320051434E+03  0.10143745609E+03  0.19362654243E+03  0.00000000000E+00 0.  1.
<mgrwt>
<rscale>  0 0.22477834E+04</rscale>
<asrwt>0</asrwt>
<pdfrwt beam="1">  1        1 0.22714279E+00 0.22477834E+04</pdfrwt>
<pdfrwt beam="2">  1       -4 0.13162041E+00 0.22477834E+04</pdfrwt>
<totfact> 0.12620781E+00</totfact>
</mgrwt>
</event>
<event>
12    5  0.5095719E-008  0.3901428E+04  0.7818608E-02  0.8024732E-01
          1   -1    0    0  501    0  0.00000000000E+00  0.00000000000E+00  0.17566476608E+04  0.17566476608E+04  0.00000000000E+00 0. -1.
         -4   -1    0    0    0  501 -0.00000000000E+00 -0.00000000000E+00 -0.21662203488E+04  0.21662203488E+04  0.00000000000E+00 0.  1.
        -24    2    1    2    0    0  0.11557799977E+03 -0.96773001742E+03  0.13831417947E+04  0.16939389227E+04  0.80549295759E+02 0.  0.
        254    2    1    2    0    0 -0.11557799977E+03  0.96773001742E+03 -0.17927144827E+04  0.22289290869E+04  0.89690579052E+03 0.  0.
         23    2    4    4    0    0 -0.20579297327E+03  0.89869952659E+03 -0.79513178056E+03  0.12208850281E+04  0.91181777515E+02 0.  0.
         23    2    4    4    0    0  0.90214973497E+02  0.69030490829E+02 -0.99758270217E+03  0.10080440587E+04  0.89875617163E+02 0.  0.
          1    1    3    3  502    0  0.10999223479E+03 -0.60363702540E+03  0.85063154086E+03  0.10488326694E+04  0.00000000000E+00 0. -1.
         -2    1    3    3    0  502  0.55857649853E+01 -0.36409299202E+03  0.53251025386E+03  0.64510625332E+03  0.00000000000E+00 0.  1.
         13    1    5    5    0    0 -0.13857671365E+03  0.74514172818E+03 -0.62970742853E+03  0.98537868162E+03  0.00000000000E+00 0. -1.
        -13    1    5    5    0    0 -0.67216259620E+02  0.15355779841E+03 -0.16542435203E+03  0.23550634652E+03  0.00000000000E+00 0.  1.
          1    1    6    6  503    0  0.96453093395E+02  0.84305969715E+02 -0.90115804097E+03  0.91021783687E+03  0.00000000000E+00 0. -1.
         -1    1    6    6    0  503 -0.62381198982E+01 -0.15275478886E+02 -0.96424661194E+02  0.97826221850E+02  0.00000000000E+00 0.  1.
<mgrwt>
<rscale>  0 0.39014284E+04</rscale>
<asrwt>0</asrwt>
<pdfrwt beam="1">  1        1 0.27025349E+00 0.39014284E+04</pdfrwt>
<pdfrwt beam="2">  1       -4 0.33326467E+00 0.39014284E+04</pdfrwt>
<totfact> 0.31449965E-02</totfact>
</mgrwt>
</event>
<event>
12    5  0.5095719E-008  0.1118327E+04  0.7818608E-02  0.9187511E-01
          1   -1    0    0  501    0  0.00000000000E+00  0.00000000000E+00  0.24721754555E+03  0.24721754555E+03  0.00000000000E+00 0. -1.
         -2   -1    0    0    0  501 -0.00000000000E+00 -0.00000000000E+00 -0.12647305923E+04  0.12647305923E+04  0.00000000000E+00 0.  1.
        -24    2    1    2    0    0 -0.62812340004E+01  0.19010961341E+03 -0.16630353339E+03  0.26499767444E+03  0.79911095783E+02 0.  0.
        254    2    1    2    0    0  0.62812340004E+01 -0.19010961341E+03 -0.85120951341E+03  0.12469504635E+04  0.89114909167E+03 0.  0.
         23    2    4    4    0    0 -0.25887383967E+03  0.15410006638E+03 -0.34648682742E+02  0.31735455371E+03  0.93546171615E+02 0.  0.
         23    2    4    4    0    0  0.26515507367E+03 -0.34420967979E+03 -0.81656083067E+03  0.92959590974E+03  0.92679277489E+02 0.  0.
          1    1    3    3  502    0 -0.59863217431E+01  0.96924800667E+02 -0.33424824144E+02  0.10270088559E+03  0.00000000000E+00 0. -1.
         -2    1    3    3    0  502 -0.29491225733E+00  0.93184812742E+02 -0.13287870925E+03  0.16229678885E+03  0.00000000000E+00 0.  1.
         13    1    5    5    0    0 -0.25921344224E+03  0.12767753855E+03 -0.29746102455E+02  0.29047890302E+03  0.00000000000E+00 0.  1.
        -13    1    5    5    0    0  0.33960257200E+00  0.26422527827E+02 -0.49025802870E+01  0.26875650692E+02  0.00000000000E+00 0. -1.
          4    1    6    6  503    0  0.15463973149E+03 -0.18751543214E+03 -0.35960814036E+03  0.43404319884E+03  0.00000000000E+00 0. -1.
         -4    1    6    6    0  503  0.11051534217E+03 -0.15669424765E+03 -0.45695269031E+03  0.49555271090E+03  0.00000000000E+00 0.  1.
<mgrwt>
<rscale>  0 0.11183266E+04</rscale>
<asrwt>0</asrwt>
<pdfrwt beam="1">  1        1 0.38033469E-01 0.11183266E+04</pdfrwt>
<pdfrwt beam="2">  1       -2 0.19457393E+00 0.11183266E+04</pdfrwt>
<totfact> 0.14141558E+01</totfact>
</mgrwt>
</event>
<event>
12    5  0.5095719E-008  0.1687424E+04  0.7818608E-02  0.8768570E-01
         -2   -1    0    0    0  501 -0.00000000000E+00  0.00000000000E+00  0.10492320245E+04  0.10492320245E+04  0.00000000000E+00 0.  1.
          1   -1    0    0  501    0  0.00000000000E+00 -0.00000000000E+00 -0.67844822403E+03  0.67844822403E+03  0.00000000000E+00 0. -1.
        -24    2    1    2    0    0  0.56919701385E+03 -0.61295684357E+02  0.31462645641E+03  0.65796285738E+03  0.78631502141E+02 0.  0.
        254    2    1    2    0    0 -0.56919701385E+03  0.61295684357E+02  0.56157344075E+02  0.10697173912E+04  0.90188649406E+03 0.  0.
         23    2    4    4    0    0 -0.32094180688E+03  0.42588650142E+03 -0.16791410124E+03  0.56643033295E+03  0.90913261959E+02 0.  0.
         23    2    4    4    0    0 -0.24825520697E+03 -0.36459081706E+03  0.22407144531E+03  0.50328705821E+03  0.92372824402E+02 0.  0.
          1    1    3    3  502    0  0.11431103559E+03 -0.24909839924E+02  0.98933823453E+02  0.15321688681E+03  0.00000000000E+00 0. -1.
         -2    1    3    3    0  502  0.45488597827E+03 -0.36385844433E+02  0.21569263296E+03  0.50474597057E+03  0.00000000000E+00 0.  1.
         13    1    5    5    0    0 -0.27271825536E+03  0.37775133003E+03 -0.17551380800E+03  0.49787188206E+03  0.00000000000E+00 0.  1.
        -13    1    5    5    0    0 -0.48223551522E+02  0.48135171386E+02  0.75997067656E+01  0.68558450891E+02  0.00000000000E+00 0. -1.
          3    1    6    6  503    0 -0.72730873520E+02 -0.43580165216E+02  0.41483630804E+02  0.94392279282E+02  0.00000000000E+00 0. -1.
         -3    1    6    6    0  503 -0.17552433345E+03 -0.32101065184E+03  0.18258781451E+03  0.40889477893E+03  0.00000000000E+00 0.  1.
<mgrwt>
<rscale>  0 0.16874236E+04</rscale>
<asrwt>0</asrwt>
<pdfrwt beam="1">  1        1 0.10437665E+00 0.16874236E+04</pdfrwt>
<pdfrwt beam="2">  1       -2 0.16142031E+00 0.16874236E+04</pdfrwt>
<totfact> 0.58546985E+00</totfact>
</mgrwt>
</event>
<event>
12    5  0.5095719E-008  0.1403478E+04  0.7818608E-02  0.8951305E-01
          1   -1    0    0  501    0  0.00000000000E+00  0.00000000000E+00  0.21601944189E+04  0.21601944189E+04  0.00000000000E+00 0. -1.
         -2   -1    0    0    0  501 -0.00000000000E+00 -0.00000000000E+00 -0.22795976410E+03  0.22795976410E+03  0.00000000000E+00 0.  1.
        -24    2    1    2    0    0 -0.12153569505E+03  0.28767175770E+03  0.14225711066E+03  0.35255551048E+03  0.80822874769E+02 0.  0.
        254    2    1    2    0    0  0.12153569505E+03 -0.28767175770E+03  0.17899775442E+04  0.20355986725E+04  0.91766899353E+03 0.  0.
         23    2    4    4    0    0  0.18356832041E+03  0.24316956099E+03  0.11643425776E+04  0.12071418857E+04  0.93108166274E+02 0.  0.
         23    2    4    4    0    0 -0.62032625353E+02 -0.53084131870E+03  0.62563496660E+03  0.82845678684E+03  0.96337863724E+02 0.  0.
          1    1    3    3  502    0 -0.15038572381E+02  0.38096100052E+02  0.52839803633E+02  0.66854441486E+02  0.00000000000E+00 0. -1.
         -2    1    3    3    0  502 -0.10649712267E+03  0.24957565765E+03  0.89417307023E+02  0.28570106899E+03  0.00000000000E+00 0.  1.
         13    1    5    5    0    0  0.17439447453E+03  0.17127595660E+03  0.84271662713E+03  0.87745096712E+03  0.00000000000E+00 0.  1.
        -13    1    5    5    0    0  0.91738458754E+01  0.71893604390E+02  0.32162595044E+03  0.32969091859E+03  0.00000000000E+00 0. -1.
          1    1    6    6  503    0  0.78651599265E+01 -0.54623232466E+02  0.30530222246E+02  0.63068635122E+02  0.00000000000E+00 0. -1.
         -1    1    6    6    0  503 -0.69897785279E+02 -0.47621808623E+03  0.59510474435E+03  0.76538815172E+03  0.00000000000E+00 0.  1.
<mgrwt>
<rscale>  0 0.14034777E+04</rscale>
<asrwt>0</asrwt>
<pdfrwt beam="1">  1        1 0.33233759E+00 0.14034777E+04</pdfrwt>
<pdfrwt beam="2">  1       -2 0.35070734E-01 0.14034777E+04</pdfrwt>
<totfact> 0.15168839E+01</totfact>
</mgrwt>
</event>
<event>
12    5  0.5095719E-008  0.1952970E+04  0.7818608E-02  0.8628930E-01
          1   -1    0    0  501    0  0.00000000000E+00  0.00000000000E+00  0.71983826961E+03  0.71983826961E+03  0.00000000000E+00 0. -1.
         -2   -1    0    0    0  501 -0.00000000000E+00 -0.00000000000E+00 -0.13246348713E+04  0.13246348713E+04  0.00000000000E+00 0.  1.
        -24    2    1    2    0    0 -0.37837381172E+03  0.18654965456E+03 -0.91264772022E+03  0.10086237592E+04  0.80177998192E+02 0.  0.
        254    2    1    2    0    0  0.37837381172E+03 -0.18654965456E+03  0.30785111851E+03  0.10358493817E+04  0.89456364528E+03 0.  0.
         23    2    4    4    0    0 -0.66156095683E+02 -0.17559835587E+03 -0.24436461061E+03  0.32106973570E+03  0.90334382631E+02 0.  0.
         23    2    4    4    0    0  0.44452990741E+03 -0.10951298690E+02  0.55221572912E+03  0.71477964603E+03  0.90779740961E+02 0.  0.
          3    1    3    3  502    0 -0.30643512952E+02  0.24290940557E+02 -0.43230487814E+02  0.58291935599E+02  0.00000000000E+00 0. -1.
         -4    1    3    3    0  502 -0.34773029877E+03  0.16225871401E+03 -0.86941723240E+03  0.95033182360E+03  0.00000000000E+00 0.  1.
         13    1    5    5    0    0 -0.45327850523E+02 -0.68946130752E+02 -0.44929957962E+02  0.93951498664E+02  0.00000000000E+00 0. -1.
        -13    1    5    5    0    0 -0.20828245160E+02 -0.10665222512E+03 -0.19943465265E+03  0.22711823704E+03  0.00000000000E+00 0.  1.
          1    1    6    6  503    0  0.29716545294E+03  0.64344616630E+01  0.42897398724E+03  0.52188829308E+03  0.00000000000E+00 0.  1.
         -1    1    6    6    0  503  0.14736445447E+03 -0.17385760353E+02  0.12324174187E+03  0.19289135295E+03  0.00000000000E+00 0. -1.
<mgrwt>
<rscale>  0 0.19529699E+04</rscale>
<asrwt>0</asrwt>
<pdfrwt beam="1">  1        1 0.11074435E+00 0.19529699E+04</pdfrwt>
<pdfrwt beam="2">  1       -2 0.20378998E+00 0.19529699E+04</pdfrwt>
<totfact> 0.26735717E+00</totfact>
</mgrwt>
</event>
<event>
12    5  0.5095719E-008  0.1149384E+04  0.7818608E-02  0.9158352E-01
         -2   -1    0    0    0  501 -0.00000000000E+00  0.00000000000E+00  0.21684619158E+03  0.21684619158E+03  0.00000000000E+00 0.  1.
          1   -1    0    0  501    0  0.00000000000E+00 -0.00000000000E+00 -0.15230663133E+04  0.15230663133E+04  0.00000000000E+00 0. -1.
        -24    2    1    2    0    0 -0.32951266458E+02  0.20415441221E+03 -0.29672617242E+03  0.36973662792E+03  0.76772017322E+02 0.  0.
        254    2    1    2    0    0  0.32951266458E+02 -0.20415441221E+03 -0.10094939493E+04  0.13701758770E+04  0.90307202932E+03 0.  0.
         23    2    4    4    0    0 -0.10399062166E+03 -0.52349919928E+03 -0.44266005551E+03  0.69929083686E+03  0.90522310674E+02 0.  0.
         23    2    4    4    0    0  0.13694188812E+03  0.31934478708E+03 -0.56683389382E+03  0.67088504012E+03  0.89732380550E+02 0.  0.
          3    1    3    3  502    0 -0.31851356610E+02  0.21039855507E+03 -0.29376357755E+03  0.36273833598E+03  0.00000000000E+00 0. -1.
         -4    1    3    3    0  502 -0.10999098478E+01 -0.62441428640E+01 -0.29625948731E+01  0.69982919460E+01  0.00000000000E+00 0.  1.
         13    1    5    5    0    0 -0.83311007106E+02 -0.44419773381E+03 -0.32830786905E+03  0.55860398093E+03  0.00000000000E+00 0. -1.
        -13    1    5    5    0    0 -0.20679614558E+02 -0.79301465469E+02 -0.11435218646E+03  0.14068685593E+03  0.00000000000E+00 0.  1.
          4    1    6    6  503    0  0.97622410141E+01  0.77583694164E+02 -0.18992498376E+03  0.20539238157E+03  0.00000000000E+00 0. -1.
         -4    1    6    6    0  503  0.12717964711E+03  0.24176109291E+03 -0.37690891007E+03  0.46549265856E+03  0.00000000000E+00 0.  1.
<mgrwt>
<rscale>  0 0.11493844E+04</rscale>
<asrwt>0</asrwt>
<pdfrwt beam="1">  1        1 0.23431790E+00 0.11493844E+04</pdfrwt>
<pdfrwt beam="2">  1       -2 0.33360952E-01 0.11493844E+04</pdfrwt>
<totfact> 0.46129981E+01</totfact>
</mgrwt>
</event>
<event>
12    5  0.5095719E-008  0.2083242E+04  0.7818608E-02  0.8568661E-01
          1   -1    0    0  501    0  0.00000000000E+00  0.00000000000E+00  0.11831565859E+04  0.11831565859E+04  0.00000000000E+00 0. -1.
         -2   -1    0    0    0  501 -0.00000000000E+00 -0.00000000000E+00 -0.91701704196E+03  0.91701704196E+03  0.00000000000E+00 0.  1.
        -24    2    1    2    0    0 -0.32850705427E+01 -0.54238136116E+03 -0.54497964410E+03  0.77291489708E+03  0.78780029349E+02 0.  0.
        254    2    1    2    0    0  0.32850705427E+01  0.54238136116E+03  0.81111918805E+03  0.13272587308E+04  0.89972944188E+03 0.  0.
         23    2    4    4    0    0 -0.41325928135E+03  0.10200505693E+03  0.29850083319E+03  0.52780940891E+03  0.91059098722E+02 0.  0.
         23    2    4    4    0    0  0.41654435189E+03  0.44037630423E+03  0.51261835486E+03  0.79944932187E+03  0.94345927708E+02 0.  0.
          3    1    3    3  502    0 -0.22872958165E+02 -0.10462231374E+03 -0.13976064903E+03  0.17607396106E+03  0.00000000000E+00 0. -1.
         -4    1    3    3    0  502  0.19587887622E+02 -0.43775904742E+03 -0.40521899507E+03  0.59684093602E+03  0.00000000000E+00 0.  1.
         13    1    5    5    0    0 -0.49007124027E+02 -0.16973807542E+02  0.30045972957E+02  0.59938041666E+02  0.00000000000E+00 0. -1.
        -13    1    5    5    0    0 -0.36425215733E+03  0.11897886448E+03  0.26845486023E+03  0.46787136725E+03  0.00000000000E+00 0.  1.
          3    1    6    6  503    0  0.42402139466E+02  0.71174152433E+02  0.37619400975E+02  0.90988574753E+02  0.00000000000E+00 0. -1.
         -3    1    6    6    0  503  0.37414221243E+03  0.36920215179E+03  0.47499895389E+03  0.70846074712E+03  0.00000000000E+00 0.  1.
<mgrwt>
<rscale>  0 0.20832424E+04</rscale>
<asrwt>0</asrwt>
<pdfrwt beam="1">  1        1 0.18202409E+00 0.20832424E+04</pdfrwt>
<pdfrwt beam="2">  1       -2 0.14107954E+00 0.20832424E+04</pdfrwt>
<totfact> 0.31269630E+00</totfact>
</mgrwt>
</event>
<event>
12    5  0.5095719E-008  0.2041171E+04  0.7818608E-02  0.8587610E-01
          1   -1    0    0  501    0  0.00000000000E+00  0.00000000000E+00  0.10758219703E+04  0.10758219703E+04  0.00000000000E+00 0. -1.
         -2   -1    0    0    0  501 -0.00000000000E+00 -0.00000000000E+00 -0.96818543160E+03  0.96818543160E+03  0.00000000000E+00 0.  1.
        -24    2    1    2    0    0  0.55808469319E+03  0.53181268436E+03 -0.22486852526E+03  0.80696104015E+03  0.79605343161E+02 0.  0.
        254    2    1    2    0    0 -0.55808469319E+03 -0.53181268436E+03  0.33250506391E+03  0.12370463617E+04  0.90853774135E+03 0.  0.
         23    2    4    4    0    0 -0.19966869909E+03  0.22888416084E+03 -0.27580960053E+02  0.31801289211E+03  0.90088521501E+02 0.  0.
         23    2    4    4    0    0 -0.35841599410E+03 -0.76069684520E+03  0.36008602396E+03  0.91903346960E+03  0.88537328078E+02 0.  0.
          1    1    3    3  502    0  0.35916781451E+03  0.38246570569E+03 -0.17646587409E+03  0.55355373698E+03  0.00000000000E+00 0. -1.
         -2    1    3    3    0  502  0.19891687868E+03  0.14934697867E+03 -0.48402651167E+02  0.25340730317E+03  0.00000000000E+00 0.  1.
         13    1    5    5    0    0 -0.57901071567E+02  0.13228198607E+03 -0.92127790339E+00  0.14440189292E+03  0.00000000000E+00 0. -1.
        -13    1    5    5    0    0 -0.14176762753E+03  0.96602174778E+02 -0.26659682150E+02  0.17361099919E+03  0.00000000000E+00 0.  1.
          3    1    6    6  503    0 -0.33786956365E+03 -0.67556889134E+03  0.29955684312E+03  0.81257828623E+03  0.00000000000E+00 0. -1.
         -3    1    6    6    0  503 -0.20546430443E+02 -0.85127953861E+02  0.60529180843E+02  0.10645518337E+03  0.00000000000E+00 0.  1.
<mgrwt>
<rscale>  0 0.20411714E+04</rscale>
<asrwt>0</asrwt>
<pdfrwt beam="1">  1        1 0.16551107E+00 0.20411714E+04</pdfrwt>
<pdfrwt beam="2">  1       -2 0.14895160E+00 0.20411714E+04</pdfrwt>
<totfact> 0.32718527E+00</totfact>
</mgrwt>
</event>
<event>
12    5  0.5095719E-008  0.2736422E+04  0.7818608E-02  0.8323283E-01
         -4   -1    0    0    0  501 -0.00000000000E+00  0.00000000000E+00  0.19366035965E+04  0.19366035965E+04  0.00000000000E+00 0.  1.
          1   -1    0    0  501    0  0.00000000000E+00 -0.00000000000E+00 -0.96664159019E+03  0.96664159019E+03  0.00000000000E+00 0. -1.
        -24    2    1    2    0    0 -0.46430462423E+03  0.55633489912E+03 -0.60518542310E+03  0.94753917242E+03  0.80584011345E+02 0.  0.
        254    2    1    2    0    0  0.46430462423E+03 -0.55633489912E+03  0.15751474294E+04  0.19557060143E+04  0.90477029452E+03 0.  0.
         23    2    4    4    0    0  0.64853795645E+03 -0.62951944538E+03  0.10611743150E+04  0.13967256837E+04  0.88631234061E+02 0.  0.
         23    2    4    4    0    0 -0.18423333222E+03  0.73184546267E+02  0.51397311443E+03  0.55898033058E+03  0.94830106524E+02 0.  0.
          1    1    3    3  502    0 -0.26523082672E+03  0.36764069594E+03 -0.40595162954E+03  0.60852592244E+03  0.00000000000E+00 0. -1.
         -2    1    3    3    0  502 -0.19907379751E+03  0.18869420317E+03 -0.19923379356E+03  0.33901324998E+03  0.00000000000E+00 0.  1.
         13    1    5    5    0    0  0.68227843521E+02 -0.60564840091E+02  0.70128815584E+02  0.11507036657E+03  0.00000000000E+00 0.  1.
        -13    1    5    5    0    0  0.58031011293E+03 -0.56895460529E+03  0.99104549940E+03  0.12816553171E+04  0.00000000000E+00 0. -1.
          3    1    6    6  503    0 -0.16204025021E+02  0.34581527391E+02  0.16977803930E+03  0.17402021460E+03  0.00000000000E+00 0.  1.
         -3    1    6    6    0  503 -0.16802930720E+03  0.38603018877E+02  0.34419507514E+03  0.38496011598E+03  0.00000000000E+00 0. -1.
<mgrwt>
<rscale>  0 0.27364222E+04</rscale>
<asrwt>0</asrwt>
<pdfrwt beam="1">  1        1 0.14871409E+00 0.27364222E+04</pdfrwt>
<pdfrwt beam="2">  1       -4 0.29793901E+00 0.27364222E+04</pdfrwt>
<totfact> 0.21357769E-01</totfact>
</mgrwt>
</event>
<event>
12    5  0.5095719E-008  0.1224759E+04  0.7818608E-02  0.9091457E-01
          1   -1    0    0  501    0  0.00000000000E+00  0.00000000000E+00  0.28619156173E+04  0.28619156173E+04  0.00000000000E+00 0. -1.
         -2   -1    0    0    0  501 -0.00000000000E+00 -0.00000000000E+00 -0.13103410417E+03  0.13103410417E+03  0.00000000000E+00 0.  1.
        -24    2    1    2    0    0 -0.12480969543E+03  0.24554310099E+02  0.48698230826E+02  0.16257732604E+03  0.88766519812E+02 0.  0.
        254    2    1    2    0    0  0.12480969543E+03 -0.24554310099E+02  0.26821832823E+04  0.28303723954E+04  0.89482979535E+03 0.  0.
         23    2    4    4    0    0 -0.26692280404E+03  0.25158881790E+03  0.77849295296E+03  0.86516131532E+03  0.88927538556E+02 0.  0.
         23    2    4    4    0    0  0.39173249947E+03 -0.27614312800E+03  0.19036903293E+04  0.19652110801E+04  0.91150101506E+02 0.  0.
          3    1    3    3  502    0  0.12873191240E+02  0.62279737234E+01  0.12615606965E+02  0.19069878041E+02  0.00000000000E+00 0. -1.
         -2    1    3    3    0  502 -0.13768288667E+03  0.18326336376E+02  0.36082623861E+02  0.14350744800E+03  0.00000000000E+00 0.  1.
         13    1    5    5    0    0 -0.12777732615E+03  0.16570834516E+03  0.36854365096E+03  0.42380505353E+03  0.00000000000E+00 0.  1.
        -13    1    5    5    0    0 -0.13914547788E+03  0.85880472744E+02  0.40994930199E+03  0.44135626179E+03  0.00000000000E+00 0. -1.
          4    1    6    6  503    0  0.15831782646E+03 -0.59376985226E+02  0.63100871909E+03  0.65327036066E+03  0.00000000000E+00 0. -1.
         -4    1    6    6    0  503  0.23341467301E+03 -0.21676614277E+03  0.12726816102E+04  0.13119407194E+04  0.00000000000E+00 0.  1.
<mgrwt>
<rscale>  0 0.12247588E+04</rscale>
<asrwt>0</asrwt>
<pdfrwt beam="1">  1        1 0.44029466E+00 0.12247588E+04</pdfrwt>
<pdfrwt beam="2">  1       -2 0.20159095E-01 0.12247588E+04</pdfrwt>
<totfact> 0.13901818E+01</totfact>
</mgrwt>
</event>
<event>
12    5  0.5095719E-008  0.1626803E+04  0.7818608E-02  0.8804249E-01
         -2   -1    0    0    0  501 -0.00000000000E+00  0.00000000000E+00  0.10890765276E+04  0.10890765276E+04  0.00000000000E+00 0.  1.
          1   -1    0    0  501    0  0.00000000000E+00 -0.00000000000E+00 -0.60750734659E+03  0.60750734659E+03  0.00000000000E+00 0. -1.
        -24    2    1    2    0    0 -0.20640126861E+03  0.10898345948E+03 -0.36214230289E+03  0.43823754369E+03  0.80163701445E+02 0.  0.
        254    2    1    2    0    0  0.20640126861E+03 -0.10898345948E+03  0.84371148393E+03  0.12583463305E+04  0.90394000979E+03 0.  0.
         23    2    4    4    0    0  0.52351640784E+03 -0.23112546527E+03  0.56963014696E+03  0.81245697627E+03  0.90107846409E+02 0.  0.
         23    2    4    4    0    0 -0.31711513922E+03  0.12214200580E+03  0.27408133697E+03  0.44588935426E+03  0.90642461680E+02 0.  0.
          1    1    3    3  502    0 -0.19968692479E+03  0.76854605670E+02 -0.31428279710E+03  0.38020412267E+03  0.00000000000E+00 0. -1.
         -2    1    3    3    0  502 -0.67143438206E+01  0.32128853807E+02 -0.47859505796E+02  0.58033421017E+02  0.00000000000E+00 0.  1.
         13    1    5    5    0    0  0.34667489194E+03 -0.19195853341E+03  0.35957484682E+03  0.53509403820E+03  0.00000000000E+00 0. -1.
        -13    1    5    5    0    0  0.17684151589E+03 -0.39166931866E+02  0.21005530014E+03  0.27736293806E+03  0.00000000000E+00 0.  1.
          4    1    6    6  503    0 -0.19488741933E+03  0.11833338202E+03  0.19714431808E+03  0.30141296864E+03  0.00000000000E+00 0. -1.
         -4    1    6    6    0  503 -0.12222771989E+03  0.38086237767E+01  0.76937018898E+02  0.14447638562E+03  0.00000000000E+00 0.  1.
<mgrwt>
<rscale>  0 0.16268030E+04</rscale>
<asrwt>0</asrwt>
<pdfrwt beam="1">  1        1 0.93462669E-01 0.16268030E+04</pdfrwt>
<pdfrwt beam="2">  1       -2 0.16755023E+00 0.16268030E+04</pdfrwt>
<totfact> 0.62496163E+00</totfact>
</mgrwt>
</event>
<event>
12    5  0.5095719E-008  0.1351635E+04  0.7818608E-02  0.8989591E-01
          1   -1    0    0  501    0  0.00000000000E+00  0.00000000000E+00  0.20231440520E+04  0.20231440520E+04  0.00000000000E+00 0. -1.
         -2   -1    0    0    0  501 -0.00000000000E+00 -0.00000000000E+00 -0.22575230018E+03  0.22575230018E+03  0.00000000000E+00 0.  1.
        -24    2    1    2    0    0 -0.66486014849E+02  0.34558043322E+03  0.31859809192E+03  0.47996170202E+03  0.70797353342E+02 0.  0.
        254    2    1    2    0    0  0.66486014849E+02 -0.34558043322E+03  0.14787936599E+04  0.17689346501E+04  0.90468385745E+03 0.  0.
         23    2    4    4    0    0  0.32576451353E+03  0.16575580390E+03  0.73065125193E+03  0.82197095604E+03  0.90484782341E+02 0.  0.
         23    2    4    4    0    0 -0.25927849868E+03 -0.51133623711E+03  0.74814240796E+03  0.94696369409E+03  0.91285749584E+02 0.  0.
          1    1    3    3  502    0 -0.14808331145E+01 -0.13147766305E+01  0.12875018984E+02  0.13026420005E+02  0.00000000000E+00 0. -1.
         -2    1    3    3    0  502 -0.65005181735E+02  0.34689520985E+03  0.30572307293E+03  0.46693528202E+03  0.00000000000E+00 0.  1.
         13    1    5    5    0    0  0.27559839330E+03  0.15137450256E+03  0.54579620534E+03  0.62989063509E+03  0.00000000000E+00 0. -1.
        -13    1    5    5    0    0  0.50166120225E+02  0.14381301336E+02  0.18485504659E+03  0.19208032095E+03  0.00000000000E+00 0.  1.
          2    1    6    6  503    0 -0.15602296653E+03 -0.27737684705E+03  0.48445486854E+03  0.57963574856E+03  0.00000000000E+00 0. -1.
         -2    1    6    6    0  503 -0.10325553215E+03 -0.23395939007E+03  0.26368753943E+03  0.36732794553E+03  0.00000000000E+00 0.  1.
<mgrwt>
<rscale>  0 0.13516352E+04</rscale>
<asrwt>0</asrwt>
<pdfrwt beam="1">  1        1 0.31125292E+00 0.13516352E+04</pdfrwt>
<pdfrwt beam="2">  1       -2 0.34731124E-01 0.13516352E+04</pdfrwt>
<totfact> 0.19221489E+01</totfact>
</mgrwt>
</event>
<event>
12    5  0.5095719E-008  0.1456618E+04  0.7818608E-02  0.8913826E-01
         -2   -1    0    0    0  501 -0.00000000000E+00  0.00000000000E+00  0.58279521749E+03  0.58279521749E+03  0.00000000000E+00 0.  1.
          1   -1    0    0  501    0  0.00000000000E+00 -0.00000000000E+00 -0.91015446271E+03  0.91015446271E+03  0.00000000000E+00 0. -1.
        -24    2    1    2    0    0 -0.39356475437E+03 -0.57173286554E+02 -0.29595191593E+03  0.50200655527E+03  0.79126761652E+02 0.  0.
        254    2    1    2    0    0  0.39356475437E+03  0.57173286554E+02 -0.31407329288E+02  0.99094312493E+03  0.90709418251E+03 0.  0.
         23    2    4    4    0    0 -0.17832862888E+03 -0.22755982822E+03  0.12649080056E+03  0.32652169663E+03  0.83856546831E+02 0.  0.
         23    2    4    4    0    0  0.57189338325E+03  0.28473311477E+03 -0.15789812985E+03  0.66442142830E+03  0.91591629116E+02 0.  0.
          1    1    3    3  502    0 -0.18461975603E+03  0.13000189000E+02 -0.13481970434E+03  0.22897557056E+03  0.00000000000E+00 0. -1.
         -2    1    3    3    0  502 -0.20894499834E+03 -0.70173475554E+02 -0.16113221159E+03  0.27303098471E+03  0.00000000000E+00 0.  1.
         13    1    5    5    0    0 -0.33705515619E+02 -0.71603856822E+02  0.71925758403E+02  0.10694152055E+03  0.00000000000E+00 0.  1.
        -13    1    5    5    0    0 -0.14462311326E+03 -0.15595597140E+03  0.54565042162E+02  0.21958017608E+03  0.00000000000E+00 0. -1.
          3    1    6    6  503    0  0.33113690301E+03  0.17309977316E+03 -0.46209152906E+02  0.37649763055E+03  0.00000000000E+00 0. -1.
         -3    1    6    6    0  503  0.24075648024E+03  0.11163334162E+03 -0.11168897695E+03  0.28792379775E+03  0.00000000000E+00 0.  1.
<mgrwt>
<rscale>  0 0.14566175E+04</rscale>
<asrwt>0</asrwt>
<pdfrwt beam="1">  1        1 0.14002376E+00 0.14566175E+04</pdfrwt>
<pdfrwt beam="2">  1       -2 0.89660803E-01 0.14566175E+04</pdfrwt>
<totfact> 0.16191552E+01</totfact>
</mgrwt>
</event>
<event>
12    5  0.5095719E-008  0.1230802E+04  0.7818608E-02  0.9086315E-01
         -2   -1    0    0    0  501 -0.00000000000E+00  0.00000000000E+00  0.37558746007E+03  0.37558746007E+03  0.00000000000E+00 0.  1.
          1   -1    0    0  501    0  0.00000000000E+00 -0.00000000000E+00 -0.10083357723E+04  0.10083357723E+04  0.00000000000E+00 0. -1.
        -24    2    1    2    0    0  0.33299534981E+02  0.21745259843E+03  0.48464916796E+02  0.23765993815E+03  0.75755570402E+02 0.  0.
        254    2    1    2    0    0 -0.33299534981E+02 -0.21745259843E+03 -0.68121322906E+03  0.11462632943E+04  0.89525057092E+03 0.  0.
         23    2    4    4    0    0  0.19800937018E+02 -0.52493435538E+02 -0.86841751437E+03  0.87512390697E+03  0.92440442445E+02 0.  0.
         23    2    4    4    0    0 -0.53100471999E+02 -0.16495916289E+03  0.18720428532E+03  0.27113938729E+03  0.91869131673E+02 0.  0.
          1    1    3    3  502    0  0.45463915497E+02  0.12703662005E+03  0.56069023261E+02  0.14611298989E+03  0.00000000000E+00 0. -1.
         -2    1    3    3    0  502 -0.12164380517E+02  0.90415978381E+02 -0.76041064644E+01  0.91546948256E+02  0.00000000000E+00 0.  1.
         13    1    5    5    0    0 -0.13445139844E+02  0.10816763321E+02 -0.47154409893E+03  0.47185973699E+03  0.00000000000E+00 0. -1.
        -13    1    5    5    0    0  0.33246076862E+02 -0.63310198859E+02 -0.39687341544E+03  0.40326416998E+03  0.00000000000E+00 0.  1.
          2    1    6    6  503    0  0.12875332334E+02 -0.39687106369E+01 -0.25316398280E+01  0.13708903933E+02  0.00000000000E+00 0. -1.
         -2    1    6    6    0  503 -0.65975804332E+02 -0.16099045225E+03  0.18973592514E+03  0.25743048336E+03  0.00000000000E+00 0.  1.
<mgrwt>
<rscale>  0 0.12308018E+04</rscale>
<asrwt>0</asrwt>
<pdfrwt beam="1">  1        1 0.15512858E+00 0.12308018E+04</pdfrwt>
<pdfrwt beam="2">  1       -2 0.57782687E-01 0.12308018E+04</pdfrwt>
<totfact> 0.36186275E+01</totfact>
</mgrwt>
</event>
<event>
12    5  0.5095719E-008  0.2328547E+04  0.7818608E-02  0.8466750E-01
         -2   -1    0    0    0  501 -0.00000000000E+00  0.00000000000E+00  0.92885825189E+03  0.92885825189E+03  0.00000000000E+00 0.  1.
          1   -1    0    0  501    0  0.00000000000E+00 -0.00000000000E+00 -0.14593532355E+04  0.14593532355E+04  0.00000000000E+00 0. -1.
        -24    2    1    2    0    0  0.11941943497E+03 -0.51765377567E+03  0.62856629306E+03  0.82654068456E+03  0.76468853535E+02 0.  0.
        254    2    1    2    0    0 -0.11941943497E+03  0.51765377567E+03 -0.11590612766E+04  0.15616708028E+04  0.90175729574E+03 0.  0.
         23    2    4    4    0    0  0.15295978111E+03  0.10252921509E+03 -0.10136857589E+04  0.10343521429E+04  0.91742046094E+02 0.  0.
         23    2    4    4    0    0 -0.27237921608E+03  0.41512456057E+03 -0.14537551769E+03  0.52731865992E+03  0.10203964824E+03 0.  0.
          3    1    3    3  502    0  0.28920277576E+02 -0.94166864311E+02  0.75535404413E+02  0.12413451619E+03  0.00000000000E+00 0. -1.
         -4    1    3    3    0  502  0.90499157390E+02 -0.42348691136E+03  0.55303088865E+03  0.70240616838E+03  0.00000000000E+00 0.  1.
         13    1    5    5    0    0  0.22902107314E+02  0.17008480726E+02 -0.45283627962E+02  0.53520107413E+02  0.00000000000E+00 0.  1.
        -13    1    5    5    0    0  0.13005767380E+03  0.85520734368E+02 -0.96840213099E+03  0.98083203548E+03  0.00000000000E+00 0. -1.
          3    1    6    6  503    0 -0.25150889995E+03  0.41533385418E+03 -0.13476628165E+03  0.50390563388E+03  0.00000000000E+00 0. -1.
         -3    1    6    6    0  503 -0.20870316127E+02 -0.20929360695E+00 -0.10609236044E+02  0.23413026043E+02  0.00000000000E+00 0.  1.
<mgrwt>
<rscale>  0 0.23285466E+04</rscale>
<asrwt>0</asrwt>
<pdfrwt beam="1">  1        1 0.22451588E+00 0.23285466E+04</pdfrwt>
<pdfrwt beam="2">  1       -2 0.14290127E+00 0.23285466E+04</pdfrwt>
<totfact> 0.18815702E+00</totfact>
</mgrwt>
</event>
<event>
12    5  0.5095719E-008  0.1177066E+04  0.7818608E-02  0.9133171E-01
          1   -1    0    0  501    0  0.00000000000E+00  0.00000000000E+00  0.23283672423E+04  0.23283672423E+04  0.00000000000E+00 0. -1.
         -2   -1    0    0    0  501 -0.00000000000E+00 -0.00000000000E+00 -0.14876142182E+03  0.14876142182E+03  0.00000000000E+00 0.  1.
        -24    2    1    2    0    0 -0.27016426778E+02 -0.18913019276E+03  0.17017153303E+03  0.26794389988E+03  0.79595638683E+02 0.  0.
        254    2    1    2    0    0  0.27016426778E+02  0.18913019276E+03  0.20094342874E+04  0.22091847642E+04  0.89787028563E+03 0.  0.
         23    2    4    4    0    0 -0.31853281652E+03 -0.12383039581E+03  0.13534006825E+04  0.13989880581E+04  0.93150722992E+02 0.  0.
         23    2    4    4    0    0  0.34554924330E+03  0.31296058857E+03  0.65603360490E+03  0.81019670608E+03  0.93220181542E+02 0.  0.
          1    1    3    3  502    0  0.23336639146E+02 -0.20879063797E+02  0.24135735248E+02  0.39535651602E+02  0.00000000000E+00 0. -1.
         -2    1    3    3    0  502 -0.50353065924E+02 -0.16825112897E+03  0.14603579778E+03  0.22840824827E+03  0.00000000000E+00 0.  1.
         13    1    5    5    0    0 -0.18871558078E+03 -0.49111764399E+02  0.60170257953E+03  0.63251207897E+03  0.00000000000E+00 0. -1.
        -13    1    5    5    0    0 -0.12981723574E+03 -0.74718631410E+02  0.75169810301E+03  0.76647597917E+03  0.00000000000E+00 0.  1.
          2    1    6    6  503    0  0.22130540395E+03  0.25703549993E+03  0.46961525555E+03  0.57929424155E+03  0.00000000000E+00 0.  1.
         -2    1    6    6    0  503  0.12424383935E+03  0.55925088643E+02  0.18641834935E+03  0.23090246454E+03  0.00000000000E+00 0. -1.
<mgrwt>
<rscale>  0 0.11770662E+04</rscale>
<asrwt>0</asrwt>
<pdfrwt beam="1">  1        1 0.35821032E+00 0.11770662E+04</pdfrwt>
<pdfrwt beam="2">  1       -2 0.22886374E-01 0.11770662E+04</pdfrwt>
<totfact> 0.26186992E+01</totfact>
</mgrwt>
</event>
<event>
12    5  0.5095719E-008  0.2699410E+04  0.7818608E-02  0.8335197E-01
         -2   -1    0    0    0  501 -0.00000000000E+00  0.00000000000E+00  0.10817642085E+04  0.10817642085E+04  0.00000000000E+00 0.  1.
          1   -1    0    0  501    0  0.00000000000E+00 -0.00000000000E+00 -0.16840112308E+04  0.16840112308E+04  0.00000000000E+00 0. -1.
        -24    2    1    2    0    0 -0.25221352090E+03  0.10944616074E+04 -0.68620515468E+03  0.13186225574E+04  0.80187682134E+02 0.  0.
        254    2    1    2    0    0  0.25221352090E+03 -0.10944616074E+04  0.83958132353E+02  0.14471528819E+04  0.90870491658E+03 0.  0.
         23    2    4    4    0    0 -0.28982620127E+03 -0.14436579625E+03  0.90190348653E+02  0.34952099079E+03  0.95864038833E+02 0.  0.
         23    2    4    4    0    0  0.54203972217E+03 -0.95009581114E+03 -0.62322162994E+01  0.10976318911E+04  0.90927537587E+02 0.  0.
          3    1    3    3  502    0 -0.17709928666E+03  0.59863592496E+03 -0.39402510390E+03  0.73823093304E+03  0.00000000000E+00 0. -1.
         -4    1    3    3    0  502 -0.75114234235E+02  0.49582568243E+03 -0.29218005078E+03  0.58039162435E+03  0.00000000000E+00 0.  1.
         13    1    5    5    0    0 -0.26093688974E+03 -0.15715588479E+03  0.71768227545E+02  0.31294841594E+03  0.00000000000E+00 0.  1.
        -13    1    5    5    0    0 -0.28889311529E+02  0.12790088535E+02  0.18422121107E+02  0.36572574854E+02  0.00000000000E+00 0. -1.
          3    1    6    6  503    0  0.53676998794E+03 -0.91051559133E+03  0.15070902456E+01  0.10569592865E+04  0.00000000000E+00 0.  1.
         -3    1    6    6    0  503  0.52697342304E+01 -0.39580219808E+02 -0.77393065449E+01  0.40672604597E+02  0.00000000000E+00 0. -1.
<mgrwt>
<rscale>  0 0.26994096E+04</rscale>
<asrwt>0</asrwt>
<pdfrwt beam="1">  1        1 0.25907865E+00 0.26994096E+04</pdfrwt>
<pdfrwt beam="2">  1       -2 0.16642526E+00 0.26994096E+04</pdfrwt>
<totfact> 0.84767390E-01</totfact>
</mgrwt>
</event>
<event>
12    5  0.5095719E-008  0.2788099E+04  0.7818608E-02  0.8306973E-01
         -2   -1    0    0    0  501 -0.00000000000E+00  0.00000000000E+00  0.11653161968E+04  0.11653161968E+04  0.00000000000E+00 0.  1.
          1   -1    0    0  501    0  0.00000000000E+00 -0.00000000000E+00 -0.16676793420E+04  0.16676793420E+04  0.00000000000E+00 0. -1.
        -24    2    1    2    0    0 -0.64475772545E+03 -0.19509806823E+03 -0.12920726297E+04  0.14593992034E+04  0.81354617584E+02 0.  0.
        254    2    1    2    0    0  0.64475772545E+03  0.19509806823E+03  0.78970948449E+03  0.13735963355E+04  0.89963883982E+03 0.  0.
         23    2    4    4    0    0  0.74076550214E+03  0.42212960625E+03  0.55802811356E+03  0.10229844988E+04  0.90415572108E+02 0.  0.
         23    2    4    4    0    0 -0.96007776694E+02 -0.22703153802E+03  0.23168137092E+03  0.35061183662E+03  0.92149823138E+02 0.  0.
          1    1    3    3  502    0 -0.48843778859E+03 -0.13501473766E+03 -0.10380572307E+04  0.11551464266E+04  0.00000000000E+00 0. -1.
         -2    1    3    3    0  502 -0.15631993686E+03 -0.60083330573E+02 -0.25401539898E+03  0.30425277680E+03  0.00000000000E+00 0.  1.
         13    1    5    5    0    0  0.50166925212E+02  0.52310155598E+01  0.27019899447E+02  0.57220266297E+02  0.00000000000E+00 0. -1.
        -13    1    5    5    0    0  0.69059857693E+03  0.41689859069E+03  0.53100821412E+03  0.96576423253E+03  0.00000000000E+00 0.  1.
          2    1    6    6  503    0  0.41682698190E+01  0.66698189162E+01  0.23674224737E+01  0.82137474291E+01  0.00000000000E+00 0. -1.
         -2    1    6    6    0  503 -0.10017604651E+03 -0.23370135694E+03  0.22931394845E+03  0.34239808919E+03  0.00000000000E+00 0.  1.
<mgrwt>
<rscale>  0 0.27880988E+04</rscale>
<asrwt>0</asrwt>
<pdfrwt beam="1">  1        1 0.25656605E+00 0.27880988E+04</pdfrwt>
<pdfrwt beam="2">  1       -2 0.17927942E+00 0.27880988E+04</pdfrwt>
<totfact> 0.70030942E-01</totfact>
</mgrwt>
</event>
<event>
12    5  0.5095719E-008  0.2112606E+04  0.7818608E-02  0.8555711E-01
          1   -1    0    0  501    0  0.00000000000E+00  0.00000000000E+00  0.77095503951E+03  0.77095503951E+03  0.00000000000E+00 0. -1.
         -2   -1    0    0    0  501 -0.00000000000E+00 -0.00000000000E+00 -0.14472646384E+04  0.14472646384E+04  0.00000000000E+00 0.  1.
        -24    2    1    2    0    0 -0.72514439929E+03  0.23687338238E+03  0.14787705747E+03  0.78112247981E+03  0.79632312726E+02 0.  0.
        254    2    1    2    0    0  0.72514439929E+03 -0.23687338238E+03 -0.82418665639E+03  0.14370971981E+04  0.89667235553E+03 0.  0.
         23    2    4    4    0    0 -0.16702175734E+02 -0.29131564473E+03  0.22535018786E+02  0.30663272045E+03  0.91498801288E+02 0.  0.
         23    2    4    4    0    0  0.74184657503E+03  0.54442262352E+02 -0.84672167517E+03  0.11304644777E+04  0.87818217133E+02 0.  0.
          3    1    3    3  502    0 -0.37903451852E+03  0.93483643948E+02  0.10340726214E+03  0.40385569178E+03  0.00000000000E+00 0. -1.
         -4    1    3    3    0  502 -0.34610988077E+03  0.14338973843E+03  0.44469795328E+02  0.37726678803E+03  0.00000000000E+00 0.  1.
         13    1    5    5    0    0  0.35316786327E+02 -0.79459731432E+02 -0.29204691851E+01  0.87003755413E+02  0.00000000000E+00 0. -1.
        -13    1    5    5    0    0 -0.52018962060E+02 -0.21185591330E+03  0.25455487971E+02  0.21962896504E+03  0.00000000000E+00 0.  1.
          1    1    6    6  503    0  0.66420915129E+01  0.97709203524E+01 -0.81965490375E+01  0.14379557723E+02  0.00000000000E+00 0. -1.
         -1    1    6    6    0  503  0.73520448352E+03  0.44671342000E+02 -0.83852512614E+03  0.11160849199E+04  0.00000000000E+00 0.  1.
<mgrwt>
<rscale>  0 0.21126059E+04</rscale>
<asrwt>0</asrwt>
<pdfrwt beam="1">  1        1 0.11860847E+00 0.21126059E+04</pdfrwt>
<pdfrwt beam="2">  1       -2 0.22265610E+00 0.21126059E+04</pdfrwt>
<totfact> 0.17944722E+00</totfact>
</mgrwt>
</event>
<event>
12    5  0.5095719E-008  0.1807267E+04  0.7818608E-02  0.8702445E-01
          1   -1    0    0  501    0  0.00000000000E+00  0.00000000000E+00  0.59663246432E+03  0.59663246432E+03  0.00000000000E+00 0. -1.
         -2   -1    0    0    0  501 -0.00000000000E+00 -0.00000000000E+00 -0.13686037682E+04  0.13686037682E+04  0.00000000000E+00 0.  1.
        -24    2    1    2    0    0  0.35539879788E+03 -0.28284565888E+03  0.25387654012E+03  0.52654484081E+03  0.80536944797E+02 0.  0.
        254    2    1    2    0    0 -0.35539879788E+03  0.28284565888E+03 -0.10258478440E+04  0.14386913917E+04  0.90064374158E+03 0.  0.
         23    2    4    4    0    0 -0.39664644493E+03 -0.22403288893E+03 -0.65165983090E+03  0.80040470384E+03  0.92021829612E+02 0.  0.
         23    2    4    4    0    0  0.41247647052E+02  0.50687854781E+03 -0.37418801309E+03  0.63828668786E+03  0.93626898560E+02 0.  0.
          3    1    3    3  502    0  0.33495094943E+03 -0.27509837181E+03  0.25782303139E+03  0.50432526033E+03  0.00000000000E+00 0. -1.
         -4    1    3    3    0  502  0.20447848454E+02 -0.77472870741E+01 -0.39464912673E+01  0.22219580480E+02  0.00000000000E+00 0.  1.
         13    1    5    5    0    0 -0.13380020692E+03 -0.10943178649E+03 -0.30446333890E+03  0.35010817756E+03  0.00000000000E+00 0.  1.
        -13    1    5    5    0    0 -0.26284623801E+03 -0.11460110244E+03 -0.34719649200E+03  0.45029652628E+03  0.00000000000E+00 0. -1.
          1    1    6    6  503    0  0.15951177667E+02  0.58133080587E+02 -0.83621114984E+02  0.10308436350E+03  0.00000000000E+00 0. -1.
         -1    1    6    6    0  503  0.25296469385E+02  0.44874546722E+03 -0.29056689811E+03  0.53520232435E+03  0.00000000000E+00 0.  1.
<mgrwt>
<rscale>  0 0.18072669E+04</rscale>
<asrwt>0</asrwt>
<pdfrwt beam="1">  1        1 0.91789610E-01 0.18072669E+04</pdfrwt>
<pdfrwt beam="2">  1       -2 0.21055443E+00 0.18072669E+04</pdfrwt>
<totfact> 0.32349637E+00</totfact>
</mgrwt>
</event>
<event>
12    5  0.5095719E-008  0.1397499E+04  0.7818608E-02  0.8955631E-01
         -2   -1    0    0    0  501 -0.00000000000E+00  0.00000000000E+00  0.18663494271E+03  0.18663494271E+03  0.00000000000E+00 0.  1.
          1   -1    0    0  501    0  0.00000000000E+00 -0.00000000000E+00 -0.26160730726E+04  0.26160730726E+04  0.00000000000E+00 0. -1.
        -24    2    1    2    0    0 -0.39373759688E+03  0.14684694374E+02 -0.64425783099E+03  0.75957909616E+03  0.81531068266E+02 0.  0.
        254    2    1    2    0    0  0.39373759688E+03 -0.14684694374E+02 -0.17851802989E+04  0.20431289192E+04  0.91228402664E+03 0.  0.
         23    2    4    4    0    0  0.17238226102E+03  0.26597593638E+01  0.41891710119E+02  0.19987809571E+03  0.92052265228E+02 0.  0.
         23    2    4    4    0    0  0.22135533585E+03 -0.17344453738E+02 -0.18270720090E+04  0.18432508234E+04  0.10041143953E+03 0.  0.
          3    1    3    3  502    0 -0.12050606401E+03  0.24555350573E+02 -0.26391739897E+03  0.29116502226E+03  0.00000000000E+00 0. -1.
         -4    1    3    3    0  502 -0.27323153287E+03 -0.98706561988E+01 -0.38034043201E+03  0.46841407390E+03  0.00000000000E+00 0.  1.
         13    1    5    5    0    0  0.18324692814E+03  0.46789630551E+01  0.34345129186E+02  0.18649642695E+03  0.00000000000E+00 0. -1.
        -13    1    5    5    0    0 -0.10864667114E+02 -0.20192036913E+01  0.75465809331E+01  0.13381668761E+02  0.00000000000E+00 0.  1.
          3    1    6    6  503    0  0.19098884909E+03 -0.20029053541E+02 -0.17478170506E+04  0.17583351062E+04  0.00000000000E+00 0. -1.
         -3    1    6    6    0  503  0.30366486758E+02  0.26845998030E+01 -0.79254958438E+02  0.84915717221E+02  0.00000000000E+00 0.  1.
<mgrwt>
<rscale>  0 0.13974987E+04</rscale>
<asrwt>0</asrwt>
<pdfrwt beam="1">  1        1 0.40247275E+00 0.13974987E+04</pdfrwt>
<pdfrwt beam="2">  1       -2 0.28713070E-01 0.13974987E+04</pdfrwt>
<totfact> 0.10759723E+01</totfact>
</mgrwt>
</event>
<event>
12    5  0.5095719E-008  0.1212198E+04  0.7818608E-02  0.9102246E-01
          1   -1    0    0  501    0  0.00000000000E+00  0.00000000000E+00  0.29904261195E+04  0.29904261195E+04  0.00000000000E+00 0. -1.
         -2   -1    0    0    0  501 -0.00000000000E+00 -0.00000000000E+00 -0.12284397461E+03  0.12284397461E+03  0.00000000000E+00 0.  1.
        -24    2    1    2    0    0  0.18608789758E+03 -0.59710330965E+02  0.19780845942E+03  0.28969707056E+03  0.81253780363E+02 0.  0.
        254    2    1    2    0    0 -0.18608789758E+03  0.59710330965E+02  0.26697736855E+04  0.28235730236E+04  0.89815313753E+03 0.  0.
         23    2    4    4    0    0 -0.79745841526E+02  0.40427662426E+03  0.68534879227E+03  0.80455374774E+03  0.88344653320E+02 0.  0.
         23    2    4    4    0    0 -0.10634205606E+03 -0.34456629330E+03  0.19844248932E+04  0.20190192759E+04  0.91989760163E+02 0.  0.
          3    1    3    3  502    0  0.67780791114E+01 -0.98268257927E+01  0.51752616497E+02  0.53111601142E+02  0.00000000000E+00 0. -1.
         -4    1    3    3    0  502  0.17930981847E+03 -0.49883505172E+02  0.14605584292E+03  0.23658546942E+03  0.00000000000E+00 0.  1.
         13    1    5    5    0    0 -0.49685396777E+02  0.20485679355E+03  0.26743497575E+03  0.34052373011E+03  0.00000000000E+00 0. -1.
        -13    1    5    5    0    0 -0.30060444749E+02  0.19941983072E+03  0.41791381652E+03  0.46403001763E+03  0.00000000000E+00 0.  1.
          3    1    6    6  503    0 -0.44769720094E+02 -0.24920223655E+03  0.15186503139E+04  0.15396119182E+04  0.00000000000E+00 0. -1.
         -3    1    6    6    0  503 -0.61572335963E+02 -0.95364056750E+02  0.46577457932E+03  0.47940735770E+03  0.00000000000E+00 0.  1.
<mgrwt>
<rscale>  0 0.12121977E+04</rscale>
<asrwt>0</asrwt>
<pdfrwt beam="1">  1        1 0.46006550E+00 0.12121977E+04</pdfrwt>
<pdfrwt beam="2">  1       -2 0.18899075E-01 0.12121977E+04</pdfrwt>
<totfact> 0.12606276E+01</totfact>
</mgrwt>
</event>
<event>
12    5  0.5095719E-008  0.1878361E+04  0.7818608E-02  0.8665703E-01
          1   -1    0    0  501    0  0.00000000000E+00  0.00000000000E+00  0.32842255410E+04  0.32842255410E+04  0.00000000000E+00 0. -1.
         -2   -1    0    0    0  501 -0.00000000000E+00 -0.00000000000E+00 -0.26857483332E+03  0.26857483332E+03  0.00000000000E+00 0.  1.
        -24    2    1    2    0    0  0.48169704278E+03  0.27402548522E+03  0.29494955133E+03  0.63273071399E+03  0.78936119852E+02 0.  0.
        254    2    1    2    0    0 -0.48169704278E+03 -0.27402548522E+03  0.27207011563E+04  0.29200696603E+04  0.90414049318E+03 0.  0.
         23    2    4    4    0    0  0.16431141143E+03  0.24205320000E+02  0.14354228479E+04  0.14481003984E+04  0.94719976306E+02 0.  0.
         23    2    4    4    0    0 -0.64600845421E+03 -0.29823080522E+03  0.12852783084E+04  0.14719692619E+04  0.92112116447E+02 0.  0.
          1    1    3    3  502    0  0.52604613339E+02  0.45346336610E+02  0.64004432214E+02  0.94446296548E+02  0.00000000000E+00 0. -1.
         -2    1    3    3    0  502  0.42909242944E+03  0.22867914861E+03  0.23094511911E+03  0.53828441744E+03  0.00000000000E+00 0.  1.
         13    1    5    5    0    0  0.88587265005E+02 -0.14847993185E+02  0.10249398800E+04  0.10288682734E+04  0.00000000000E+00 0.  1.
        -13    1    5    5    0    0  0.75724146423E+02  0.39053313184E+02  0.41048296799E+03  0.41923212500E+03  0.00000000000E+00 0. -1.
          1    1    6    6  503    0 -0.26782019837E+03 -0.14511172594E+03  0.63515962110E+03  0.70442374743E+03  0.00000000000E+00 0. -1.
         -1    1    6    6    0  503 -0.37818825584E+03 -0.15311907928E+03  0.65011868730E+03  0.76754551452E+03  0.00000000000E+00 0.  1.
<mgrwt>
<rscale>  0 0.18783613E+04</rscale>
<asrwt>0</asrwt>
<pdfrwt beam="1">  1        1 0.50526544E+00 0.18783613E+04</pdfrwt>
<pdfrwt beam="2">  1       -2 0.41319208E-01 0.18783613E+04</pdfrwt>
<totfact> 0.16843958E+00</totfact>
</mgrwt>
</event>
<event>
12    5  0.5095719E-008  0.1204041E+04  0.7818608E-02  0.9109327E-01
         -2   -1    0    0    0  501 -0.00000000000E+00  0.00000000000E+00  0.52407799239E+03  0.52407799239E+03  0.00000000000E+00 0.  1.
          1   -1    0    0  501    0  0.00000000000E+00 -0.00000000000E+00 -0.69155434197E+03  0.69155434197E+03  0.00000000000E+00 0. -1.
        -24    2    1    2    0    0 -0.12080373436E+03 -0.17892673959E+03 -0.12772051671E+03  0.26312225518E+03  0.79451056687E+02 0.  0.
        254    2    1    2    0    0  0.12080373436E+03  0.17892673959E+03 -0.39755832877E+02  0.95251007918E+03  0.92686924877E+03 0.  0.
         23    2    4    4    0    0  0.44435575860E+03  0.24459179027E+03  0.17955138714E+03  0.54587103122E+03  0.91974442307E+02 0.  0.
         23    2    4    4    0    0 -0.32355202424E+03 -0.65665050681E+02 -0.21930722002E+03  0.40663904795E+03  0.90894704464E+02 0.  0.
          1    1    3    3  502    0 -0.13192914798E+03 -0.15601752695E+03 -0.10954265766E+03  0.23183261774E+03  0.00000000000E+00 0. -1.
         -2    1    3    3    0  502  0.11125413612E+02 -0.22909212640E+02 -0.18177859046E+02  0.31289637443E+02  0.00000000000E+00 0.  1.
         13    1    5    5    0    0  0.25171177876E+03  0.18799438280E+03  0.12172676820E+03  0.33692449247E+03  0.00000000000E+00 0. -1.
        -13    1    5    5    0    0  0.19264397984E+03  0.56597407468E+02  0.57824618945E+02  0.20894653876E+03  0.00000000000E+00 0.  1.
          1    1    6    6  503    0 -0.29511303797E+03 -0.72131832713E+02 -0.22352425696E+03  0.37717078350E+03  0.00000000000E+00 0. -1.
         -1    1    6    6    0  503 -0.28438986265E+02  0.64667820321E+01  0.42170369436E+01  0.29468264459E+02  0.00000000000E+00 0.  1.
<mgrwt>
<rscale>  0 0.12040405E+04</rscale>
<asrwt>0</asrwt>
<pdfrwt beam="1">  1        1 0.10639298E+00 0.12040405E+04</pdfrwt>
<pdfrwt beam="2">  1       -2 0.80627383E-01 0.12040405E+04</pdfrwt>
<totfact> 0.32666031E+01</totfact>
</mgrwt>
</event>
<event>
12    5  0.5095719E-008  0.1511430E+04  0.7818608E-02  0.8876887E-01
          1   -1    0    0  501    0  0.00000000000E+00  0.00000000000E+00  0.57767639424E+03  0.57767639424E+03  0.00000000000E+00 0. -1.
         -2   -1    0    0    0  501 -0.00000000000E+00 -0.00000000000E+00 -0.98862475938E+03  0.98862475938E+03  0.00000000000E+00 0.  1.
        -24    2    1    2    0    0 -0.27929982631E+03 -0.30808446040E+03  0.12539646489E+03  0.44171312574E+03  0.80385224549E+02 0.  0.
        254    2    1    2    0    0  0.27929982631E+03  0.30808446040E+03 -0.53634483003E+03  0.11245880279E+04  0.89672070793E+03 0.  0.
         23    2    4    4    0    0  0.15858716034E+03 -0.11782460899E+03 -0.62692644740E+03  0.66370781069E+03  0.91862732476E+02 0.  0.
         23    2    4    4    0    0  0.12071266597E+03  0.42590906939E+03  0.90581617364E+02  0.46088021719E+03  0.90749446703E+02 0.  0.
          1    1    3    3  502    0 -0.23815179786E+03 -0.28158305206E+03  0.13328975565E+03  0.39213703344E+03  0.00000000000E+00 0. -1.
         -2    1    3    3    0  502 -0.41148028445E+02 -0.26501408338E+02 -0.78932907514E+01  0.49576092300E+02  0.00000000000E+00 0.  1.
         13    1    5    5    0    0  0.45672748450E+02 -0.37909218920E+01 -0.24801641393E+03  0.25221521092E+03  0.00000000000E+00 0.  1.
        -13    1    5    5    0    0  0.11291441189E+03 -0.11403368710E+03 -0.37891003347E+03  0.41149259977E+03  0.00000000000E+00 0. -1.
          2    1    6    6  503    0  0.81202367670E+02  0.28456061508E+03  0.16254697685E+02  0.29636596189E+03  0.00000000000E+00 0. -1.
         -2    1    6    6    0  503  0.39510298297E+02  0.14134845432E+03  0.74326919679E+02  0.16451425530E+03  0.00000000000E+00 0.  1.
<mgrwt>
<rscale>  0 0.15114300E+04</rscale>
<asrwt>0</asrwt>
<pdfrwt beam="1">  1        1 0.88873293E-01 0.15114300E+04</pdfrwt>
<pdfrwt beam="2">  1       -2 0.15209611E+00 0.15114300E+04</pdfrwt>
<totfact> 0.88263247E+00</totfact>
</mgrwt>
</event>
<event>
12    5  0.5095719E-008  0.2160310E+04  0.7818608E-02  0.8535132E-01
         -2   -1    0    0    0  501 -0.00000000000E+00  0.00000000000E+00  0.11880762327E+04  0.11880762327E+04  0.00000000000E+00 0.  1.
          1   -1    0    0  501    0  0.00000000000E+00 -0.00000000000E+00 -0.98203702836E+03  0.98203702836E+03  0.00000000000E+00 0. -1.
        -24    2    1    2    0    0  0.82135738229E+03  0.30295203312E+03 -0.82944870724E+02  0.88305698774E+03  0.80634410725E+02 0.  0.
        254    2    1    2    0    0 -0.82135738229E+03 -0.30295203312E+03  0.28898407503E+03  0.12870562733E+04  0.89810587970E+03 0.  0.
         23    2    4    4    0    0 -0.72535654518E+03 -0.58592435085E+03  0.27310490979E+03  0.97585186040E+03  0.90835560964E+02 0.  0.
         23    2    4    4    0    0 -0.96000837110E+02  0.28297231772E+03  0.15879165238E+02  0.31120441288E+03  0.85478332834E+02 0.  0.
          1    1    3    3  502    0  0.33565494448E+03  0.98895558950E+02 -0.65124321967E+02  0.35592941806E+03  0.00000000000E+00 0. -1.
         -2    1    3    3    0  502  0.48570243782E+03  0.20405647417E+03 -0.17820548756E+02  0.52712756967E+03  0.00000000000E+00 0.  1.
         13    1    5    5    0    0 -0.88959580411E+02 -0.11114877896E+03  0.53147099292E+02  0.15196207479E+03  0.00000000000E+00 0. -1.
        -13    1    5    5    0    0 -0.63639696477E+03 -0.47477557189E+03  0.21995781050E+03  0.82388978561E+03  0.00000000000E+00 0.  1.
          4    1    6    6  503    0 -0.34407373034E+02  0.13458281835E+03 -0.33930916706E+02  0.14299548742E+03  0.00000000000E+00 0. -1.
         -4    1    6    6    0  503 -0.61593464076E+02  0.14838949938E+03  0.49810081944E+02  0.16820892546E+03  0.00000000000E+00 0.  1.
<mgrwt>
<rscale>  0 0.21603100E+04</rscale>
<asrwt>0</asrwt>
<pdfrwt beam="1">  1        1 0.15108262E+00 0.21603100E+04</pdfrwt>
<pdfrwt beam="2">  1       -2 0.18278096E+00 0.21603100E+04</pdfrwt>
<totfact> 0.21749423E+00</totfact>
</mgrwt>
</event>
<event>
12    5  0.5095719E-008  0.1535654E+04  0.7818608E-02  0.8861084E-01
         -2   -1    0    0    0  501 -0.00000000000E+00  0.00000000000E+00  0.76127655404E+03  0.76127655404E+03  0.00000000000E+00 0.  1.
          1   -1    0    0  501    0  0.00000000000E+00 -0.00000000000E+00 -0.77443349125E+03  0.77443349125E+03  0.00000000000E+00 0. -1.
        -24    2    1    2    0    0  0.30339646669E+03 -0.23479338883E+03  0.31201712720E+03  0.50107372668E+03  0.80887826432E+02 0.  0.
        254    2    1    2    0    0 -0.30339646669E+03  0.23479338883E+03 -0.32517406440E+03  0.10346363186E+04  0.90418846939E+03 0.  0.
         23    2    4    4    0    0  0.36455947858E+02 -0.31438818951E+03 -0.10069819924E+03  0.34480751827E+03  0.92645169807E+02 0.  0.
         23    2    4    4    0    0 -0.33985241455E+03  0.54918157834E+03 -0.22447586516E+03  0.68982880033E+03  0.91511147187E+02 0.  0.
          1    1    3    3  502    0  0.19325757463E+02 -0.46832557606E+02  0.51514831356E+02  0.72253381949E+02  0.00000000000E+00 0. -1.
         -2    1    3    3    0  502  0.28407070923E+03 -0.18796083123E+03  0.26050229584E+03  0.42882034473E+03  0.00000000000E+00 0.  1.
         13    1    5    5    0    0  0.16976817605E+02 -0.13706192298E+03  0.36118529745E+01  0.13815653640E+03  0.00000000000E+00 0.  1.
        -13    1    5    5    0    0  0.19479130254E+02 -0.17732626653E+03 -0.10431005222E+03  0.20665098187E+03  0.00000000000E+00 0. -1.
          2    1    6    6  503    0 -0.30034370069E+03  0.51134156856E+03 -0.18124200480E+03  0.62010096161E+03  0.00000000000E+00 0. -1.
         -2    1    6    6    0  503 -0.39508713864E+02  0.37840009781E+02 -0.43233860363E+02  0.69727838725E+02  0.00000000000E+00 0.  1.
<mgrwt>
<rscale>  0 0.15356537E+04</rscale>
<asrwt>0</asrwt>
<pdfrwt beam="1">  1        1 0.11914361E+00 0.15356537E+04</pdfrwt>
<pdfrwt beam="2">  1       -2 0.11711947E+00 0.15356537E+04</pdfrwt>
<totfact> 0.11092281E+01</totfact>
</mgrwt>
</event>
<event>
12    5  0.5095719E-008  0.2097661E+04  0.7818608E-02  0.8562274E-01
         -2   -1    0    0    0  501 -0.00000000000E+00  0.00000000000E+00  0.47626384174E+03  0.47626384174E+03  0.00000000000E+00 0.  1.
          1   -1    0    0  501    0  0.00000000000E+00 -0.00000000000E+00 -0.23097403125E+04  0.23097403125E+04  0.00000000000E+00 0. -1.
        -24    2    1    2    0    0 -0.34717672894E+03 -0.77819766849E+03 -0.73859773638E+03  0.11305712779E+04  0.80879576613E+02 0.  0.
        254    2    1    2    0    0  0.34717672894E+03  0.77819766849E+03 -0.10948787344E+04  0.16554328764E+04  0.90309206212E+03 0.  0.
         23    2    4    4    0    0  0.78826171822E+02  0.11081340506E+03  0.14506836157E+03  0.21885606096E+03  0.91432870367E+02 0.  0.
         23    2    4    4    0    0  0.26835055712E+03  0.66738426343E+03 -0.12399470960E+04  0.14365768154E+04  0.94182636837E+02 0.  0.
          3    1    3    3  502    0 -0.29828974712E+03 -0.70076417000E+03 -0.68575007717E+03  0.10248416285E+04  0.00000000000E+00 0. -1.
         -4    1    3    3    0  502 -0.48886981823E+02 -0.77433498495E+02 -0.52847659207E+02  0.10572964941E+03  0.00000000000E+00 0.  1.
         13    1    5    5    0    0  0.78667238459E+02  0.38789056223E+02  0.10361526664E+03  0.13575436925E+03  0.00000000000E+00 0.  1.
        -13    1    5    5    0    0  0.15893336238E+00  0.72024348838E+02  0.41453094934E+02  0.83101691709E+02  0.00000000000E+00 0. -1.
          1    1    6    6  503    0  0.92831963052E+01  0.26567358655E+02 -0.95832112257E+02  0.99878906778E+02  0.00000000000E+00 0. -1.
         -1    1    6    6    0  503  0.25906736082E+03  0.64081690478E+03 -0.11441149837E+04  0.13366979086E+04  0.00000000000E+00 0.  1.
<mgrwt>
<rscale>  0 0.20976614E+04</rscale>
<asrwt>0</asrwt>
<pdfrwt beam="1">  1        1 0.35534465E+00 0.20976614E+04</pdfrwt>
<pdfrwt beam="2">  1       -2 0.73271362E-01 0.20976614E+04</pdfrwt>
<totfact> 0.24904587E+00</totfact>
</mgrwt>
</event>
<event>
12    5  0.5095719E-008  0.2045407E+04  0.7818608E-02  0.8585681E-01
          1   -1    0    0  501    0  0.00000000000E+00  0.00000000000E+00  0.98077122524E+03  0.98077122524E+03  0.00000000000E+00 0. -1.
         -2   -1    0    0    0  501 -0.00000000000E+00 -0.00000000000E+00 -0.10664288644E+04  0.10664288644E+04  0.00000000000E+00 0.  1.
        -24    2    1    2    0    0  0.75806360690E+03 -0.31796485584E+03 -0.22447436391E+01  0.82595243298E+03  0.80189157684E+02 0.  0.
        254    2    1    2    0    0 -0.75806360690E+03  0.31796485584E+03 -0.83412895474E+02  0.12212476566E+04  0.89929196927E+03 0.  0.
         23    2    4    4    0    0  0.57043906992E+02  0.14002177271E+03  0.25877374510E+03  0.31462996305E+03  0.95749978249E+02 0.  0.
         23    2    4    4    0    0 -0.81510751390E+03  0.17794308313E+03 -0.34218664058E+03  0.90661769357E+03  0.93808023404E+02 0.  0.
          3    1    3    3  502    0  0.37088553170E+03 -0.13085378820E+03 -0.34013293012E+02  0.39476030146E+03  0.00000000000E+00 0. -1.
         -4    1    3    3    0  502  0.38717807521E+03 -0.18711106764E+03  0.31768549373E+02  0.43119213152E+03  0.00000000000E+00 0.  1.
         13    1    5    5    0    0  0.70358149769E+02  0.10638393336E+03  0.24444371987E+03  0.27571823063E+03  0.00000000000E+00 0.  1.
        -13    1    5    5    0    0 -0.13314242777E+02  0.33637839348E+02  0.14330025233E+02  0.38911732420E+02  0.00000000000E+00 0. -1.
          1    1    6    6  503    0 -0.82594052605E+02  0.84180484772E+01 -0.64391379835E+02  0.10506612614E+03  0.00000000000E+00 0. -1.
         -1    1    6    6    0  503 -0.73251346129E+03  0.16952503465E+03 -0.27779526074E+03  0.80155156742E+03  0.00000000000E+00 0.  1.
<mgrwt>
<rscale>  0 0.20454073E+04</rscale>
<asrwt>0</asrwt>
<pdfrwt beam="1">  1        1 0.15088788E+00 0.20454073E+04</pdfrwt>
<pdfrwt beam="2">  1       -2 0.16406598E+00 0.20454073E+04</pdfrwt>
<totfact> 0.29839701E+00</totfact>
</mgrwt>
</event>
<event>
12    5  0.5095719E-008  0.4551307E+04  0.7818608E-02  0.7901716E-01
          1   -1    0    0  501    0  0.00000000000E+00  0.00000000000E+00  0.29392799300E+04  0.29392799300E+04  0.00000000000E+00 0. -1.
         -2   -1    0    0    0  501 -0.00000000000E+00 -0.00000000000E+00 -0.17618593372E+04  0.17618593372E+04  0.00000000000E+00 0.  1.
        -24    2    1    2    0    0  0.72260154292E+03 -0.20289379585E+04  0.96579748901E+03  0.23617412152E+04  0.79464135223E+02 0.  0.
        254    2    1    2    0    0 -0.72260154292E+03  0.20289379585E+04  0.21162310378E+03  0.23393980519E+04  0.88840119215E+03 0.  0.
         23    2    4    4    0    0 -0.12399835296E+03  0.47404917699E+03 -0.31563861300E+03  0.58937614421E+03  0.87397320334E+02 0.  0.
         23    2    4    4    0    0 -0.59860318996E+03  0.15548887815E+04  0.52726171678E+03  0.17500219077E+04  0.92557321524E+02 0.  0.
          1    1    3    3  502    0  0.27144509385E+03 -0.68271197370E+03  0.35860947236E+03  0.81754439126E+03  0.00000000000E+00 0. -1.
         -2    1    3    3    0  502  0.45115644908E+03 -0.13462259848E+04  0.60718801665E+03  0.15441968240E+04  0.00000000000E+00 0.  1.
         13    1    5    5    0    0 -0.16193289494E+02  0.62891408575E+02 -0.96906350642E+01  0.65661711104E+02  0.00000000000E+00 0. -1.
        -13    1    5    5    0    0 -0.10780506347E+03  0.41115776841E+03 -0.30594797793E+03  0.52371443310E+03  0.00000000000E+00 0.  1.
          1    1    6    6  503    0 -0.37419106748E+03  0.91823187592E+03  0.35670639740E+03  0.10537590744E+04  0.00000000000E+00 0. -1.
         -1    1    6    6    0  503 -0.22441212248E+03  0.63665690556E+03  0.17055531938E+03  0.69626283333E+03  0.00000000000E+00 0.  1.
<mgrwt>
<rscale>  0 0.45513065E+04</rscale>
<asrwt>0</asrwt>
<pdfrwt beam="1">  1        1 0.45219691E+00 0.45513065E+04</pdfrwt>
<pdfrwt beam="2">  1       -2 0.27105528E+00 0.45513065E+04</pdfrwt>
<totfact> 0.20808307E-02</totfact>
</mgrwt>
</event>
<event>
12    5  0.5095719E-008  0.1404208E+04  0.7818608E-02  0.8950779E-01
         -2   -1    0    0    0  501 -0.00000000000E+00  0.00000000000E+00  0.47581496310E+03  0.47581496310E+03  0.00000000000E+00 0.  1.
          1   -1    0    0  501    0  0.00000000000E+00 -0.00000000000E+00 -0.10360113812E+04  0.10360113812E+04  0.00000000000E+00 0. -1.
        -24    2    1    2    0    0 -0.29520485377E+03  0.34586121448E+03  0.36052702631E+02  0.46257974518E+03  0.76904732707E+02 0.  0.
        254    2    1    2    0    0  0.29520485377E+03 -0.34586121448E+03 -0.59624912072E+03  0.10492465991E+04  0.73392065404E+03 0.  0.
         23    2    4    4    0    0  0.29087717424E+03 -0.10066200970E+03 -0.69804042986E+03  0.76841307178E+03  0.91955622368E+02 0.  0.
         23    2    4    4    0    0  0.43276795301E+01 -0.24519920478E+03  0.10179130913E+03  0.28083352734E+03  0.91458299926E+02 0.  0.
          3    1    3    3  502    0 -0.24885350553E+02  0.37702667664E+01  0.19167229487E+01  0.25242214849E+02  0.00000000000E+00 0. -1.
         -4    1    3    3    0  502 -0.27031950322E+03  0.34209094771E+03  0.34135979682E+02  0.43733753033E+03  0.00000000000E+00 0.  1.
         13    1    5    5    0    0  0.14201311668E+03 -0.11542247897E+01 -0.29647541999E+03  0.32873504863E+03  0.00000000000E+00 0.  1.
        -13    1    5    5    0    0  0.14886405756E+03 -0.99507784906E+02 -0.40156500987E+03  0.43967802315E+03  0.00000000000E+00 0. -1.
          3    1    6    6  503    0 -0.15155035970E+02 -0.17693794732E+03  0.11073988197E+03  0.20928457605E+03  0.00000000000E+00 0. -1.
         -3    1    6    6    0  503  0.19482715500E+02 -0.68261257464E+02 -0.89485728328E+01  0.71548951282E+02  0.00000000000E+00 0.  1.
<mgrwt>
<rscale>  0 0.14042076E+04</rscale>
<asrwt>0</asrwt>
<pdfrwt beam="1">  1        1 0.15938637E+00 0.14042076E+04</pdfrwt>
<pdfrwt beam="2">  1       -2 0.73202302E-01 0.14042076E+04</pdfrwt>
<totfact> 0.20428780E+01</totfact>
</mgrwt>
</event>
<event>
12    5  0.5095719E-008  0.1881220E+04  0.7818608E-02  0.8664261E-01
          1   -1    0    0  501    0  0.00000000000E+00  0.00000000000E+00  0.14547404043E+04  0.14547404043E+04  0.00000000000E+00 0. -1.
         -2   -1    0    0    0  501 -0.00000000000E+00 -0.00000000000E+00 -0.60818246989E+03  0.60818246989E+03  0.00000000000E+00 0.  1.
        -24    2    1    2    0    0  0.22841900890E+03 -0.30692377727E+03 -0.34766495688E+03  0.52262213585E+03  0.76717181614E+02 0.  0.
        254    2    1    2    0    0 -0.22841900890E+03  0.30692377727E+03  0.11942228913E+04  0.15403007383E+04  0.89441634697E+03 0.  0.
         23    2    4    4    0    0 -0.30586844243E+03  0.33286875804E+03  0.14532074650E+03  0.48427309728E+03  0.95106252317E+02 0.  0.
         23    2    4    4    0    0  0.77449433529E+02 -0.25944980773E+02  0.10489021448E+04  0.10560276410E+04  0.91253013869E+02 0.  0.
          1    1    3    3  502    0  0.11458238069E+03 -0.12884039187E+03 -0.20377647592E+03  0.26693411299E+03  0.00000000000E+00 0. -1.
         -2    1    3    3    0  502  0.11383662822E+03 -0.17808338540E+03 -0.14388848097E+03  0.25568802286E+03  0.00000000000E+00 0.  1.
         13    1    5    5    0    0 -0.74872199329E+02  0.29329162590E+02  0.29226774591E+02  0.85558461672E+02  0.00000000000E+00 0. -1.
        -13    1    5    5    0    0 -0.23099624310E+03  0.30353959545E+03  0.11609397191E+03  0.39871463561E+03  0.00000000000E+00 0.  1.
          4    1    6    6  503    0  0.66465032693E+02  0.12491055203E+02  0.38287006611E+03  0.38879700945E+03  0.00000000000E+00 0. -1.
         -4    1    6    6    0  503  0.10984400836E+02 -0.38436035977E+02  0.66603207866E+03  0.66723063158E+03  0.00000000000E+00 0.  1.
<mgrwt>
<rscale>  0 0.18812205E+04</rscale>
<asrwt>0</asrwt>
<pdfrwt beam="1">  1        1 0.22380621E+00 0.18812205E+04</pdfrwt>
<pdfrwt beam="2">  1       -2 0.93566535E-01 0.18812205E+04</pdfrwt>
<totfact> 0.55859699E+00</totfact>
</mgrwt>
</event>
<event>
12    5  0.5095719E-008  0.1402846E+04  0.7818608E-02  0.8951761E-01
         -2   -1    0    0    0  501 -0.00000000000E+00  0.00000000000E+00  0.74384107882E+03  0.74384107882E+03  0.00000000000E+00 0.  1.
          1   -1    0    0  501    0  0.00000000000E+00 -0.00000000000E+00 -0.66142398036E+03  0.66142398036E+03  0.00000000000E+00 0. -1.
        -24    2    1    2    0    0 -0.38242032239E+03  0.13931031065E+03  0.24761171157E+02  0.41549562994E+03  0.79817524840E+02 0.  0.
        254    2    1    2    0    0  0.38242032239E+03 -0.13931031065E+03  0.57655927308E+02  0.98976942924E+03  0.90037028576E+03 0.  0.
         23    2    4    4    0    0  0.56317178561E+03 -0.22389272120E+02  0.30736593066E+03  0.64866826874E+03  0.92913766079E+02 0.  0.
         23    2    4    4    0    0 -0.18075146322E+03 -0.11692103853E+03 -0.24971000335E+03  0.34110116050E+03  0.87483113906E+02 0.  0.
          3    1    3    3  502    0 -0.20610732029E+03  0.10831159093E+03  0.38317386059E+02  0.23596578201E+03  0.00000000000E+00 0. -1.
         -4    1    3    3    0  502 -0.17631300210E+03  0.30998719720E+02 -0.13556214902E+02  0.17952984793E+03  0.00000000000E+00 0.  1.
         13    1    5    5    0    0  0.34900850663E+03 -0.49634138746E+02  0.15903882311E+03  0.38673483510E+03  0.00000000000E+00 0.  1.
        -13    1    5    5    0    0  0.21416327898E+03  0.27244866626E+02  0.14832710755E+03  0.26193343363E+03  0.00000000000E+00 0. -1.
          1    1    6    6  503    0 -0.37235476522E+02 -0.40539565245E+02 -0.17740498378E+02  0.57833055814E+02  0.00000000000E+00 0. -1.
         -1    1    6    6    0  503 -0.14351598670E+03 -0.76381473281E+02 -0.23196950497E+03  0.28326810469E+03  0.00000000000E+00 0.  1.
<mgrwt>
<rscale>  0 0.14028461E+04</rscale>
<asrwt>0</asrwt>
<pdfrwt beam="1">  1        1 0.10175753E+00 0.14028461E+04</pdfrwt>
<pdfrwt beam="2">  1       -2 0.11443709E+00 0.14028461E+04</pdfrwt>
<totfact> 0.15111233E+01</totfact>
</mgrwt>
</event>
<event>
12    5  0.5095719E-008  0.1651340E+04  0.7818608E-02  0.8789614E-01
         -2   -1    0    0    0  501 -0.00000000000E+00  0.00000000000E+00  0.11946018208E+04  0.11946018208E+04  0.00000000000E+00 0.  1.
          1   -1    0    0  501    0  0.00000000000E+00 -0.00000000000E+00 -0.57067628624E+03  0.57067628624E+03  0.00000000000E+00 0. -1.
        -24    2    1    2    0    0  0.55461823352E+03 -0.15406861675E+02  0.20237449214E+03  0.59626071423E+03  0.82052714348E+02 0.  0.
        254    2    1    2    0    0 -0.55461823352E+03  0.15406861675E+02  0.42155104244E+03  0.11690173928E+04  0.93864669978E+03 0.  0.
         23    2    4    4    0    0 -0.70927359285E+03 -0.25609536969E+03  0.23928003510E+03  0.79642250959E+03  0.91542398344E+02 0.  0.
         23    2    4    4    0    0  0.15465535934E+03  0.27150223137E+03  0.18227100735E+03  0.37259488323E+03  0.89288773551E+02 0.  0.
          3    1    3    3  502    0  0.10889356109E+03 -0.94312116606E+01  0.75329525534E+02  0.13274521769E+03  0.00000000000E+00 0. -1.
         -4    1    3    3    0  502  0.44572467242E+03 -0.59756500140E+01  0.12704496661E+03  0.46351549655E+03  0.00000000000E+00 0.  1.
         13    1    5    5    0    0 -0.46148871009E+02 -0.39379086164E+02  0.66987623735E+01  0.61035269638E+02  0.00000000000E+00 0.  1.
        -13    1    5    5    0    0 -0.66312472184E+03 -0.21671628353E+03  0.23258127272E+03  0.73538723996E+03  0.00000000000E+00 0. -1.
          3    1    6    6  503    0  0.15999080594E+03  0.25598318136E+03  0.15157165580E+03  0.33778456739E+03  0.00000000000E+00 0. -1.
         -3    1    6    6    0  503 -0.53354466052E+01  0.15519050008E+02  0.30699351546E+02  0.34810315842E+02  0.00000000000E+00 0.  1.
<mgrwt>
<rscale>  0 0.16513400E+04</rscale>
<asrwt>0</asrwt>
<pdfrwt beam="1">  1        1 0.87796352E-01 0.16513400E+04</pdfrwt>
<pdfrwt beam="2">  1       -2 0.18378490E+00 0.16513400E+04</pdfrwt>
<totfact> 0.52513787E+00</totfact>
</mgrwt>
</event>
<event>
12    5  0.5095719E-008  0.2163529E+04  0.7818608E-02  0.8533763E-01
          1   -1    0    0  501    0  0.00000000000E+00  0.00000000000E+00  0.48811094019E+03  0.48811094019E+03  0.00000000000E+00 0. -1.
         -2   -1    0    0    0  501 -0.00000000000E+00 -0.00000000000E+00 -0.23974359819E+04  0.23974359819E+04  0.00000000000E+00 0.  1.
        -24    2    1    2    0    0  0.49587865258E+03  0.67157897518E+03 -0.34904210269E+03  0.90842682447E+03  0.80591240064E+02 0.  0.
        254    2    1    2    0    0 -0.49587865258E+03 -0.67157897518E+03 -0.15602829391E+04  0.19771200977E+04  0.88182031768E+03 0.  0.
         23    2    4    4    0    0 -0.29260715649E+03 -0.70475121342E+03 -0.55781489546E+03  0.94967154820E+03  0.91789819814E+02 0.  0.
         23    2    4    4    0    0 -0.20327149609E+03  0.33172238241E+02 -0.10024680436E+04  0.10274485495E+04  0.91041994909E+02 0.  0.
          1    1    3    3  502    0  0.48028107855E+03  0.61731104112E+03 -0.32217417621E+03  0.84589540471E+03  0.00000000000E+00 0. -1.
         -2    1    3    3    0  502  0.15597574026E+02  0.54267934063E+02 -0.26867926487E+02  0.62531419756E+02  0.00000000000E+00 0.  1.
         13    1    5    5    0    0 -0.26980704786E+03 -0.67941890471E+03 -0.51167943389E+03  0.89231257652E+03  0.00000000000E+00 0. -1.
        -13    1    5    5    0    0 -0.22800108628E+02 -0.25332308709E+02 -0.46135461565E+02  0.57358971676E+02  0.00000000000E+00 0.  1.
          1    1    6    6  503    0 -0.83799225640E+02  0.40857525091E+02 -0.61135802862E+03  0.61842565175E+03  0.00000000000E+00 0. -1.
         -1    1    6    6    0  503 -0.11947227045E+03 -0.76852868496E+01 -0.39111001498E+03  0.40902289772E+03  0.00000000000E+00 0.  1.
<mgrwt>
<rscale>  0 0.21635293E+04</rscale>
<asrwt>0</asrwt>
<pdfrwt beam="1">  1        1 0.75093991E-01 0.21635293E+04</pdfrwt>
<pdfrwt beam="2">  1       -2 0.36883630E+00 0.21635293E+04</pdfrwt>
<totfact> 0.43416178E-01</totfact>
</mgrwt>
</event>
<event>
12    5  0.5095719E-008  0.1488782E+04  0.7818608E-02  0.8891947E-01
         -2   -1    0    0    0  501 -0.00000000000E+00  0.00000000000E+00  0.49191391813E+03  0.49191391813E+03  0.00000000000E+00 0.  1.
          1   -1    0    0  501    0  0.00000000000E+00 -0.00000000000E+00 -0.11264534108E+04  0.11264534108E+04  0.00000000000E+00 0. -1.
        -24    2    1    2    0    0 -0.16748235216E+03 -0.42744528490E+03 -0.14500684755E+03  0.48734393998E+03  0.75612962741E+02 0.  0.
        254    2    1    2    0    0  0.16748235216E+03  0.42744528490E+03 -0.48953264508E+03  0.11310233889E+04  0.91039106200E+03 0.  0.
         23    2    4    4    0    0  0.28819218611E+03  0.11063793886E+03  0.18455260806E+03  0.37101765135E+03  0.91098533587E+02 0.  0.
         23    2    4    4    0    0 -0.12070983395E+03  0.31680734604E+03 -0.67408525314E+03  0.76000573756E+03  0.90994692684E+02 0.  0.
          3    1    3    3  502    0 -0.90594315357E+02 -0.30783861269E+03 -0.78415387784E+02  0.33033454933E+03  0.00000000000E+00 0. -1.
         -4    1    3    3    0  502 -0.76888036803E+02 -0.11960667221E+03 -0.66591459767E+02  0.15700939066E+03  0.00000000000E+00 0.  1.
         13    1    5    5    0    0  0.24908268388E+02 -0.14986223030E+02  0.25975015939E+02  0.38983460183E+02  0.00000000000E+00 0.  1.
        -13    1    5    5    0    0  0.26328391772E+03  0.12562416189E+03  0.15857759212E+03  0.33203419116E+03  0.00000000000E+00 0. -1.
          3    1    6    6  503    0 -0.82471195781E+02  0.26360883539E+03 -0.60348287644E+03  0.66368870593E+03  0.00000000000E+00 0. -1.
         -3    1    6    6    0  503 -0.38238638167E+02  0.53198510653E+02 -0.70602376707E+02  0.96317031626E+02  0.00000000000E+00 0.  1.
<mgrwt>
<rscale>  0 0.14887822E+04</rscale>
<asrwt>0</asrwt>
<pdfrwt beam="1">  1        1 0.17330052E+00 0.14887822E+04</pdfrwt>
<pdfrwt beam="2">  1       -2 0.75679065E-01 0.14887822E+04</pdfrwt>
<totfact> 0.16096106E+01</totfact>
</mgrwt>
</event>
<event>
12    5  0.5095719E-008  0.1349594E+04  0.7818608E-02  0.8991135E-01
          1   -1    0    0  501    0  0.00000000000E+00  0.00000000000E+00  0.33942532726E+04  0.33942532726E+04  0.00000000000E+00 0. -1.
         -2   -1    0    0    0  501 -0.00000000000E+00 -0.00000000000E+00 -0.13415355058E+03  0.13415355058E+03  0.00000000000E+00 0.  1.
        -24    2    1    2    0    0 -0.20464033701E+03 -0.24937165966E+02  0.11804124603E+03  0.25086151969E+03  0.80611640077E+02 0.  0.
        254    2    1    2    0    0  0.20464033701E+03  0.24937165966E+02  0.31420584760E+04  0.32775453035E+04  0.90954506219E+03 0.  0.
         23    2    4    4    0    0  0.25504154875E+03 -0.12793518645E+03  0.28235841038E+03  0.41177125511E+03  0.91737075928E+02 0.  0.
         23    2    4    4    0    0 -0.50401211741E+02  0.15287235242E+03  0.28597000656E+04  0.28657740484E+04  0.94160463476E+02 0.  0.
          1    1    3    3  502    0 -0.76112382456E+02 -0.31886844097E+02  0.83927960515E+02  0.11770203119E+03  0.00000000000E+00 0. -1.
         -2    1    3    3    0  502 -0.12852795456E+03  0.69496781313E+01  0.34113285520E+02  0.13315948850E+03  0.00000000000E+00 0.  1.
         13    1    5    5    0    0  0.52889924004E+02  0.11452866310E+02  0.48109131298E+02  0.72408568016E+02  0.00000000000E+00 0.  1.
        -13    1    5    5    0    0  0.20215162475E+03 -0.13938805276E+03  0.23424927908E+03  0.33936268710E+03  0.00000000000E+00 0. -1.
          1    1    6    6  503    0 -0.73767856768E+02  0.14305663469E+03  0.24249790312E+04  0.24303148354E+04  0.00000000000E+00 0. -1.
         -1    1    6    6    0  503  0.23366645027E+02  0.98157177264E+01  0.43472103439E+03  0.43545921297E+03  0.00000000000E+00 0.  1.
<mgrwt>
<rscale>  0 0.13495942E+04</rscale>
<asrwt>0</asrwt>
<pdfrwt beam="1">  1        1 0.52219275E+00 0.13495942E+04</pdfrwt>
<pdfrwt beam="2">  1       -2 0.20639010E-01 0.13495942E+04</pdfrwt>
<totfact> 0.53301330E+00</totfact>
</mgrwt>
</event>
<event>
12    5  0.5095719E-008  0.1156916E+04  0.7818608E-02  0.9151427E-01
          1   -1    0    0  501    0  0.00000000000E+00  0.00000000000E+00  0.13316053864E+04  0.13316053864E+04  0.00000000000E+00 0. -1.
         -2   -1    0    0    0  501 -0.00000000000E+00 -0.00000000000E+00 -0.25128574248E+03  0.25128574248E+03  0.00000000000E+00 0.  1.
        -24    2    1    2    0    0  0.46410431954E+01 -0.21387260640E+03  0.27121509691E+03  0.35460000006E+03  0.80128023824E+02 0.  0.
        254    2    1    2    0    0 -0.46410431954E+01  0.21387260640E+03  0.80910454704E+03  0.12282911288E+04  0.89904721684E+03 0.  0.
         23    2    4    4    0    0 -0.12841484114E+03  0.20772665372E+03 -0.11925237457E+03  0.28729114843E+03  0.93136142466E+02 0.  0.
         23    2    4    4    0    0  0.12377379795E+03  0.61459526707E+01  0.92835692161E+03  0.94099998041E+03  0.90976169688E+02 0.  0.
          3    1    3    3  502    0 -0.43644948856E+01 -0.19838634447E+03  0.27197462717E+03  0.33666955359E+03  0.00000000000E+00 0. -1.
         -4    1    3    3    0  502  0.90055380811E+01 -0.15486261926E+02 -0.75953025806E+00  0.17930446475E+02  0.00000000000E+00 0.  1.
         13    1    5    5    0    0 -0.12630334233E+03  0.12708861879E+03 -0.96342108277E+02  0.20343513251E+03  0.00000000000E+00 0. -1.
        -13    1    5    5    0    0 -0.21114988074E+01  0.80638034932E+02 -0.22910266292E+02  0.83856015923E+02  0.00000000000E+00 0.  1.
          2    1    6    6  503    0  0.10654355936E+03  0.40446987464E+02  0.74522045687E+03  0.75388395537E+03  0.00000000000E+00 0. -1.
         -2    1    6    6    0  503  0.17230238589E+02 -0.34301034794E+02  0.18313646474E+03  0.18711602504E+03  0.00000000000E+00 0.  1.
<mgrwt>
<rscale>  0 0.11569156E+04</rscale>
<asrwt>0</asrwt>
<pdfrwt beam="1">  1        1 0.20486236E+00 0.11569156E+04</pdfrwt>
<pdfrwt beam="2">  1       -2 0.38659346E-01 0.11569156E+04</pdfrwt>
<totfact> 0.47264155E+01</totfact>
</mgrwt>
</event>
<event>
12    5  0.5095719E-008  0.1263963E+04  0.7818608E-02  0.9058641E-01
          1   -1    0    0  501    0  0.00000000000E+00  0.00000000000E+00  0.37664122473E+03  0.37664122473E+03  0.00000000000E+00 0. -1.
         -2   -1    0    0    0  501 -0.00000000000E+00 -0.00000000000E+00 -0.10604274974E+04  0.10604274974E+04  0.00000000000E+00 0.  1.
        -24    2    1    2    0    0  0.27110454548E+03  0.87902116483E+02 -0.29447014661E+03  0.41754242234E+03  0.80028435856E+02 0.  0.
        254    2    1    2    0    0 -0.27110454548E+03 -0.87902116483E+02 -0.38931612608E+03  0.10195262998E+04  0.89813271476E+03 0.  0.
         23    2    4    4    0    0 -0.46762810629E+03 -0.22517828516E+03 -0.51254130029E+03  0.73492781228E+03  0.89660464314E+02 0.  0.
         23    2    4    4    0    0  0.19652356081E+03  0.13727616868E+03  0.12322517421E+03  0.28459848753E+03  0.91354250615E+02 0.  0.
          1    1    3    3  502    0  0.15497678024E+03  0.10386625449E+02 -0.13726169785E+03  0.20728352105E+03  0.00000000000E+00 0. -1.
         -2    1    3    3    0  502  0.11612776524E+03  0.77515491034E+02 -0.15720844876E+03  0.21025890129E+03  0.00000000000E+00 0.  1.
         13    1    5    5    0    0 -0.20443626262E+03 -0.73747400678E+02 -0.16140970767E+03  0.27071379409E+03  0.00000000000E+00 0.  1.
        -13    1    5    5    0    0 -0.26319184368E+03 -0.15143088448E+03 -0.35113159262E+03  0.46421401819E+03  0.00000000000E+00 0. -1.
          3    1    6    6  503    0  0.17576381290E+03  0.13293513438E+03  0.13683337464E+03  0.25939938376E+03  0.00000000000E+00 0. -1.
         -3    1    6    6    0  503  0.20759747914E+02  0.43410342932E+01 -0.13608200429E+02  0.25199103776E+02  0.00000000000E+00 0.  1.
<mgrwt>
<rscale>  0 0.12639632E+04</rscale>
<asrwt>0</asrwt>
<pdfrwt beam="1">  1        1 0.57944805E-01 0.12639632E+04</pdfrwt>
<pdfrwt beam="2">  1       -2 0.16314269E+00 0.12639632E+04</pdfrwt>
<totfact> 0.13344224E+01</totfact>
</mgrwt>
</event>
<event>
12    5  0.5095719E-008  0.1207850E+04  0.7818608E-02  0.9106013E-01
         -2   -1    0    0    0  501 -0.00000000000E+00  0.00000000000E+00  0.17074441030E+03  0.17074441030E+03  0.00000000000E+00 0.  1.
          1   -1    0    0  501    0  0.00000000000E+00 -0.00000000000E+00 -0.21360889600E+04  0.21360889600E+04  0.00000000000E+00 0. -1.
        -24    2    1    2    0    0 -0.17562724582E+03 -0.13475947717E+03 -0.71294669897E+03  0.75071438033E+03  0.79208832288E+02 0.  0.
        254    2    1    2    0    0  0.17562724582E+03  0.13475947717E+03 -0.12523978507E+04  0.15561189899E+04  0.89666096615E+03 0.  0.
         23    2    4    4    0    0  0.14958521967E+03 -0.20966859965E+03 -0.11517374605E+04  0.11838045964E+04  0.92506675193E+02 0.  0.
         23    2    4    4    0    0  0.26042026152E+02  0.34442807682E+03 -0.10066039019E+03  0.37231439350E+03  0.95794604363E+02 0.  0.
          3    1    3    3  502    0 -0.17457082275E+02 -0.95988785913E+01 -0.17617065071E+03  0.17729350344E+03  0.00000000000E+00 0. -1.
         -4    1    3    3    0  502 -0.15817016355E+03 -0.12516059858E+03 -0.53677604826E+03  0.57342087689E+03  0.00000000000E+00 0.  1.
         13    1    5    5    0    0  0.15841052355E+03 -0.17870780003E+03 -0.95239154389E+03  0.98187576844E+03  0.00000000000E+00 0. -1.
        -13    1    5    5    0    0 -0.88253038794E+01 -0.30960799623E+02 -0.19934591663E+03  0.20192882800E+03  0.00000000000E+00 0.  1.
          1    1    6    6  503    0 -0.36354822448E+02  0.12812506023E+03 -0.42503720700E+02  0.13980082421E+03  0.00000000000E+00 0. -1.
         -1    1    6    6    0  503  0.62396848600E+02  0.21630301659E+03 -0.58156669491E+02  0.23251356930E+03  0.00000000000E+00 0.  1.
<mgrwt>
<rscale>  0 0.12078497E+04</rscale>
<asrwt>0</asrwt>
<pdfrwt beam="1">  1        1 0.32862909E+00 0.12078497E+04</pdfrwt>
<pdfrwt beam="2">  1       -2 0.26268369E-01 0.12078497E+04</pdfrwt>
<totfact> 0.27492262E+01</totfact>
</mgrwt>
</event>
<event>
12    5  0.5095719E-008  0.1664177E+04  0.7818608E-02  0.8782063E-01
         -2   -1    0    0    0  501 -0.00000000000E+00  0.00000000000E+00  0.32296172884E+03  0.32296172884E+03  0.00000000000E+00 0.  1.
          1   -1    0    0  501    0  0.00000000000E+00 -0.00000000000E+00 -0.21438184406E+04  0.21438184406E+04  0.00000000000E+00 0. -1.
        -24    2    1    2    0    0  0.45962832998E+03  0.13965833402E+01 -0.11836957854E+04  0.12723219626E+04  0.80045686443E+02 0.  0.
        254    2    1    2    0    0 -0.45962832998E+03 -0.13965833402E+01 -0.63716092641E+03  0.11944582069E+04  0.89972007299E+03 0.  0.
         23    2    4    4    0    0 -0.38516962169E+02 -0.40098861142E+03 -0.34511761413E+03  0.53819002294E+03  0.90922551360E+02 0.  0.
         23    2    4    4    0    0 -0.42111136781E+03  0.39959202808E+03 -0.29204331228E+03  0.65626818397E+03  0.91597270898E+02 0.  0.
          3    1    3    3  502    0  0.42628153851E+03  0.21228394695E+02 -0.10606575369E+04  0.11433114210E+04  0.00000000000E+00 0. -1.
         -4    1    3    3    0  502  0.33346791469E+02 -0.19831811355E+02 -0.12303824851E+03  0.12901054158E+03  0.00000000000E+00 0.  1.
         13    1    5    5    0    0 -0.42335564645E+02 -0.73685250559E+02 -0.83778335164E+02  0.11933409247E+03  0.00000000000E+00 0.  1.
        -13    1    5    5    0    0  0.38186024755E+01 -0.32730336086E+03 -0.26133927896E+03  0.41885593047E+03  0.00000000000E+00 0. -1.
          3    1    6    6  503    0 -0.34894100998E+03  0.29409979566E+03 -0.25697550956E+03  0.52372791673E+03  0.00000000000E+00 0. -1.
         -3    1    6    6    0  503 -0.72170357827E+02  0.10549223243E+03 -0.35067802722E+02  0.13254026724E+03  0.00000000000E+00 0.  1.
<mgrwt>
<rscale>  0 0.16641770E+04</rscale>
<asrwt>0</asrwt>
<pdfrwt beam="1">  1        1 0.32981823E+00 0.16641770E+04</pdfrwt>
<pdfrwt beam="2">  1       -2 0.49686419E-01 0.16641770E+04</pdfrwt>
<totfact> 0.76481335E+00</totfact>
</mgrwt>
</event>
<event>
12    5  0.5095719E-008  0.1277676E+04  0.7818608E-02  0.9047458E-01
         -2   -1    0    0    0  501 -0.00000000000E+00  0.00000000000E+00  0.34295181258E+03  0.34295181258E+03  0.00000000000E+00 0.  1.
          1   -1    0    0  501    0  0.00000000000E+00 -0.00000000000E+00 -0.11900030093E+04  0.11900030093E+04  0.00000000000E+00 0. -1.
        -24    2    1    2    0    0  0.10073412118E+03  0.15230477280E+03  0.91496821507E+02  0.21630809695E+03  0.71227926229E+02 0.  0.
        254    2    1    2    0    0 -0.10073412118E+03 -0.15230477280E+03 -0.93854801819E+03  0.13166467249E+04  0.90517518124E+03 0.  0.
         23    2    4    4    0    0 -0.48258182675E+03 -0.13483731511E+03 -0.66669378033E+03  0.83894100720E+03  0.90967553435E+02 0.  0.
         23    2    4    4    0    0  0.38184770557E+03 -0.17467457689E+02 -0.27185423786E+03  0.47770571769E+03  0.90472336923E+02 0.  0.
          1    1    3    3  502    0  0.50632593879E+02  0.26847392364E+02  0.46872779910E+02  0.74037149703E+02  0.00000000000E+00 0. -1.
         -2    1    3    3    0  502  0.50101527301E+02  0.12545738043E+03  0.44624041597E+02  0.14227094725E+03  0.00000000000E+00 0.  1.
         13    1    5    5    0    0 -0.11202695683E+03  0.11678034187E+01 -0.11470066701E+03  0.16033604035E+03  0.00000000000E+00 0.  1.
        -13    1    5    5    0    0 -0.37055486992E+03 -0.13600511852E+03 -0.55199311332E+03  0.67860496685E+03  0.00000000000E+00 0. -1.
          1    1    6    6  503    0  0.33370471740E+03  0.15814107572E+02 -0.22577642722E+03  0.40321696331E+03  0.00000000000E+00 0. -1.
         -1    1    6    6    0  503  0.48142988165E+02 -0.33281565261E+02 -0.46077810640E+02  0.74488754380E+02  0.00000000000E+00 0.  1.
<mgrwt>
<rscale>  0 0.12776755E+04</rscale>
<asrwt>0</asrwt>
<pdfrwt beam="1">  1        1 0.18307739E+00 0.12776755E+04</pdfrwt>
<pdfrwt beam="2">  1       -2 0.52761817E-01 0.12776755E+04</pdfrwt>
<totfact> 0.31782910E+01</totfact>
</mgrwt>
</event>
<event>
12    5  0.5095719E-008  0.1351520E+04  0.7818608E-02  0.8989678E-01
         -2   -1    0    0    0  501 -0.00000000000E+00  0.00000000000E+00  0.23575349294E+03  0.23575349294E+03  0.00000000000E+00 0.  1.
          1   -1    0    0  501    0  0.00000000000E+00 -0.00000000000E+00 -0.19369872724E+04  0.19369872724E+04  0.00000000000E+00 0. -1.
        -24    2    1    2    0    0  0.15599113421E+03  0.22600431451E+03 -0.63134885429E+02  0.29280795362E+03  0.79619720003E+02 0.  0.
        254    2    1    2    0    0 -0.15599113421E+03 -0.22600431451E+03 -0.16380988940E+04  0.18799328117E+04  0.88054994512E+03 0.  0.
         23    2    4    4    0    0 -0.18226656545E+03 -0.14828885541E+03 -0.17151836254E+04  0.17335947368E+04  0.91022839737E+02 0.  0.
         23    2    4    4    0    0  0.26275431239E+02 -0.77715459102E+02  0.77084731346E+02  0.14633807488E+03  0.93502328754E+02 0.  0.
          1    1    3    3  502    0  0.49437113231E+02  0.63722931698E+02 -0.56657714992E+02  0.98563364679E+02  0.00000000000E+00 0. -1.
         -2    1    3    3    0  502  0.10655402098E+03  0.16228138282E+03 -0.64771704367E+01  0.19424458894E+03  0.00000000000E+00 0.  1.
         13    1    5    5    0    0 -0.14440978265E+03 -0.10912121398E+03 -0.99313618278E+03  0.10094954691E+04  0.00000000000E+00 0.  1.
        -13    1    5    5    0    0 -0.37856782800E+02 -0.39167641433E+02 -0.72204744259E+03  0.72409926770E+03  0.00000000000E+00 0. -1.
          4    1    6    6  503    0  0.16282425418E+02 -0.65342259968E+02 -0.29469674757E+00  0.67341036237E+02  0.00000000000E+00 0. -1.
         -4    1    6    6    0  503  0.99930058205E+01 -0.12373199134E+02  0.77379428094E+02  0.78997038642E+02  0.00000000000E+00 0.  1.
<mgrwt>
<rscale>  0 0.13515199E+04</rscale>
<asrwt>0</asrwt>
<pdfrwt beam="1">  1        1 0.29799803E+00 0.13515199E+04</pdfrwt>
<pdfrwt beam="2">  1       -2 0.36269769E-01 0.13515199E+04</pdfrwt>
<totfact> 0.20228168E+01</totfact>
</mgrwt>
</event>
<event>
12    5  0.5095719E-008  0.1306225E+04  0.7818608E-02  0.9024643E-01
          1   -1    0    0  501    0  0.00000000000E+00  0.00000000000E+00  0.14828413277E+04  0.14828413277E+04  0.00000000000E+00 0. -1.
         -2   -1    0    0    0  501 -0.00000000000E+00 -0.00000000000E+00 -0.28766134564E+03  0.28766134564E+03  0.00000000000E+00 0.  1.
        -24    2    1    2    0    0  0.29925807998E+03 -0.33665968310E+02  0.52455124390E+03  0.61019723841E+03  0.80609344602E+02 0.  0.
        254    2    1    2    0    0 -0.29925807998E+03  0.33665968310E+02  0.67062873818E+03  0.11603054349E+04  0.89770652332E+03 0.  0.
         23    2    4    4    0    0 -0.63621224334E+02  0.28879966976E+03 -0.87931586775E+02  0.32199799388E+03  0.92183700694E+02 0.  0.
         23    2    4    4    0    0 -0.23563685565E+03 -0.25513370145E+03  0.75856032495E+03  0.83830744105E+03  0.82022349268E+02 0.  0.
          1    1    3    3  502    0  0.83708897894E+02 -0.12781108509E+02  0.83886407093E+02  0.11919507379E+03  0.00000000000E+00 0. -1.
         -2    1    3    3    0  502  0.21554918209E+03 -0.20884859802E+02  0.44066483680E+03  0.49100216462E+03  0.00000000000E+00 0.  1.
         13    1    5    5    0    0 -0.36420768173E+02  0.25329295207E+03 -0.44662837965E+02  0.25976635852E+03  0.00000000000E+00 0. -1.
        -13    1    5    5    0    0 -0.27200456161E+02  0.35506717683E+02 -0.43268748809E+02  0.62231635359E+02  0.00000000000E+00 0.  1.
          1    1    6    6  503    0 -0.18781911694E+03 -0.15656809600E+03  0.47323828911E+03  0.53267632541E+03  0.00000000000E+00 0. -1.
         -1    1    6    6    0  503 -0.47817738713E+02 -0.98565605441E+02  0.28532203584E+03  0.30563111564E+03  0.00000000000E+00 0.  1.
<mgrwt>
<rscale>  0 0.13062253E+04</rscale>
<asrwt>0</asrwt>
<pdfrwt beam="1">  1        1 0.22812943E+00 0.13062253E+04</pdfrwt>
<pdfrwt beam="2">  1       -2 0.44255593E-01 0.13062253E+04</pdfrwt>
<totfact> 0.28051839E+01</totfact>
</mgrwt>
</event>
<event>
12    5  0.5095719E-008  0.2307712E+04  0.7818608E-02  0.8474887E-01
          1   -1    0    0  501    0  0.00000000000E+00  0.00000000000E+00  0.15428706829E+04  0.15428706829E+04  0.00000000000E+00 0. -1.
         -2   -1    0    0    0  501 -0.00000000000E+00 -0.00000000000E+00 -0.86292643674E+03  0.86292643674E+03  0.00000000000E+00 0.  1.
        -24    2    1    2    0    0 -0.72637295073E+03 -0.85897434524E+02 -0.38447999117E+03  0.83047005442E+03  0.82822791977E+02 0.  0.
        254    2    1    2    0    0  0.72637295073E+03  0.85897434524E+02  0.10644242373E+04  0.15753270652E+04  0.90203124809E+03 0.  0.
         23    2    4    4    0    0  0.79237160365E+03 -0.94384733361E+02  0.43861131828E+03  0.91518418775E+03  0.91765858737E+02 0.  0.
         23    2    4    4    0    0 -0.65998652921E+02  0.18028216788E+03  0.62581291902E+03  0.66014287743E+03  0.85377554165E+02 0.  0.
          3    1    3    3  502    0 -0.24747054601E+03 -0.60677426300E+02 -0.10649581026E+03  0.27616078434E+03  0.00000000000E+00 0. -1.
         -4    1    3    3    0  502 -0.47890240472E+03 -0.25220008223E+02 -0.27798418091E+03  0.55430927008E+03  0.00000000000E+00 0.  1.
         13    1    5    5    0    0  0.13526995048E+03 -0.32323879881E+01  0.39369184188E+02  0.14091962425E+03  0.00000000000E+00 0.  1.
        -13    1    5    5    0    0  0.65710165317E+03 -0.91152345373E+02  0.39924213409E+03  0.77426456351E+03  0.00000000000E+00 0. -1.
          4    1    6    6  503    0 -0.83233340786E+02  0.13496161104E+03  0.42663479423E+03  0.45514796838E+03  0.00000000000E+00 0. -1.
         -4    1    6    6    0  503  0.17234687865E+02  0.45320556846E+02  0.19917812480E+03  0.20499490905E+03  0.00000000000E+00 0.  1.
<mgrwt>
<rscale>  0 0.23077122E+04</rscale>
<asrwt>0</asrwt>
<pdfrwt beam="1">  1        1 0.23736472E+00 0.23077122E+04</pdfrwt>
<pdfrwt beam="2">  1       -2 0.13275791E+00 0.23077122E+04</pdfrwt>
<totfact> 0.19951869E+00</totfact>
</mgrwt>
</event>
<event>
12    5  0.5095719E-008  0.4310603E+04  0.7818608E-02  0.7944660E-01
          1   -1    0    0  501    0  0.00000000000E+00  0.00000000000E+00  0.20830161000E+04  0.20830161000E+04  0.00000000000E+00 0. -1.
         -2   -1    0    0    0  501 -0.00000000000E+00 -0.00000000000E+00 -0.22300949778E+04  0.22300949778E+04  0.00000000000E+00 0.  1.
        -24    2    1    2    0    0  0.27770355463E+03  0.28343674234E+03  0.19445319707E+04  0.19862855742E+04  0.81670961442E+02 0.  0.
        254    2    1    2    0    0 -0.27770355463E+03 -0.28343674234E+03 -0.20916108486E+04  0.23268255036E+04  0.93905555287E+03 0.  0.
         23    2    4    4    0    0 -0.58733676601E+03 -0.67251164435E+02 -0.96701168539E+03  0.11371087378E+04  0.91746859090E+02 0.  0.
         23    2    4    4    0    0  0.30963321139E+03 -0.21618557791E+03 -0.11245991632E+04  0.11897167658E+04  0.89965411791E+02 0.  0.
          3    1    3    3  502    0  0.26770793351E+03  0.28865776131E+03  0.18988380073E+04  0.19392206215E+04  0.00000000000E+00 0. -1.
         -4    1    3    3    0  502  0.99956211141E+01 -0.52210189685E+01  0.45693963467E+02  0.47064952755E+02  0.00000000000E+00 0.  1.
         13    1    5    5    0    0 -0.35801600529E+03 -0.11636974079E+02 -0.64649890604E+03  0.73910196504E+03  0.00000000000E+00 0. -1.
        -13    1    5    5    0    0 -0.22932076072E+03 -0.55614190357E+02 -0.32051277935E+03  0.39800677280E+03  0.00000000000E+00 0.  1.
          3    1    6    6  503    0  0.73448779415E+02 -0.10244313282E+03 -0.36213045158E+03  0.38344201989E+03  0.00000000000E+00 0. -1.
         -3    1    6    6    0  503  0.23618443197E+03 -0.11374244509E+03 -0.76246871160E+03  0.80627474591E+03  0.00000000000E+00 0.  1.
<mgrwt>
<rscale>  0 0.43106026E+04</rscale>
<asrwt>0</asrwt>
<pdfrwt beam="1">  1        1 0.32046402E+00 0.43106026E+04</pdfrwt>
<pdfrwt beam="2">  1       -2 0.34309153E+00 0.43106026E+04</pdfrwt>
<totfact> 0.30178825E-02</totfact>
</mgrwt>
</event>
<event>
12    5  0.5095719E-008  0.1749508E+04  0.7818608E-02  0.8733621E-01
          1   -1    0    0  501    0  0.00000000000E+00  0.00000000000E+00  0.25337060095E+04  0.25337060095E+04  0.00000000000E+00 0. -1.
         -2   -1    0    0    0  501 -0.00000000000E+00 -0.00000000000E+00 -0.30200609163E+03  0.30200609163E+03  0.00000000000E+00 0.  1.
        -24    2    1    2    0    0  0.36469868622E+03 -0.49567865164E+03  0.11011627722E+04  0.12640493948E+04  0.80987432753E+02 0.  0.
        254    2    1    2    0    0 -0.36469868622E+03  0.49567865164E+03  0.11305371457E+04  0.15716627063E+04  0.90183533264E+03 0.  0.
         23    2    4    4    0    0  0.18836548503E+03  0.47393694892E+03  0.41984345858E+03  0.66640941639E+03  0.87949946198E+02 0.  0.
         23    2    4    4    0    0 -0.55306417125E+03  0.21741702716E+02  0.71069368710E+03  0.90525328991E+03  0.89695723733E+02 0.  0.
          3    1    3    3  502    0  0.31308608117E+03 -0.43087343404E+03  0.10026326738E+04  0.11353180563E+04  0.00000000000E+00 0. -1.
         -4    1    3    3    0  502  0.51612605053E+02 -0.64805217604E+02  0.98530098373E+02  0.12873133851E+03  0.00000000000E+00 0.  1.
         13    1    5    5    0    0  0.45734396541E+02  0.22845263360E+03  0.17295844974E+03  0.29016696256E+03  0.00000000000E+00 0. -1.
        -13    1    5    5    0    0  0.14263108849E+03  0.24548431532E+03  0.24688500884E+03  0.37624245383E+03  0.00000000000E+00 0.  1.
          1    1    6    6  503    0 -0.27092885234E+03 -0.34051249857E+02  0.33992862155E+03  0.43601995184E+03  0.00000000000E+00 0. -1.
         -1    1    6    6    0  503 -0.28213531890E+03  0.55792952573E+02  0.37076506555E+03  0.46923333807E+03  0.00000000000E+00 0.  1.
<mgrwt>
<rscale>  0 0.17495081E+04</rscale>
<asrwt>0</asrwt>
<pdfrwt beam="1">  1        1 0.38980091E+00 0.17495081E+04</pdfrwt>
<pdfrwt beam="2">  1       -2 0.46462477E-01 0.17495081E+04</pdfrwt>
<totfact> 0.46983134E+00</totfact>
</mgrwt>
</event>
<event>
12    5  0.5095719E-008  0.1255433E+04  0.7818608E-02  0.9065674E-01
         -2   -1    0    0    0  501 -0.00000000000E+00  0.00000000000E+00  0.24278363362E+03  0.24278363362E+03  0.00000000000E+00 0.  1.
          1   -1    0    0  501    0  0.00000000000E+00 -0.00000000000E+00 -0.16229587304E+04  0.16229587304E+04  0.00000000000E+00 0. -1.
        -24    2    1    2    0    0 -0.11975727565E+02 -0.29512616246E+03 -0.35892142250E+03  0.47145400961E+03  0.78749132240E+02 0.  0.
        254    2    1    2    0    0  0.11975727565E+02  0.29512616246E+03 -0.10212536743E+04  0.13942883544E+04  0.90212974573E+03 0.  0.
         23    2    4    4    0    0 -0.59283299265E+02 -0.14341467135E+03  0.84644189125E+02  0.19895106913E+03  0.91294094142E+02 0.  0.
         23    2    4    4    0    0  0.71259026830E+02  0.43854083381E+03 -0.11058978634E+04  0.11953372852E+04  0.91789048576E+02 0.  0.
          1    1    3    3  502    0 -0.22534241181E+02 -0.24118151660E+03 -0.32994326396E+03  0.40931512726E+03  0.00000000000E+00 0. -1.
         -2    1    3    3    0  502  0.10558513616E+02 -0.53944645860E+02 -0.28978158540E+02  0.62138882345E+02  0.00000000000E+00 0.  1.
         13    1    5    5    0    0 -0.64138437405E+02 -0.14495041257E+03  0.96830837000E+02  0.18574329665E+03  0.00000000000E+00 0. -1.
        -13    1    5    5    0    0  0.48551381404E+01  0.15357412180E+01 -0.12186647875E+02  0.13207772480E+02  0.00000000000E+00 0.  1.
          4    1    6    6  503    0  0.54621534781E+02  0.33126472367E+03 -0.71946705453E+03  0.79394752457E+03  0.00000000000E+00 0. -1.
         -4    1    6    6    0  503  0.16637492048E+02  0.10727611015E+03 -0.38643080884E+03  0.40138976067E+03  0.00000000000E+00 0.  1.
<mgrwt>
<rscale>  0 0.12554327E+04</rscale>
<asrwt>0</asrwt>
<pdfrwt beam="1">  1        1 0.24968595E+00 0.12554327E+04</pdfrwt>
<pdfrwt beam="2">  1       -2 0.37351329E-01 0.12554327E+04</pdfrwt>
<totfact> 0.31467880E+01</totfact>
</mgrwt>
</event>
<event>
12    5  0.5095719E-008  0.2637259E+04  0.7818608E-02  0.8355654E-01
          1   -1    0    0  501    0  0.00000000000E+00  0.00000000000E+00  0.93730425503E+03  0.93730425503E+03  0.00000000000E+00 0. -1.
         -2   -1    0    0    0  501 -0.00000000000E+00 -0.00000000000E+00 -0.18550896667E+04  0.18550896667E+04  0.00000000000E+00 0.  1.
        -24    2    1    2    0    0 -0.11350101614E+04  0.29731717164E+03 -0.29549278402E+03  0.12126280940E+04  0.80655700764E+02 0.  0.
        254    2    1    2    0    0  0.11350101614E+04 -0.29731717164E+03 -0.62229262766E+03  0.15797658277E+04  0.85543345099E+03 0.  0.
         23    2    4    4    0    0 -0.99930385851E+02 -0.41362481733E+02 -0.20181284847E+03  0.24713709218E+03  0.93012792753E+02 0.  0.
         23    2    4    4    0    0  0.12349405472E+04 -0.25595468991E+03 -0.42047977919E+03  0.13326287355E+04  0.92223335798E+02 0.  0.
          3    1    3    3  502    0 -0.10104044904E+04  0.25555041246E+03 -0.23726134577E+03  0.10688854914E+04  0.00000000000E+00 0. -1.
         -4    1    3    3    0  502 -0.12460567094E+03  0.41766759188E+02 -0.58231438252E+02  0.14374260261E+03  0.00000000000E+00 0.  1.
         13    1    5    5    0    0 -0.17871955728E+02 -0.31839364092E+02 -0.13800821906E+03  0.14275650751E+03  0.00000000000E+00 0. -1.
        -13    1    5    5    0    0 -0.82058430123E+02 -0.95231176409E+01 -0.63804629404E+02  0.10438058468E+03  0.00000000000E+00 0.  1.
          1    1    6    6  503    0  0.29062999891E+03 -0.23349295114E+02 -0.11205099007E+03  0.31235622328E+03  0.00000000000E+00 0. -1.
         -1    1    6    6    0  503  0.94431054830E+03 -0.23260539480E+03 -0.30842878912E+03  0.10202725123E+04  0.00000000000E+00 0.  1.
<mgrwt>
<rscale>  0 0.26372588E+04</rscale>
<asrwt>0</asrwt>
<pdfrwt beam="1">  1        1 0.14420065E+00 0.26372588E+04</pdfrwt>
<pdfrwt beam="2">  1       -2 0.28539841E+00 0.26372588E+04</pdfrwt>
<totfact> 0.51006048E-01</totfact>
</mgrwt>
</event>
<event>
12    5  0.5095719E-008  0.2613860E+04  0.7818608E-02  0.8363508E-01
         -2   -1    0    0    0  501 -0.00000000000E+00  0.00000000000E+00  0.92044937295E+03  0.92044937295E+03  0.00000000000E+00 0.  1.
          1   -1    0    0  501    0  0.00000000000E+00 -0.00000000000E+00 -0.18556875255E+04  0.18556875255E+04  0.00000000000E+00 0. -1.
        -24    2    1    2    0    0 -0.40507696816E+03 -0.78809311908E+03 -0.11926492741E+04  0.14878563549E+04  0.78269582320E+02 0.  0.
        254    2    1    2    0    0  0.40507696816E+03  0.78809311908E+03  0.25741112151E+03  0.12882805435E+04  0.89901510492E+03 0.  0.
         23    2    4    4    0    0  0.33751584885E+03  0.80120196704E+03  0.50900277531E+03  0.10115379347E+04  0.91014437112E+02 0.  0.
         23    2    4    4    0    0  0.67561119318E+02 -0.13108847967E+02 -0.25159165380E+03  0.27674260887E+03  0.92475751216E+02 0.  0.
          1    1    3    3  502    0 -0.34300129752E+03 -0.68724394024E+03 -0.10723579434E+04  0.13190548443E+04  0.00000000000E+00 0. -1.
         -2    1    3    3    0  502 -0.62075670646E+02 -0.10084917883E+03 -0.12029133062E+03  0.16880151060E+03  0.00000000000E+00 0.  1.
         13    1    5    5    0    0  0.15683518023E+03  0.44302255536E+03  0.31625069635E+03  0.56646338034E+03  0.00000000000E+00 0. -1.
        -13    1    5    5    0    0  0.18068066861E+03  0.35817941168E+03  0.19275207896E+03  0.44507455432E+03  0.00000000000E+00 0.  1.
          3    1    6    6  503    0  0.72438939432E-01 -0.40736535348E+02 -0.11330896395E+03  0.12040926821E+03  0.00000000000E+00 0.  1.
         -3    1    6    6    0  503  0.67488680379E+02  0.27627687380E+02 -0.13828268985E+03  0.15633334066E+03  0.00000000000E+00 0. -1.
<mgrwt>
<rscale>  0 0.26138603E+04</rscale>
<asrwt>0</asrwt>
<pdfrwt beam="1">  1        1 0.28549039E+00 0.26138603E+04</pdfrwt>
<pdfrwt beam="2">  1       -2 0.14160760E+00 0.26138603E+04</pdfrwt>
<totfact> 0.10062872E+00</totfact>
</mgrwt>
</event>
<event>
12    5  0.5095719E-008  0.1531836E+04  0.7818608E-02  0.8863554E-01
          1   -1    0    0  501    0  0.00000000000E+00  0.00000000000E+00  0.65716659475E+03  0.65716659475E+03  0.00000000000E+00 0. -1.
         -2   -1    0    0    0  501 -0.00000000000E+00 -0.00000000000E+00 -0.89266571669E+03  0.89266571669E+03  0.00000000000E+00 0.  1.
        -24    2    1    2    0    0  0.86062961230E+02  0.48511421549E+03 -0.72854915563E+02  0.50457720462E+03  0.80917744246E+02 0.  0.
        254    2    1    2    0    0 -0.86062961230E+02 -0.48511421549E+03 -0.16264420638E+03  0.10452551068E+04  0.90739322517E+03 0.  0.
         23    2    4    4    0    0 -0.13788289827E+02 -0.11487800870E+03  0.36237446609E+03  0.39154854728E+03  0.92778970563E+02 0.  0.
         23    2    4    4    0    0 -0.72274671403E+02 -0.37023620679E+03 -0.52501867247E+03  0.65370655954E+03  0.96897794561E+02 0.  0.
          1    1    3    3  502    0  0.85802045525E+02  0.48420491119E+03 -0.79266733086E+02  0.49809597671E+03  0.00000000000E+00 0. -1.
         -2    1    3    3    0  502  0.26091570494E+00  0.90930429945E+00  0.64118175226E+01  0.64812279128E+01  0.00000000000E+00 0.  1.
         13    1    5    5    0    0 -0.48287450538E+02 -0.40835275837E+02  0.11791480124E+03  0.13380245881E+03  0.00000000000E+00 0.  1.
        -13    1    5    5    0    0  0.34499160711E+02 -0.74042732867E+02  0.24445966485E+03  0.25774608847E+03  0.00000000000E+00 0. -1.
          4    1    6    6  503    0 -0.37491365413E+02 -0.62537795052E+02 -0.57136937957E+02  0.92634809707E+02  0.00000000000E+00 0. -1.
         -4    1    6    6    0  503 -0.34783305990E+02 -0.30769841174E+03 -0.46788173452E+03  0.56107174983E+03  0.00000000000E+00 0.  1.
<mgrwt>
<rscale>  0 0.15318356E+04</rscale>
<asrwt>0</asrwt>
<pdfrwt beam="1">  1        1 0.10110255E+00 0.15318356E+04</pdfrwt>
<pdfrwt beam="2">  1       -2 0.13733319E+00 0.15318356E+04</pdfrwt>
<totfact> 0.95503066E+00</totfact>
</mgrwt>
</event>
<event>
12    5  0.5095719E-008  0.1759937E+04  0.7818608E-02  0.8727900E-01
         -4   -1    0    0    0  501 -0.00000000000E+00  0.00000000000E+00  0.13742702653E+04  0.13742702653E+04  0.00000000000E+00 0.  1.
          3   -1    0    0  501    0  0.00000000000E+00 -0.00000000000E+00 -0.56345862621E+03  0.56345862621E+03  0.00000000000E+00 0. -1.
        -24    2    1    2    0    0  0.19480876491E+03 -0.33797061635E+03  0.87366193364E+03  0.96021462138E+03  0.80946602252E+02 0.  0.
        254    2    1    2    0    0 -0.19480876491E+03  0.33797061635E+03 -0.62850294549E+02  0.97751427013E+03  0.89409697258E+03 0.  0.
         23    2    4    4    0    0  0.28885422525E+02  0.47105509694E+03 -0.33781704780E+03  0.58774686935E+03  0.92729459467E+02 0.  0.
         23    2    4    4    0    0 -0.22369418744E+03 -0.13308448060E+03  0.27496675325E+03  0.38976740078E+03  0.92527524808E+02 0.  0.
          1    1    3    3  502    0  0.83800482251E+02 -0.18817813484E+03  0.37524812141E+03  0.42807088652E+03  0.00000000000E+00 0. -1.
         -2    1    3    3    0  502  0.11100828266E+03 -0.14979248150E+03  0.49841381223E+03  0.53214373486E+03  0.00000000000E+00 0.  1.
         13    1    5    5    0    0  0.78440708231E+01  0.33252903271E+03 -0.18575987897E+03  0.38097745297E+03  0.00000000000E+00 0. -1.
        -13    1    5    5    0    0  0.21041351702E+02  0.13852606424E+03 -0.15205716883E+03  0.20676941637E+03  0.00000000000E+00 0.  1.
          4    1    6    6  503    0 -0.22026605564E+03 -0.10236926795E+03  0.25864932063E+03  0.35481836670E+03  0.00000000000E+00 0. -1.
         -4    1    6    6    0  503 -0.34281318031E+01 -0.30715212647E+02  0.16317432618E+02  0.34949034076E+02  0.00000000000E+00 0.  1.
<mgrwt>
<rscale>  0 0.17599369E+04</rscale>
<asrwt>0</asrwt>
<pdfrwt beam="1">  1        3 0.86685943E-01 0.17599369E+04</pdfrwt>
<pdfrwt beam="2">  1       -4 0.21142619E+00 0.17599369E+04</pdfrwt>
<totfact> 0.29143988E-01</totfact>
</mgrwt>
</event>
<event>
12    5  0.5095719E-008  0.1920218E+04  0.7818608E-02  0.8644858E-01
         -2   -1    0    0    0  501 -0.00000000000E+00  0.00000000000E+00  0.21858466582E+04  0.21858466582E+04  0.00000000000E+00 0.  1.
          1   -1    0    0  501    0  0.00000000000E+00 -0.00000000000E+00 -0.42171723994E+03  0.42171723994E+03  0.00000000000E+00 0. -1.
        -24    2    1    2    0    0 -0.40820661556E+03  0.33832282292E+03 -0.39755634545E+02  0.53755003192E+03  0.79275171666E+02 0.  0.
        254    2    1    2    0    0  0.40820661556E+03 -0.33832282292E+03  0.18038850528E+04  0.20700138663E+04  0.86594523450E+03 0.  0.
         23    2    4    4    0    0  0.56410083153E+03 -0.39750908547E+03  0.17312708513E+04  0.18662173775E+04  0.96152580227E+02 0.  0.
         23    2    4    4    0    0 -0.15589421597E+03  0.59186262548E+02  0.72614201582E+02  0.20379648871E+03  0.91946540419E+02 0.  0.
          3    1    3    3  502    0 -0.32789134135E+03  0.24415214841E+03 -0.56356633389E+02  0.41267308300E+03  0.00000000000E+00 0. -1.
         -4    1    3    3    0  502 -0.80315274213E+02  0.94170674506E+02  0.16600998844E+02  0.12487694892E+03  0.00000000000E+00 0.  1.
         13    1    5    5    0    0  0.55445266851E+03 -0.40283455978E+03  0.17108189843E+04  0.18429853611E+04  0.00000000000E+00 0. -1.
        -13    1    5    5    0    0  0.96481630185E+01  0.53254743115E+01  0.20451866916E+02  0.23232016413E+02  0.00000000000E+00 0.  1.
          1    1    6    6  503    0 -0.13064091379E+03  0.78288074730E+02  0.38176462724E+02  0.15701437293E+03  0.00000000000E+00 0. -1.
         -1    1    6    6    0  503 -0.25253302170E+02 -0.19101812182E+02  0.34437738858E+02  0.46782115779E+02  0.00000000000E+00 0.  1.
<mgrwt>
<rscale>  0 0.19202179E+04</rscale>
<asrwt>0</asrwt>
<pdfrwt beam="1">  1        1 0.64879576E-01 0.19202179E+04</pdfrwt>
<pdfrwt beam="2">  1       -2 0.33628410E+00 0.19202179E+04</pdfrwt>
<totfact> 0.86855632E-01</totfact>
</mgrwt>
</event>
<event>
12    5  0.5095719E-008  0.2867289E+04  0.7818608E-02  0.8282677E-01
          1   -1    0    0  501    0  0.00000000000E+00  0.00000000000E+00  0.37972916380E+04  0.37972916380E+04  0.00000000000E+00 0. -1.
         -2   -1    0    0    0  501 -0.00000000000E+00 -0.00000000000E+00 -0.54126364726E+03  0.54126364726E+03  0.00000000000E+00 0.  1.
        -24    2    1    2    0    0  0.79726845020E+03  0.38593923729E+03  0.13206059135E+02  0.88952120150E+03  0.80544964857E+02 0.  0.
        254    2    1    2    0    0 -0.79726845020E+03 -0.38593923729E+03  0.32428219316E+04  0.34490340838E+04  0.77159312741E+03 0.  0.
         23    2    4    4    0    0 -0.41726870816E+03 -0.25679978365E+03  0.28019533536E+04  0.28459029802E+04  0.90343086831E+02 0.  0.
         23    2    4    4    0    0 -0.37999974203E+03 -0.12913945364E+03  0.44086857806E+03  0.60313110360E+03  0.91242657654E+02 0.  0.
          3    1    3    3  502    0  0.10786075557E+03  0.31808922896E+02  0.21215432436E+02  0.11443707766E+03  0.00000000000E+00 0. -1.
         -4    1    3    3    0  502  0.68940769462E+03  0.35413031440E+03 -0.80093733009E+01  0.77508412385E+03  0.00000000000E+00 0.  1.
         13    1    5    5    0    0 -0.71771887448E+02 -0.54484091770E+02  0.34665225834E+03  0.35817245609E+03  0.00000000000E+00 0. -1.
        -13    1    5    5    0    0 -0.34549682071E+03 -0.20231569188E+03  0.24553010952E+04  0.24877305241E+04  0.00000000000E+00 0.  1.
          3    1    6    6  503    0 -0.12222272163E+03 -0.86137186804E+02  0.14350020179E+03  0.20724458146E+03  0.00000000000E+00 0. -1.
         -3    1    6    6    0  503 -0.25777702041E+03 -0.43002266840E+02  0.29736837628E+03  0.39588652214E+03  0.00000000000E+00 0.  1.
<mgrwt>
<rscale>  0 0.28672886E+04</rscale>
<asrwt>0</asrwt>
<pdfrwt beam="1">  1        1 0.58419870E+00 0.28672886E+04</pdfrwt>
<pdfrwt beam="2">  1       -2 0.83271333E-01 0.28672886E+04</pdfrwt>
<totfact> 0.13698120E-01</totfact>
</mgrwt>
</event>
<event>
12    5  0.5095719E-008  0.1601532E+04  0.7818608E-02  0.8819607E-01
         -2   -1    0    0    0  501 -0.00000000000E+00  0.00000000000E+00  0.16647719783E+04  0.16647719783E+04  0.00000000000E+00 0.  1.
          1   -1    0    0  501    0  0.00000000000E+00 -0.00000000000E+00 -0.38517355622E+03  0.38517355622E+03  0.00000000000E+00 0. -1.
        -24    2    1    2    0    0 -0.14463971903E+03 -0.43859895724E+03  0.74776956283E+03  0.88269106070E+03  0.81819899371E+02 0.  0.
        254    2    1    2    0    0  0.14463971903E+03  0.43859895724E+03  0.53182885924E+03  0.11672544738E+04  0.93077998340E+03 0.  0.
         23    2    4    4    0    0  0.39712721056E+02 -0.25711878705E+03 -0.80550766197E+01  0.27559144544E+03  0.90546063844E+02 0.  0.
         23    2    4    4    0    0  0.10492699798E+03  0.69571774428E+03  0.53988393586E+03  0.89166302837E+03  0.92495607147E+02 0.  0.
          1    1    3    3  502    0  0.88773203660E+00 -0.42800198287E+02  0.38761810444E+02  0.57750523725E+02  0.00000000000E+00 0. -1.
         -2    1    3    3    0  502 -0.14552745107E+03 -0.39579875895E+03  0.70900775239E+03  0.82494053698E+03  0.00000000000E+00 0.  1.
         13    1    5    5    0    0  0.33149214652E+01 -0.22695013784E+03 -0.16478133861E+02  0.22757170885E+03  0.00000000000E+00 0.  1.
        -13    1    5    5    0    0  0.36397799591E+02 -0.30168649202E+02  0.84230572414E+01  0.48019736599E+02  0.00000000000E+00 0. -1.
          1    1    6    6  503    0  0.58232242111E+01  0.35088525565E+01  0.17628844478E+02  0.18894394516E+02  0.00000000000E+00 0. -1.
         -1    1    6    6    0  503  0.99103773766E+02  0.69220889172E+03  0.52225509138E+03  0.87276863385E+03  0.00000000000E+00 0.  1.
<mgrwt>
<rscale>  0 0.16015319E+04</rscale>
<asrwt>0</asrwt>
<pdfrwt beam="1">  1        1 0.59257471E-01 0.16015319E+04</pdfrwt>
<pdfrwt beam="2">  1       -2 0.25611876E+00 0.16015319E+04</pdfrwt>
<totfact> 0.31201117E+00</totfact>
</mgrwt>
</event>
<event>
12    5  0.5095719E-008  0.1975315E+04  0.7818608E-02  0.8618249E-01
          1   -1    0    0  501    0  0.00000000000E+00  0.00000000000E+00  0.16816484898E+04  0.16816484898E+04  0.00000000000E+00 0. -1.
         -2   -1    0    0    0  501 -0.00000000000E+00 -0.00000000000E+00 -0.58006616258E+03  0.58006616258E+03  0.00000000000E+00 0.  1.
        -24    2    1    2    0    0  0.73814600706E+03  0.48871088647E+02  0.71811805444E+03  0.10342710521E+04  0.82311348429E+02 0.  0.
        254    2    1    2    0    0 -0.73814600706E+03 -0.48871088647E+02  0.38346427275E+03  0.12274436002E+04  0.90129075900E+03 0.  0.
         23    2    4    4    0    0  0.78710942282E+01 -0.22440249158E+03  0.38431741662E+03  0.45560333262E+03  0.97242416771E+02 0.  0.
         23    2    4    4    0    0 -0.74601710128E+03  0.17553140294E+03 -0.85314387055E+00  0.77184026763E+03  0.91563541051E+02 0.  0.
          3    1    3    3  502    0  0.31990509133E+03  0.35080079659E+02  0.36601760013E+03  0.48737948568E+03  0.00000000000E+00 0. -1.
         -4    1    3    3    0  502  0.41824091572E+03  0.13791008988E+02  0.35210045431E+03  0.54689156643E+03  0.00000000000E+00 0.  1.
         13    1    5    5    0    0  0.17448170855E+02 -0.10124501081E+01  0.53726982347E+02  0.56498250889E+02  0.00000000000E+00 0.  1.
        -13    1    5    5    0    0 -0.95770766263E+01 -0.22339004148E+03  0.33059043428E+03  0.39910508173E+03  0.00000000000E+00 0. -1.
          3    1    6    6  503    0 -0.29387282809E+03  0.91423093949E+02  0.38951113674E+02  0.31022026120E+03  0.00000000000E+00 0. -1.
         -3    1    6    6    0  503 -0.45214427319E+03  0.84108308988E+02 -0.39804257545E+02  0.46162000643E+03  0.00000000000E+00 0.  1.
<mgrwt>
<rscale>  0 0.19753150E+04</rscale>
<asrwt>0</asrwt>
<pdfrwt beam="1">  1        1 0.25871515E+00 0.19753150E+04</pdfrwt>
<pdfrwt beam="2">  1       -2 0.89240949E-01 0.19753150E+04</pdfrwt>
<totfact> 0.43144154E+00</totfact>
</mgrwt>
</event>
<event>
12    5  0.5095719E-008  0.2291326E+04  0.7818608E-02  0.8481349E-01
         -2   -1    0    0    0  501 -0.00000000000E+00  0.00000000000E+00  0.20577964752E+04  0.20577964752E+04  0.00000000000E+00 0.  1.
          1   -1    0    0  501    0  0.00000000000E+00 -0.00000000000E+00 -0.63783947141E+03  0.63783947141E+03  0.00000000000E+00 0. -1.
        -24    2    1    2    0    0 -0.72545676905E+03  0.23972316081E+03 -0.83269813604E+02  0.77282781852E+03  0.81081795995E+02 0.  0.
        254    2    1    2    0    0  0.72545676905E+03 -0.23972316081E+03  0.15032268174E+04  0.19228081281E+04  0.92398350381E+03 0.  0.
         23    2    4    4    0    0  0.23051574270E+03  0.10018571613E+03 -0.36095109810E+02  0.26805992277E+03  0.85898660609E+02 0.  0.
         23    2    4    4    0    0  0.49494102635E+03 -0.33990887694E+03  0.15393219272E+04  0.16547482054E+04  0.90415503267E+02 0.  0.
          3    1    3    3  502    0 -0.62434093500E+03  0.17559875197E+03 -0.67846217370E+02  0.65210400552E+03  0.00000000000E+00 0. -1.
         -4    1    3    3    0  502 -0.10111583405E+03  0.64124408843E+02 -0.15423596235E+02  0.12072381300E+03  0.00000000000E+00 0.  1.
         13    1    5    5    0    0  0.21996213907E+03  0.11023665966E+03 -0.20775076049E+02  0.24691510189E+03  0.00000000000E+00 0. -1.
        -13    1    5    5    0    0  0.10553603627E+02 -0.10050943533E+02 -0.15320033761E+02  0.21144820875E+02  0.00000000000E+00 0.  1.
          2    1    6    6  503    0  0.29872237055E+03 -0.24839478564E+03  0.91977246268E+03  0.99845701325E+03  0.00000000000E+00 0. -1.
         -2    1    6    6    0  503  0.19621865579E+03 -0.91514091304E+02  0.61954946457E+03  0.65629119211E+03  0.00000000000E+00 0.  1.
<mgrwt>
<rscale>  0 0.22913261E+04</rscale>
<asrwt>0</asrwt>
<pdfrwt beam="1">  1        1 0.98129150E-01 0.22913261E+04</pdfrwt>
<pdfrwt beam="2">  1       -2 0.31658407E+00 0.22913261E+04</pdfrwt>
<totfact> 0.62435867E-01</totfact>
</mgrwt>
</event>
<event>
12    5  0.5095719E-008  0.2056522E+04  0.7818608E-02  0.8580642E-01
         -2   -1    0    0    0  501 -0.00000000000E+00  0.00000000000E+00  0.73954118917E+03  0.73954118917E+03  0.00000000000E+00 0.  1.
          1   -1    0    0  501    0  0.00000000000E+00 -0.00000000000E+00 -0.14296976367E+04  0.14296976367E+04  0.00000000000E+00 0. -1.
        -24    2    1    2    0    0 -0.82714557798E+03  0.54434214599E+02 -0.25042345602E+03  0.86954697985E+03  0.79165345650E+02 0.  0.
        254    2    1    2    0    0  0.82714557798E+03 -0.54434214599E+02 -0.43973299151E+03  0.12996918460E+04  0.89927798811E+03 0.  0.
         23    2    4    4    0    0  0.62405851916E+03 -0.42726666611E+03 -0.14667160419E+03  0.77587223454E+03  0.91974591905E+02 0.  0.
         23    2    4    4    0    0  0.20308705882E+03  0.37283245151E+03 -0.29306138732E+03  0.52381961148E+03  0.90849426406E+02 0.  0.
          3    1    3    3  502    0 -0.74681405752E+03  0.29277931078E+02 -0.23855480185E+03  0.78453605860E+03  0.00000000000E+00 0. -1.
         -4    1    3    3    0  502 -0.80331520460E+02  0.25156283521E+02 -0.11868654165E+02  0.85010921250E+02  0.00000000000E+00 0.  1.
         13    1    5    5    0    0  0.17481266394E+03 -0.74526392463E+02 -0.22639532409E+02  0.19137972483E+03  0.00000000000E+00 0.  1.
        -13    1    5    5    0    0  0.44924585522E+03 -0.35274027364E+03 -0.12403207178E+03  0.58449250971E+03  0.00000000000E+00 0. -1.
          3    1    6    6  503    0  0.14383092031E+03  0.23439717691E+03 -0.13806718624E+03  0.30772051946E+03  0.00000000000E+00 0. -1.
         -3    1    6    6    0  503  0.59256138513E+02  0.13843527460E+03 -0.15499420108E+03  0.21609909202E+03  0.00000000000E+00 0.  1.
<mgrwt>
<rscale>  0 0.20565216E+04</rscale>
<asrwt>0</asrwt>
<pdfrwt beam="1">  1        1 0.21995348E+00 0.20565216E+04</pdfrwt>
<pdfrwt beam="2">  1       -2 0.11377557E+00 0.20565216E+04</pdfrwt>
<totfact> 0.35911814E+00</totfact>
</mgrwt>
</event>
